<event>
 9    1  0.1782981E-005  0.1007102E+03  0.7546771E-02  0.1279442E+00
          1   -1    0    0  502    0  0.00000000000E+00  0.00000000000E+00  0.30283064739E+03  0.30283064739E+03  0.00000000000E+00 0. -1.
         -1   -1    0    0    0  501 -0.00000000000E+00 -0.00000000000E+00 -0.64851777835E+02  0.64851777835E+02  0.00000000000E+00 0.  1.
         23    2    1    2    0    0 -0.42359028744E+02 -0.13211534056E+02  0.26280787793E+02  0.10568588601E+03  0.92249632772E+02 0.  0.
         23    2    1    2    0    0  0.10940750620E+02  0.47927491103E+02  0.11545601649E+03  0.15496924830E+03  0.90932017164E+02 0.  0.
        -11    1    3    3    0    0  0.10363545901E+02  0.23908380258E+02  0.31634572607E+02  0.40984874213E+02  0.00000000000E+00 0. -1.
         11    1    3    3    0    0 -0.52722574645E+02 -0.37119914314E+02 -0.53537848140E+01  0.64701011798E+02  0.00000000000E+00 0.  1.
        -11    1    4    4    0    0  0.37261160399E+02  0.35647470436E+01  0.89944333864E+02  0.97422198138E+02  0.00000000000E+00 0. -1.
         11    1    4    4    0    0 -0.26320409779E+02  0.44362744059E+02  0.25511682630E+02  0.57547050159E+02  0.00000000000E+00 0.  1.
         21    1    1    2  502  501  0.31418278124E+02 -0.34715957047E+02  0.96242065265E+02  0.10702729091E+03  0.00000000000E+00 0. -1.
<scales pt_clust_5="13000.00000" pt_clust_6="13000.00000" pt_clust_7="13000.00000" pt_clust_8="13000.00000" pt_clust_9="46.82207"></scales>
<clustering>
<clus scale="   46.822">  1  9  2 -1</clus>
<clus scale="   90.932">  7  8 -1 -1</clus>
<clus scale="   92.250">  5  6 -1 -1</clus>
<clus scale="   99.505">  1  7  2 -1</clus>
<clus scale="   46.822">  1  5  2 -1</clus>
</clustering>
</event>
<event>
 9    1  0.1782981E-005  0.1044441E+03  0.7546771E-02  0.1272047E+00
          2   -1    0    0  502    0  0.00000000000E+00  0.00000000000E+00  0.32581983630E+03  0.32581983630E+03  0.00000000000E+00 0. -1.
         -2   -1    0    0    0  501 -0.00000000000E+00 -0.00000000000E+00 -0.14497378552E+03  0.14497378552E+03  0.00000000000E+00 0.  1.
         23    2    1    2    0    0 -0.50210010901E+02  0.33073552904E+01 -0.10697429968E+03  0.14841635999E+03  0.89732554436E+02 0.  0.
         23    2    1    2    0    0  0.44969244580E+02 -0.33866051012E+02  0.25731396033E+03  0.27888083262E+03  0.91623699196E+02 0.  0.
        -11    1    4    4    0    0 -0.18759184842E+01  0.22634074083E+02  0.12964083232E+03  0.13161521867E+03  0.00000000000E+00 0.  1.
         11    1    4    4    0    0  0.46845163065E+02 -0.56500125095E+02  0.12767312801E+03  0.14726561396E+03  0.00000000000E+00 0. -1.
        -13    1    3    3    0    0 -0.70048096602E+02 -0.78903398142E+01 -0.10371738725E+03  0.12540450438E+03  0.00000000000E+00 0.  1.
         13    1    3    3    0    0  0.19838085700E+02  0.11197695105E+02 -0.32569124267E+01  0.23011855607E+02  0.00000000000E+00 0. -1.
         21    1    1    2  502  501  0.52407663209E+01  0.30558695722E+02  0.30506390127E+02  0.43496429215E+02  0.00000000000E+00 0. -1.
<scales pt_clust_5="13000.00000" pt_clust_6="13000.00000" pt_clust_7="13000.00000" pt_clust_8="13000.00000" pt_clust_9="31.00483"></scales>
<clustering>
<clus scale="   31.005">  1  9  2 -1</clus>
<clus scale="   89.733">  7  8 -1 -1</clus>
<clus scale="   91.624">  5  6 -1 -1</clus>
<clus scale="  102.789">  2  7  1 -1</clus>
<clus scale="   31.005">  1  5  2 -1</clus>
</clustering>
</event>
<event>
 9    1  0.1782981E-005  0.2102951E+03  0.7546771E-02  0.1141587E+00
          1   -1    0    0  502    0  0.00000000000E+00  0.00000000000E+00  0.48706208136E+03  0.48706208136E+03  0.00000000000E+00 0. -1.
         -1   -1    0    0    0  501 -0.00000000000E+00 -0.00000000000E+00 -0.21618996985E+03  0.21618996985E+03  0.00000000000E+00 0.  1.
         23    2    1    2    0    0  0.12345566214E+03 -0.15833961622E+03 -0.11902750106E+03  0.25082478642E+03  0.91830239524E+02 0.  0.
         23    2    1    2    0    0 -0.95949015906E+02  0.99212748262E+02  0.27179513417E+03  0.31751518261E+03  0.88847696414E+02 0.  0.
        -11    1    3    3    0    0  0.21063410940E+02 -0.78219930374E+02 -0.82852548268E+02  0.11587307514E+03  0.00000000000E+00 0.  1.
         11    1    3    3    0    0  0.10239225120E+03 -0.80119685851E+02 -0.36174952796E+02  0.13495171128E+03  0.00000000000E+00 0. -1.
        -13    1    4    4    0    0 -0.42958329873E+02  0.10238262461E+03  0.18664967071E+03  0.21717670111E+03  0.00000000000E+00 0. -1.
         13    1    4    4    0    0 -0.52990686034E+02 -0.31698763491E+01  0.85145463458E+02  0.10033848150E+03  0.00000000000E+00 0.  1.
         21    1    1    2  502  501 -0.27506646233E+02  0.59126867963E+02  0.11810447840E+03  0.13491208218E+03  0.00000000000E+00 0.  1.
<scales pt_clust_5="13000.00000" pt_clust_6="13000.00000" pt_clust_7="13000.00000" pt_clust_8="13000.00000" pt_clust_9="65.21198"></scales>
<clustering>
<clus scale="   65.212">  1  9  2 -1</clus>
<clus scale="   88.848">  7  8 -1 -1</clus>
<clus scale="   91.830">  5  6 -1 -1</clus>
<clus scale="  209.010">  1  7  2 -1</clus>
<clus scale="   65.212">  1  5  2 -1</clus>
</clustering>
</event>
<event>
 9    1  0.1782981E-005  0.1594145E+03  0.7546771E-02  0.1189521E+00
          3   -1    0    0  502    0  0.00000000000E+00  0.00000000000E+00  0.43381742232E+02  0.43381742232E+02  0.00000000000E+00 0. -1.
         -3   -1    0    0    0  501 -0.00000000000E+00 -0.00000000000E+00 -0.70452401968E+03  0.70452401968E+03  0.00000000000E+00 0.  1.
         23    2    1    2    0    0  0.66917169099E+02 -0.96074967088E+02 -0.35942833858E+03  0.38898383187E+03  0.91713598013E+02 0.  0.
         23    2    1    2    0    0 -0.86103176253E+02  0.11009221534E+03 -0.23481595419E+03  0.28792949050E+03  0.90723791335E+02 0.  0.
        -11    1    3    3    0    0  0.26635591051E+02  0.46305310234E+01 -0.22971575083E+02  0.35476609054E+02  0.00000000000E+00 0. -1.
         11    1    3    3    0    0  0.40281578048E+02 -0.10070549811E+03 -0.33645676350E+03  0.35350722282E+03  0.00000000000E+00 0.  1.
        -13    1    4    4    0    0 -0.16585209359E+02  0.93693494322E+02 -0.13767430243E+03  0.16735517201E+03  0.00000000000E+00 0. -1.
         13    1    4    4    0    0 -0.69517966894E+02  0.16398721022E+02 -0.97141651760E+02  0.12057431849E+03  0.00000000000E+00 0.  1.
         21    1    1    2  502  501  0.19186007154E+02 -0.14017248255E+02 -0.66897984677E+02  0.70992439548E+02  0.00000000000E+00 0.  1.
<scales pt_clust_5="13000.00000" pt_clust_6="13000.00000" pt_clust_7="13000.00000" pt_clust_8="13000.00000" pt_clust_9="23.76102"></scales>
<clustering>
<clus scale="   23.761">  2  9  1 -1</clus>
<clus scale="   90.724">  7  8 -1 -1</clus>
<clus scale="   91.714">  5  6 -1 -1</clus>
<clus scale="  158.847">  1  7  2 -1</clus>
<clus scale="  158.847">  1  5  2 -1</clus>
</clustering>
</event>
<event>
 9    1  0.1782981E-005  0.1243666E+03  0.7546771E-02  0.1236803E+00
          4   -1    0    0  502    0  0.00000000000E+00  0.00000000000E+00  0.15077394917E+03  0.15077394917E+03  0.00000000000E+00 0. -1.
         -4   -1    0    0    0  501 -0.00000000000E+00 -0.00000000000E+00 -0.13904148924E+03  0.13904148924E+03  0.00000000000E+00 0.  1.
         23    2    1    2    0    0 -0.89306664178E+02  0.42865262551E+02 -0.22483591358E+02  0.13518831203E+03  0.89203457492E+02 0.  0.
         23    2    1    2    0    0  0.62827526956E+02 -0.43286709533E+02  0.42826784409E+02  0.12677991735E+03  0.91749531966E+02 0.  0.
        -13    1    3    3    0    0 -0.54885974306E+02 -0.21721898583E+02 -0.18638349461E+02  0.61900719901E+02  0.00000000000E+00 0.  1.
         13    1    3    3    0    0 -0.34420689871E+02  0.64587161134E+02 -0.38452418971E+01  0.73287592127E+02  0.00000000000E+00 0. -1.
        -13    1    4    4    0    0  0.49972186131E+02 -0.72078972458E+02  0.29338203074E+02  0.92484203067E+02  0.00000000000E+00 0. -1.
         13    1    4    4    0    0  0.12855340825E+02  0.28792262925E+02  0.13488581335E+02  0.34295714288E+02  0.00000000000E+00 0.  1.
         21    1    1    2  502  501  0.26479137222E+02  0.42144698243E+00 -0.86107331200E+01  0.27847209024E+02  0.00000000000E+00 0.  1.
<scales pt_clust_5="13000.00000" pt_clust_6="13000.00000" pt_clust_7="13000.00000" pt_clust_8="13000.00000" pt_clust_9="26.48249"></scales>
<clustering>
<clus scale="   26.482">  2  9  1 -1</clus>
<clus scale="   89.203">  5  6 -1 -1</clus>
<clus scale="   91.750">  7  8 -1 -1</clus>
<clus scale="  122.500">  2  5  1 -1</clus>
<clus scale="  124.367">  1  5  2 -1</clus>
</clustering>
</event>
<event>
 9    1  0.1782981E-005  0.1676779E+03  0.7546771E-02  0.1207062E+00
         -1   -1    0    0    0  501 -0.00000000000E+00  0.00000000000E+00  0.54820173096E+03  0.54820173096E+03  0.00000000000E+00 0.  1.
          1   -1    0    0  502    0  0.00000000000E+00 -0.00000000000E+00 -0.10484230262E+03  0.10484230262E+03  0.00000000000E+00 0. -1.
         23    2    1    2    0    0 -0.13273888493E+03 -0.38243539172E+02  0.37196964890E+03  0.40944132574E+03  0.10098811643E+03 0.  0.
         23    2    1    2    0    0  0.72975190167E+01  0.20370182656E+02 -0.89362551823E+01  0.93578493145E+02  0.90602867490E+02 0.  0.
        -11    1    4    4    0    0  0.16796756328E+02 -0.27121246377E+02  0.19525609153E+02  0.37402438971E+02  0.00000000000E+00 0.  1.
         11    1    4    4    0    0 -0.94992373116E+01  0.47491429033E+02 -0.28461864336E+02  0.56176054174E+02  0.00000000000E+00 0. -1.
        -13    1    3    3    0    0 -0.75226842047E+02 -0.18618811997E+02  0.32071166708E+03  0.32994198176E+03  0.00000000000E+00 0.  1.
         13    1    3    3    0    0 -0.57512042884E+02 -0.19624727175E+02  0.51257981813E+02  0.79499343978E+02  0.00000000000E+00 0. -1.
         21    1    1    2  502  501  0.12544136591E+03  0.17873356515E+02  0.80326034625E+02  0.15002421469E+03  0.00000000000E+00 0. -1.
<scales pt_clust_5="13000.00000" pt_clust_6="13000.00000" pt_clust_7="13000.00000" pt_clust_8="13000.00000" pt_clust_9="133.85539"></scales>
<clustering>
<clus scale="   90.603">  5  6 -1 -1</clus>
<clus scale="   93.151">  2  5  1 -1</clus>
<clus scale="  100.988">  7  8 -1 -1</clus>
<clus scale="  133.855">  2  9  1 -1</clus>
<clus scale="   93.151">  2  5  1 -1</clus>
</clustering>
</event>
<event>
 9    1  0.1782981E-005  0.1013131E+03  0.7546771E-02  0.1278459E+00
          2   -1    0    0  502    0  0.00000000000E+00  0.00000000000E+00  0.36969303422E+03  0.36969303422E+03  0.00000000000E+00 0. -1.
         -2   -1    0    0    0  501 -0.00000000000E+00 -0.00000000000E+00 -0.78039297271E+02  0.78039297271E+02  0.00000000000E+00 0.  1.
         23    2    1    2    0    0  0.64071793104E+02 -0.46633735114E+02  0.18773687902E+02  0.12240160461E+03  0.91377248436E+02 0.  0.
         23    2    1    2    0    0  0.12134434382E+00  0.36231186016E+02  0.21940004530E+03  0.24113403618E+03  0.93255187332E+02 0.  0.
        -11    1    4    4    0    0  0.19029124769E+02 -0.27491647759E+02  0.67460285610E+02  0.75291356878E+02  0.00000000000E+00 0.  1.
         11    1    4    4    0    0 -0.18907780425E+02  0.63722833775E+02  0.15193975968E+03  0.16584267930E+03  0.00000000000E+00 0. -1.
        -13    1    3    3    0    0  0.75755168779E+02 -0.10437558023E+02 -0.64820963617E+01  0.76745070118E+02  0.00000000000E+00 0. -1.
         13    1    3    3    0    0 -0.11683375675E+02 -0.36196177091E+02  0.25255784264E+02  0.45656534493E+02  0.00000000000E+00 0.  1.
         21    1    1    2  502  501 -0.64193137448E+02  0.10402549097E+02  0.53480003748E+02  0.84196690695E+02  0.00000000000E+00 0. -1.
<scales pt_clust_5="13000.00000" pt_clust_6="13000.00000" pt_clust_7="13000.00000" pt_clust_8="13000.00000" pt_clust_9="65.03055"></scales>
<clustering>
<clus scale="   65.031">  2  9  1 -1</clus>
<clus scale="   91.377">  7  8 -1 -1</clus>
<clus scale="   93.255">  5  6 -1 -1</clus>
<clus scale="   99.587">  2  7  1 -1</clus>
<clus scale="  101.313">  1  5  2 -1</clus>
</clustering>
</event>
<event>
 9    1  0.1782981E-005  0.1015741E+03  0.7546771E-02  0.1277756E+00
          1   -1    0    0  502    0  0.00000000000E+00  0.00000000000E+00  0.14593717979E+03  0.14593717979E+03  0.00000000000E+00 0. -1.
         -1   -1    0    0    0  501 -0.00000000000E+00 -0.00000000000E+00 -0.11195344427E+03  0.11195344427E+03  0.00000000000E+00 0.  1.
         23    2    1    2    0    0  0.58339929571E+01  0.17620042863E+02 -0.10789730183E+02  0.95342444548E+02  0.92893821488E+02 0.  0.
         23    2    1    2    0    0 -0.47440763123E+02 -0.33822147485E+02  0.46422301342E+02  0.11786764486E+03  0.91341053075E+02 0.  0.
        -13    1    4    4    0    0  0.44406145071E+01 -0.24715078338E+02 -0.20701164339E+02  0.32543699228E+02  0.00000000000E+00 0. -1.
         13    1    4    4    0    0 -0.51881377630E+02 -0.91070691467E+01  0.67123465681E+02  0.85323945632E+02  0.00000000000E+00 0.  1.
        -13    1    3    3    0    0 -0.39628992710E+02  0.27460077905E+02 -0.52662886189E+01  0.48499966367E+02  0.00000000000E+00 0.  1.
         13    1    3    3    0    0  0.45462985667E+02 -0.98400350424E+01 -0.55234415645E+01  0.46842478181E+02  0.00000000000E+00 0. -1.
         21    1    1    2  502  501  0.41606770166E+02  0.16202104622E+02 -0.16488356367E+01  0.44680534652E+02  0.00000000000E+00 0. -1.
<scales pt_clust_5="13000.00000" pt_clust_6="13000.00000" pt_clust_7="13000.00000" pt_clust_8="13000.00000" pt_clust_9="44.65010"></scales>
<clustering>
<clus scale="   44.650">  2  9  1 -1</clus>
<clus scale="   91.341">  5  6 -1 -1</clus>
<clus scale="   92.894">  7  8 -1 -1</clus>
<clus scale="  100.156">  1  5  2 -1</clus>
<clus scale="  100.156">  1  5  2 -1</clus>
</clustering>
</event>
<event>
 9    1  0.1782981E-005  0.9494279E+02  0.7546771E-02  0.1292032E+00
         -1   -1    0    0    0  501 -0.00000000000E+00  0.00000000000E+00  0.11043415997E+03  0.11043415997E+03  0.00000000000E+00 0.  1.
          1   -1    0    0  502    0  0.00000000000E+00 -0.00000000000E+00 -0.30057362826E+03  0.30057362826E+03  0.00000000000E+00 0. -1.
         23    2    1    2    0    0 -0.42391662016E+01 -0.52361639094E+01  0.17042073753E+02  0.93417806290E+02  0.91602763668E+02 0.  0.
         23    2    1    2    0    0  0.19612186797E+02  0.28670245069E+02  0.89993393816E+01  0.99599937644E+02  0.92911455947E+02 0.  0.
        -13    1    3    3    0    0  0.31499811467E+02 -0.33102937723E+02  0.22685733052E+01  0.45751382855E+02  0.00000000000E+00 0.  1.
         13    1    3    3    0    0 -0.35738977668E+02  0.27866773814E+02  0.14773500447E+02  0.47666423434E+02  0.00000000000E+00 0. -1.
        -13    1    4    4    0    0  0.40554365459E+02 -0.29441523706E+01  0.34976017419E+02  0.53634376901E+02  0.00000000000E+00 0.  1.
         13    1    4    4    0    0 -0.20942178663E+02  0.31614397439E+02 -0.25976678038E+02  0.45965560744E+02  0.00000000000E+00 0. -1.
         21    1    1    2  502  501 -0.15373020595E+02 -0.23434081159E+02 -0.21618088142E+03  0.21799004430E+03  0.00000000000E+00 0. -1.
<scales pt_clust_5="13000.00000" pt_clust_6="13000.00000" pt_clust_7="13000.00000" pt_clust_8="13000.00000" pt_clust_9="28.02652"></scales>
<clustering>
<clus scale="   28.027">  2  9  1 -1</clus>
<clus scale="   91.603">  5  6 -1 -1</clus>
<clus scale="   92.911">  7  8 -1 -1</clus>
<clus scale="   93.662">  1  5  2 -1</clus>
<clus scale="   28.027">  2  5  1 -1</clus>
</clustering>
</event>
<event>
 9    1  0.1782981E-005  0.2220004E+03  0.7546771E-02  0.1132460E+00
          1   -1    0    0  502    0  0.00000000000E+00  0.00000000000E+00  0.21973461657E+03  0.21973461657E+03  0.00000000000E+00 0. -1.
         -1   -1    0    0    0  501 -0.00000000000E+00 -0.00000000000E+00 -0.11395584500E+04  0.11395584500E+04  0.00000000000E+00 0.  1.
         23    2    1    2    0    0 -0.16091050338E+03  0.10978643094E+03 -0.89946544690E+03  0.92481776703E+03  0.91129366971E+02 0.  0.
         23    2    1    2    0    0  0.17527722965E+03 -0.20365109268E+03 -0.10983055105E+03  0.30400597064E+03  0.90338283442E+02 0.  0.
        -11    1    3    3    0    0 -0.86472397484E+02  0.80877957536E+01 -0.43316553418E+03  0.44178645064E+03  0.00000000000E+00 0.  1.
         11    1    3    3    0    0 -0.74438105898E+02  0.10169863519E+03 -0.46629991272E+03  0.48303131639E+03  0.00000000000E+00 0. -1.
        -13    1    4    4    0    0  0.15761964395E+03 -0.15907719915E+03 -0.12133759433E+03  0.25470045003E+03  0.00000000000E+00 0.  1.
         13    1    4    4    0    0  0.17657585700E+02 -0.44573893529E+02  0.11507043279E+02  0.49305520605E+02  0.00000000000E+00 0. -1.
         21    1    1    2  502  501 -0.14366726269E+02  0.93864661738E+02  0.89472164551E+02  0.13046932887E+03  0.00000000000E+00 0. -1.
<scales pt_clust_5="13000.00000" pt_clust_6="13000.00000" pt_clust_7="13000.00000" pt_clust_8="13000.00000" pt_clust_9="94.95777"></scales>
<clustering>
<clus scale="   90.338">  7  8 -1 -1</clus>
<clus scale="   91.129">  5  6 -1 -1</clus>
<clus scale="   94.958">  1  9  2 -1</clus>
<clus scale="  221.677">  1  7  2 -1</clus>
<clus scale="   94.958">  1  5  2 -1</clus>
</clustering>
</event>
<event>
 9    1  0.1782981E-005  0.9535874E+02  0.7546771E-02  0.1291742E+00
          1   -1    0    0  502    0  0.00000000000E+00  0.00000000000E+00  0.15919635318E+03  0.15919635318E+03  0.00000000000E+00 0. -1.
         -1   -1    0    0    0  501 -0.00000000000E+00 -0.00000000000E+00 -0.82625192554E+02  0.82625192554E+02  0.00000000000E+00 0.  1.
         23    2    1    2    0    0 -0.15404584553E+02  0.26147596415E+02  0.25210674853E+01  0.95748937805E+02  0.90777228896E+02 0.  0.
         23    2    1    2    0    0 -0.87541820132E+01 -0.83917253291E+01  0.44706781142E+02  0.10412088664E+03  0.93249160843E+02 0.  0.
        -11    1    4    4    0    0 -0.98367395735E+01 -0.39133225703E+02 -0.98087829420E+01  0.41525691110E+02  0.00000000000E+00 0.  1.
         11    1    4    4    0    0  0.10825575602E+01  0.30741500373E+02  0.54515564084E+02  0.62595195530E+02  0.00000000000E+00 0. -1.
        -13    1    3    3    0    0 -0.14858706448E+02  0.59973336570E+02 -0.45373885339E+00  0.61788252407E+02  0.00000000000E+00 0. -1.
         13    1    3    3    0    0 -0.54587810539E+00 -0.33825740155E+02  0.29748063387E+01  0.33960685398E+02  0.00000000000E+00 0.  1.
         21    1    1    2  502  501  0.24158766566E+02 -0.17755871086E+02  0.29343311998E+02  0.41951721288E+02  0.00000000000E+00 0.  1.
<scales pt_clust_5="13000.00000" pt_clust_6="13000.00000" pt_clust_7="13000.00000" pt_clust_8="13000.00000" pt_clust_9="29.98194"></scales>
<clustering>
<clus scale="   29.982">  1  9  2 -1</clus>
<clus scale="   90.777">  7  8 -1 -1</clus>
<clus scale="   92.943">  2  7  1 -1</clus>
<clus scale="   93.249">  5  6 -1 -1</clus>
<clus scale="   29.982">  1  5  2 -1</clus>
</clustering>
</event>
<event>
 9    1  0.1782981E-005  0.1089238E+03  0.7546771E-02  0.1262780E+00
          1   -1    0    0  502    0  0.00000000000E+00  0.00000000000E+00  0.57704145668E+03  0.57704145668E+03  0.00000000000E+00 0. -1.
         -1   -1    0    0    0  501 -0.00000000000E+00 -0.00000000000E+00 -0.46196889539E+02  0.46196889539E+02  0.00000000000E+00 0.  1.
         23    2    1    2    0    0  0.85919891714E+01 -0.52746380881E+02  0.60309721575E+02  0.12164362362E+03  0.91125768456E+02 0.  0.
         23    2    1    2    0    0 -0.49479413990E+02  0.74627829170E+02  0.34312466867E+03  0.36600736159E+03  0.90605326539E+02 0.  0.
        -11    1    4    4    0    0 -0.71327567789E+02  0.77497682885E+02  0.28108173570E+03  0.30016737818E+03  0.00000000000E+00 0.  1.
         11    1    4    4    0    0  0.21848153798E+02 -0.28698537153E+01  0.62042932962E+02  0.65839983409E+02  0.00000000000E+00 0. -1.
        -11    1    3    3    0    0  0.18529563158E+02  0.77808655023E+01  0.56749326919E+02  0.60202763097E+02  0.00000000000E+00 0. -1.
         11    1    3    3    0    0 -0.99375739870E+01 -0.60527246384E+02  0.35603946563E+01  0.61440860522E+02  0.00000000000E+00 0.  1.
         21    1    1    2  502  501  0.40887424819E+02 -0.21881448288E+02  0.12741017690E+03  0.13558736101E+03  0.00000000000E+00 0.  1.
<scales pt_clust_5="13000.00000" pt_clust_6="13000.00000" pt_clust_7="13000.00000" pt_clust_8="13000.00000" pt_clust_9="46.37434"></scales>
<clustering>
<clus scale="   46.374">  1  9  2 -1</clus>
<clus scale="   90.605">  5  6 -1 -1</clus>
<clus scale="   91.126">  7  8 -1 -1</clus>
<clus scale="  108.489">  1  5  2 -1</clus>
<clus scale="   46.374">  1  5  2 -1</clus>
</clustering>
</event>
<event>
 9    1  0.1782981E-005  0.1043996E+03  0.7546771E-02  0.1271979E+00
          1   -1    0    0  502    0  0.00000000000E+00  0.00000000000E+00  0.97018789766E+02  0.97018789766E+02  0.00000000000E+00 0. -1.
         -1   -1    0    0    0  501 -0.00000000000E+00 -0.00000000000E+00 -0.14783846390E+03  0.14783846390E+03  0.00000000000E+00 0.  1.
         23    2    1    2    0    0  0.24055670370E+02 -0.40553154121E+02 -0.41174274828E+02  0.10723312631E+03  0.87065428752E+02 0.  0.
         23    2    1    2    0    0 -0.44351783210E+02  0.50161218833E+02 -0.20024060101E+02  0.11288622721E+03  0.88651614543E+02 0.  0.
        -11    1    4    4    0    0  0.96069574019E+00  0.33018744657E+02 -0.46991143942E+02  0.57439777541E+02  0.00000000000E+00 0.  1.
         11    1    4    4    0    0 -0.45312478951E+02  0.17142474177E+02  0.26967083840E+02  0.55446449665E+02  0.00000000000E+00 0. -1.
        -13    1    3    3    0    0 -0.13365738989E+02  0.18221105673E+02 -0.28569093058E+02  0.36425880207E+02  0.00000000000E+00 0.  1.
         13    1    3    3    0    0  0.37421409359E+02 -0.58774259795E+02 -0.12605181770E+02  0.70807246100E+02  0.00000000000E+00 0. -1.
         21    1    1    2  502  501  0.20296112840E+02 -0.96080647120E+01  0.10378660798E+02  0.24737900151E+02  0.00000000000E+00 0. -1.
<scales pt_clust_5="13000.00000" pt_clust_6="13000.00000" pt_clust_7="13000.00000" pt_clust_8="13000.00000" pt_clust_9="22.45545"></scales>
<clustering>
<clus scale="   22.455">  1  9  2 -1</clus>
<clus scale="   87.065">  7  8 -1 -1</clus>
<clus scale="   88.652">  5  6 -1 -1</clus>
<clus scale="  103.056">  2  7  1 -1</clus>
<clus scale="   22.455">  1  5  2 -1</clus>
</clustering>
</event>
<event>
 9    1  0.1782981E-005  0.1035989E+03  0.7546771E-02  0.1275793E+00
          2   -1    0    0  502    0  0.00000000000E+00  0.00000000000E+00  0.22344128916E+03  0.22344128916E+03  0.00000000000E+00 0. -1.
         -2   -1    0    0    0  501 -0.00000000000E+00 -0.00000000000E+00 -0.81424463912E+02  0.81424463912E+02  0.00000000000E+00 0.  1.
         23    2    1    2    0    0  0.26528993899E+02 -0.10650086747E+02 -0.18153768407E+01  0.10144174742E+03  0.97313517367E+02 0.  0.
         23    2    1    2    0    0 -0.34475832608E+02  0.44117308127E+02  0.91997212537E+02  0.14121409250E+03  0.91340094674E+02 0.  0.
        -13    1    3    3    0    0  0.54196339903E+02 -0.22696973593E+02  0.22265995218E+02  0.62834468345E+02  0.00000000000E+00 0. -1.
         13    1    3    3    0    0 -0.27667346004E+02  0.12046886846E+02 -0.24081372059E+02  0.38607279078E+02  0.00000000000E+00 0.  1.
        -13    1    4    4    0    0 -0.11442843496E+02  0.50600650697E+02  0.63243099300E+01  0.52262428324E+02  0.00000000000E+00 0.  1.
         13    1    4    4    0    0 -0.23032989112E+02 -0.64833425695E+01  0.85672902607E+02  0.88951664175E+02  0.00000000000E+00 0. -1.
         21    1    1    2  502  501  0.79468387091E+01 -0.33467221380E+02  0.51834989552E+02  0.62209913151E+02  0.00000000000E+00 0.  1.
<scales pt_clust_5="13000.00000" pt_clust_6="13000.00000" pt_clust_7="13000.00000" pt_clust_8="13000.00000" pt_clust_9="34.39778"></scales>
<clustering>
<clus scale="   34.398">  1  9  2 -1</clus>
<clus scale="   91.340">  7  8 -1 -1</clus>
<clus scale="   97.314">  5  6 -1 -1</clus>
<clus scale="   98.009">  1  7  2 -1</clus>
<clus scale="   34.398">  1  5  2 -1</clus>
</clustering>
</event>
<event>
 9    1  0.1782981E-005  0.1080990E+03  0.7546771E-02  0.1270219E+00
         -2   -1    0    0    0  501 -0.00000000000E+00  0.00000000000E+00  0.25764036483E+03  0.25764036483E+03  0.00000000000E+00 0.  1.
          2   -1    0    0  502    0  0.00000000000E+00 -0.00000000000E+00 -0.13045891119E+03  0.13045891119E+03  0.00000000000E+00 0. -1.
         23    2    1    2    0    0 -0.79628807518E+01  0.15194274819E+02  0.11724822338E+03  0.15836416559E+03  0.10506088520E+03 0.  0.
         23    2    1    2    0    0 -0.14211366263E+02 -0.35812668248E+02  0.95789462963E+02  0.13869606347E+03  0.92609214811E+02 0.  0.
        -11    1    4    4    0    0 -0.41251656404E+02 -0.33100036651E+02  0.17319030474E+02  0.55653035846E+02  0.00000000000E+00 0. -1.
         11    1    4    4    0    0  0.27040290142E+02 -0.27126315977E+01  0.78470432489E+02  0.83043027619E+02  0.00000000000E+00 0.  1.
        -13    1    3    3    0    0  0.46156339552E+02 -0.90690051460E+01  0.55348688643E+02  0.72636986926E+02  0.00000000000E+00 0.  1.
         13    1    3    3    0    0 -0.54119220304E+02  0.24263279965E+02  0.61899534737E+02  0.85727178663E+02  0.00000000000E+00 0. -1.
         21    1    1    2  502  501  0.22174247015E+02  0.20618393429E+02 -0.85856232700E+02  0.91039046962E+02  0.00000000000E+00 0.  1.
<scales pt_clust_5="13000.00000" pt_clust_6="13000.00000" pt_clust_7="13000.00000" pt_clust_8="13000.00000" pt_clust_9="30.27896"></scales>
<clustering>
<clus scale="   30.279">  2  9  1 -1</clus>
<clus scale="   92.609">  5  6 -1 -1</clus>
<clus scale="   96.042">  2  5  1 -1</clus>
<clus scale="  105.061">  7  8 -1 -1</clus>
<clus scale="   30.279">  2  5  1 -1</clus>
</clustering>
</event>
<event>
 9    1  0.1782981E-005  0.9940555E+02  0.7546771E-02  0.1283023E+00
         -2   -1    0    0    0  501 -0.00000000000E+00  0.00000000000E+00  0.20669965408E+03  0.20669965408E+03  0.00000000000E+00 0.  1.
          2   -1    0    0  502    0  0.00000000000E+00 -0.00000000000E+00 -0.17718172448E+03  0.17718172448E+03  0.00000000000E+00 0. -1.
         23    2    1    2    0    0  0.23825713091E+01  0.32358460921E+02  0.12980865811E+03  0.16222119666E+03  0.91720675335E+02 0.  0.
         23    2    1    2    0    0 -0.65609898358E+02 -0.55196102143E+02 -0.35762187310E+02  0.12847657084E+03  0.88746981690E+02 0.  0.
        -11    1    3    3    0    0  0.26364869316E+02  0.57005937378E+02  0.80448377814E+02  0.10206235703E+03  0.00000000000E+00 0.  1.
         11    1    3    3    0    0 -0.23982298007E+02 -0.24647476457E+02  0.49360280298E+02  0.60158839621E+02  0.00000000000E+00 0. -1.
        -13    1    4    4    0    0 -0.14860785818E+02 -0.59857301652E+02 -0.45435801172E+02  0.76603861158E+02  0.00000000000E+00 0. -1.
         13    1    4    4    0    0 -0.50749112540E+02  0.46611995090E+01  0.96736138623E+01  0.51872709681E+02  0.00000000000E+00 0.  1.
         21    1    1    2  502  501  0.63227327048E+02  0.22837641222E+02 -0.64528541202E+02  0.93183611069E+02  0.00000000000E+00 0. -1.
<scales pt_clust_5="13000.00000" pt_clust_6="13000.00000" pt_clust_7="13000.00000" pt_clust_8="13000.00000" pt_clust_9="67.22539"></scales>
<clustering>
<clus scale="   67.225">  2  9  1 -1</clus>
<clus scale="   88.747">  7  8 -1 -1</clus>
<clus scale="   91.721">  5  6 -1 -1</clus>
<clus scale="   96.669">  2  7  1 -1</clus>
<clus scale="   67.225">  2  5  1 -1</clus>
</clustering>
</event>
<event>
 9    1  0.1782981E-005  0.9789082E+02  0.7546771E-02  0.1285188E+00
          1   -1    0    0  502    0  0.00000000000E+00  0.00000000000E+00  0.66989771618E+02  0.66989771618E+02  0.00000000000E+00 0. -1.
         -1   -1    0    0    0  501 -0.00000000000E+00 -0.00000000000E+00 -0.71571352371E+03  0.71571352371E+03  0.00000000000E+00 0.  1.
         23    2    1    2    0    0 -0.11427753139E+02  0.17220857243E+02 -0.43502466923E+03  0.44485745195E+03  0.90689239977E+02 0.  0.
         23    2    1    2    0    0  0.52786694140E+02 -0.51708091384E+02 -0.24767737797E+03  0.27417123417E+03  0.91463764927E+02 0.  0.
        -13    1    3    3    0    0  0.28097526179E+02  0.36689863422E+02 -0.27598946801E+03  0.27983174142E+03  0.00000000000E+00 0.  1.
         13    1    3    3    0    0 -0.39525279318E+02 -0.19469006179E+02 -0.15903520122E+03  0.16502571053E+03  0.00000000000E+00 0. -1.
        -13    1    4    4    0    0  0.29008013535E+02 -0.77241981959E+02 -0.18089153616E+03  0.19882036234E+03  0.00000000000E+00 0.  1.
         13    1    4    4    0    0  0.23778680605E+02  0.25533890575E+02 -0.66785841808E+02  0.75350871828E+02  0.00000000000E+00 0. -1.
         21    1    1    2  502  501 -0.41358941002E+02  0.34487234140E+02  0.33978295111E+02  0.63674609210E+02  0.00000000000E+00 0. -1.
<scales pt_clust_5="13000.00000" pt_clust_6="13000.00000" pt_clust_7="13000.00000" pt_clust_8="13000.00000" pt_clust_9="53.85101"></scales>
<clustering>
<clus scale="   53.851">  1  9  2 -1</clus>
<clus scale="   90.689">  5  6 -1 -1</clus>
<clus scale="   91.464">  7  8 -1 -1</clus>
<clus scale="   97.168">  2  5  1 -1</clus>
<clus scale="   53.851">  1  5  2 -1</clus>
</clustering>
</event>
<event>
 9    1  0.1782981E-005  0.1093865E+03  0.7546771E-02  0.1261782E+00
          3   -1    0    0  502    0  0.00000000000E+00  0.00000000000E+00  0.63789092774E+02  0.63789092774E+02  0.00000000000E+00 0. -1.
         -3   -1    0    0    0  501 -0.00000000000E+00 -0.00000000000E+00 -0.42922410882E+03  0.42922410882E+03  0.00000000000E+00 0.  1.
         23    2    1    2    0    0 -0.10352131489E+03  0.37982946418E+02 -0.15490347676E+03  0.21100131294E+03  0.91471854113E+02 0.  0.
         23    2    1    2    0    0  0.22875620482E+02 -0.28129768694E+02 -0.73401930138E+02  0.12262135304E+03  0.91288416435E+02 0.  0.
        -13    1    4    4    0    0  0.85837670844E+01 -0.55573617022E+02 -0.17787730327E+02  0.58978905690E+02  0.00000000000E+00 0.  1.
         13    1    4    4    0    0  0.14291853398E+02  0.27443848328E+02 -0.55614199811E+02  0.63642447354E+02  0.00000000000E+00 0. -1.
        -13    1    3    3    0    0 -0.62849845570E+02  0.63196676657E+02 -0.12838972281E+03  0.15629409443E+03  0.00000000000E+00 0. -1.
         13    1    3    3    0    0 -0.40671469318E+02 -0.25213730238E+02 -0.26513753948E+02  0.54707218513E+02  0.00000000000E+00 0.  1.
         21    1    1    2  502  501  0.80645694406E+02 -0.98531777241E+01 -0.13712960915E+03  0.15939053561E+03  0.00000000000E+00 0.  1.
<scales pt_clust_5="13000.00000" pt_clust_6="13000.00000" pt_clust_7="13000.00000" pt_clust_8="13000.00000" pt_clust_9="81.24539"></scales>
<clustering>
<clus scale="   81.245">  2  9  1 -1</clus>
<clus scale="   91.288">  5  6 -1 -1</clus>
<clus scale="   91.472">  7  8 -1 -1</clus>
<clus scale="  109.233">  1  5  2 -1</clus>
<clus scale="  109.233">  1  5  2 -1</clus>
</clustering>
</event>
<event>
 9    1  0.1782981E-005  0.2147955E+03  0.7546771E-02  0.1138183E+00
          1   -1    0    0  502    0  0.00000000000E+00  0.00000000000E+00  0.39266100869E+03  0.39266100869E+03  0.00000000000E+00 0. -1.
         -1   -1    0    0    0  501 -0.00000000000E+00 -0.00000000000E+00 -0.21921632470E+03  0.21921632470E+03  0.00000000000E+00 0.  1.
         23    2    1    2    0    0 -0.21255813770E+02  0.19346718154E+03 -0.11047889721E+03  0.24113935668E+03  0.89784423243E+02 0.  0.
         23    2    1    2    0    0  0.41391325060E+02 -0.18309025079E+03  0.22575293488E+03  0.30831247230E+03  0.94111164303E+02 0.  0.
        -11    1    4    4    0    0  0.54124511939E+01 -0.45501166690E+02  0.55208362166E+01  0.46153336072E+02  0.00000000000E+00 0.  1.
         11    1    4    4    0    0  0.35978873867E+02 -0.13758908410E+03  0.22023209866E+03  0.26215913623E+03  0.00000000000E+00 0. -1.
        -13    1    3    3    0    0  0.23016687292E+02  0.94943108789E+01 -0.16434355390E+02  0.29832832082E+02  0.00000000000E+00 0. -1.
         13    1    3    3    0    0 -0.44272501061E+02  0.18397287066E+03 -0.94044541818E+02  0.21130652459E+03  0.00000000000E+00 0.  1.
         21    1    1    2  502  501 -0.20135511291E+02 -0.10376930749E+02  0.58170646328E+02  0.62425504410E+02  0.00000000000E+00 0. -1.
<scales pt_clust_5="13000.00000" pt_clust_6="13000.00000" pt_clust_7="13000.00000" pt_clust_8="13000.00000" pt_clust_9="22.65214"></scales>
<clustering>
<clus scale="   22.652">  1  9  2 -1</clus>
<clus scale="   89.784">  7  8 -1 -1</clus>
<clus scale="   94.111">  5  6 -1 -1</clus>
<clus scale="  212.935">  2  7  1 -1</clus>
<clus scale="   22.652">  1  5  2 -1</clus>
</clustering>
</event>
<event>
 9    1  0.1782981E-005  0.9535605E+02  0.7546771E-02  0.1293153E+00
          1   -1    0    0  502    0  0.00000000000E+00  0.00000000000E+00  0.12634385377E+03  0.12634385377E+03  0.00000000000E+00 0. -1.
         -1   -1    0    0    0  501 -0.00000000000E+00 -0.00000000000E+00 -0.22135471183E+03  0.22135471183E+03  0.00000000000E+00 0.  1.
         23    2    1    2    0    0  0.80259114589E+01 -0.27936268388E+02 -0.18074282860E+03  0.20436906666E+03  0.90850949196E+02 0.  0.
         23    2    1    2    0    0 -0.27936295028E+02  0.20350423956E+02  0.61501210091E+02  0.11106344617E+03  0.85779449156E+02 0.  0.
        -11    1    3    3    0    0  0.43566662333E+02 -0.12704999529E+02 -0.14417762746E+03  0.15115111425E+03  0.00000000000E+00 0.  1.
         11    1    3    3    0    0 -0.35540750874E+02 -0.15231268859E+02 -0.36565201143E+02  0.53217952407E+02  0.00000000000E+00 0. -1.
        -13    1    4    4    0    0 -0.31703132659E+02 -0.27284614218E+02  0.15134168457E+02  0.44481252774E+02  0.00000000000E+00 0.  1.
         13    1    4    4    0    0  0.37668376316E+01  0.47635038174E+02  0.46367041635E+02  0.66582193397E+02  0.00000000000E+00 0. -1.
         21    1    1    2  502  501  0.19910383569E+02  0.75858444321E+01  0.24230760444E+02  0.32266052769E+02  0.00000000000E+00 0. -1.
<scales pt_clust_5="13000.00000" pt_clust_6="13000.00000" pt_clust_7="13000.00000" pt_clust_8="13000.00000" pt_clust_9="21.30653"></scales>
<clustering>
<clus scale="   21.307">  1  9  2 -1</clus>
<clus scale="   85.779">  7  8 -1 -1</clus>
<clus scale="   90.537">  1  7  2 -1</clus>
<clus scale="   90.851">  5  6 -1 -1</clus>
<clus scale="   21.307">  1  5  2 -1</clus>
</clustering>
</event>
<event>
 9    1  0.1782981E-005  0.1342794E+03  0.7546771E-02  0.1221418E+00
         -1   -1    0    0    0  501 -0.00000000000E+00  0.00000000000E+00  0.72491735433E+03  0.72491735433E+03  0.00000000000E+00 0.  1.
          1   -1    0    0  502    0  0.00000000000E+00 -0.00000000000E+00 -0.38360136844E+02  0.38360136844E+02  0.00000000000E+00 0. -1.
         23    2    1    2    0    0  0.53394028497E+02  0.75079661402E+02  0.47217133245E+03  0.48978191504E+03  0.91938453724E+02 0.  0.
         23    2    1    2    0    0 -0.67248515086E+02 -0.90927231892E+02  0.20278253436E+03  0.24945956074E+03  0.91209604336E+02 0.  0.
        -11    1    4    4    0    0  0.91764619688E+01 -0.51173944758E+02  0.41154635814E+02  0.66307496751E+02  0.00000000000E+00 0. -1.
         11    1    4    4    0    0 -0.76424977055E+02 -0.39753287134E+02  0.16162789855E+03  0.18315206399E+03  0.00000000000E+00 0.  1.
        -13    1    3    3    0    0  0.37722904472E+02 -0.12196295207E+02  0.18641083525E+03  0.19058007933E+03  0.00000000000E+00 0. -1.
         13    1    3    3    0    0  0.15671124024E+02  0.87275956608E+02  0.28576049720E+03  0.29920183571E+03  0.00000000000E+00 0.  1.
         21    1    1    2  502  501  0.13854486589E+02  0.15847570490E+02  0.11603350671E+02  0.24036015392E+02  0.00000000000E+00 0. -1.
<scales pt_clust_5="13000.00000" pt_clust_6="13000.00000" pt_clust_7="13000.00000" pt_clust_8="13000.00000" pt_clust_9="21.04976"></scales>
<clustering>
<clus scale="   21.050">  2  9  1 -1</clus>
<clus scale="   91.210">  5  6 -1 -1</clus>
<clus scale="   91.938">  7  8 -1 -1</clus>
<clus scale="  133.781">  2  5  1 -1</clus>
<clus scale="   21.050">  2  5  1 -1</clus>
</clustering>
</event>
<event>
 9    1  0.1782981E-005  0.2950821E+03  0.7546771E-02  0.1109331E+00
         -1   -1    0    0    0  501 -0.00000000000E+00  0.00000000000E+00  0.96150782070E+03  0.96150782070E+03  0.00000000000E+00 0.  1.
          1   -1    0    0  502    0  0.00000000000E+00 -0.00000000000E+00 -0.16880737384E+03  0.16880737384E+03  0.00000000000E+00 0. -1.
         23    2    1    2    0    0  0.34771412417E+02 -0.12504392051E+03  0.36712176235E+03  0.40381148452E+03  0.10695930750E+03 0.  0.
         23    2    1    2    0    0 -0.27054501037E+03 -0.54263251066E+02  0.22777024233E+03  0.37031775989E+03  0.95482233692E+02 0.  0.
        -11    1    3    3    0    0 -0.31190921438E+02 -0.78974488360E+02  0.15157262758E+03  0.17373573272E+03  0.00000000000E+00 0. -1.
         11    1    3    3    0    0  0.65962333855E+02 -0.46069432154E+02  0.21554913477E+03  0.23007575180E+03  0.00000000000E+00 0.  1.
        -11    1    4    4    0    0 -0.12270357511E+03 -0.15983913374E+02  0.43898404781E+02  0.13129631668E+03  0.00000000000E+00 0. -1.
         11    1    4    4    0    0 -0.14784143526E+03 -0.38279337692E+02  0.18387183755E+03  0.23902144322E+03  0.00000000000E+00 0.  1.
         21    1    1    2  502  501  0.23577359795E+03  0.17930717158E+03  0.19780844218E+03  0.35618595013E+03  0.00000000000E+00 0.  1.
<scales pt_clust_5="13000.00000" pt_clust_6="13000.00000" pt_clust_7="13000.00000" pt_clust_8="13000.00000" pt_clust_9="279.20708"></scales>
<clustering>
<clus scale="   95.482">  7  8 -1 -1</clus>
<clus scale="  106.959">  5  6 -1 -1</clus>
<clus scale="  168.182">  1  5  2 -1</clus>
<clus scale="  279.207">  2  9  1 -1</clus>
<clus scale="  279.207">  2  5  1 -1</clus>
</clustering>
</event>
<event>
 9    1  0.1782981E-005  0.1852569E+03  0.7546771E-02  0.1163050E+00
          1   -1    0    0  502    0  0.00000000000E+00  0.00000000000E+00  0.16425522838E+03  0.16425522838E+03  0.00000000000E+00 0. -1.
         -1   -1    0    0    0  501 -0.00000000000E+00 -0.00000000000E+00 -0.25684952053E+03  0.25684952053E+03  0.00000000000E+00 0.  1.
         23    2    1    2    0    0 -0.10398332585E+03 -0.12052135711E+03 -0.94452640356E+02  0.20650562153E+03  0.91571506925E+02 0.  0.
         23    2    1    2    0    0  0.87338057452E+02  0.14060812252E+03  0.56049096285E+01  0.18824424496E+03  0.89475696974E+02 0.  0.
        -13    1    4    4    0    0  0.49997080777E+02  0.15756563517E+02 -0.18746937800E+02  0.55672480248E+02  0.00000000000E+00 0.  1.
         13    1    4    4    0    0  0.37340976675E+02  0.12485155900E+03  0.24351847429E+02  0.13257176471E+03  0.00000000000E+00 0. -1.
        -13    1    3    3    0    0 -0.10356221856E+03 -0.84202680470E+02 -0.10370276960E+03  0.16902511333E+03  0.00000000000E+00 0.  1.
         13    1    3    3    0    0 -0.42110728275E+00 -0.36318676637E+02  0.92501292473E+01  0.37480508202E+02  0.00000000000E+00 0. -1.
         21    1    1    2  502  501  0.16645268396E+02 -0.20086765413E+02 -0.37465614248E+01  0.26354882417E+02  0.00000000000E+00 0. -1.
<scales pt_clust_5="13000.00000" pt_clust_6="13000.00000" pt_clust_7="13000.00000" pt_clust_8="13000.00000" pt_clust_9="26.08722"></scales>
<clustering>
<clus scale="   26.087">  1  9  2 -1</clus>
<clus scale="   89.476">  5  6 -1 -1</clus>
<clus scale="   91.572">  7  8 -1 -1</clus>
<clus scale="  184.230">  1  5  2 -1</clus>
<clus scale="   26.087">  1  5  2 -1</clus>
</clustering>
</event>
<event>
 9    1  0.1782981E-005  0.1107904E+03  0.7546771E-02  0.1259859E+00
          2   -1    0    0  502    0  0.00000000000E+00  0.00000000000E+00  0.14597565072E+03  0.14597565072E+03  0.00000000000E+00 0. -1.
         -2   -1    0    0    0  501 -0.00000000000E+00 -0.00000000000E+00 -0.15705374754E+03  0.15705374754E+03  0.00000000000E+00 0.  1.
         23    2    1    2    0    0 -0.36919221482E+02  0.38397851041E+02 -0.54641215962E+02  0.11852543405E+03  0.90692845121E+02 0.  0.
         23    2    1    2    0    0  0.57629392254E+02 -0.44993862583E+02 -0.17857361415E+02  0.11935111336E+03  0.92629414235E+02 0.  0.
        -11    1    3    3    0    0 -0.60635249221E+02  0.38826573009E+02 -0.16913670390E+02  0.73960857659E+02  0.00000000000E+00 0. -1.
         11    1    3    3    0    0  0.23716027738E+02 -0.42872196779E+00 -0.37727545572E+02  0.44564576393E+02  0.00000000000E+00 0.  1.
        -13    1    4    4    0    0  0.72628300382E+02 -0.25763661641E+01 -0.66011132403E+01  0.72973162018E+02  0.00000000000E+00 0.  1.
         13    1    4    4    0    0 -0.14998908128E+02 -0.42417496419E+02 -0.11256248175E+02  0.46377951340E+02  0.00000000000E+00 0. -1.
         21    1    1    2  502  501 -0.20710170772E+02  0.65960115422E+01  0.61420480557E+02  0.65152850847E+02  0.00000000000E+00 0.  1.
<scales pt_clust_5="13000.00000" pt_clust_6="13000.00000" pt_clust_7="13000.00000" pt_clust_8="13000.00000" pt_clust_9="21.73519"></scales>
<clustering>
<clus scale="   21.735">  1  9  2 -1</clus>
<clus scale="   90.693">  5  6 -1 -1</clus>
<clus scale="   92.629">  7  8 -1 -1</clus>
<clus scale="  109.176">  2  5  1 -1</clus>
<clus scale="   21.735">  1  5  2 -1</clus>
</clustering>
</event>
<event>
 9    1  0.1782981E-005  0.1142230E+03  0.7546771E-02  0.1256308E+00
          2   -1    0    0  502    0  0.00000000000E+00  0.00000000000E+00  0.96445612509E+02  0.96445612509E+02  0.00000000000E+00 0. -1.
         -2   -1    0    0    0  501 -0.00000000000E+00 -0.00000000000E+00 -0.45952530952E+03  0.45952530952E+03  0.00000000000E+00 0.  1.
         23    2    1    2    0    0 -0.49640919562E+02  0.50908292691E+02 -0.38902808214E+03  0.40374449707E+03  0.81307410877E+02 0.  0.
         23    2    1    2    0    0  0.27136553160E+02 -0.53336989978E+02 -0.10593752130E+02  0.10924185943E+03  0.90776259284E+02 0.  0.
        -11    1    3    3    0    0 -0.70913098108E+02  0.26701777886E+02 -0.26995660303E+03  0.28038940769E+03  0.00000000000E+00 0.  1.
         11    1    3    3    0    0  0.21272178546E+02  0.24206514806E+02 -0.11907147911E+03  0.12335508938E+03  0.00000000000E+00 0. -1.
        -11    1    4    4    0    0  0.27170529109E+02  0.93403530273E+01  0.24190948832E+02  0.37559044878E+02  0.00000000000E+00 0.  1.
         11    1    4    4    0    0 -0.33975949110E-01 -0.62677343006E+02 -0.34784700962E+02  0.71682814549E+02  0.00000000000E+00 0. -1.
         21    1    1    2  502  501  0.22504366402E+02  0.24286972870E+01  0.36542137263E+02  0.42984565525E+02  0.00000000000E+00 0. -1.
<scales pt_clust_5="13000.00000" pt_clust_6="13000.00000" pt_clust_7="13000.00000" pt_clust_8="13000.00000" pt_clust_9="22.63504"></scales>
<clustering>
<clus scale="   22.635">  1  9  2 -1</clus>
<clus scale="   81.307">  5  6 -1 -1</clus>
<clus scale="   90.776">  7  8 -1 -1</clus>
<clus scale="  106.853">  2  5  1 -1</clus>
<clus scale="   22.635">  1  5  2 -1</clus>
</clustering>
</event>
<event>
 9    1  0.1782981E-005  0.1099906E+03  0.7546771E-02  0.1261984E+00
          1   -1    0    0  502    0  0.00000000000E+00  0.00000000000E+00  0.89317450603E+03  0.89317450603E+03  0.00000000000E+00 0. -1.
         -1   -1    0    0    0  501 -0.00000000000E+00 -0.00000000000E+00 -0.45040897331E+02  0.45040897331E+02  0.00000000000E+00 0.  1.
         23    2    1    2    0    0  0.23278179194E+02  0.31884590604E+02  0.65921932278E+02  0.12252653631E+03  0.95438724845E+02 0.  0.
         23    2    1    2    0    0  0.36538633190E+01 -0.11017961432E+03  0.47593558653E+03  0.49841849514E+03  0.98759382581E+02 0.  0.
        -11    1    3    3    0    0 -0.80514951192E+01 -0.22555291284E+02  0.53336781437E+02  0.58466913658E+02  0.00000000000E+00 0. -1.
         11    1    3    3    0    0  0.31329674313E+02  0.54439881888E+02  0.12585150841E+02  0.64059622651E+02  0.00000000000E+00 0.  1.
        -11    1    4    4    0    0  0.18646736206E+02 -0.87585461409E+02  0.45613645256E+03  0.46484338995E+03  0.00000000000E+00 0. -1.
         11    1    4    4    0    0 -0.14992872887E+02 -0.22594152908E+02  0.19799133964E+02  0.33575105194E+02  0.00000000000E+00 0.  1.
         21    1    1    2  502  501 -0.26932042513E+02  0.78295023714E+02  0.30627608989E+03  0.31727037191E+03  0.00000000000E+00 0.  1.
<scales pt_clust_5="13000.00000" pt_clust_6="13000.00000" pt_clust_7="13000.00000" pt_clust_8="13000.00000" pt_clust_9="82.79762"></scales>
<clustering>
<clus scale="   82.798">  1  9  2 -1</clus>
<clus scale="   95.439">  5  6 -1 -1</clus>
<clus scale="   98.759">  7  8 -1 -1</clus>
<clus scale="  107.019">  2  5  1 -1</clus>
<clus scale="   82.798">  1  5  2 -1</clus>
</clustering>
</event>
<event>
 9    1  0.1782981E-005  0.9093716E+02  0.7546771E-02  0.1301361E+00
         -2   -1    0    0    0  501 -0.00000000000E+00  0.00000000000E+00  0.11420393911E+03  0.11420393911E+03  0.00000000000E+00 0.  1.
          2   -1    0    0  502    0  0.00000000000E+00 -0.00000000000E+00 -0.14555701097E+03  0.14555701097E+03  0.00000000000E+00 0. -1.
         23    2    1    2    0    0  0.55630325524E+01 -0.14511067528E+02  0.38384246019E+02  0.99773886196E+02  0.90774223281E+02 0.  0.
         23    2    1    2    0    0 -0.49514711312E+01 -0.22829766878E+02 -0.14980807841E+02  0.93707449276E+02  0.89503888878E+02 0.  0.
        -11    1    3    3    0    0  0.45663596422E+02 -0.22057458129E+02  0.15692916119E+02  0.53084490330E+02  0.00000000000E+00 0. -1.
         11    1    3    3    0    0 -0.40100563869E+02  0.75463906002E+01  0.22691329900E+02  0.46689395866E+02  0.00000000000E+00 0.  1.
        -11    1    4    4    0    0 -0.23425915496E+02  0.13164462730E+02  0.25090050406E+02  0.36763939195E+02  0.00000000000E+00 0.  1.
         11    1    4    4    0    0  0.18474444364E+02 -0.35994229608E+02 -0.40070858247E+02  0.56943510081E+02  0.00000000000E+00 0. -1.
         21    1    1    2  502  501 -0.61156142119E+00  0.37340834407E+02 -0.54756510037E+02  0.66279614611E+02  0.00000000000E+00 0. -1.
<scales pt_clust_5="13000.00000" pt_clust_6="13000.00000" pt_clust_7="13000.00000" pt_clust_8="13000.00000" pt_clust_9="37.34584"></scales>
<clustering>
<clus scale="   37.346">  2  9  1 -1</clus>
<clus scale="   89.504">  7  8 -1 -1</clus>
<clus scale="   89.669">  2  7  1 -1</clus>
<clus scale="   90.774">  5  6 -1 -1</clus>
<clus scale="   37.346">  2  5  1 -1</clus>
</clustering>
</event>
<event>
 9    1  0.1782981E-005  0.1104882E+03  0.7546771E-02  0.1262907E+00
          1   -1    0    0  502    0  0.00000000000E+00  0.00000000000E+00  0.20989345387E+03  0.20989345387E+03  0.00000000000E+00 0. -1.
         -1   -1    0    0    0  501 -0.00000000000E+00 -0.00000000000E+00 -0.11664732012E+03  0.11664732012E+03  0.00000000000E+00 0.  1.
         23    2    1    2    0    0 -0.14973746665E+02 -0.52711292094E+02 -0.47448921119E+02  0.11157812426E+03  0.84826789952E+02 0.  0.
         23    2    1    2    0    0  0.34942762794E+02  0.67760630340E+02  0.68162708111E+02  0.13824116961E+03  0.93015947567E+02 0.  0.
        -11    1    4    4    0    0 -0.28178226118E+02  0.11376080191E+02  0.13626011008E+01  0.30418486311E+02  0.00000000000E+00 0.  1.
         11    1    4    4    0    0  0.63120988913E+02  0.56384550149E+02  0.66800107010E+02  0.10782268330E+03  0.00000000000E+00 0. -1.
        -13    1    3    3    0    0 -0.29136839091E+01  0.22724770582E+02 -0.27687617142E+01  0.23077495387E+02  0.00000000000E+00 0. -1.
         13    1    3    3    0    0 -0.12060062756E+02 -0.75436062676E+02 -0.44680159405E+02  0.88500628869E+02  0.00000000000E+00 0.  1.
         21    1    1    2  502  501 -0.19969016129E+02 -0.15049338246E+02  0.72532346760E+02  0.76721480130E+02  0.00000000000E+00 0.  1.
<scales pt_clust_5="13000.00000" pt_clust_6="13000.00000" pt_clust_7="13000.00000" pt_clust_8="13000.00000" pt_clust_9="25.00488"></scales>
<clustering>
<clus scale="   25.005">  1  9  2 -1</clus>
<clus scale="   84.827">  7  8 -1 -1</clus>
<clus scale="   93.016">  5  6 -1 -1</clus>
<clus scale="  103.688">  2  7  1 -1</clus>
<clus scale="   25.005">  1  5  2 -1</clus>
</clustering>
</event>
<event>
 9    1  0.1782981E-005  0.1130219E+03  0.7546771E-02  0.1256099E+00
          2   -1    0    0  502    0  0.00000000000E+00  0.00000000000E+00  0.33936347456E+03  0.33936347456E+03  0.00000000000E+00 0. -1.
         -2   -1    0    0    0  501 -0.00000000000E+00 -0.00000000000E+00 -0.13595543115E+03  0.13595543115E+03  0.00000000000E+00 0.  1.
         23    2    1    2    0    0  0.54843042489E+02 -0.42032949434E+02 -0.86833138357E+02  0.14454069567E+03  0.92614743099E+02 0.  0.
         23    2    1    2    0    0 -0.49141733502E+02  0.54809043989E+01  0.12614710145E+03  0.16256577257E+03  0.89830890701E+02 0.  0.
        -11    1    3    3    0    0  0.61837221082E+02  0.72743915628E+01 -0.65473941183E+02  0.90352618434E+02  0.00000000000E+00 0. -1.
         11    1    3    3    0    0 -0.69941785926E+01 -0.49307340996E+02 -0.21359197174E+02  0.54188077233E+02  0.00000000000E+00 0.  1.
        -13    1    4    4    0    0  0.33729415320E+01 -0.34714508331E+02  0.57460302366E+02  0.67217260962E+02  0.00000000000E+00 0.  1.
         13    1    4    4    0    0 -0.52514675034E+02  0.40195412730E+02  0.68686799079E+02  0.95348511610E+02  0.00000000000E+00 0. -1.
         21    1    1    2  502  501 -0.57013089874E+01  0.36552045035E+02  0.16409408032E+03  0.16821243746E+03  0.00000000000E+00 0. -1.
<scales pt_clust_5="13000.00000" pt_clust_6="13000.00000" pt_clust_7="13000.00000" pt_clust_8="13000.00000" pt_clust_9="36.99401"></scales>
<clustering>
<clus scale="   36.994">  1  9  2 -1</clus>
<clus scale="   89.831">  7  8 -1 -1</clus>
<clus scale="   92.615">  5  6 -1 -1</clus>
<clus scale="  110.752">  1  7  2 -1</clus>
<clus scale="   36.994">  1  5  2 -1</clus>
</clustering>
</event>
<event>
 9    1  0.1782981E-005  0.1339455E+03  0.7546771E-02  0.1224967E+00
         -2   -1    0    0    0  501 -0.00000000000E+00  0.00000000000E+00  0.45120612642E+03  0.45120612642E+03  0.00000000000E+00 0.  1.
          2   -1    0    0  502    0  0.00000000000E+00 -0.00000000000E+00 -0.15277250083E+03  0.15277250083E+03  0.00000000000E+00 0. -1.
         23    2    1    2    0    0  0.88738978462E+02 -0.60018895898E+00  0.40060738202E+03  0.41984270023E+03  0.88919356038E+02 0.  0.
         23    2    1    2    0    0 -0.78943561777E+02 -0.17723462679E+02 -0.99493687958E+02  0.16318624531E+03  0.10091852971E+03 0.  0.
        -11    1    3    3    0    0  0.37818704845E+02 -0.34365954037E+02  0.28019087185E+03  0.28481256626E+03  0.00000000000E+00 0.  1.
         11    1    3    3    0    0  0.50920273618E+02  0.33765765078E+02  0.12041651017E+03  0.13503013397E+03  0.00000000000E+00 0. -1.
        -13    1    4    4    0    0 -0.11413313412E+02  0.38535843968E+02 -0.21008770006E+02  0.45350230545E+02  0.00000000000E+00 0.  1.
         13    1    4    4    0    0 -0.67530248365E+02 -0.56259306647E+02 -0.78484917952E+02  0.11783601476E+03  0.00000000000E+00 0. -1.
         21    1    1    2  502  501 -0.97954166855E+01  0.18323651638E+02 -0.26800684734E+01  0.20949681726E+02  0.00000000000E+00 0.  1.
<scales pt_clust_5="13000.00000" pt_clust_6="13000.00000" pt_clust_7="13000.00000" pt_clust_8="13000.00000" pt_clust_9="20.77755"></scales>
<clustering>
<clus scale="   20.778">  2  9  1 -1</clus>
<clus scale="   88.919">  5  6 -1 -1</clus>
<clus scale="  100.919">  7  8 -1 -1</clus>
<clus scale="  125.154">  1  5  2 -1</clus>
<clus scale="   20.778">  2  5  1 -1</clus>
</clustering>
</event>
<event>
 9    1  0.1782981E-005  0.9259142E+02  0.7546771E-02  0.1298154E+00
          1   -1    0    0  502    0  0.00000000000E+00  0.00000000000E+00  0.92974382172E+02  0.92974382172E+02  0.00000000000E+00 0. -1.
         -1   -1    0    0    0  501 -0.00000000000E+00 -0.00000000000E+00 -0.13778315470E+03  0.13778315470E+03  0.00000000000E+00 0.  1.
         23    2    1    2    0    0 -0.11720314513E+02  0.10866396712E+02 -0.35709492190E+02  0.99431706836E+02  0.91411444262E+02 0.  0.
         23    2    1    2    0    0  0.17682585634E+02  0.14010285229E+02 -0.31841018927E+02  0.97097411202E+02  0.88910600318E+02 0.  0.
        -11    1    4    4    0    0  0.41035574108E+02 -0.23282604170E+02 -0.11181509319E+02  0.48487360723E+02  0.00000000000E+00 0. -1.
         11    1    4    4    0    0 -0.23352988473E+02  0.37292889399E+02 -0.20659509607E+02  0.48610050479E+02  0.00000000000E+00 0.  1.
        -11    1    3    3    0    0 -0.66864584605E+01  0.33120569607E+02 -0.58261758493E+02  0.67350674536E+02  0.00000000000E+00 0.  1.
         11    1    3    3    0    0 -0.50338560522E+01 -0.22254172895E+02  0.22552266303E+02  0.32081032299E+02  0.00000000000E+00 0. -1.
         21    1    1    2  502  501 -0.59622711216E+01 -0.24876681941E+02  0.22741738593E+02  0.34228418829E+02  0.00000000000E+00 0. -1.
<scales pt_clust_5="13000.00000" pt_clust_6="13000.00000" pt_clust_7="13000.00000" pt_clust_8="13000.00000" pt_clust_9="25.58120"></scales>
<clustering>
<clus scale="   25.581">  1  9  2 -1</clus>
<clus scale="   88.911">  5  6 -1 -1</clus>
<clus scale="   90.123">  1  5  2 -1</clus>
<clus scale="   91.411">  7  8 -1 -1</clus>
<clus scale="   25.581">  1  5  2 -1</clus>
</clustering>
</event>
<event>
 9    1  0.1782981E-005  0.1620743E+03  0.7546771E-02  0.1190256E+00
          1   -1    0    0  502    0  0.00000000000E+00  0.00000000000E+00  0.41304928028E+03  0.41304928028E+03  0.00000000000E+00 0. -1.
         -1   -1    0    0    0  501 -0.00000000000E+00 -0.00000000000E+00 -0.93836717260E+02  0.93836717260E+02  0.00000000000E+00 0.  1.
         23    2    1    2    0    0  0.64915441112E+02  0.64538363912E+02  0.16907320994E+02  0.13022177356E+03  0.91063922026E+02 0.  0.
         23    2    1    2    0    0 -0.11112774840E+03 -0.67060089507E+02  0.27193387387E+03  0.32130759431E+03  0.11155315476E+03 0.  0.
        -11    1    3    3    0    0  0.58670549177E+02  0.97787942697E+01 -0.21278328521E+02  0.63171397188E+02  0.00000000000E+00 0.  1.
         11    1    3    3    0    0  0.62448919357E+01  0.54759569643E+02  0.38185649515E+02  0.67050376372E+02  0.00000000000E+00 0. -1.
        -11    1    4    4    0    0 -0.71873554278E+01 -0.65094645678E+02  0.12768899083E+03  0.14350417887E+03  0.00000000000E+00 0.  1.
         11    1    4    4    0    0 -0.10394039297E+03 -0.19654438285E+01  0.14424488304E+03  0.17780341544E+03  0.00000000000E+00 0. -1.
         21    1    1    2  502  501  0.46212307285E+02  0.25217255942E+01  0.30371368162E+02  0.55356629672E+02  0.00000000000E+00 0.  1.
<scales pt_clust_5="13000.00000" pt_clust_6="13000.00000" pt_clust_7="13000.00000" pt_clust_8="13000.00000" pt_clust_9="46.28106"></scales>
<clustering>
<clus scale="   46.281">  2  9  1 -1</clus>
<clus scale="   91.064">  5  6 -1 -1</clus>
<clus scale="  111.553">  7  8 -1 -1</clus>
<clus scale="  148.717">  2  5  1 -1</clus>
<clus scale="  162.074">  1  5  2 -1</clus>
</clustering>
</event>
<event>
 9    1  0.1782981E-005  0.1771444E+03  0.7546771E-02  0.1170703E+00
          2   -1    0    0  502    0  0.00000000000E+00  0.00000000000E+00  0.40858238899E+03  0.40858238899E+03  0.00000000000E+00 0. -1.
         -2   -1    0    0    0  501 -0.00000000000E+00 -0.00000000000E+00 -0.12067530655E+03  0.12067530655E+03  0.00000000000E+00 0.  1.
         23    2    1    2    0    0  0.24974412881E+02  0.14947625534E+03  0.47583024082E+01  0.17763842391E+03  0.92552125841E+02 0.  0.
         23    2    1    2    0    0  0.59464841735E+01 -0.15180418977E+03  0.24220249429E+03  0.30025664446E+03  0.91717673307E+02 0.  0.
        -11    1    3    3    0    0 -0.27375073500E+02  0.62638408973E+02  0.27566728233E+02  0.73708136818E+02  0.00000000000E+00 0. -1.
         11    1    3    3    0    0  0.52349486381E+02  0.86837846366E+02 -0.22808425825E+02  0.10393028709E+03  0.00000000000E+00 0.  1.
        -13    1    4    4    0    0  0.13530320880E+02 -0.41693902604E+02  0.12769590565E+02  0.45656473152E+02  0.00000000000E+00 0.  1.
         13    1    4    4    0    0 -0.75838367069E+01 -0.11011028717E+03  0.22943290373E+03  0.25460017131E+03  0.00000000000E+00 0. -1.
         21    1    1    2  502  501 -0.30920897055E+02  0.23279344342E+01  0.40946285747E+02  0.51362627171E+02  0.00000000000E+00 0. -1.
<scales pt_clust_5="13000.00000" pt_clust_6="13000.00000" pt_clust_7="13000.00000" pt_clust_8="13000.00000" pt_clust_9="31.00840"></scales>
<clustering>
<clus scale="   31.008">  1  9  2 -1</clus>
<clus scale="   91.718">  7  8 -1 -1</clus>
<clus scale="   92.552">  5  6 -1 -1</clus>
<clus scale="  176.710">  1  7  2 -1</clus>
<clus scale="   31.008">  1  5  2 -1</clus>
</clustering>
</event>
<event>
 9    1  0.1782981E-005  0.1069968E+03  0.7546771E-02  0.1268016E+00
         -1   -1    0    0    0  501 -0.00000000000E+00  0.00000000000E+00  0.56119439024E+02  0.56119439024E+02  0.00000000000E+00 0.  1.
          1   -1    0    0  502    0  0.00000000000E+00 -0.00000000000E+00 -0.25390593031E+03  0.25390593031E+03  0.00000000000E+00 0. -1.
         23    2    1    2    0    0  0.64104004564E+02  0.13227455747E+02 -0.79688740569E+02  0.13888274972E+03  0.93025984600E+02 0.  0.
         23    2    1    2    0    0 -0.40392429694E+02 -0.32245319331E+01 -0.86878062356E+02  0.13068318055E+03  0.88816383496E+02 0.  0.
        -11    1    4    4    0    0  0.25356468212E+02 -0.12961655714E+02 -0.12992673696E+02  0.31301191172E+02  0.00000000000E+00 0.  1.
         11    1    4    4    0    0 -0.65748897905E+02  0.97371237813E+01 -0.73885388661E+02  0.99381989378E+02  0.00000000000E+00 0. -1.
        -13    1    3    3    0    0 -0.13499771203E+02 -0.15762381517E+02  0.39902046866E+01  0.21133343963E+02  0.00000000000E+00 0.  1.
         13    1    3    3    0    0  0.77603775767E+02  0.28989837264E+02 -0.83678945255E+02  0.11774940576E+03  0.00000000000E+00 0. -1.
         21    1    1    2  502  501 -0.23711574870E+02 -0.10002923814E+02 -0.31219688364E+02  0.40459439062E+02  0.00000000000E+00 0. -1.
<scales pt_clust_5="13000.00000" pt_clust_6="13000.00000" pt_clust_7="13000.00000" pt_clust_8="13000.00000" pt_clust_9="25.73514"></scales>
<clustering>
<clus scale="   25.735">  2  9  1 -1</clus>
<clus scale="   88.816">  5  6 -1 -1</clus>
<clus scale="   93.026">  7  8 -1 -1</clus>
<clus scale="  103.358">  2  5  1 -1</clus>
<clus scale="   25.735">  2  5  1 -1</clus>
</clustering>
</event>
<event>
 9    1  0.2829907E-005  0.1060340E+03  0.7546771E-02  0.1268830E+00
          3   -1    0    0  502    0  0.00000000000E+00  0.00000000000E+00  0.94109609812E+02  0.94109609812E+02  0.00000000000E+00 0. -1.
         -3   -1    0    0    0  501 -0.00000000000E+00 -0.00000000000E+00 -0.36881368775E+03  0.36881368775E+03  0.00000000000E+00 0.  1.
         23    2    1    2    0    0  0.21758688938E+02  0.25454742595E+02 -0.30053821664E+03  0.31565991089E+03  0.90534939188E+02 0.  0.
         23    2    1    2    0    0 -0.29642257784E+02 -0.45641957348E+02  0.46996663901E+02  0.11697268233E+03  0.92260881611E+02 0.  0.
        -11    1    3    3    0    0  0.41396237373E+02  0.30353137137E+02 -0.28641878513E+03  0.29098227072E+03  0.00000000000E+00 0.  1.
         11    1    3    3    0    0 -0.19637548435E+02 -0.48983945425E+01 -0.14119431514E+02  0.24677640161E+02  0.00000000000E+00 0. -1.
        -13    1    4    4    0    0 -0.18535945971E+02  0.13853052473E+02  0.51319763041E+02  0.56295705293E+02  0.00000000000E+00 0. -1.
         13    1    4    4    0    0 -0.11106311813E+02 -0.59495009821E+02 -0.43230991400E+01  0.60676977033E+02  0.00000000000E+00 0.  1.
         21    1    1    2  502  501  0.78835688456E+01  0.20187214753E+02 -0.21162525200E+02  0.30290704351E+02  0.00000000000E+00 0. -1.
<scales pt_clust_5="13000.00000" pt_clust_6="13000.00000" pt_clust_7="13000.00000" pt_clust_8="13000.00000" pt_clust_9="21.67197"></scales>
<clustering>
<clus scale="   21.672">  2  9  1 -1</clus>
<clus scale="   90.535">  5  6 -1 -1</clus>
<clus scale="   92.261">  7  8 -1 -1</clus>
<clus scale="  104.536">  2  5  1 -1</clus>
<clus scale="  106.034">  1  5  2 -1</clus>
</clustering>
</event>
<event>
 9    1  0.1782981E-005  0.1328189E+03  0.7546771E-02  0.1241393E+00
          1   -1    0    0  502    0  0.00000000000E+00  0.00000000000E+00  0.41349484995E+03  0.41349484995E+03  0.00000000000E+00 0. -1.
         -1   -1    0    0    0  501 -0.00000000000E+00 -0.00000000000E+00 -0.13520394150E+03  0.13520394150E+03  0.00000000000E+00 0.  1.
         23    2    1    2    0    0  0.41632448058E+00 -0.20532371919E+02 -0.78656623737E+02  0.12074107458E+03  0.89273685990E+02 0.  0.
         23    2    1    2    0    0 -0.67270411965E+02 -0.59338778428E+02  0.23381659213E+03  0.26668125215E+03  0.91664019903E+02 0.  0.
        -13    1    4    4    0    0  0.22956475187E+02 -0.82478292999E+01  0.50140460302E+02  0.55759234217E+02  0.00000000000E+00 0.  1.
         13    1    4    4    0    0 -0.90226887153E+02 -0.51090949128E+02  0.18367613182E+03  0.21092201794E+03  0.00000000000E+00 0. -1.
        -13    1    3    3    0    0  0.33224627929E+02  0.20392692302E+02 -0.37184703302E+02  0.53874297768E+02  0.00000000000E+00 0.  1.
         13    1    3    3    0    0 -0.32808303448E+02 -0.40925064221E+02 -0.41471920434E+02  0.66866776811E+02  0.00000000000E+00 0. -1.
         21    1    1    2  502  501  0.66854087485E+02  0.79871150347E+02  0.12313094006E+03  0.16127646472E+03  0.00000000000E+00 0.  1.
<scales pt_clust_5="13000.00000" pt_clust_6="13000.00000" pt_clust_7="13000.00000" pt_clust_8="13000.00000" pt_clust_9="96.11750"></scales>
<clustering>
<clus scale="   89.274">  7  8 -1 -1</clus>
<clus scale="   91.605">  2  7  1 -1</clus>
<clus scale="   91.664">  5  6 -1 -1</clus>
<clus scale="   96.117">  2  9  1 -1</clus>
<clus scale="  132.819">  1  5  2 -1</clus>
</clustering>
</event>
<event>
 9    1  0.1782981E-005  0.1891686E+03  0.7546771E-02  0.1159509E+00
          2   -1    0    0  502    0  0.00000000000E+00  0.00000000000E+00  0.22943930970E+03  0.22943930970E+03  0.00000000000E+00 0. -1.
         -2   -1    0    0    0  501 -0.00000000000E+00 -0.00000000000E+00 -0.27630884606E+03  0.27630884606E+03  0.00000000000E+00 0.  1.
         23    2    1    2    0    0 -0.44907623756E+02  0.19923603839E+03 -0.91121762669E+02  0.24047412084E+03  0.88390799825E+02 0.  0.
         23    2    1    2    0    0 -0.26941579015E+02 -0.12607562447E+03  0.14691422747E+02  0.15855667359E+03  0.91123372808E+02 0.  0.
        -11    1    3    3    0    0 -0.32436578531E+02  0.16743394714E+03 -0.10851309888E+03  0.20214190786E+03  0.00000000000E+00 0.  1.
         11    1    3    3    0    0 -0.12471045226E+02  0.31802091249E+02  0.17391336209E+02  0.38332212981E+02  0.00000000000E+00 0. -1.
        -11    1    4    4    0    0 -0.24236090366E+02 -0.13619992670E+02 -0.26843414166E+02  0.38645325211E+02  0.00000000000E+00 0.  1.
         11    1    4    4    0    0 -0.27054886485E+01 -0.11245563180E+03  0.41534836913E+02  0.11991134838E+03  0.00000000000E+00 0. -1.
         21    1    1    2  502  501  0.71849202771E+02 -0.73160413927E+02  0.29560803558E+02  0.10671736134E+03  0.00000000000E+00 0. -1.
<scales pt_clust_5="13000.00000" pt_clust_6="13000.00000" pt_clust_7="13000.00000" pt_clust_8="13000.00000" pt_clust_9="102.54148"></scales>
<clustering>
<clus scale="   88.391">  5  6 -1 -1</clus>
<clus scale="   91.123">  7  8 -1 -1</clus>
<clus scale="  102.541">  1  9  2 -1</clus>
<clus scale="  187.868">  2  5  1 -1</clus>
<clus scale="  102.541">  1  5  2 -1</clus>
</clustering>
</event>
<event>
 9    1  0.1782981E-005  0.2772672E+03  0.7546771E-02  0.1097275E+00
          2   -1    0    0  502    0  0.00000000000E+00  0.00000000000E+00  0.65746569823E+03  0.65746569823E+03  0.00000000000E+00 0. -1.
         -2   -1    0    0    0  501 -0.00000000000E+00 -0.00000000000E+00 -0.22703581453E+03  0.22703581453E+03  0.00000000000E+00 0.  1.
         23    2    1    2    0    0 -0.76302441503E+02 -0.23867662679E+03 -0.25803732228E+02  0.26702810556E+03  0.88597865703E+02 0.  0.
         23    2    1    2    0    0  0.99299386017E+02  0.27267951085E+03  0.21390551080E+03  0.37169308635E+03  0.90474853930E+02 0.  0.
        -11    1    3    3    0    0  0.20501758306E+01 -0.13628309822E+03 -0.21820894617E+02  0.13803418969E+03  0.00000000000E+00 0.  1.
         11    1    3    3    0    0 -0.78352617334E+02 -0.10239352856E+03 -0.39828376109E+01  0.12899391587E+03  0.00000000000E+00 0. -1.
        -13    1    4    4    0    0  0.10867319424E+03  0.24253999885E+03  0.16293926530E+03  0.31174463647E+03  0.00000000000E+00 0.  1.
         13    1    4    4    0    0 -0.93738082232E+01  0.30139511999E+02  0.50966245492E+02  0.59948449885E+02  0.00000000000E+00 0. -1.
         21    1    1    2  502  501 -0.22996944514E+02 -0.34002884064E+02  0.24232810514E+03  0.24578032086E+03  0.00000000000E+00 0. -1.
<scales pt_clust_5="13000.00000" pt_clust_6="13000.00000" pt_clust_7="13000.00000" pt_clust_8="13000.00000" pt_clust_9="41.04943"></scales>
<clustering>
<clus scale="   41.049">  1  9  2 -1</clus>
<clus scale="   88.598">  5  6 -1 -1</clus>
<clus scale="   90.475">  7  8 -1 -1</clus>
<clus scale="  276.660">  2  5  1 -1</clus>
<clus scale="   41.049">  1  5  2 -1</clus>
</clustering>
</event>
<event>
 9    1  0.1782981E-005  0.1368759E+03  0.7546771E-02  0.1218574E+00
         -1   -1    0    0    0  501 -0.00000000000E+00  0.00000000000E+00  0.86828985341E+02  0.86828985341E+02  0.00000000000E+00 0.  1.
          1   -1    0    0  502    0  0.00000000000E+00 -0.00000000000E+00 -0.43088416205E+03  0.43088416205E+03  0.00000000000E+00 0. -1.
         23    2    1    2    0    0 -0.95405649049E+02 -0.90742316924E+02 -0.62046253534E+02  0.17048338628E+03  0.88760585108E+02 0.  0.
         23    2    1    2    0    0  0.47262789714E+02  0.48943197683E+02 -0.93866656000E+02  0.14857827239E+03  0.92926562546E+02 0.  0.
        -11    1    4    4    0    0  0.74974958550E+01  0.65330897955E+02 -0.31745886541E+02  0.73021503572E+02  0.00000000000E+00 0.  1.
         11    1    4    4    0    0  0.39765293859E+02 -0.16387700272E+02 -0.62120769459E+02  0.75556768817E+02  0.00000000000E+00 0. -1.
        -13    1    3    3    0    0 -0.68759220079E+02 -0.93832272409E+02 -0.77257084267E+02  0.13964591924E+03  0.00000000000E+00 0.  1.
         13    1    3    3    0    0 -0.26646428969E+02  0.30899554857E+01  0.15210830733E+02  0.30837467038E+02  0.00000000000E+00 0. -1.
         21    1    1    2  502  501  0.48142859335E+02  0.41799119241E+02 -0.18814226718E+03  0.19865148873E+03  0.00000000000E+00 0. -1.
<scales pt_clust_5="13000.00000" pt_clust_6="13000.00000" pt_clust_7="13000.00000" pt_clust_8="13000.00000" pt_clust_9="63.75658"></scales>
<clustering>
<clus scale="   63.757">  2  9  1 -1</clus>
<clus scale="   88.761">  7  8 -1 -1</clus>
<clus scale="   92.927">  5  6 -1 -1</clus>
<clus scale="  134.082">  1  7  2 -1</clus>
<clus scale="   63.757">  2  5  1 -1</clus>
</clustering>
</event>
<event>
 9    1  0.1782981E-005  0.9503523E+02  0.7546771E-02  0.1293694E+00
          2   -1    0    0  502    0  0.00000000000E+00  0.00000000000E+00  0.19174472133E+03  0.19174472133E+03  0.00000000000E+00 0. -1.
         -2   -1    0    0    0  501 -0.00000000000E+00 -0.00000000000E+00 -0.19829319457E+03  0.19829319457E+03  0.00000000000E+00 0.  1.
         23    2    1    2    0    0  0.88746474472E+01  0.36109556201E+02 -0.83633942757E+02  0.13179379075E+03  0.94827778013E+02 0.  0.
         23    2    1    2    0    0  0.20260010390E+02  0.34850410227E+02 -0.49212646450E+02  0.11047620164E+03  0.90322131526E+02 0.  0.
        -13    1    4    4    0    0  0.10188609940E+02 -0.30754793627E+02 -0.13433433373E+02  0.35073098463E+02  0.00000000000E+00 0. -1.
         13    1    4    4    0    0  0.10071400450E+02  0.65605203855E+02 -0.35779213077E+02  0.75403103174E+02  0.00000000000E+00 0.  1.
        -13    1    3    3    0    0 -0.22767622295E+02  0.45155513506E+02 -0.84943991208E+02  0.98857810350E+02  0.00000000000E+00 0.  1.
         13    1    3    3    0    0  0.31642269742E+02 -0.90459573043E+01  0.13100484513E+01  0.32935980400E+02  0.00000000000E+00 0. -1.
         21    1    1    2  502  501 -0.29134657837E+02 -0.70959966429E+02  0.12629811597E+03  0.14776792352E+03  0.00000000000E+00 0. -1.
<scales pt_clust_5="13000.00000" pt_clust_6="13000.00000" pt_clust_7="13000.00000" pt_clust_8="13000.00000" pt_clust_9="76.70818"></scales>
<clustering>
<clus scale="   76.708">  1  9  2 -1</clus>
<clus scale="   90.322">  5  6 -1 -1</clus>
<clus scale="   90.540">  1  5  2 -1</clus>
<clus scale="   94.828">  7  8 -1 -1</clus>
<clus scale="   76.708">  1  5  2 -1</clus>
</clustering>
</event>
<event>
 9    1  0.1782981E-005  0.9192837E+02  0.7546771E-02  0.1300444E+00
         -1   -1    0    0    0  501 -0.00000000000E+00  0.00000000000E+00  0.12175497703E+03  0.12175497703E+03  0.00000000000E+00 0.  1.
          1   -1    0    0  502    0  0.00000000000E+00 -0.00000000000E+00 -0.30094254789E+03  0.30094254789E+03  0.00000000000E+00 0. -1.
         23    2    1    2    0    0 -0.10476536512E+01  0.71938378907E+01  0.43997619598E+02  0.10170249350E+03  0.91404364076E+02 0.  0.
         23    2    1    2    0    0 -0.23183955141E+02  0.26432956891E+02 -0.53044118975E+00  0.94515298191E+02  0.87730628849E+02 0.  0.
        -11    1    3    3    0    0  0.44780191237E+02 -0.12247649876E+00  0.26936322045E+02  0.52257496812E+02  0.00000000000E+00 0. -1.
         11    1    3    3    0    0 -0.45827844888E+02  0.73163143895E+01  0.17061297552E+02  0.49444996688E+02  0.00000000000E+00 0.  1.
        -11    1    4    4    0    0  0.93715266352E+01  0.52155312760E+02  0.92822745067E+00  0.52998714765E+02  0.00000000000E+00 0. -1.
         11    1    4    4    0    0 -0.32555481776E+02 -0.25722355869E+02 -0.14586686404E+01  0.41516583426E+02  0.00000000000E+00 0.  1.
         21    1    1    2  502  501  0.24231608792E+02 -0.33626794782E+02 -0.22265474927E+03  0.22647973323E+03  0.00000000000E+00 0. -1.
<scales pt_clust_5="13000.00000" pt_clust_6="13000.00000" pt_clust_7="13000.00000" pt_clust_8="13000.00000" pt_clust_9="41.44795"></scales>
<clustering>
<clus scale="   41.448">  2  9  1 -1</clus>
<clus scale="   87.731">  7  8 -1 -1</clus>
<clus scale="   88.276">  2  7  1 -1</clus>
<clus scale="   91.404">  5  6 -1 -1</clus>
<clus scale="   41.448">  2  5  1 -1</clus>
</clustering>
</event>
<event>
 9    1  0.1782981E-005  0.1109814E+03  0.7546771E-02  0.1260079E+00
         -3   -1    0    0    0  501 -0.00000000000E+00  0.00000000000E+00  0.12395786180E+03  0.12395786180E+03  0.00000000000E+00 0.  1.
          3   -1    0    0  502    0  0.00000000000E+00 -0.00000000000E+00 -0.23143255089E+03  0.23143255089E+03  0.00000000000E+00 0. -1.
         23    2    1    2    0    0 -0.53306817075E+02  0.28742953139E+02  0.62440406946E+02  0.12406426361E+03  0.88461081740E+02 0.  0.
         23    2    1    2    0    0  0.77581798417E+02 -0.14765241587E+01 -0.13497680786E+03  0.18079480386E+03  0.91907055630E+02 0.  0.
        -11    1    4    4    0    0  0.46298416981E+02 -0.15497165150E+02 -0.13799815847E+03  0.14638031727E+03  0.00000000000E+00 0. -1.
         11    1    4    4    0    0  0.31283381436E+02  0.14020640991E+02  0.30213506124E+01  0.34414486592E+02  0.00000000000E+00 0.  1.
        -13    1    3    3    0    0  0.96882015836E+01 -0.22950003756E+02  0.84207359776E+01  0.26295868815E+02  0.00000000000E+00 0. -1.
         13    1    3    3    0    0 -0.62995018659E+02  0.51692956896E+02  0.54019670968E+02  0.97768394791E+02  0.00000000000E+00 0.  1.
         21    1    1    2  502  501 -0.24274981342E+02 -0.27266428981E+02 -0.34938288188E+02  0.50531345223E+02  0.00000000000E+00 0. -1.
<scales pt_clust_5="13000.00000" pt_clust_6="13000.00000" pt_clust_7="13000.00000" pt_clust_8="13000.00000" pt_clust_9="36.50661"></scales>
<clustering>
<clus scale="   36.507">  2  9  1 -1</clus>
<clus scale="   88.461">  7  8 -1 -1</clus>
<clus scale="   91.907">  5  6 -1 -1</clus>
<clus scale="  108.145">  1  7  2 -1</clus>
<clus scale="   36.507">  2  5  1 -1</clus>
</clustering>
</event>
<event>
 9    1  0.1782981E-005  0.1039228E+03  0.7546771E-02  0.1273630E+00
          1   -1    0    0  502    0  0.00000000000E+00  0.00000000000E+00  0.34791713943E+03  0.34791713943E+03  0.00000000000E+00 0. -1.
         -1   -1    0    0    0  501 -0.00000000000E+00 -0.00000000000E+00 -0.15934582434E+03  0.15934582434E+03  0.00000000000E+00 0.  1.
         23    2    1    2    0    0 -0.19040218454E+02  0.45958409752E+02 -0.12540901002E+03  0.16117408499E+03  0.88175736641E+02 0.  0.
         23    2    1    2    0    0  0.50057401707E+02 -0.31245446402E+02  0.26355376138E+03  0.28508580281E+03  0.91276001459E+02 0.  0.
        -13    1    3    3    0    0 -0.48361732237E+02  0.22276963593E+02 -0.10635974920E+03  0.11894333316E+03  0.00000000000E+00 0.  1.
         13    1    3    3    0    0  0.29321513783E+02  0.23681446158E+02 -0.19049260818E+02  0.42230751833E+02  0.00000000000E+00 0. -1.
        -13    1    4    4    0    0  0.51886967228E+02 -0.60313498758E+02  0.19208073136E+03  0.20790618764E+03  0.00000000000E+00 0. -1.
         13    1    4    4    0    0 -0.18295655212E+01  0.29068052356E+02  0.71473030019E+02  0.77179615170E+02  0.00000000000E+00 0.  1.
         21    1    1    2  502  501 -0.31017183253E+02 -0.14712963349E+02  0.50426563734E+02  0.61003075967E+02  0.00000000000E+00 0.  1.
<scales pt_clust_5="13000.00000" pt_clust_6="13000.00000" pt_clust_7="13000.00000" pt_clust_8="13000.00000" pt_clust_9="34.32983"></scales>
<clustering>
<clus scale="   34.330">  1  9  2 -1</clus>
<clus scale="   88.176">  5  6 -1 -1</clus>
<clus scale="   91.276">  7  8 -1 -1</clus>
<clus scale="  101.211">  2  5  1 -1</clus>
<clus scale="   34.330">  1  5  2 -1</clus>
</clustering>
</event>
<event>
 9    1  0.1782981E-005  0.1387959E+03  0.7546771E-02  0.1215355E+00
          1   -1    0    0  502    0  0.00000000000E+00  0.00000000000E+00  0.88679570455E+03  0.88679570455E+03  0.00000000000E+00 0. -1.
         -1   -1    0    0    0  501 -0.00000000000E+00 -0.00000000000E+00 -0.59422347182E+02  0.59422347182E+02  0.00000000000E+00 0.  1.
         23    2    1    2    0    0 -0.21512790732E+02 -0.10230784950E+03  0.48678331579E+02  0.14750229552E+03  0.91965487995E+02 0.  0.
         23    2    1    2    0    0  0.57474817106E+02  0.89315283623E+02  0.62312222790E+03  0.63851285502E+03  0.90204105399E+02 0.  0.
        -13    1    4    4    0    0  0.39562546092E+02 -0.71719636764E+01  0.21774784093E+03  0.22142889231E+03  0.00000000000E+00 0.  1.
         13    1    4    4    0    0  0.17912271013E+02  0.96487247299E+02  0.40537438697E+03  0.41708396271E+03  0.00000000000E+00 0. -1.
        -13    1    3    3    0    0 -0.48293149741E+02 -0.65753739990E+02  0.80938228536E+00  0.81586994884E+02  0.00000000000E+00 0.  1.
         13    1    3    3    0    0  0.26780359008E+02 -0.36554109514E+02  0.47868949294E+02  0.65915300632E+02  0.00000000000E+00 0. -1.
         21    1    1    2  502  501 -0.35962026373E+02  0.12992565881E+02  0.15557279789E+03  0.16020290120E+03  0.00000000000E+00 0.  1.
<scales pt_clust_5="13000.00000" pt_clust_6="13000.00000" pt_clust_7="13000.00000" pt_clust_8="13000.00000" pt_clust_9="38.23708"></scales>
<clustering>
<clus scale="   38.237">  1  9  2 -1</clus>
<clus scale="   90.204">  5  6 -1 -1</clus>
<clus scale="   91.965">  7  8 -1 -1</clus>
<clus scale="  137.635">  1  5  2 -1</clus>
<clus scale="   38.237">  1  5  2 -1</clus>
</clustering>
</event>
<event>
 9    1  0.1782981E-005  0.1767179E+03  0.7546771E-02  0.1171124E+00
          2   -1    0    0  502    0  0.00000000000E+00  0.00000000000E+00  0.11481536123E+04  0.11481536123E+04  0.00000000000E+00 0. -1.
         -2   -1    0    0    0  501 -0.00000000000E+00 -0.00000000000E+00 -0.81934223485E+02  0.81934223485E+02  0.00000000000E+00 0.  1.
         23    2    1    2    0    0 -0.15471938594E+03  0.48772229690E+01  0.46607865827E+02  0.18673722021E+03  0.93469891226E+02 0.  0.
         23    2    1    2    0    0  0.11790023510E+03 -0.47918312717E+02  0.62797412791E+03  0.64763855549E+03  0.94273872798E+02 0.  0.
        -11    1    3    3    0    0 -0.90323034493E+02 -0.13428306755E+02  0.70805481882E+02  0.11555079509E+03  0.00000000000E+00 0. -1.
         11    1    3    3    0    0 -0.64396351451E+02  0.18305529724E+02 -0.24197616055E+02  0.71186425120E+02  0.00000000000E+00 0.  1.
        -13    1    4    4    0    0  0.46182521013E+01 -0.40539718440E+02  0.23819696282E+03  0.24166627841E+03  0.00000000000E+00 0.  1.
         13    1    4    4    0    0  0.11328198300E+03 -0.73785942774E+01  0.38977716510E+03  0.40597227708E+03  0.00000000000E+00 0. -1.
         21    1    1    2  502  501  0.36819150840E+02  0.43041089748E+02  0.39163739504E+03  0.39571206005E+03  0.00000000000E+00 0. -1.
<scales pt_clust_5="13000.00000" pt_clust_6="13000.00000" pt_clust_7="13000.00000" pt_clust_8="13000.00000" pt_clust_9="56.64084"></scales>
<clustering>
<clus scale="   56.641">  1  9  2 -1</clus>
<clus scale="   93.470">  5  6 -1 -1</clus>
<clus scale="   94.274">  7  8 -1 -1</clus>
<clus scale="  176.290">  2  5  1 -1</clus>
<clus scale="   56.641">  1  5  2 -1</clus>
</clustering>
</event>
<event>
 9    1  0.1782981E-005  0.1234976E+03  0.7546771E-02  0.1237630E+00
          1   -1    0    0  502    0  0.00000000000E+00  0.00000000000E+00  0.17196399101E+03  0.17196399101E+03  0.00000000000E+00 0. -1.
         -1   -1    0    0    0  501 -0.00000000000E+00 -0.00000000000E+00 -0.25978357190E+03  0.25978357190E+03  0.00000000000E+00 0.  1.
         23    2    1    2    0    0 -0.46196717900E+02  0.75348162912E+02 -0.11892164580E+03  0.17380785577E+03  0.90858849247E+02 0.  0.
         23    2    1    2    0    0  0.53488177075E+02 -0.56149038930E+02 -0.80501299882E+02  0.14446247255E+03  0.91516375764E+02 0.  0.
        -13    1    4    4    0    0  0.79130366906E+02 -0.43888520191E+02 -0.69035333185E+02  0.11381429787E+03  0.00000000000E+00 0. -1.
         13    1    4    4    0    0 -0.25642189831E+02 -0.12260518739E+02 -0.11465966697E+02  0.30648174682E+02  0.00000000000E+00 0.  1.
        -13    1    3    3    0    0 -0.41360418295E+02  0.37029623235E+02 -0.76691217220E+01  0.56041882788E+02  0.00000000000E+00 0. -1.
         13    1    3    3    0    0 -0.48362996048E+01  0.38318539678E+02 -0.11125252408E+03  0.11776597298E+03  0.00000000000E+00 0.  1.
         21    1    1    2  502  501 -0.72914591756E+01 -0.19199123983E+02  0.11160336480E+03  0.11347723460E+03  0.00000000000E+00 0. -1.
<scales pt_clust_5="13000.00000" pt_clust_6="13000.00000" pt_clust_7="13000.00000" pt_clust_8="13000.00000" pt_clust_9="20.53708"></scales>
<clustering>
<clus scale="   20.537">  1  9  2 -1</clus>
<clus scale="   90.859">  7  8 -1 -1</clus>
<clus scale="   91.516">  5  6 -1 -1</clus>
<clus scale="  123.011">  2  7  1 -1</clus>
<clus scale="   20.537">  1  5  2 -1</clus>
</clustering>
</event>
<event>
 9    1  0.1782981E-005  0.1158024E+03  0.7546771E-02  0.1250305E+00
          2   -1    0    0  502    0  0.00000000000E+00  0.00000000000E+00  0.82848817328E+02  0.82848817328E+02  0.00000000000E+00 0. -1.
         -2   -1    0    0    0  501 -0.00000000000E+00 -0.00000000000E+00 -0.29620512255E+03  0.29620512255E+03  0.00000000000E+00 0.  1.
         23    2    1    2    0    0  0.44568372834E+02  0.86893348529E+02 -0.13967112026E+03  0.19350237468E+03  0.91642529945E+02 0.  0.
         23    2    1    2    0    0 -0.24835192972E+02 -0.56049366243E+02 -0.78879993895E+01  0.11025203493E+03  0.91296070040E+02 0.  0.
        -11    1    4    4    0    0  0.27406250647E+02 -0.42577709327E+02  0.13197947864E+02  0.52327332570E+02  0.00000000000E+00 0.  1.
         11    1    4    4    0    0 -0.52241443618E+02 -0.13471656915E+02 -0.21085947253E+02  0.57924702355E+02  0.00000000000E+00 0. -1.
        -13    1    3    3    0    0  0.39770660656E+02  0.32907887861E+02 -0.94839073144E+01  0.52484083592E+02  0.00000000000E+00 0. -1.
         13    1    3    3    0    0  0.47977121783E+01  0.53985460668E+02 -0.13018721295E+03  0.14101829109E+03  0.00000000000E+00 0.  1.
         21    1    1    2  502  501 -0.19733179863E+02 -0.30843982286E+02 -0.65797185573E+02  0.75299530278E+02  0.00000000000E+00 0.  1.
<scales pt_clust_5="13000.00000" pt_clust_6="13000.00000" pt_clust_7="13000.00000" pt_clust_8="13000.00000" pt_clust_9="36.61625"></scales>
<clustering>
<clus scale="   36.616">  2  9  1 -1</clus>
<clus scale="   91.296">  5  6 -1 -1</clus>
<clus scale="   91.643">  7  8 -1 -1</clus>
<clus scale="  115.528">  1  5  2 -1</clus>
<clus scale="  115.528">  1  5  2 -1</clus>
</clustering>
</event>
<event>
 9    1  0.1782981E-005  0.9180517E+02  0.7546771E-02  0.1302157E+00
         -1   -1    0    0    0  501 -0.00000000000E+00  0.00000000000E+00  0.23925172256E+03  0.23925172256E+03  0.00000000000E+00 0.  1.
          1   -1    0    0  502    0  0.00000000000E+00 -0.00000000000E+00 -0.95266381550E+02  0.95266381550E+02  0.00000000000E+00 0. -1.
         23    2    1    2    0    0 -0.21575168940E+01 -0.25253248949E+02  0.98494106712E+02  0.13278604968E+03  0.85373675523E+02 0.  0.
         23    2    1    2    0    0 -0.12763367394E+02 -0.10791178555E+02  0.98861564853E+02  0.13562437162E+03  0.91329119624E+02 0.  0.
        -11    1    4    4    0    0 -0.51941316395E+02 -0.13186622761E+02  0.56319608376E+02  0.77741145195E+02  0.00000000000E+00 0.  1.
         11    1    4    4    0    0  0.39177949001E+02  0.23954442059E+01  0.42541956476E+02  0.57883226428E+02  0.00000000000E+00 0. -1.
        -13    1    3    3    0    0  0.33289493832E+02 -0.36788832773E+02  0.41493592950E+02  0.64678643093E+02  0.00000000000E+00 0. -1.
         13    1    3    3    0    0 -0.35447010727E+02  0.11535583824E+02  0.57000513762E+02  0.68107406592E+02  0.00000000000E+00 0.  1.
         21    1    1    2  502  501  0.14920884288E+02  0.36044427504E+02 -0.53370330554E+02  0.66107682802E+02  0.00000000000E+00 0. -1.
<scales pt_clust_5="13000.00000" pt_clust_6="13000.00000" pt_clust_7="13000.00000" pt_clust_8="13000.00000" pt_clust_9="39.01068"></scales>
<clustering>
<clus scale="   39.011">  2  9  1 -1</clus>
<clus scale="   85.374">  7  8 -1 -1</clus>
<clus scale="   85.883">  1  7  2 -1</clus>
<clus scale="   91.329">  5  6 -1 -1</clus>
<clus scale="   39.011">  2  5  1 -1</clus>
</clustering>
</event>
<event>
 9    1  0.1782981E-005  0.9694290E+02  0.7546771E-02  0.1287354E+00
          1   -1    0    0  502    0  0.00000000000E+00  0.00000000000E+00  0.56832914722E+02  0.56832914722E+02  0.00000000000E+00 0. -1.
         -1   -1    0    0    0  501 -0.00000000000E+00 -0.00000000000E+00 -0.25232253494E+03  0.25232253494E+03  0.00000000000E+00 0.  1.
         23    2    1    2    0    0  0.45888291196E+02  0.13020212078E+02 -0.10921491629E+03  0.15032198365E+03  0.91616262946E+02 0.  0.
         23    2    1    2    0    0 -0.92248401316E+01 -0.16745252602E+02 -0.77869399260E+02  0.12103487190E+03  0.90665846456E+02 0.  0.
        -11    1    3    3    0    0  0.61514816668E+02 -0.13508161425E+02 -0.10000670564E+03  0.11818580400E+03  0.00000000000E+00 0.  1.
         11    1    3    3    0    0 -0.15626525472E+02  0.26528373503E+02 -0.92082106562E+01  0.32136179650E+02  0.00000000000E+00 0. -1.
        -13    1    4    4    0    0 -0.33572238441E+02  0.25032796055E+02 -0.22557825827E+02  0.47566706616E+02  0.00000000000E+00 0. -1.
         13    1    4    4    0    0  0.24347398309E+02 -0.41778048657E+02 -0.55311573432E+02  0.73468165280E+02  0.00000000000E+00 0.  1.
         21    1    1    2  502  501 -0.36663451064E+02  0.37250405236E+01 -0.84053046686E+01  0.37798594119E+02  0.00000000000E+00 0. -1.
<scales pt_clust_5="13000.00000" pt_clust_6="13000.00000" pt_clust_7="13000.00000" pt_clust_8="13000.00000" pt_clust_9="36.85220"></scales>
<clustering>
<clus scale="   36.852">  1  9  2 -1</clus>
<clus scale="   90.666">  7  8 -1 -1</clus>
<clus scale="   91.616">  5  6 -1 -1</clus>
<clus scale="   96.045">  1  7  2 -1</clus>
<clus scale="   36.852">  1  5  2 -1</clus>
</clustering>
</event>
<event>
 9    1  0.1782981E-005  0.1252542E+03  0.7546771E-02  0.1236859E+00
         -1   -1    0    0    0  501 -0.00000000000E+00  0.00000000000E+00  0.24725184594E+03  0.24725184594E+03  0.00000000000E+00 0.  1.
          1   -1    0    0  502    0  0.00000000000E+00 -0.00000000000E+00 -0.10931205253E+03  0.10931205253E+03  0.00000000000E+00 0. -1.
         23    2    1    2    0    0 -0.77313042738E+02 -0.22649637699E+02  0.16164074390E+03  0.20569165511E+03  0.98442949102E+02 0.  0.
         23    2    1    2    0    0  0.70316959294E+02 -0.63066302063E+01 -0.32238256054E+02  0.11988359671E+03  0.91370253680E+02 0.  0.
        -11    1    3    3    0    0  0.18020798209E+02  0.16136985177E+02  0.33938249149E+02  0.41676806667E+02  0.00000000000E+00 0. -1.
         11    1    3    3    0    0 -0.95333840947E+02 -0.38786622876E+02  0.12770249475E+03  0.16401484844E+03  0.00000000000E+00 0.  1.
        -13    1    4    4    0    0  0.27439236860E+02 -0.44188385317E+02  0.39834837235E+01  0.52166974792E+02  0.00000000000E+00 0.  1.
         13    1    4    4    0    0  0.42877722433E+02  0.37881755110E+02 -0.36221739777E+02  0.67716621917E+02  0.00000000000E+00 0. -1.
         21    1    1    2  502  501  0.69960834444E+01  0.28956267905E+02  0.85373055665E+01  0.30988646645E+02  0.00000000000E+00 0.  1.
<scales pt_clust_5="13000.00000" pt_clust_6="13000.00000" pt_clust_7="13000.00000" pt_clust_8="13000.00000" pt_clust_9="29.78944"></scales>
<clustering>
<clus scale="   29.789">  2  9  1 -1</clus>
<clus scale="   91.370">  7  8 -1 -1</clus>
<clus scale="   98.443">  5  6 -1 -1</clus>
<clus scale="  119.775">  2  7  1 -1</clus>
<clus scale="   29.789">  2  5  1 -1</clus>
</clustering>
</event>
<event>
 9    1  0.1782981E-005  0.1219029E+03  0.7546771E-02  0.1239996E+00
          2   -1    0    0  502    0  0.00000000000E+00  0.00000000000E+00  0.33372037238E+03  0.33372037238E+03  0.00000000000E+00 0. -1.
         -2   -1    0    0    0  501 -0.00000000000E+00 -0.00000000000E+00 -0.55320511733E+02  0.55320511733E+02  0.00000000000E+00 0.  1.
         23    2    1    2    0    0 -0.18611722435E+02 -0.91271513751E+02  0.12063171099E+03  0.17732471605E+03  0.90637518672E+02 0.  0.
         23    2    1    2    0    0  0.25066339287E+02  0.65567120611E+02  0.12972651706E+03  0.17313234938E+03  0.90655791340E+02 0.  0.
        -13    1    4    4    0    0  0.41907544464E+02 -0.35787719422E+00  0.26790043882E+02  0.49740092584E+02  0.00000000000E+00 0.  1.
         13    1    4    4    0    0 -0.16841205177E+02  0.65924997805E+02  0.10293647317E+03  0.12339225679E+03  0.00000000000E+00 0. -1.
        -13    1    3    3    0    0  0.33006505976E+01 -0.26475429178E+02 -0.11096757866E+02  0.28896032247E+02  0.00000000000E+00 0.  1.
         13    1    3    3    0    0 -0.21912373032E+02 -0.64796084573E+02  0.13172846885E+03  0.14842868380E+03  0.00000000000E+00 0. -1.
         21    1    1    2  502  501 -0.64546168521E+01  0.25704393140E+02  0.28041632603E+02  0.38583818687E+02  0.00000000000E+00 0. -1.
<scales pt_clust_5="13000.00000" pt_clust_6="13000.00000" pt_clust_7="13000.00000" pt_clust_8="13000.00000" pt_clust_9="26.50241"></scales>
<clustering>
<clus scale="   26.502">  1  9  2 -1</clus>
<clus scale="   90.638">  7  8 -1 -1</clus>
<clus scale="   90.656">  5  6 -1 -1</clus>
<clus scale="  121.889">  2  7  1 -1</clus>
<clus scale="   26.502">  1  5  2 -1</clus>
</clustering>
</event>
<event>
 9    1  0.2228620E-005  0.1615922E+03  0.7546771E-02  0.1189236E+00
          3   -1    0    0  502    0  0.00000000000E+00  0.00000000000E+00  0.57148491299E+03  0.57148491299E+03  0.00000000000E+00 0. -1.
         -3   -1    0    0    0  501 -0.00000000000E+00 -0.00000000000E+00 -0.98197888948E+02  0.98197888948E+02  0.00000000000E+00 0.  1.
         23    2    1    2    0    0  0.93888170305E+02 -0.75479467582E+02  0.65758211451E-01  0.15918759326E+03  0.10406030451E+03 0.  0.
         23    2    1    2    0    0 -0.11440967459E+03  0.83463935464E+02  0.43438896477E+03  0.46585406766E+03  0.90941945637E+02 0.  0.
        -11    1    3    3    0    0  0.18274831213E+02  0.24505595807E+02  0.12890607317E+02  0.33176217968E+02  0.00000000000E+00 0. -1.
         11    1    3    3    0    0  0.75613339092E+02 -0.99985063388E+02 -0.12824849105E+02  0.12601137530E+03  0.00000000000E+00 0.  1.
        -11    1    4    4    0    0 -0.74643363145E+02  0.35096925061E+01  0.25087161519E+03  0.26176423918E+03  0.00000000000E+00 0. -1.
         11    1    4    4    0    0 -0.39766311444E+02  0.79954242958E+02  0.18351734958E+03  0.20408982848E+03  0.00000000000E+00 0.  1.
         21    1    1    2  502  501  0.20521504285E+02 -0.79844678824E+01  0.38832301059E+02  0.44641141014E+02  0.00000000000E+00 0.  1.
<scales pt_clust_5="13000.00000" pt_clust_6="13000.00000" pt_clust_7="13000.00000" pt_clust_8="13000.00000" pt_clust_9="22.02008"></scales>
<clustering>
<clus scale="   22.020">  1  9  2 -1</clus>
<clus scale="   90.942">  7  8 -1 -1</clus>
<clus scale="  104.060">  5  6 -1 -1</clus>
<clus scale="  153.473">  1  7  2 -1</clus>
<clus scale="   22.020">  1  5  2 -1</clus>
</clustering>
</event>
<event>
 9    1  0.1782981E-005  0.9365679E+02  0.7546771E-02  0.1296120E+00
         -2   -1    0    0    0  501 -0.00000000000E+00  0.00000000000E+00  0.27511648459E+03  0.27511648459E+03  0.00000000000E+00 0.  1.
          2   -1    0    0  502    0  0.00000000000E+00 -0.00000000000E+00 -0.80516744912E+02  0.80516744912E+02  0.00000000000E+00 0. -1.
         23    2    1    2    0    0  0.15977977896E+02  0.19894317166E+02  0.21656530517E+03  0.23591925498E+03  0.90034903422E+02 0.  0.
         23    2    1    2    0    0 -0.34870018464E+02 -0.51437562839E+01 -0.19915184446E+02  0.95657950213E+02  0.86668635913E+02 0.  0.
        -11    1    3    3    0    0 -0.31085250895E+02 -0.51116141251E+01  0.36910385085E+02  0.48526260409E+02  0.00000000000E+00 0.  1.
         11    1    3    3    0    0  0.47063228791E+02  0.25005931291E+02  0.17965492008E+03  0.18739299457E+03  0.00000000000E+00 0. -1.
        -11    1    4    4    0    0  0.19845777733E+02 -0.24767166270E+02 -0.20029988822E+02  0.37529559963E+02  0.00000000000E+00 0. -1.
         11    1    4    4    0    0 -0.54715796197E+02  0.19623409986E+02  0.11480437610E+00  0.58128390249E+02  0.00000000000E+00 0.  1.
         21    1    1    2  502  501  0.18892040568E+02 -0.14750560882E+02 -0.20503810456E+01  0.24056024310E+02  0.00000000000E+00 0. -1.
<scales pt_clust_5="13000.00000" pt_clust_6="13000.00000" pt_clust_7="13000.00000" pt_clust_8="13000.00000" pt_clust_9="23.96848"></scales>
<clustering>
<clus scale="   23.968">  2  9  1 -1</clus>
<clus scale="   86.669">  7  8 -1 -1</clus>
<clus scale="   90.035">  5  6 -1 -1</clus>
<clus scale="   90.425">  2  7  1 -1</clus>
<clus scale="   23.968">  2  5  1 -1</clus>
</clustering>
</event>
<event>
 9    1  0.1782981E-005  0.9704253E+02  0.7546771E-02  0.1289315E+00
         -2   -1    0    0    0  501 -0.00000000000E+00  0.00000000000E+00  0.35655739769E+02  0.35655739769E+02  0.00000000000E+00 0.  1.
          2   -1    0    0  502    0  0.00000000000E+00 -0.00000000000E+00 -0.58715423455E+03  0.58715423455E+03  0.00000000000E+00 0. -1.
         23    2    1    2    0    0 -0.20409986651E+01 -0.15744191783E+02 -0.47736534077E+02  0.10444098679E+03  0.91526486800E+02 0.  0.
         23    2    1    2    0    0  0.60939917401E+00 -0.95320507378E+01 -0.39148742785E+03  0.40327550969E+03  0.96319775703E+02 0.  0.
        -11    1    3    3    0    0 -0.36587740449E+02 -0.37039682847E+02 -0.23035313483E+02  0.56931770777E+02  0.00000000000E+00 0.  1.
         11    1    3    3    0    0  0.34546741784E+02  0.21295491064E+02 -0.24701220594E+02  0.47509216015E+02  0.00000000000E+00 0. -1.
        -13    1    4    4    0    0 -0.60553695897E+01 -0.50599177868E+02 -0.15517274631E+03  0.16332643846E+03  0.00000000000E+00 0.  1.
         13    1    4    4    0    0  0.66647687637E+01  0.41067127130E+02 -0.23631468154E+03  0.23994907124E+03  0.00000000000E+00 0. -1.
         21    1    1    2  502  501  0.14315994911E+01  0.25276242521E+02 -0.11227453285E+03  0.11509347783E+03  0.00000000000E+00 0.  1.
<scales pt_clust_5="13000.00000" pt_clust_6="13000.00000" pt_clust_7="13000.00000" pt_clust_8="13000.00000" pt_clust_9="25.31675"></scales>
<clustering>
<clus scale="   25.317">  2  9  1 -1</clus>
<clus scale="   91.526">  5  6 -1 -1</clus>
<clus scale="   92.287">  1  5  2 -1</clus>
<clus scale="   96.320">  7  8 -1 -1</clus>
<clus scale="   25.317">  2  5  1 -1</clus>
</clustering>
</event>
<event>
 9    1  0.1782981E-005  0.1279292E+03  0.7546771E-02  0.1231503E+00
         -1   -1    0    0    0  501 -0.00000000000E+00  0.00000000000E+00  0.10562778766E+03  0.10562778766E+03  0.00000000000E+00 0.  1.
          1   -1    0    0  502    0  0.00000000000E+00 -0.00000000000E+00 -0.31010108252E+03  0.31010108252E+03  0.00000000000E+00 0. -1.
         23    2    1    2    0    0 -0.48248689019E+02 -0.51630730397E+02 -0.98250917850E+01  0.11365822932E+03  0.88475942217E+02 0.  0.
         23    2    1    2    0    0  0.90219329169E+02  0.94663630273E+02 -0.95735785445E+02  0.18632509465E+03  0.91929157666E+02 0.  0.
        -11    1    3    3    0    0 -0.57987533712E+02  0.17512271771E+01 -0.12437934904E+02  0.59332310652E+02  0.00000000000E+00 0.  1.
         11    1    3    3    0    0  0.97388446929E+01 -0.53381957574E+02  0.26128431195E+01  0.54325918672E+02  0.00000000000E+00 0. -1.
        -13    1    4    4    0    0  0.31781372253E+02  0.91973145948E+02 -0.79385423063E+02  0.12558328150E+03  0.00000000000E+00 0. -1.
         13    1    4    4    0    0  0.58437956916E+02  0.26904843252E+01 -0.16350362381E+02  0.60741813147E+02  0.00000000000E+00 0.  1.
         21    1    1    2  502  501 -0.41970640150E+02 -0.43032899877E+02 -0.98912417622E+02  0.11574554620E+03  0.00000000000E+00 0.  1.
<scales pt_clust_5="13000.00000" pt_clust_6="13000.00000" pt_clust_7="13000.00000" pt_clust_8="13000.00000" pt_clust_9="60.11127"></scales>
<clustering>
<clus scale="   60.111">  2  9  1 -1</clus>
<clus scale="   88.476">  5  6 -1 -1</clus>
<clus scale="   91.929">  7  8 -1 -1</clus>
<clus scale="  125.471">  1  5  2 -1</clus>
<clus scale="   60.111">  2  5  1 -1</clus>
</clustering>
</event>
<event>
 9    1  0.1782981E-005  0.1101721E+03  0.7546771E-02  0.1260634E+00
          2   -1    0    0  502    0  0.00000000000E+00  0.00000000000E+00  0.49096551053E+03  0.49096551053E+03  0.00000000000E+00 0. -1.
         -2   -1    0    0    0  501 -0.00000000000E+00 -0.00000000000E+00 -0.33703477814E+02  0.33703477814E+02  0.00000000000E+00 0.  1.
         23    2    1    2    0    0 -0.31794091441E+02 -0.46846433095E+02  0.14526833072E+03  0.18109436971E+03  0.92123994069E+02 0.  0.
         23    2    1    2    0    0  0.20313021516E+02  0.63737430441E+02  0.20006081180E+03  0.22979372101E+03  0.91135870632E+02 0.  0.
        -11    1    3    3    0    0 -0.52895377592E+02  0.33393461469E+01  0.81874674003E+02  0.97532222606E+02  0.00000000000E+00 0.  1.
         11    1    3    3    0    0  0.21101286152E+02 -0.50185779242E+02  0.63393656721E+02  0.83562147100E+02  0.00000000000E+00 0. -1.
        -13    1    4    4    0    0  0.37771995585E+02  0.79372948619E+02  0.13983568533E+03  0.16516902711E+03  0.00000000000E+00 0. -1.
         13    1    4    4    0    0 -0.17458974070E+02 -0.15635518178E+02  0.60225126463E+02  0.64624693901E+02  0.00000000000E+00 0.  1.
         21    1    1    2  502  501  0.11481069925E+02 -0.16890997345E+02  0.11193289020E+03  0.11378089763E+03  0.00000000000E+00 0.  1.
<scales pt_clust_5="13000.00000" pt_clust_6="13000.00000" pt_clust_7="13000.00000" pt_clust_8="13000.00000" pt_clust_9="20.42353"></scales>
<clustering>
<clus scale="   20.424">  1  9  2 -1</clus>
<clus scale="   91.136">  7  8 -1 -1</clus>
<clus scale="   92.124">  5  6 -1 -1</clus>
<clus scale="  109.347">  1  7  2 -1</clus>
<clus scale="   20.424">  1  5  2 -1</clus>
</clustering>
</event>
<event>
 9    1  0.1782981E-005  0.1138643E+03  0.7546771E-02  0.1253886E+00
         -2   -1    0    0    0  501 -0.00000000000E+00  0.00000000000E+00  0.26747317362E+02  0.26747317362E+02  0.00000000000E+00 0.  1.
          2   -1    0    0  502    0  0.00000000000E+00 -0.00000000000E+00 -0.65443970209E+03  0.65443970209E+03  0.00000000000E+00 0. -1.
         23    2    1    2    0    0 -0.59512037266E+02  0.88468407120E+01 -0.20024302009E+03  0.22830863921E+03  0.91693066671E+02 0.  0.
         23    2    1    2    0    0  0.74348405995E+02 -0.32290956722E+02 -0.34028732694E+03  0.36140726333E+03  0.90825953073E+02 0.  0.
        -13    1    4    4    0    0  0.44825821939E+02  0.29216040521E+02 -0.15114766080E+03  0.16033884964E+03  0.00000000000E+00 0.  1.
         13    1    4    4    0    0  0.29522584056E+02 -0.61506997243E+02 -0.18913966614E+03  0.20106841370E+03  0.00000000000E+00 0. -1.
        -13    1    3    3    0    0  0.22401841711E+02 -0.22725856938E+01 -0.74485663431E+02  0.77814659381E+02  0.00000000000E+00 0.  1.
         13    1    3    3    0    0 -0.81913878977E+02  0.11119426406E+02 -0.12575735666E+03  0.15049397983E+03  0.00000000000E+00 0. -1.
         21    1    1    2  502  501 -0.14836368729E+02  0.23444116010E+02 -0.87162037700E+02  0.91471116909E+02  0.00000000000E+00 0. -1.
<scales pt_clust_5="13000.00000" pt_clust_6="13000.00000" pt_clust_7="13000.00000" pt_clust_8="13000.00000" pt_clust_9="27.74427"></scales>
<clustering>
<clus scale="   27.744">  2  9  1 -1</clus>
<clus scale="   90.826">  5  6 -1 -1</clus>
<clus scale="   91.693">  7  8 -1 -1</clus>
<clus scale="  113.167">  2  5  1 -1</clus>
<clus scale="   27.744">  2  5  1 -1</clus>
</clustering>
</event>
<event>
 9    1  0.1782981E-005  0.9247626E+02  0.7546771E-02  0.1297274E+00
         -1   -1    0    0    0  501 -0.00000000000E+00  0.00000000000E+00  0.10523158198E+03  0.10523158198E+03  0.00000000000E+00 0.  1.
          1   -1    0    0  502    0  0.00000000000E+00 -0.00000000000E+00 -0.23979929182E+03  0.23979929182E+03  0.00000000000E+00 0. -1.
         23    2    1    2    0    0 -0.54924470961E+01 -0.10317450112E+02  0.58815465028E+02  0.10942373462E+03  0.91529656500E+02 0.  0.
         23    2    1    2    0    0 -0.30390820427E+02 -0.74456751604E+00 -0.13557363460E+03  0.16667296719E+03  0.92062539858E+02 0.  0.
        -11    1    4    4    0    0 -0.19143314960E+02  0.39769486759E+02 -0.10724914017E+03  0.11597610379E+03  0.00000000000E+00 0.  1.
         11    1    4    4    0    0 -0.11247505467E+02 -0.40514054275E+02 -0.28324494434E+02  0.50696863394E+02  0.00000000000E+00 0. -1.
        -13    1    3    3    0    0 -0.12853094885E+02  0.30179444481E+02  0.59850701780E+02  0.68250329090E+02  0.00000000000E+00 0.  1.
         13    1    3    3    0    0  0.73606477893E+01 -0.40496894592E+02 -0.10352367524E+01  0.41173405526E+02  0.00000000000E+00 0. -1.
         21    1    1    2  502  501  0.35883267523E+02  0.11062017628E+02 -0.57809540267E+02  0.68934171990E+02  0.00000000000E+00 0.  1.
<scales pt_clust_5="13000.00000" pt_clust_6="13000.00000" pt_clust_7="13000.00000" pt_clust_8="13000.00000" pt_clust_9="37.54966"></scales>
<clustering>
<clus scale="   37.550">  2  9  1 -1</clus>
<clus scale="   91.530">  7  8 -1 -1</clus>
<clus scale="   91.946">  1  7  2 -1</clus>
<clus scale="   92.063">  5  6 -1 -1</clus>
<clus scale="   37.550">  2  5  1 -1</clus>
</clustering>
</event>
<event>
 9    1  0.1782981E-005  0.1246130E+03  0.7546771E-02  0.1235698E+00
          2   -1    0    0  502    0  0.00000000000E+00  0.00000000000E+00  0.10032053216E+04  0.10032053216E+04  0.00000000000E+00 0. -1.
         -2   -1    0    0    0  501 -0.00000000000E+00 -0.00000000000E+00 -0.20320160894E+02  0.20320160894E+02  0.00000000000E+00 0.  1.
         23    2    1    2    0    0 -0.56951321727E+02  0.54188167493E+02  0.29410959997E+03  0.31769429467E+03  0.90826194082E+02 0.  0.
         23    2    1    2    0    0  0.74311440477E+02 -0.64423403964E+02  0.58405270634E+03  0.59918687235E+03  0.90745683376E+02 0.  0.
        -13    1    3    3    0    0 -0.69981478685E+02  0.89035859201E+01  0.20647607052E+03  0.21819497908E+03  0.00000000000E+00 0. -1.
         13    1    3    3    0    0  0.13030156958E+02  0.45284581573E+02  0.87633529448E+02  0.99499315586E+02  0.00000000000E+00 0.  1.
        -13    1    4    4    0    0 -0.10999670106E+02 -0.35438250406E+02  0.96690294684E+02  0.10356580237E+03  0.00000000000E+00 0. -1.
         13    1    4    4    0    0  0.85311110583E+02 -0.28985153559E+02  0.48736241166E+03  0.49562106998E+03  0.00000000000E+00 0.  1.
         21    1    1    2  502  501 -0.17360118750E+02  0.10235236471E+02  0.10472285438E+03  0.10664431545E+03  0.00000000000E+00 0. -1.
<scales pt_clust_5="13000.00000" pt_clust_6="13000.00000" pt_clust_7="13000.00000" pt_clust_8="13000.00000" pt_clust_9="20.15276"></scales>
<clustering>
<clus scale="   20.153">  1  9  2 -1</clus>
<clus scale="   90.746">  7  8 -1 -1</clus>
<clus scale="   90.826">  5  6 -1 -1</clus>
<clus scale="  124.554">  1  7  2 -1</clus>
<clus scale="   20.153">  1  5  2 -1</clus>
</clustering>
</event>
<event>
 9    1  0.1782981E-005  0.9894274E+02  0.7546771E-02  0.1285017E+00
          1   -1    0    0  502    0  0.00000000000E+00  0.00000000000E+00  0.36620142082E+03  0.36620142082E+03  0.00000000000E+00 0. -1.
         -1   -1    0    0    0  501 -0.00000000000E+00 -0.00000000000E+00 -0.37285731315E+02  0.37285731315E+02  0.00000000000E+00 0.  1.
         23    2    1    2    0    0  0.23550501242E+02 -0.13542869863E+02  0.86724884536E+02  0.12850632147E+03  0.90855014327E+02 0.  0.
         23    2    1    2    0    0 -0.28314960208E+02 -0.12080490916E+02  0.16128054461E+03  0.18997655478E+03  0.95561509318E+02 0.  0.
        -11    1    4    4    0    0 -0.44583396718E+02  0.11491259930E+02  0.15356008634E+03  0.16031353166E+03  0.00000000000E+00 0.  1.
         11    1    4    4    0    0  0.16268436511E+02 -0.23571750846E+02  0.77204582713E+01  0.29663023116E+02  0.00000000000E+00 0. -1.
        -11    1    3    3    0    0  0.48272427158E+02  0.11827924907E+02  0.21228784869E+02  0.54044318280E+02  0.00000000000E+00 0.  1.
         11    1    3    3    0    0 -0.24721925916E+02 -0.25370794770E+02  0.65496099666E+02  0.74462003195E+02  0.00000000000E+00 0. -1.
         21    1    1    2  502  501  0.47644589654E+01  0.25623360779E+02  0.80910260363E+02  0.85004275886E+02  0.00000000000E+00 0.  1.
<scales pt_clust_5="13000.00000" pt_clust_6="13000.00000" pt_clust_7="13000.00000" pt_clust_8="13000.00000" pt_clust_9="26.06255"></scales>
<clustering>
<clus scale="   26.063">  1  9  2 -1</clus>
<clus scale="   90.855">  7  8 -1 -1</clus>
<clus scale="   94.405">  2  7  1 -1</clus>
<clus scale="   95.562">  5  6 -1 -1</clus>
<clus scale="   26.063">  1  5  2 -1</clus>
</clustering>
</event>
<event>
 9    1  0.1782981E-005  0.9937172E+02  0.7546771E-02  0.1289069E+00
          1   -1    0    0  502    0  0.00000000000E+00  0.00000000000E+00  0.11678501746E+03  0.11678501746E+03  0.00000000000E+00 0. -1.
         -1   -1    0    0    0  501 -0.00000000000E+00 -0.00000000000E+00 -0.18419996792E+03  0.18419996792E+03  0.00000000000E+00 0.  1.
         23    2    1    2    0    0 -0.57519560078E+02  0.24376704452E+02 -0.75166764111E+02  0.13895910139E+03  0.98776849112E+02 0.  0.
         23    2    1    2    0    0 -0.96370602724E+01 -0.44303421074E+01  0.25029219110E+02  0.89870650173E+02  0.85660790864E+02 0.  0.
        -11    1    3    3    0    0 -0.30940699692E+02  0.16632044063E+02 -0.97343459466E+02  0.10348768472E+03  0.00000000000E+00 0.  1.
         11    1    3    3    0    0 -0.26578860386E+02  0.77446603897E+01  0.22176695355E+02  0.35471416674E+02  0.00000000000E+00 0. -1.
        -13    1    4    4    0    0  0.10993119216E+02 -0.41221531125E+02  0.43193974028E+01  0.42880304247E+02  0.00000000000E+00 0. -1.
         13    1    4    4    0    0 -0.20630179489E+02  0.36791189018E+02  0.20709821707E+02  0.46990345926E+02  0.00000000000E+00 0.  1.
         21    1    1    2  502  501  0.67156620351E+02 -0.19946362345E+02 -0.17277405455E+02  0.72155233816E+02  0.00000000000E+00 0.  1.
<scales pt_clust_5="13000.00000" pt_clust_6="13000.00000" pt_clust_7="13000.00000" pt_clust_8="13000.00000" pt_clust_9="70.05618"></scales>
<clustering>
<clus scale="   70.056">  2  9  1 -1</clus>
<clus scale="   85.661">  7  8 -1 -1</clus>
<clus scale="   86.346">  1  7  2 -1</clus>
<clus scale="   98.777">  5  6 -1 -1</clus>
<clus scale="   86.346">  1  5  2 -1</clus>
</clustering>
</event>
<event>
 9    1  0.1782981E-005  0.9796833E+02  0.7546771E-02  0.1285597E+00
          1   -1    0    0  502    0  0.00000000000E+00  0.00000000000E+00  0.16716796332E+03  0.16716796332E+03  0.00000000000E+00 0. -1.
         -1   -1    0    0    0  501 -0.00000000000E+00 -0.00000000000E+00 -0.13575993231E+03  0.13575993231E+03  0.00000000000E+00 0.  1.
         23    2    1    2    0    0  0.19502836197E+02  0.29153409960E+02 -0.67823809966E+02  0.11828354751E+03  0.90336296594E+02 0.  0.
         23    2    1    2    0    0  0.81729892519E+01 -0.35507165828E+02  0.20923856667E+02  0.10134691759E+03  0.92227074917E+02 0.  0.
        -11    1    4    4    0    0  0.90272719485E+01  0.19346976606E+02 -0.22769286209E+02  0.31212778427E+02  0.00000000000E+00 0.  1.
         11    1    4    4    0    0 -0.85428269664E+00 -0.54854142434E+02  0.43693142876E+02  0.70134139159E+02  0.00000000000E+00 0. -1.
        -13    1    3    3    0    0 -0.36867206024E+01  0.53202018604E+02 -0.65962309639E+02  0.84823776061E+02  0.00000000000E+00 0.  1.
         13    1    3    3    0    0  0.23189556800E+02 -0.24048608643E+02 -0.18615003263E+01  0.33459771453E+02  0.00000000000E+00 0. -1.
         21    1    1    2  502  501 -0.27675825449E+02  0.63537558675E+01  0.78307984305E+02  0.83297430536E+02  0.00000000000E+00 0. -1.
<scales pt_clust_5="13000.00000" pt_clust_6="13000.00000" pt_clust_7="13000.00000" pt_clust_8="13000.00000" pt_clust_9="28.39580"></scales>
<clustering>
<clus scale="   28.396">  1  9  2 -1</clus>
<clus scale="   90.336">  7  8 -1 -1</clus>
<clus scale="   92.227">  5  6 -1 -1</clus>
<clus scale="   96.190">  2  7  1 -1</clus>
<clus scale="   28.396">  1  5  2 -1</clus>
</clustering>
</event>
<event>
 9    1  0.1782981E-005  0.1292457E+03  0.7546771E-02  0.1228789E+00
          2   -1    0    0  502    0  0.00000000000E+00  0.00000000000E+00  0.86493789277E+03  0.86493789277E+03  0.00000000000E+00 0. -1.
         -2   -1    0    0    0  501 -0.00000000000E+00 -0.00000000000E+00 -0.23227629250E+02  0.23227629250E+02  0.00000000000E+00 0.  1.
         23    2    1    2    0    0 -0.80148977000E+01  0.79437996450E+02  0.32190086794E+03  0.34435723287E+03  0.92666613112E+02 0.  0.
         23    2    1    2    0    0  0.30700406916E+00 -0.98703901213E+02  0.48385556589E+03  0.50229606709E+03  0.91883491484E+02 0.  0.
        -11    1    4    4    0    0 -0.21981115111E+02 -0.28581689492E+02  0.46742126058E+02  0.59033115656E+02  0.00000000000E+00 0.  1.
         11    1    4    4    0    0  0.22288119180E+02 -0.70122211721E+02  0.43711343983E+03  0.44326295144E+03  0.00000000000E+00 0. -1.
        -13    1    3    3    0    0 -0.36017021191E+02  0.20684215080E+02  0.21674649580E+03  0.22069006776E+03  0.00000000000E+00 0. -1.
         13    1    3    3    0    0  0.28002123491E+02  0.58753781370E+02  0.10515437214E+03  0.12366716511E+03  0.00000000000E+00 0.  1.
         21    1    1    2  502  501  0.77078936309E+01  0.19265904763E+02  0.35953829685E+02  0.41512222051E+02  0.00000000000E+00 0.  1.
<scales pt_clust_5="13000.00000" pt_clust_6="13000.00000" pt_clust_7="13000.00000" pt_clust_8="13000.00000" pt_clust_9="20.75058"></scales>
<clustering>
<clus scale="   20.751">  2  9  1 -1</clus>
<clus scale="   91.883">  5  6 -1 -1</clus>
<clus scale="   92.667">  7  8 -1 -1</clus>
<clus scale="  128.685">  1  5  2 -1</clus>
<clus scale="  128.685">  1  5  2 -1</clus>
</clustering>
</event>
<event>
 9    1  0.1782981E-005  0.9823920E+02  0.7546771E-02  0.1284809E+00
          2   -1    0    0  502    0  0.00000000000E+00  0.00000000000E+00  0.76201455935E+02  0.76201455935E+02  0.00000000000E+00 0. -1.
         -2   -1    0    0    0  501 -0.00000000000E+00 -0.00000000000E+00 -0.28628769637E+03  0.28628769637E+03  0.00000000000E+00 0.  1.
         23    2    1    2    0    0 -0.29716692207E+02 -0.49634457534E+01 -0.19151157931E+03  0.21539753403E+03  0.93870629407E+02 0.  0.
         23    2    1    2    0    0  0.27015998992E+02 -0.16424909464E+02 -0.49430702553E+02  0.10945053998E+03  0.92392556485E+02 0.  0.
        -13    1    3    3    0    0 -0.47118534149E+02  0.32493280901E+02 -0.10786424598E+03  0.12210923440E+03  0.00000000000E+00 0.  1.
         13    1    3    3    0    0  0.17401841941E+02 -0.37456726655E+02 -0.83647333329E+02  0.93288299629E+02  0.00000000000E+00 0. -1.
        -13    1    4    4    0    0  0.12567636600E+02  0.38033885971E+02 -0.12029236264E+02  0.41823731264E+02  0.00000000000E+00 0. -1.
         13    1    4    4    0    0  0.14448362392E+02 -0.54458795435E+02 -0.37401466289E+02  0.67626808713E+02  0.00000000000E+00 0.  1.
         21    1    1    2  502  501  0.27006932154E+01  0.21388355217E+02  0.30856041431E+02  0.37641078300E+02  0.00000000000E+00 0. -1.
<scales pt_clust_5="13000.00000" pt_clust_6="13000.00000" pt_clust_7="13000.00000" pt_clust_8="13000.00000" pt_clust_9="21.55819"></scales>
<clustering>
<clus scale="   21.558">  1  9  2 -1</clus>
<clus scale="   92.393">  7  8 -1 -1</clus>
<clus scale="   93.871">  5  6 -1 -1</clus>
<clus scale="   96.828">  1  7  2 -1</clus>
<clus scale="   21.558">  1  5  2 -1</clus>
</clustering>
</event>
<event>
 9    1  0.1782981E-005  0.1015103E+03  0.7546771E-02  0.1281321E+00
          2   -1    0    0  502    0  0.00000000000E+00  0.00000000000E+00  0.18884699402E+03  0.18884699402E+03  0.00000000000E+00 0. -1.
         -2   -1    0    0    0  501 -0.00000000000E+00 -0.00000000000E+00 -0.20336505301E+03  0.20336505301E+03  0.00000000000E+00 0.  1.
         23    2    1    2    0    0 -0.48465273525E+02 -0.26337811447E+01 -0.12623666111E+03  0.16293353622E+03  0.90861559956E+02 0.  0.
         23    2    1    2    0    0  0.27852152588E+02  0.47291117020E+02 -0.87561306966E+01  0.99150344569E+02  0.82109249483E+02 0.  0.
        -13    1    4    4    0    0 -0.26228004956E+02  0.21639486840E+02  0.11602130976E+02  0.35927497518E+02  0.00000000000E+00 0.  1.
         13    1    4    4    0    0  0.54080157545E+02  0.25651630179E+02 -0.20358261673E+02  0.63222847051E+02  0.00000000000E+00 0. -1.
        -13    1    3    3    0    0 -0.15792348977E+02 -0.19342084977E+02 -0.12364906898E+03  0.12614518143E+03  0.00000000000E+00 0.  1.
         13    1    3    3    0    0 -0.32672924549E+02  0.16708303833E+02 -0.25875921265E+01  0.36788354795E+02  0.00000000000E+00 0. -1.
         21    1    1    2  502  501  0.20613120937E+02 -0.44657335875E+02  0.12047473281E+03  0.13012816624E+03  0.00000000000E+00 0. -1.
<scales pt_clust_5="13000.00000" pt_clust_6="13000.00000" pt_clust_7="13000.00000" pt_clust_8="13000.00000" pt_clust_9="49.18514"></scales>
<clustering>
<clus scale="   49.185">  1  9  2 -1</clus>
<clus scale="   82.109">  5  6 -1 -1</clus>
<clus scale="   90.862">  7  8 -1 -1</clus>
<clus scale="   93.757">  1  5  2 -1</clus>
<clus scale="   49.185">  1  5  2 -1</clus>
</clustering>
</event>
<event>
 9    1  0.1782981E-005  0.1008896E+03  0.7546771E-02  0.1279619E+00
          1   -1    0    0  502    0  0.00000000000E+00  0.00000000000E+00  0.76437484800E+02  0.76437484800E+02  0.00000000000E+00 0. -1.
         -1   -1    0    0    0  501 -0.00000000000E+00 -0.00000000000E+00 -0.19753738602E+03  0.19753738602E+03  0.00000000000E+00 0.  1.
         23    2    1    2    0    0 -0.18717756766E+01 -0.20012853673E+02 -0.64887792518E+02  0.11267449127E+03  0.89894924823E+02 0.  0.
         23    2    1    2    0    0  0.10950387677E+02  0.54253557202E+02 -0.17950403685E+02  0.10915821768E+03  0.92357674476E+02 0.  0.
        -11    1    4    4    0    0  0.32130275086E+02  0.27554783100E+02 -0.47805337608E+02  0.63851162500E+02  0.00000000000E+00 0.  1.
         11    1    4    4    0    0 -0.21179887409E+02  0.26698774102E+02  0.29854933923E+02  0.45307055177E+02  0.00000000000E+00 0. -1.
        -13    1    3    3    0    0 -0.13200630923E+02 -0.52606462661E+02 -0.53889831881E+02  0.76457900512E+02  0.00000000000E+00 0. -1.
         13    1    3    3    0    0  0.11328855246E+02  0.32593608988E+02 -0.10997960637E+02  0.36216590759E+02  0.00000000000E+00 0.  1.
         21    1    1    2  502  501 -0.90786119999E+01 -0.34240703529E+02 -0.38261705017E+02  0.52142161873E+02  0.00000000000E+00 0. -1.
<scales pt_clust_5="13000.00000" pt_clust_6="13000.00000" pt_clust_7="13000.00000" pt_clust_8="13000.00000" pt_clust_9="35.42382"></scales>
<clustering>
<clus scale="   35.424">  2  9  1 -1</clus>
<clus scale="   89.895">  7  8 -1 -1</clus>
<clus scale="   92.358">  5  6 -1 -1</clus>
<clus scale="   98.640">  2  7  1 -1</clus>
<clus scale="  100.890">  1  5  2 -1</clus>
</clustering>
</event>
<event>
 9    1  0.1782981E-005  0.1009140E+03  0.7546771E-02  0.1279330E+00
         -2   -1    0    0    0  501 -0.00000000000E+00  0.00000000000E+00  0.34840445244E+03  0.34840445244E+03  0.00000000000E+00 0.  1.
          2   -1    0    0  502    0  0.00000000000E+00 -0.00000000000E+00 -0.50540898599E+02  0.50540898599E+02  0.00000000000E+00 0. -1.
         23    2    1    2    0    0 -0.48702622283E+02 -0.51997314205E+01  0.19327618007E+03  0.21737539782E+03  0.86587523166E+02 0.  0.
         23    2    1    2    0    0  0.46715358706E+02 -0.22196600494E+02  0.11318655379E+03  0.15278707436E+03  0.88643557699E+02 0.  0.
        -11    1    3    3    0    0 -0.28996670506E+02  0.39609410415E+02  0.78338474413E+02  0.92447979249E+02  0.00000000000E+00 0.  1.
         11    1    3    3    0    0 -0.19705951777E+02 -0.44809141836E+02  0.11493770566E+03  0.12492741857E+03  0.00000000000E+00 0. -1.
        -13    1    4    4    0    0  0.23680961199E+02 -0.10833523491E+02  0.12267291900E+03  0.12540653177E+03  0.00000000000E+00 0.  1.
         13    1    4    4    0    0  0.23034397507E+02 -0.11363077004E+02 -0.94863652163E+01  0.27380542590E+02  0.00000000000E+00 0. -1.
         21    1    1    2  502  501  0.19872635765E+01  0.27396331915E+02 -0.85991800130E+01  0.28782878866E+02  0.00000000000E+00 0. -1.
<scales pt_clust_5="13000.00000" pt_clust_6="13000.00000" pt_clust_7="13000.00000" pt_clust_8="13000.00000" pt_clust_9="27.46831"></scales>
<clustering>
<clus scale="   27.468">  2  9  1 -1</clus>
<clus scale="   86.588">  5  6 -1 -1</clus>
<clus scale="   88.644">  7  8 -1 -1</clus>
<clus scale="   99.113">  1  5  2 -1</clus>
<clus scale="   27.468">  2  5  1 -1</clus>
</clustering>
</event>
<event>
 9    1  0.1782981E-005  0.1091809E+03  0.7546771E-02  0.1264519E+00
          1   -1    0    0  502    0  0.00000000000E+00  0.00000000000E+00  0.34977446415E+03  0.34977446415E+03  0.00000000000E+00 0. -1.
         -1   -1    0    0    0  501 -0.00000000000E+00 -0.00000000000E+00 -0.18317147524E+03  0.18317147524E+03  0.00000000000E+00 0.  1.
         23    2    1    2    0    0  0.56444923316E+02 -0.17744277348E+02 -0.15221513306E+03  0.18501398232E+03  0.86947329894E+02 0.  0.
         23    2    1    2    0    0 -0.36988321117E+02  0.27131386849E+01  0.17135996326E+03  0.19843813422E+03  0.92940621280E+02 0.  0.
        -11    1    4    4    0    0 -0.20678055381E+02  0.21313498148E+02  0.17114130608E+03  0.17369857174E+03  0.00000000000E+00 0.  1.
         11    1    4    4    0    0 -0.16310265735E+02 -0.18600359463E+02  0.21865717435E+00  0.24739562476E+02  0.00000000000E+00 0. -1.
        -13    1    3    3    0    0  0.75067962038E+02  0.45777005148E+01 -0.12001712792E+03  0.14163426584E+03  0.00000000000E+00 0.  1.
         13    1    3    3    0    0 -0.18623038722E+02 -0.22321977863E+02 -0.32198005145E+02  0.43379716484E+02  0.00000000000E+00 0. -1.
         21    1    1    2  502  501 -0.19456602199E+02  0.15031138663E+02  0.14745815872E+03  0.14949382285E+03  0.00000000000E+00 0. -1.
<scales pt_clust_5="13000.00000" pt_clust_6="13000.00000" pt_clust_7="13000.00000" pt_clust_8="13000.00000" pt_clust_9="24.58647"></scales>
<clustering>
<clus scale="   24.586">  1  9  2 -1</clus>
<clus scale="   86.947">  7  8 -1 -1</clus>
<clus scale="   92.941">  5  6 -1 -1</clus>
<clus scale="  104.127">  2  7  1 -1</clus>
<clus scale="   24.586">  1  5  2 -1</clus>
</clustering>
</event>
<event>
 9    1  0.1782981E-005  0.2690190E+03  0.7546771E-02  0.1101872E+00
          2   -1    0    0  502    0  0.00000000000E+00  0.00000000000E+00  0.39333095577E+03  0.39333095577E+03  0.00000000000E+00 0. -1.
         -2   -1    0    0    0  501 -0.00000000000E+00 -0.00000000000E+00 -0.27871806899E+03  0.27871806899E+03  0.00000000000E+00 0.  1.
         23    2    1    2    0    0 -0.46171744951E+02 -0.24096078243E+03 -0.56486444916E+02  0.26750478536E+03  0.90411078049E+02 0.  0.
         23    2    1    2    0    0  0.42657827548E+02  0.26299903233E+03  0.55218024016E+02  0.28653360621E+03  0.89801425691E+02 0.  0.
        -13    1    3    3    0    0 -0.66431121710E+02 -0.21244704078E+03 -0.32167991318E+02  0.22490357652E+03  0.00000000000E+00 0.  1.
         13    1    3    3    0    0  0.20259376759E+02 -0.28513741650E+02 -0.24318453598E+02  0.42601208844E+02  0.00000000000E+00 0. -1.
        -13    1    4    4    0    0  0.63268996462E+02  0.24652913641E+03  0.46382097253E+02  0.25871003064E+03  0.00000000000E+00 0. -1.
         13    1    4    4    0    0 -0.20611168914E+02  0.16469895924E+02  0.88359267623E+01  0.27823575569E+02  0.00000000000E+00 0.  1.
         21    1    1    2  502  501  0.35139174029E+01 -0.22038249902E+02  0.11588130768E+03  0.11801063318E+03  0.00000000000E+00 0.  1.
<scales pt_clust_5="13000.00000" pt_clust_6="13000.00000" pt_clust_7="13000.00000" pt_clust_8="13000.00000" pt_clust_9="22.31663"></scales>
<clustering>
<clus scale="   22.317">  1  9  2 -1</clus>
<clus scale="   89.801">  7  8 -1 -1</clus>
<clus scale="   90.411">  5  6 -1 -1</clus>
<clus scale="  268.815">  1  7  2 -1</clus>
<clus scale="   22.317">  1  5  2 -1</clus>
</clustering>
</event>
<event>
 9    1  0.1782981E-005  0.9546960E+02  0.7546771E-02  0.1292936E+00
          3   -1    0    0  502    0  0.00000000000E+00  0.00000000000E+00  0.16160316543E+03  0.16160316543E+03  0.00000000000E+00 0. -1.
         -3   -1    0    0    0  501 -0.00000000000E+00 -0.00000000000E+00 -0.24806539877E+03  0.24806539877E+03  0.00000000000E+00 0.  1.
         23    2    1    2    0    0  0.31892534696E+02  0.43646674466E+00 -0.20754746759E+03  0.22889687556E+03  0.91107102174E+02 0.  0.
         23    2    1    2    0    0 -0.70408600996E+01 -0.77700351134E+01  0.39533018632E+02  0.95202121455E+02  0.85968815339E+02 0.  0.
        -11    1    4    4    0    0  0.10514119916E+02 -0.38458651722E+02 -0.28943167807E+01  0.39974888111E+02  0.00000000000E+00 0.  1.
         11    1    4    4    0    0 -0.17554980016E+02  0.30688616608E+02  0.42427335412E+02  0.55227233344E+02  0.00000000000E+00 0. -1.
        -13    1    3    3    0    0  0.98939947384E+01 -0.40160827336E+02 -0.50903960127E+02  0.65589605432E+02  0.00000000000E+00 0. -1.
         13    1    3    3    0    0  0.21998539958E+02  0.40597294081E+02 -0.15664350746E+03  0.16330727013E+03  0.00000000000E+00 0.  1.
         21    1    1    2  502  501 -0.24851674596E+02  0.73335683687E+01  0.81552215620E+02  0.85569567182E+02  0.00000000000E+00 0. -1.
<scales pt_clust_5="13000.00000" pt_clust_6="13000.00000" pt_clust_7="13000.00000" pt_clust_8="13000.00000" pt_clust_9="25.91114"></scales>
<clustering>
<clus scale="   25.911">  1  9  2 -1</clus>
<clus scale="   85.969">  5  6 -1 -1</clus>
<clus scale="   90.579">  1  5  2 -1</clus>
<clus scale="   91.107">  7  8 -1 -1</clus>
<clus scale="   25.911">  1  5  2 -1</clus>
</clustering>
</event>
<event>
 9    1  0.1782981E-005  0.1071691E+03  0.7546771E-02  0.1266020E+00
          3   -1    0    0  502    0  0.00000000000E+00  0.00000000000E+00  0.94228829052E+02  0.94228829052E+02  0.00000000000E+00 0. -1.
         -3   -1    0    0    0  501 -0.00000000000E+00 -0.00000000000E+00 -0.33773067315E+03  0.33773067315E+03  0.00000000000E+00 0.  1.
         23    2    1    2    0    0  0.14782518519E+02  0.33342876510E+02 -0.11534774639E+03  0.15162501370E+03  0.91404441441E+02 0.  0.
         23    2    1    2    0    0 -0.87607917554E+02 -0.26115461176E+02 -0.15537759102E+03  0.20225188567E+03  0.91686776228E+02 0.  0.
        -11    1    4    4    0    0 -0.23205805746E+02 -0.19288247659E+02 -0.12873262268E+03  0.13222191217E+03  0.00000000000E+00 0. -1.
         11    1    4    4    0    0 -0.64402111808E+02 -0.68272135163E+01 -0.26644968346E+02  0.70029973496E+02  0.00000000000E+00 0.  1.
        -13    1    3    3    0    0  0.32288533489E+02 -0.91428375224E+01 -0.74855761921E+01  0.34382767832E+02  0.00000000000E+00 0. -1.
         13    1    3    3    0    0 -0.17506014970E+02  0.42485714032E+02 -0.10786217020E+03  0.11724224587E+03  0.00000000000E+00 0.  1.
         21    1    1    2  502  501  0.72825399035E+02 -0.72274153339E+01  0.27223493310E+02  0.78082602832E+02  0.00000000000E+00 0. -1.
<scales pt_clust_5="13000.00000" pt_clust_6="13000.00000" pt_clust_7="13000.00000" pt_clust_8="13000.00000" pt_clust_9="73.18316"></scales>
<clustering>
<clus scale="   73.183">  1  9  2 -1</clus>
<clus scale="   91.404">  7  8 -1 -1</clus>
<clus scale="   91.687">  5  6 -1 -1</clus>
<clus scale="  106.928">  2  7  1 -1</clus>
<clus scale="   73.183">  1  5  2 -1</clus>
</clustering>
</event>
<event>
 9    1  0.1782981E-005  0.1449200E+03  0.7546771E-02  0.1216470E+00
          2   -1    0    0  502    0  0.00000000000E+00  0.00000000000E+00  0.32531091912E+03  0.32531091912E+03  0.00000000000E+00 0.  1.
         -2   -1    0    0    0  501 -0.00000000000E+00 -0.00000000000E+00 -0.10132051965E+03  0.10132051965E+03  0.00000000000E+00 0. -1.
         23    2    1    2    0    0  0.37583886860E+02 -0.44100797018E+02  0.28276770697E+02  0.14125721088E+03  0.12568450587E+03 0.  0.
         23    2    1    2    0    0 -0.39282229723E+02  0.81017105192E+02  0.56899235001E+02  0.14172488367E+03  0.93496282285E+02 0.  0.
        -11    1    3    3    0    0 -0.69098300114E+01 -0.61808114621E+02  0.57878994193E+02  0.84958617883E+02  0.00000000000E+00 0.  1.
         11    1    3    3    0    0  0.44493716872E+02  0.17707317603E+02 -0.29602223496E+02  0.56298592999E+02  0.00000000000E+00 0. -1.
        -11    1    4    4    0    0 -0.25329072910E+02 -0.15251686951E+02  0.11097163651E+01  0.29587283750E+02  0.00000000000E+00 0.  1.
         11    1    4    4    0    0 -0.13953156814E+02  0.96268792142E+02  0.55789518636E+02  0.11213759992E+03  0.00000000000E+00 0. -1.
         21    1    1    2  502  501  0.16983428632E+01 -0.36916308174E+02  0.13881439377E+03  0.14364934423E+03  0.00000000000E+00 0.  1.
<scales pt_clust_5="13000.00000" pt_clust_6="13000.00000" pt_clust_7="13000.00000" pt_clust_8="13000.00000" pt_clust_9="36.95535"></scales>
<clustering>
<clus scale="   36.955">  1  9  2 -1</clus>
<clus scale="   93.496">  7  8 -1 -1</clus>
<clus scale="  118.096">  1  7  2 -1</clus>
<clus scale="  125.685">  5  6 -1 -1</clus>
<clus scale="   36.955">  1  5  2 -1</clus>
</clustering>
</event>
<event>
 9    1  0.1782981E-005  0.9872111E+02  0.7546771E-02  0.1284838E+00
          1   -1    0    0  502    0  0.00000000000E+00  0.00000000000E+00  0.16282603770E+03  0.16282603770E+03  0.00000000000E+00 0. -1.
         -1   -1    0    0    0  501 -0.00000000000E+00 -0.00000000000E+00 -0.11442869383E+03  0.11442869383E+03  0.00000000000E+00 0.  1.
         23    2    1    2    0    0  0.18819751094E+02 -0.31771104850E+02 -0.28189760432E+02  0.10552101769E+03  0.94744057581E+02 0.  0.
         23    2    1    2    0    0  0.33956249203E+02  0.18807347106E+02  0.53743454389E+02  0.11278290754E+03  0.91240792296E+02 0.  0.
        -13    1    3    3    0    0 -0.10525883064E+02  0.30608023274E+02 -0.13305181178E+02  0.34995330391E+02  0.00000000000E+00 0. -1.
         13    1    3    3    0    0  0.29345634157E+02 -0.62379128124E+02 -0.14884579254E+02  0.70525687301E+02  0.00000000000E+00 0.  1.
        -13    1    4    4    0    0  0.13441292591E+02  0.36463687228E+02  0.70818183458E+02  0.80780467571E+02  0.00000000000E+00 0. -1.
         13    1    4    4    0    0  0.20514956612E+02 -0.17656340122E+02 -0.17074729069E+02  0.32002439971E+02  0.00000000000E+00 0.  1.
         21    1    1    2  502  501 -0.52776000297E+02  0.12963757745E+02  0.22843649908E+02  0.58950806299E+02  0.00000000000E+00 0. -1.
<scales pt_clust_5="13000.00000" pt_clust_6="13000.00000" pt_clust_7="13000.00000" pt_clust_8="13000.00000" pt_clust_9="54.34487"></scales>
<clustering>
<clus scale="   54.345">  1  9  2 -1</clus>
<clus scale="   91.241">  7  8 -1 -1</clus>
<clus scale="   94.744">  5  6 -1 -1</clus>
<clus scale="   95.364">  1  7  2 -1</clus>
<clus scale="   54.345">  1  5  2 -1</clus>
</clustering>
</event>
<event>
 9    1  0.1782981E-005  0.1227989E+03  0.7546771E-02  0.1238710E+00
          2   -1    0    0  502    0  0.00000000000E+00  0.00000000000E+00  0.85447565455E+03  0.85447565455E+03  0.00000000000E+00 0. -1.
         -2   -1    0    0    0  501 -0.00000000000E+00 -0.00000000000E+00 -0.29045811926E+02  0.29045811926E+02  0.00000000000E+00 0.  1.
         23    2    1    2    0    0  0.34846502895E+01  0.73176021786E+02  0.21661491487E+03  0.24592211720E+03  0.90491952320E+02 0.  0.
         23    2    1    2    0    0 -0.36935713633E+02 -0.80471919597E+02  0.57717690421E+03  0.59098209605E+03  0.91031216173E+02 0.  0.
        -11    1    4    4    0    0  0.28895439103E+02 -0.10291467529E+02  0.14944069581E+03  0.15255616103E+03  0.00000000000E+00 0. -1.
         11    1    4    4    0    0 -0.65831152736E+02 -0.70180452068E+02  0.42773620840E+03  0.43842593502E+03  0.00000000000E+00 0.  1.
        -11    1    3    3    0    0 -0.36989182238E+02  0.62228121507E+02  0.15861798390E+03  0.17435654139E+03  0.00000000000E+00 0.  1.
         11    1    3    3    0    0  0.40473832527E+02  0.10947900278E+02  0.57996930972E+02  0.71565575818E+02  0.00000000000E+00 0. -1.
         21    1    1    2  502  501  0.33451063344E+02  0.72958978112E+01  0.31638023547E+02  0.46617253219E+02  0.00000000000E+00 0. -1.
<scales pt_clust_5="13000.00000" pt_clust_6="13000.00000" pt_clust_7="13000.00000" pt_clust_8="13000.00000" pt_clust_9="34.23746"></scales>
<clustering>
<clus scale="   34.237">  2  9  1 -1</clus>
<clus scale="   90.492">  7  8 -1 -1</clus>
<clus scale="   91.031">  5  6 -1 -1</clus>
<clus scale="  122.400">  2  7  1 -1</clus>
<clus scale="  122.799">  1  5  2 -1</clus>
</clustering>
</event>
<event>
 9    1  0.1782981E-005  0.1882805E+03  0.7546771E-02  0.1160246E+00
         -1   -1    0    0    0  501 -0.00000000000E+00  0.00000000000E+00  0.97719942599E+03  0.97719942599E+03  0.00000000000E+00 0.  1.
          1   -1    0    0  502    0  0.00000000000E+00 -0.00000000000E+00 -0.77979686520E+02  0.77979686520E+02  0.00000000000E+00 0. -1.
         23    2    1    2    0    0 -0.63367601000E+02  0.16647769587E+03  0.62926606522E+03  0.66041092338E+03  0.91850589578E+02 0.  0.
         23    2    1    2    0    0  0.39161996299E+02 -0.13951268689E+03  0.30173678798E+03  0.34656871479E+03  0.89818333816E+02 0.  0.
        -11    1    4    4    0    0  0.41477227305E+02 -0.14972595411E+02  0.10272025916E+03  0.11178546704E+03  0.00000000000E+00 0.  1.
         11    1    4    4    0    0 -0.23152310065E+01 -0.12454009148E+03  0.19901652882E+03  0.23478324775E+03  0.00000000000E+00 0. -1.
        -11    1    3    3    0    0  0.11817222053E+02  0.97010539840E+02  0.32614880369E+03  0.34047574617E+03  0.00000000000E+00 0.  1.
         11    1    3    3    0    0 -0.75184823053E+02  0.69467156033E+02  0.30311726153E+03  0.31993517722E+03  0.00000000000E+00 0. -1.
         21    1    1    2  502  501  0.24205604701E+02 -0.26965008982E+02 -0.31783113731E+02  0.48199474341E+02  0.00000000000E+00 0. -1.
<scales pt_clust_5="13000.00000" pt_clust_6="13000.00000" pt_clust_7="13000.00000" pt_clust_8="13000.00000" pt_clust_9="36.23566"></scales>
<clustering>
<clus scale="   36.236">  2  9  1 -1</clus>
<clus scale="   89.818">  5  6 -1 -1</clus>
<clus scale="   91.851">  7  8 -1 -1</clus>
<clus scale="  187.297">  2  5  1 -1</clus>
<clus scale="   36.236">  2  5  1 -1</clus>
</clustering>
</event>
<event>
 9    1  0.1782981E-005  0.9550170E+02  0.7546771E-02  0.1290134E+00
          2   -1    0    0  502    0  0.00000000000E+00  0.00000000000E+00  0.47533411106E+03  0.47533411106E+03  0.00000000000E+00 0. -1.
         -2   -1    0    0    0  501 -0.00000000000E+00 -0.00000000000E+00 -0.40223589755E+02  0.40223589755E+02  0.00000000000E+00 0.  1.
         23    2    1    2    0    0  0.39137065468E+02 -0.49218679011E+01  0.62698583050E+02  0.11725437949E+03  0.90893027869E+02 0.  0.
         23    2    1    2    0    0  0.44582409593E+01 -0.11464653987E+02  0.28218149554E+03  0.29676218861E+03  0.91049909159E+02 0.  0.
        -11    1    3    3    0    0  0.59007947323E+02 -0.75375471669E+01  0.73443941011E+02  0.94513305602E+02  0.00000000000E+00 0.  1.
         11    1    3    3    0    0 -0.19870881855E+02  0.26156792658E+01 -0.10745357961E+02  0.22741073885E+02  0.00000000000E+00 0. -1.
        -13    1    4    4    0    0 -0.41479660050E+02 -0.11288671509E+02  0.17398833848E+03  0.17922036220E+03  0.00000000000E+00 0. -1.
         13    1    4    4    0    0  0.45937901009E+02 -0.17598247797E+00  0.10819315707E+03  0.11754182641E+03  0.00000000000E+00 0.  1.
         21    1    1    2  502  501 -0.43595306427E+02  0.16386521888E+02  0.90230442714E+02  0.10154113272E+03  0.00000000000E+00 0. -1.
<scales pt_clust_5="13000.00000" pt_clust_6="13000.00000" pt_clust_7="13000.00000" pt_clust_8="13000.00000" pt_clust_9="46.57326"></scales>
<clustering>
<clus scale="   46.573">  1  9  2 -1</clus>
<clus scale="   90.893">  5  6 -1 -1</clus>
<clus scale="   91.050">  7  8 -1 -1</clus>
<clus scale="   95.352">  2  5  1 -1</clus>
<clus scale="   46.573">  1  5  2 -1</clus>
</clustering>
</event>
<event>
 9    1  0.1782981E-005  0.2968496E+03  0.7546771E-02  0.1086882E+00
          1   -1    0    0  502    0  0.00000000000E+00  0.00000000000E+00  0.57571233846E+03  0.57571233846E+03  0.00000000000E+00 0. -1.
         -1   -1    0    0    0  501 -0.00000000000E+00 -0.00000000000E+00 -0.18747515092E+03  0.18747515092E+03  0.00000000000E+00 0.  1.
         23    2    1    2    0    0 -0.51356168833E+02 -0.28785391979E+03  0.74985032633E+02  0.31560620674E+03  0.92125932279E+02 0.  0.
         23    2    1    2    0    0  0.44582865036E+02  0.26250670106E+03  0.23995680001E+03  0.36973163144E+03  0.90690757293E+02 0.  0.
        -11    1    3    3    0    0 -0.50927696178E+02 -0.79743308823E+02  0.65855424760E+00  0.94620606814E+02  0.00000000000E+00 0.  1.
         11    1    3    3    0    0 -0.42847265482E+00 -0.20811061097E+03  0.74326478386E+02  0.22098559993E+03  0.00000000000E+00 0. -1.
        -11    1    4    4    0    0  0.54368800057E+02  0.10648687820E+03  0.14032850028E+03  0.18435701679E+03  0.00000000000E+00 0.  1.
         11    1    4    4    0    0 -0.97859350208E+01  0.15601982286E+03  0.99628299730E+02  0.18537461465E+03  0.00000000000E+00 0. -1.
         21    1    1    2  502  501  0.67733037963E+01  0.25347218724E+02  0.73295354898E+02  0.77849651194E+02  0.00000000000E+00 0.  1.
<scales pt_clust_5="13000.00000" pt_clust_6="13000.00000" pt_clust_7="13000.00000" pt_clust_8="13000.00000" pt_clust_9="26.23660"></scales>
<clustering>
<clus scale="   26.237">  1  9  2 -1</clus>
<clus scale="   90.691">  7  8 -1 -1</clus>
<clus scale="   92.126">  5  6 -1 -1</clus>
<clus scale="  296.407">  1  7  2 -1</clus>
<clus scale="   26.237">  1  5  2 -1</clus>
</clustering>
</event>
<event>
 9    1  0.1782981E-005  0.2112529E+03  0.7546771E-02  0.1140580E+00
          2   -1    0    0  502    0  0.00000000000E+00  0.00000000000E+00  0.17556888974E+04  0.17556888974E+04  0.00000000000E+00 0. -1.
         -2   -1    0    0    0  501 -0.00000000000E+00 -0.00000000000E+00 -0.28395352417E+02  0.28395352417E+02  0.00000000000E+00 0.  1.
         23    2    1    2    0    0  0.58601962835E+02 -0.19107858337E+03  0.88580480433E+03  0.91263769073E+03  0.91171202047E+02 0.  0.
         23    2    1    2    0    0 -0.61720981854E+02  0.17100114635E+03  0.79690499424E+03  0.82245123074E+03  0.91200797354E+02 0.  0.
        -11    1    4    4    0    0 -0.48984830028E+02  0.12352006984E+03  0.71240827448E+03  0.72469460518E+03  0.00000000000E+00 0. -1.
         11    1    4    4    0    0 -0.12736151826E+02  0.47481076515E+02  0.84496719766E+02  0.97756625564E+02  0.00000000000E+00 0.  1.
        -13    1    3    3    0    0  0.40728666540E+01 -0.65478299785E+02  0.14317261602E+03  0.15748775814E+03  0.00000000000E+00 0. -1.
         13    1    3    3    0    0  0.54529096181E+02 -0.12560028358E+03  0.74263218832E+03  0.75514993259E+03  0.00000000000E+00 0.  1.
         21    1    1    2  502  501  0.31190190192E+01  0.20077437016E+02  0.44583746384E+02  0.48995328333E+02  0.00000000000E+00 0. -1.
<scales pt_clust_5="13000.00000" pt_clust_6="13000.00000" pt_clust_7="13000.00000" pt_clust_8="13000.00000" pt_clust_9="20.31826"></scales>
<clustering>
<clus scale="   20.318">  2  9  1 -1</clus>
<clus scale="   91.171">  7  8 -1 -1</clus>
<clus scale="   91.201">  5  6 -1 -1</clus>
<clus scale="  211.240">  2  7  1 -1</clus>
<clus scale="  211.253">  1  5  2 -1</clus>
</clustering>
</event>
<event>
 9    1  0.1782981E-005  0.2170040E+03  0.7546771E-02  0.1136233E+00
         -1   -1    0    0    0  501 -0.00000000000E+00  0.00000000000E+00  0.13116185424E+03  0.13116185424E+03  0.00000000000E+00 0.  1.
          1   -1    0    0  502    0  0.00000000000E+00 -0.00000000000E+00 -0.11601357660E+04  0.11601357660E+04  0.00000000000E+00 0. -1.
         23    2    1    2    0    0 -0.96823724788E+02 -0.19181603392E+03 -0.15913455818E+02  0.23434101182E+03  0.92164240327E+02 0.  0.
         23    2    1    2    0    0 -0.12590961756E+02  0.14528888531E+03 -0.45526160632E+03  0.48662696179E+03  0.90968550795E+02 0.  0.
        -13    1    3    3    0    0 -0.27041230567E+02 -0.14751570338E+03  0.97421740935E+00  0.14997686486E+03  0.00000000000E+00 0.  1.
         13    1    3    3    0    0 -0.69782494221E+02 -0.44300330547E+02 -0.16887673227E+02  0.84364146966E+02  0.00000000000E+00 0. -1.
        -13    1    4    4    0    0 -0.37610634837E+02  0.21725816639E+02 -0.84362753041E+02  0.94887539025E+02  0.00000000000E+00 0.  1.
         13    1    4    4    0    0  0.25019673081E+02  0.12356306867E+03 -0.37089885328E+03  0.39173942276E+03  0.00000000000E+00 0. -1.
         21    1    1    2  502  501  0.10941468654E+03  0.46527148618E+02 -0.55779884967E+03  0.57032964668E+03  0.00000000000E+00 0. -1.
<scales pt_clust_5="13000.00000" pt_clust_6="13000.00000" pt_clust_7="13000.00000" pt_clust_8="13000.00000" pt_clust_9="118.89638"></scales>
<clustering>
<clus scale="   90.969">  7  8 -1 -1</clus>
<clus scale="   92.164">  5  6 -1 -1</clus>
<clus scale="  118.896">  2  9  1 -1</clus>
<clus scale="  216.499">  2  7  1 -1</clus>
<clus scale="  118.896">  2  5  1 -1</clus>
</clustering>
</event>
<event>
 9    1  0.1782981E-005  0.1239246E+03  0.7546771E-02  0.1238256E+00
          3   -1    0    0  502    0  0.00000000000E+00  0.00000000000E+00  0.27844677060E+02  0.27844677060E+02  0.00000000000E+00 0. -1.
         -3   -1    0    0    0  501 -0.00000000000E+00 -0.00000000000E+00 -0.87351878788E+03  0.87351878788E+03  0.00000000000E+00 0.  1.
         23    2    1    2    0    0 -0.84224689769E+02 -0.31164989111E+01 -0.66090854884E+03  0.67233195949E+03  0.90147894534E+02 0.  0.
         23    2    1    2    0    0  0.63542082502E+02  0.70398753498E+00 -0.15191379928E+03  0.19013640592E+03  0.95057659341E+02 0.  0.
        -11    1    3    3    0    0 -0.46091634763E+02 -0.46621093831E+02 -0.35037408235E+03  0.35645471349E+03  0.00000000000E+00 0. -1.
         11    1    3    3    0    0 -0.38133055006E+02  0.43504594920E+02 -0.31053446649E+03  0.31587724601E+03  0.00000000000E+00 0.  1.
        -13    1    4    4    0    0  0.56330186890E+02  0.42661131191E+02 -0.10723242290E+03  0.12842061591E+03  0.00000000000E+00 0. -1.
         13    1    4    4    0    0  0.72118956122E+01 -0.41957143656E+02 -0.44681376374E+02  0.61715790012E+02  0.00000000000E+00 0.  1.
         21    1    1    2  502  501  0.20682607266E+02  0.24125113761E+01 -0.32851762702E+02  0.38895099525E+02  0.00000000000E+00 0.  1.
<scales pt_clust_5="13000.00000" pt_clust_6="13000.00000" pt_clust_7="13000.00000" pt_clust_8="13000.00000" pt_clust_9="20.82283"></scales>
<clustering>
<clus scale="   20.823">  1  9  2 -1</clus>
<clus scale="   90.148">  5  6 -1 -1</clus>
<clus scale="   95.058">  7  8 -1 -1</clus>
<clus scale="  120.200">  2  5  1 -1</clus>
<clus scale="   20.823">  1  5  2 -1</clus>
</clustering>
</event>
<event>
 9    1  0.1782981E-005  0.1028448E+03  0.7546771E-02  0.1274579E+00
         -1   -1    0    0    0  501 -0.00000000000E+00  0.00000000000E+00  0.43471549677E+02  0.43471549677E+02  0.00000000000E+00 0.  1.
          1   -1    0    0  502    0  0.00000000000E+00 -0.00000000000E+00 -0.48780604079E+03  0.48780604079E+03  0.00000000000E+00 0. -1.
         23    2    1    2    0    0  0.48653760838E+01 -0.45945784363E+02 -0.46825315542E+02  0.11251195044E+03  0.91277827711E+02 0.  0.
         23    2    1    2    0    0  0.18522154106E+02  0.50169862857E+02 -0.34865700722E+03  0.36443927663E+03  0.91619824990E+02 0.  0.
        -11    1    4    4    0    0  0.49130791216E+02  0.56228581491E+02 -0.25617612133E+03  0.26683645396E+03  0.00000000000E+00 0. -1.
         11    1    4    4    0    0 -0.30608637110E+02 -0.60587186345E+01 -0.92480885893E+02  0.97602822668E+02  0.00000000000E+00 0.  1.
        -11    1    3    3    0    0  0.72993211593E+01 -0.73513137621E+02 -0.27817390930E+02  0.78938385658E+02  0.00000000000E+00 0.  1.
         11    1    3    3    0    0 -0.24339450756E+01  0.27567353257E+02 -0.19007924612E+02  0.33573564784E+02  0.00000000000E+00 0. -1.
         21    1    1    2  502  501 -0.23387530190E+02 -0.42240784937E+01 -0.48852168346E+02  0.54326363394E+02  0.00000000000E+00 0. -1.
<scales pt_clust_5="13000.00000" pt_clust_6="13000.00000" pt_clust_7="13000.00000" pt_clust_8="13000.00000" pt_clust_9="23.76593"></scales>
<clustering>
<clus scale="   23.766">  2  9  1 -1</clus>
<clus scale="   91.278">  7  8 -1 -1</clus>
<clus scale="   91.620">  5  6 -1 -1</clus>
<clus scale="  102.540">  1  7  2 -1</clus>
<clus scale="   23.766">  2  5  1 -1</clus>
</clustering>
</event>
<event>
 9    1  0.1782981E-005  0.1003614E+03  0.7546771E-02  0.1280335E+00
         -2   -1    0    0    0  501 -0.00000000000E+00  0.00000000000E+00  0.58374590887E+02  0.58374590887E+02  0.00000000000E+00 0.  1.
          2   -1    0    0  502    0  0.00000000000E+00 -0.00000000000E+00 -0.36125833842E+03  0.36125833842E+03  0.00000000000E+00 0. -1.
         23    2    1    2    0    0 -0.31117439127E+01  0.29618944956E+02 -0.51356906282E+02  0.10898395336E+03  0.91394777839E+02 0.  0.
         23    2    1    2    0    0 -0.29901834897E+02 -0.54282941114E+02 -0.82697632927E+02  0.13686315755E+03  0.89732201452E+02 0.  0.
        -11    1    4    4    0    0  0.26278582647E+02 -0.16224327974E+02 -0.55981837008E+02  0.63935583199E+02  0.00000000000E+00 0.  1.
         11    1    4    4    0    0 -0.56180417544E+02 -0.38058613140E+02 -0.26715795919E+02  0.72927574354E+02  0.00000000000E+00 0. -1.
        -13    1    3    3    0    0 -0.18790002733E+02  0.69101147030E+01  0.22513464729E+02  0.30127561833E+02  0.00000000000E+00 0.  1.
         13    1    3    3    0    0  0.15678258820E+02  0.22708830253E+02 -0.73870371011E+02  0.78856391525E+02  0.00000000000E+00 0. -1.
         21    1    1    2  502  501  0.33013578810E+02  0.24663996158E+02 -0.16882920833E+03  0.17378581840E+03  0.00000000000E+00 0. -1.
<scales pt_clust_5="13000.00000" pt_clust_6="13000.00000" pt_clust_7="13000.00000" pt_clust_8="13000.00000" pt_clust_9="41.20933"></scales>
<clustering>
<clus scale="   41.209">  2  9  1 -1</clus>
<clus scale="   89.732">  5  6 -1 -1</clus>
<clus scale="   91.395">  7  8 -1 -1</clus>
<clus scale="   98.850">  2  5  1 -1</clus>
<clus scale="   41.209">  2  5  1 -1</clus>
</clustering>
</event>
<event>
 9    1  0.1782981E-005  0.1079786E+03  0.7546771E-02  0.1264362E+00
          3   -1    0    0  502    0  0.00000000000E+00  0.00000000000E+00  0.88505980759E+03  0.88505980759E+03  0.00000000000E+00 0. -1.
         -3   -1    0    0    0  501 -0.00000000000E+00 -0.00000000000E+00 -0.18347558385E+02  0.18347558385E+02  0.00000000000E+00 0.  1.
         23    2    1    2    0    0  0.33601360421E+02  0.60655645637E+02  0.30066318518E+03  0.32182402235E+03  0.91455954817E+02 0.  0.
         23    2    1    2    0    0 -0.32197480202E+02 -0.28705796006E+02  0.40922532833E+03  0.42153195235E+03  0.91450079541E+02 0.  0.
        -11    1    3    3    0    0  0.67393546362E+01  0.78490848283E+02  0.24657612222E+03  0.25885520319E+03  0.00000000000E+00 0. -1.
         11    1    3    3    0    0  0.26862005785E+02 -0.17835202646E+02  0.54087062957E+02  0.62968819169E+02  0.00000000000E+00 0.  1.
        -13    1    4    4    0    0  0.22986896144E+02 -0.32442066883E+02  0.10411434344E+03  0.11144811173E+03  0.00000000000E+00 0.  1.
         13    1    4    4    0    0 -0.55184376346E+02  0.37362708769E+01  0.30511098490E+03  0.31008384063E+03  0.00000000000E+00 0. -1.
         21    1    1    2  502  501 -0.14038802190E+01 -0.31949849631E+02  0.15682373569E+03  0.16005139127E+03  0.00000000000E+00 0. -1.
<scales pt_clust_5="13000.00000" pt_clust_6="13000.00000" pt_clust_7="13000.00000" pt_clust_8="13000.00000" pt_clust_9="31.98068"></scales>
<clustering>
<clus scale="   31.981">  1  9  2 -1</clus>
<clus scale="   91.450">  7  8 -1 -1</clus>
<clus scale="   91.456">  5  6 -1 -1</clus>
<clus scale="  107.974">  1  7  2 -1</clus>
<clus scale="   31.981">  1  5  2 -1</clus>
</clustering>
</event>
<event>
 9    1  0.1782981E-005  0.2222279E+03  0.7546771E-02  0.1134279E+00
         -1   -1    0    0    0  501 -0.00000000000E+00  0.00000000000E+00  0.32037885220E+03  0.32037885220E+03  0.00000000000E+00 0.  1.
          1   -1    0    0  502    0  0.00000000000E+00 -0.00000000000E+00 -0.30719666443E+03  0.30719666443E+03  0.00000000000E+00 0. -1.
         23    2    1    2    0    0  0.16023013067E+03  0.10904520286E+03  0.95608589051E+02  0.23461847235E+03  0.91325101840E+02 0.  0.
         23    2    1    2    0    0 -0.11309854386E+03 -0.19881496156E+03  0.33522706438E+02  0.23893045037E+03  0.60376474723E+02 0.  0.
        -11    1    3    3    0    0  0.14877694828E+03  0.87431275723E+02  0.11149579300E+03  0.20545101647E+03  0.00000000000E+00 0.  1.
         11    1    3    3    0    0  0.11453182394E+02  0.21613927138E+02 -0.15887203946E+02  0.29167455880E+02  0.00000000000E+00 0. -1.
        -11    1    4    4    0    0 -0.32278930483E+02 -0.54802622045E+02  0.37326236188E+02  0.73746217829E+02  0.00000000000E+00 0.  1.
         11    1    4    4    0    0 -0.80819613380E+02 -0.14401233952E+03 -0.38035297492E+01  0.16518423254E+03  0.00000000000E+00 0. -1.
         21    1    1    2  502  501 -0.47131586808E+02  0.89769758702E+02 -0.11594910771E+03  0.15402659391E+03  0.00000000000E+00 0.  1.
<scales pt_clust_5="13000.00000" pt_clust_6="13000.00000" pt_clust_7="13000.00000" pt_clust_8="13000.00000" pt_clust_9="101.39032"></scales>
<clustering>
<clus scale="   60.376">  7  8 -1 -1</clus>
<clus scale="   91.325">  5  6 -1 -1</clus>
<clus scale="  101.390">  2  9  1 -1</clus>
<clus scale="  211.401">  2  7  1 -1</clus>
<clus scale="  101.390">  2  5  1 -1</clus>
</clustering>
</event>
<event>
 9    1  0.1782981E-005  0.1422470E+03  0.7546771E-02  0.1211037E+00
         -1   -1    0    0    0  501 -0.00000000000E+00  0.00000000000E+00  0.47111911859E+02  0.47111911859E+02  0.00000000000E+00 0.  1.
          1   -1    0    0  502    0  0.00000000000E+00 -0.00000000000E+00 -0.61291533427E+03  0.61291533427E+03  0.00000000000E+00 0. -1.
         23    2    1    2    0    0 -0.44746792921E+02 -0.10065555504E+03 -0.18018019045E+03  0.23095485082E+03  0.93495592672E+02 0.  0.
         23    2    1    2    0    0  0.13266068607E+02  0.10542024082E+03 -0.22026446090E+03  0.26067625105E+03  0.90256630647E+02 0.  0.
        -11    1    3    3    0    0 -0.15461410512E+02 -0.13987350487E+02  0.75067778412E+01  0.22159713496E+02  0.00000000000E+00 0.  1.
         11    1    3    3    0    0 -0.29285382409E+02 -0.86668204552E+02 -0.18768696829E+03  0.20879513732E+03  0.00000000000E+00 0. -1.
        -13    1    4    4    0    0 -0.28754051552E+02  0.69273199654E+02 -0.79034840382E+02  0.10895906417E+03  0.00000000000E+00 0. -1.
         13    1    4    4    0    0  0.42020120159E+02  0.36147041170E+02 -0.14122962052E+03  0.15171718688E+03  0.00000000000E+00 0.  1.
         21    1    1    2  502  501  0.31480724315E+02 -0.47646857848E+01 -0.16535877106E+03  0.16839614426E+03  0.00000000000E+00 0. -1.
<scales pt_clust_5="13000.00000" pt_clust_6="13000.00000" pt_clust_7="13000.00000" pt_clust_8="13000.00000" pt_clust_9="31.83926"></scales>
<clustering>
<clus scale="   31.839">  2  9  1 -1</clus>
<clus scale="   90.257">  7  8 -1 -1</clus>
<clus scale="   93.496">  5  6 -1 -1</clus>
<clus scale="  140.139">  2  7  1 -1</clus>
<clus scale="   31.839">  2  5  1 -1</clus>
</clustering>
</event>
<event>
 9    1  0.1782981E-005  0.1067747E+03  0.7546771E-02  0.1267411E+00
         -1   -1    0    0    0  501 -0.00000000000E+00  0.00000000000E+00  0.51281895687E+03  0.51281895687E+03  0.00000000000E+00 0.  1.
          1   -1    0    0  502    0  0.00000000000E+00 -0.00000000000E+00 -0.10268591652E+03  0.10268591652E+03  0.00000000000E+00 0. -1.
         23    2    1    2    0    0  0.48048807932E+02  0.37452450945E+02  0.40686758883E+03  0.42141718011E+03  0.91322674241E+02 0.  0.
         23    2    1    2    0    0 -0.13799112406E+02  0.25277907200E+02 -0.48534569411E+02  0.10581888992E+03  0.89513378558E+02 0.  0.
        -13    1    4    4    0    0  0.17843418828E+02  0.49850817544E+02 -0.35257467364E+02  0.63612739370E+02  0.00000000000E+00 0.  1.
         13    1    4    4    0    0 -0.31642531234E+02 -0.24572910344E+02 -0.13277102047E+02  0.42206150552E+02  0.00000000000E+00 0. -1.
        -13    1    3    3    0    0 -0.70135515511E+00 -0.28086008207E+02  0.10515885296E+03  0.10884714104E+03  0.00000000000E+00 0. -1.
         13    1    3    3    0    0  0.48750163087E+02  0.65538459152E+02  0.30170873587E+03  0.31257003908E+03  0.00000000000E+00 0.  1.
         21    1    1    2  502  501 -0.34249695526E+02 -0.62730358145E+02  0.51800020936E+02  0.88268803354E+02  0.00000000000E+00 0. -1.
<scales pt_clust_5="13000.00000" pt_clust_6="13000.00000" pt_clust_7="13000.00000" pt_clust_8="13000.00000" pt_clust_9="71.47125"></scales>
<clustering>
<clus scale="   71.471">  2  9  1 -1</clus>
<clus scale="   89.513">  5  6 -1 -1</clus>
<clus scale="   91.323">  7  8 -1 -1</clus>
<clus scale="  105.231">  2  5  1 -1</clus>
<clus scale="   71.471">  2  5  1 -1</clus>
</clustering>
</event>
<event>
 9    1  0.1782981E-005  0.1294345E+03  0.7546771E-02  0.1231820E+00
         -1   -1    0    0    0  501 -0.00000000000E+00  0.00000000000E+00  0.25721190175E+03  0.25721190175E+03  0.00000000000E+00 0.  1.
          1   -1    0    0  502    0  0.00000000000E+00 -0.00000000000E+00 -0.31721095688E+03  0.31721095688E+03  0.00000000000E+00 0. -1.
         23    2    1    2    0    0 -0.55678238195E+02 -0.59167476889E+02  0.21830771387E+03  0.24908722672E+03  0.88234528667E+02 0.  0.
         23    2    1    2    0    0  0.82669558282E+02  0.48333645281E+02 -0.24092507588E+03  0.27797220458E+03  0.10026593240E+03 0.  0.
        -11    1    3    3    0    0  0.18411881338E+02 -0.90715650108E+01  0.92369010209E+02  0.94622009665E+02  0.00000000000E+00 0. -1.
         11    1    3    3    0    0 -0.74090119533E+02 -0.50095911879E+02  0.12593870366E+03  0.15446521705E+03  0.00000000000E+00 0.  1.
        -11    1    4    4    0    0  0.44721318296E+02  0.38857954988E+02 -0.22979039489E+03  0.23730478832E+03  0.00000000000E+00 0. -1.
         11    1    4    4    0    0  0.37948239986E+02  0.94756902927E+01 -0.11134680989E+02  0.40667416260E+02  0.00000000000E+00 0.  1.
         21    1    1    2  502  501 -0.26991320087E+02  0.10833831609E+02 -0.37381693115E+02  0.47363427320E+02  0.00000000000E+00 0.  1.
<scales pt_clust_5="13000.00000" pt_clust_6="13000.00000" pt_clust_7="13000.00000" pt_clust_8="13000.00000" pt_clust_9="29.08442"></scales>
<clustering>
<clus scale="   29.084">  2  9  1 -1</clus>
<clus scale="   88.235">  5  6 -1 -1</clus>
<clus scale="  100.266">  7  8 -1 -1</clus>
<clus scale="  120.355">  1  5  2 -1</clus>
<clus scale="   29.084">  2  5  1 -1</clus>
</clustering>
</event>
<event>
 9    1  0.1782981E-005  0.9782454E+02  0.7546771E-02  0.1285480E+00
         -1   -1    0    0    0  501 -0.00000000000E+00  0.00000000000E+00  0.31747423805E+03  0.31747423805E+03  0.00000000000E+00 0.  1.
          1   -1    0    0  502    0  0.00000000000E+00 -0.00000000000E+00 -0.41077075020E+02  0.41077075020E+02  0.00000000000E+00 0. -1.
         23    2    1    2    0    0 -0.29015217616E+02  0.20283896506E+02  0.15933118446E+03  0.18699499982E+03  0.91254502942E+02 0.  0.
         23    2    1    2    0    0  0.10683327917E+02 -0.39202601091E+02  0.88979954453E+02  0.13304916697E+03  0.90186867727E+02 0.  0.
        -13    1    4    4    0    0  0.37995538031E+02 -0.42852555320E+02  0.88591394555E+02  0.10549141006E+03  0.00000000000E+00 0.  1.
         13    1    4    4    0    0 -0.27312210115E+02  0.36499542285E+01  0.38855989773E+00  0.27557756912E+02  0.00000000000E+00 0. -1.
        -13    1    3    3    0    0  0.21809811478E+02  0.24264571127E+02  0.11466183133E+03  0.11921314044E+03  0.00000000000E+00 0.  1.
         13    1    3    3    0    0 -0.50825029094E+02 -0.39806746206E+01  0.44669353121E+02  0.67781859381E+02  0.00000000000E+00 0. -1.
         21    1    1    2  502  501  0.18331889700E+02  0.18918704585E+02  0.28086024117E+02  0.38507146270E+02  0.00000000000E+00 0.  1.
<scales pt_clust_5="13000.00000" pt_clust_6="13000.00000" pt_clust_7="13000.00000" pt_clust_8="13000.00000" pt_clust_9="26.34342"></scales>
<clustering>
<clus scale="   26.343">  2  9  1 -1</clus>
<clus scale="   90.187">  5  6 -1 -1</clus>
<clus scale="   91.255">  7  8 -1 -1</clus>
<clus scale="   96.829">  2  5  1 -1</clus>
<clus scale="   26.343">  2  5  1 -1</clus>
</clustering>
</event>
<event>
 9    1  0.1782981E-005  0.1393867E+03  0.7546771E-02  0.1221009E+00
         -1   -1    0    0    0  501 -0.00000000000E+00  0.00000000000E+00  0.23216617933E+03  0.23216617933E+03  0.00000000000E+00 0.  1.
          1   -1    0    0  502    0  0.00000000000E+00 -0.00000000000E+00 -0.33923254638E+03  0.33923254638E+03  0.00000000000E+00 0. -1.
         23    2    1    2    0    0  0.38480508600E+02 -0.67415506102E+02  0.15180780399E+03  0.20621634744E+03  0.11599126086E+03 0.  0.
         23    2    1    2    0    0 -0.63561764053E+02  0.49814574990E+02 -0.20178052733E+02  0.12452764833E+03  0.92619607289E+02 0.  0.
        -11    1    4    4    0    0 -0.29113626936E+02 -0.25779989073E+02  0.61268049714E+00  0.38891984873E+02  0.00000000000E+00 0.  1.
         11    1    4    4    0    0 -0.34448137118E+02  0.75594564063E+02 -0.20790733230E+02  0.85635663453E+02  0.00000000000E+00 0. -1.
        -11    1    3    3    0    0 -0.26012520540E+02  0.12444373087E+02  0.67434638464E+02  0.73341285176E+02  0.00000000000E+00 0. -1.
         11    1    3    3    0    0  0.64493029141E+02 -0.79859879189E+02  0.84373165521E+02  0.13287506226E+03  0.00000000000E+00 0.  1.
         21    1    1    2  502  501  0.25081255453E+02  0.17600931112E+02 -0.23869611831E+03  0.24065472995E+03  0.00000000000E+00 0. -1.
<scales pt_clust_5="13000.00000" pt_clust_6="13000.00000" pt_clust_7="13000.00000" pt_clust_8="13000.00000" pt_clust_9="30.64086"></scales>
<clustering>
<clus scale="   30.641">  2  9  1 -1</clus>
<clus scale="   92.620">  5  6 -1 -1</clus>
<clus scale="  115.991">  7  8 -1 -1</clus>
<clus scale="  120.636">  2  5  1 -1</clus>
<clus scale="   30.641">  2  5  1 -1</clus>
</clustering>
</event>
<event>
 9    1  0.1782981E-005  0.2174346E+03  0.7546771E-02  0.1147472E+00
         -1   -1    0    0    0  501 -0.00000000000E+00  0.00000000000E+00  0.65174442250E+03  0.65174442250E+03  0.00000000000E+00 0.  1.
          1   -1    0    0  502    0  0.00000000000E+00 -0.00000000000E+00 -0.30206335183E+03  0.30206335183E+03  0.00000000000E+00 0. -1.
         23    2    1    2    0    0 -0.19708954897E+03 -0.25295892214E+02  0.42309970584E+03  0.47619363126E+03  0.90900169950E+02 0.  0.
         23    2    1    2    0    0 -0.72676662776E+00  0.13640301715E+03 -0.16511586039E+03  0.23290110900E+03  0.91506108771E+02 0.  0.
        -11    1    3    3    0    0 -0.63887783848E+02  0.24457541652E+02  0.20246414191E+03  0.21370902889E+03  0.00000000000E+00 0. -1.
         11    1    3    3    0    0 -0.13320176512E+03 -0.49753433866E+02  0.22063556393E+03  0.26248460237E+03  0.00000000000E+00 0.  1.
        -13    1    4    4    0    0 -0.21042571021E+02  0.14079212174E+03 -0.13414103737E+03  0.19559915452E+03  0.00000000000E+00 0. -1.
         13    1    4    4    0    0  0.20315804393E+02 -0.43891045904E+01 -0.30974823015E+02  0.37301954480E+02  0.00000000000E+00 0.  1.
         21    1    1    2  502  501  0.19781631560E+03 -0.11110712494E+03  0.91697225215E+02  0.24471303407E+03  0.00000000000E+00 0. -1.
<scales pt_clust_5="13000.00000" pt_clust_6="13000.00000" pt_clust_7="13000.00000" pt_clust_8="13000.00000" pt_clust_9="197.52210"></scales>
<clustering>
<clus scale="   90.900">  5  6 -1 -1</clus>
<clus scale="   91.506">  7  8 -1 -1</clus>
<clus scale="  164.255">  2  7  1 -1</clus>
<clus scale="  197.522">  2  9  1 -1</clus>
<clus scale="  164.255">  2  5  1 -1</clus>
</clustering>
</event>
<event>
 9    1  0.1782981E-005  0.1967417E+03  0.7546771E-02  0.1153090E+00
         -2   -1    0    0    0  501 -0.00000000000E+00  0.00000000000E+00  0.29793763564E+03  0.29793763564E+03  0.00000000000E+00 0.  1.
          2   -1    0    0  502    0  0.00000000000E+00 -0.00000000000E+00 -0.16903019689E+03  0.16903019689E+03  0.00000000000E+00 0. -1.
         23    2    1    2    0    0  0.10120235126E+03 -0.15391952224E+03  0.10103911633E+03  0.22826507522E+03  0.89235118146E+02 0.  0.
         23    2    1    2    0    0 -0.50836191584E+02  0.15225296525E+03  0.26321352759E+02  0.18828529438E+03  0.94832772109E+02 0.  0.
        -11    1    3    3    0    0  0.69762938656E+02 -0.15372336819E+03  0.66178482336E+02  0.18132107727E+03  0.00000000000E+00 0.  1.
         11    1    3    3    0    0  0.31439412607E+02 -0.19615404887E+00  0.34860633996E+02  0.46943997956E+02  0.00000000000E+00 0. -1.
        -13    1    4    4    0    0 -0.56852872562E+02  0.13296495707E+03  0.53700245218E+02  0.15425837177E+03  0.00000000000E+00 0. -1.
         13    1    4    4    0    0  0.60166809774E+01  0.19288008189E+02 -0.27378892459E+02  0.34026922608E+02  0.00000000000E+00 0.  1.
         21    1    1    2  502  501 -0.50366159679E+02  0.16665569812E+01  0.15469696592E+01  0.50417462929E+02  0.00000000000E+00 0.  1.
<scales pt_clust_5="13000.00000" pt_clust_6="13000.00000" pt_clust_7="13000.00000" pt_clust_8="13000.00000" pt_clust_9="50.39372"></scales>
<clustering>
<clus scale="   50.394">  2  9  1 -1</clus>
<clus scale="   89.235">  5  6 -1 -1</clus>
<clus scale="   94.833">  7  8 -1 -1</clus>
<clus scale="  194.106">  1  5  2 -1</clus>
<clus scale="   50.394">  2  5  1 -1</clus>
</clustering>
</event>
<event>
 9    1  0.1782981E-005  0.1095146E+03  0.7546771E-02  0.1269880E+00
          2   -1    0    0  502    0  0.00000000000E+00  0.00000000000E+00  0.34760298532E+03  0.34760298532E+03  0.00000000000E+00 0. -1.
         -2   -1    0    0    0  501 -0.00000000000E+00 -0.00000000000E+00 -0.10712367018E+03  0.10712367018E+03  0.00000000000E+00 0.  1.
         23    2    1    2    0    0  0.15757826047E+02 -0.29662408293E+02 -0.39595301382E+02  0.11851988866E+03  0.10654111211E+03 0.  0.
         23    2    1    2    0    0 -0.91902880975E+01 -0.29044092469E+02  0.25515867063E+03  0.27209444239E+03  0.89450643808E+02 0.  0.
        -11    1    3    3    0    0  0.46732579932E+02 -0.15044011031E+02  0.17348073133E+02  0.52069299366E+02  0.00000000000E+00 0.  1.
         11    1    3    3    0    0 -0.30974753886E+02 -0.14618397262E+02 -0.56943374515E+02  0.66450589297E+02  0.00000000000E+00 0. -1.
        -13    1    4    4    0    0 -0.47105682515E+02 -0.30247960953E+02  0.16656912065E+03  0.17572466082E+03  0.00000000000E+00 0. -1.
         13    1    4    4    0    0  0.37915394418E+02  0.12038684842E+01  0.88589549980E+02  0.96369781565E+02  0.00000000000E+00 0.  1.
         21    1    1    2  502  501 -0.65675379493E+01  0.58706500762E+02  0.24915945886E+02  0.64112324446E+02  0.00000000000E+00 0.  1.
<scales pt_clust_5="13000.00000" pt_clust_6="13000.00000" pt_clust_7="13000.00000" pt_clust_8="13000.00000" pt_clust_9="59.07272"></scales>
<clustering>
<clus scale="   59.073">  2  9  1 -1</clus>
<clus scale="   89.451">  7  8 -1 -1</clus>
<clus scale="   92.972">  1  7  2 -1</clus>
<clus scale="  106.541">  5  6 -1 -1</clus>
<clus scale="   92.972">  1  5  2 -1</clus>
</clustering>
</event>
<event>
 9    1  0.1782981E-005  0.1388152E+03  0.7546771E-02  0.1233325E+00
          1   -1    0    0  502    0  0.00000000000E+00  0.00000000000E+00  0.15380025467E+03  0.15380025467E+03  0.00000000000E+00 0. -1.
         -1   -1    0    0    0  501 -0.00000000000E+00 -0.00000000000E+00 -0.31495655509E+03  0.31495655509E+03  0.00000000000E+00 0.  1.
         23    2    1    2    0    0 -0.60635796622E+01  0.78597328895E+01 -0.94665433616E+02  0.13382640506E+03  0.94071355744E+02 0.  0.
         23    2    1    2    0    0  0.14861267805E+02  0.98292444477E+02 -0.14875898501E+03  0.20034315661E+03  0.90143678955E+02 0.  0.
        -11    1    4    4    0    0 -0.25107016338E+02  0.69180174643E+02 -0.47322903273E+02  0.87496948559E+02  0.00000000000E+00 0.  1.
         11    1    4    4    0    0  0.39968284143E+02  0.29112269834E+02 -0.10143608174E+03  0.11284620805E+03  0.00000000000E+00 0. -1.
        -11    1    3    3    0    0  0.11142516489E+02  0.27443480910E+02  0.56723268813E+01  0.30157513333E+02  0.00000000000E+00 0.  1.
         11    1    3    3    0    0 -0.17206096151E+02 -0.19583748021E+02 -0.10033776050E+03  0.10366889173E+03  0.00000000000E+00 0. -1.
         21    1    1    2  502  501 -0.87976881433E+01 -0.10615217737E+03  0.82268118201E+02  0.13458724809E+03  0.00000000000E+00 0. -1.
<scales pt_clust_5="13000.00000" pt_clust_6="13000.00000" pt_clust_7="13000.00000" pt_clust_8="13000.00000" pt_clust_9="105.56410"></scales>
<clustering>
<clus scale="   90.144">  5  6 -1 -1</clus>
<clus scale="   94.071">  7  8 -1 -1</clus>
<clus scale="   94.594">  2  7  1 -1</clus>
<clus scale="  105.564">  1  9  2 -1</clus>
<clus scale="  105.564">  1  5  2 -1</clus>
</clustering>
</event>
<event>
 9    1  0.1782981E-005  0.1644278E+03  0.7546771E-02  0.1183805E+00
          2   -1    0    0  502    0  0.00000000000E+00  0.00000000000E+00  0.49501677625E+03  0.49501677625E+03  0.00000000000E+00 0. -1.
         -2   -1    0    0    0  501 -0.00000000000E+00 -0.00000000000E+00 -0.21364440200E+03  0.21364440200E+03  0.00000000000E+00 0.  1.
         23    2    1    2    0    0  0.13556051723E+03  0.16901045661E+01 -0.15038131947E+03  0.22210511947E+03  0.91305161763E+02 0.  0.
         23    2    1    2    0    0 -0.14524644839E+03 -0.40256719799E+02  0.29041776616E+03  0.33973288114E+03  0.91426568157E+02 0.  0.
        -11    1    3    3    0    0  0.65625651276E+02  0.26069731948E+02 -0.12545076924E+03  0.14395920440E+03  0.00000000000E+00 0.  1.
         11    1    3    3    0    0  0.69934865958E+02 -0.24379627382E+02 -0.24930550234E+02  0.78145915074E+02  0.00000000000E+00 0. -1.
        -13    1    4    4    0    0 -0.21840931187E+02  0.17811673022E+02  0.13931448961E+02  0.31438308496E+02  0.00000000000E+00 0.  1.
         13    1    4    4    0    0 -0.12340551721E+03 -0.58068392821E+02  0.27648631720E+03  0.30829457264E+03  0.00000000000E+00 0. -1.
         21    1    1    2  502  501  0.96859311603E+01  0.38566615233E+02  0.14133592756E+03  0.14682317764E+03  0.00000000000E+00 0.  1.
<scales pt_clust_5="13000.00000" pt_clust_6="13000.00000" pt_clust_7="13000.00000" pt_clust_8="13000.00000" pt_clust_9="39.76432"></scales>
<clustering>
<clus scale="   39.764">  1  9  2 -1</clus>
<clus scale="   91.305">  5  6 -1 -1</clus>
<clus scale="   91.427">  7  8 -1 -1</clus>
<clus scale="  164.360">  2  5  1 -1</clus>
<clus scale="   39.764">  1  5  2 -1</clus>
</clustering>
</event>
<event>
 9    1  0.1782981E-005  0.1430769E+03  0.7546771E-02  0.1209586E+00
          2   -1    0    0  502    0  0.00000000000E+00  0.00000000000E+00  0.28600408206E+03  0.28600408206E+03  0.00000000000E+00 0. -1.
         -2   -1    0    0    0  501 -0.00000000000E+00 -0.00000000000E+00 -0.10701228510E+03  0.10701228510E+03  0.00000000000E+00 0.  1.
         23    2    1    2    0    0  0.86837277982E+02  0.73377165809E+02 -0.25426540825E+01  0.14496530909E+03  0.89908589363E+02 0.  0.
         23    2    1    2    0    0 -0.66016760203E+02 -0.79288354363E+02  0.11998681969E+03  0.18280883986E+03  0.91528024481E+02 0.  0.
        -11    1    3    3    0    0  0.14651562895E+02  0.56077464295E+02 -0.30683137855E+02  0.65580524896E+02  0.00000000000E+00 0.  1.
         11    1    3    3    0    0  0.72185715087E+02  0.17299701513E+02  0.28140483772E+02  0.79384784197E+02  0.00000000000E+00 0. -1.
        -13    1    4    4    0    0 -0.36164673078E+02 -0.96783871501E+02  0.89959677607E+02  0.13699541947E+03  0.00000000000E+00 0.  1.
         13    1    4    4    0    0 -0.29852087124E+02  0.17495517138E+02  0.30027142087E+02  0.45813420387E+02  0.00000000000E+00 0. -1.
         21    1    1    2  502  501 -0.20820517779E+02  0.59111885546E+01  0.61547631356E+02  0.65242218204E+02  0.00000000000E+00 0.  1.
<scales pt_clust_5="13000.00000" pt_clust_6="13000.00000" pt_clust_7="13000.00000" pt_clust_8="13000.00000" pt_clust_9="21.64338"></scales>
<clustering>
<clus scale="   21.643">  1  9  2 -1</clus>
<clus scale="   89.909">  5  6 -1 -1</clus>
<clus scale="   91.528">  7  8 -1 -1</clus>
<clus scale="  142.046">  2  5  1 -1</clus>
<clus scale="   21.643">  1  5  2 -1</clus>
</clustering>
</event>
<event>
 9    1  0.2143798E-005  0.1342441E+03  0.7546771E-02  0.1221600E+00
          1   -1    0    0  502    0  0.00000000000E+00  0.00000000000E+00  0.43350426641E+03  0.43350426641E+03  0.00000000000E+00 0. -1.
         -1   -1    0    0    0  501 -0.00000000000E+00 -0.00000000000E+00 -0.11909989341E+03  0.11909989341E+03  0.00000000000E+00 0.  1.
         23    2    1    2    0    0  0.85469452158E+01 -0.97250552908E+02 -0.60537452546E+02  0.14774905550E+03  0.92920826117E+02 0.  0.
         23    2    1    2    0    0  0.12722918247E+02  0.92518741489E+02  0.31668272062E+03  0.34265445773E+03  0.91665378889E+02 0.  0.
        -11    1    4    4    0    0  0.31093246040E+02 -0.48905139680E+01  0.85837274001E+02  0.91426170674E+02  0.00000000000E+00 0.  1.
         11    1    4    4    0    0 -0.18370327793E+02  0.97409255457E+02  0.23084544662E+03  0.25122828706E+03  0.00000000000E+00 0. -1.
        -13    1    3    3    0    0  0.49684142517E+02 -0.65453930735E+02 -0.43855212999E+02  0.93145106009E+02  0.00000000000E+00 0. -1.
         13    1    3    3    0    0 -0.41137197301E+02 -0.31796622173E+02 -0.16682239547E+02  0.54603949488E+02  0.00000000000E+00 0.  1.
         21    1    1    2  502  501 -0.21269863463E+02  0.47318114192E+01  0.58259104922E+02  0.62200646599E+02  0.00000000000E+00 0.  1.
<scales pt_clust_5="13000.00000" pt_clust_6="13000.00000" pt_clust_7="13000.00000" pt_clust_8="13000.00000" pt_clust_9="21.78984"></scales>
<clustering>
<clus scale="   21.790">  1  9  2 -1</clus>
<clus scale="   91.665">  5  6 -1 -1</clus>
<clus scale="   92.921">  7  8 -1 -1</clus>
<clus scale="  133.378">  1  5  2 -1</clus>
<clus scale="   21.790">  1  5  2 -1</clus>
</clustering>
</event>
<event>
 9    1  0.1782981E-005  0.1172873E+03  0.7546771E-02  0.1247717E+00
          3   -1    0    0  502    0  0.00000000000E+00  0.00000000000E+00  0.67326513811E+03  0.67326513811E+03  0.00000000000E+00 0. -1.
         -3   -1    0    0    0  501 -0.00000000000E+00 -0.00000000000E+00 -0.28458062370E+02  0.28458062370E+02  0.00000000000E+00 0.  1.
         23    2    1    2    0    0 -0.43563635684E+02  0.75544262274E+02  0.24406918918E+03  0.27346631046E+03  0.87231461847E+02 0.  0.
         23    2    1    2    0    0  0.56385009143E+01 -0.71773695455E+02  0.30180951881E+03  0.32224106588E+03  0.86988866202E+02 0.  0.
        -13    1    4    4    0    0  0.18215227604E+02  0.15353749765E+02  0.47754248265E+02  0.53366659778E+02  0.00000000000E+00 0. -1.
         13    1    4    4    0    0 -0.12576726690E+02 -0.87127445219E+02  0.25405527055E+03  0.26887440610E+03  0.00000000000E+00 0.  1.
        -13    1    3    3    0    0 -0.26494749113E+02  0.96529826987E+01  0.10350890349E+02  0.30038187971E+02  0.00000000000E+00 0.  1.
         13    1    3    3    0    0 -0.17068886571E+02  0.65891279575E+02  0.23371829883E+03  0.24342812249E+03  0.00000000000E+00 0. -1.
         21    1    1    2  502  501  0.37925134770E+02 -0.37705668191E+01  0.98928367753E+02  0.10601582414E+03  0.00000000000E+00 0.  1.
<scales pt_clust_5="13000.00000" pt_clust_6="13000.00000" pt_clust_7="13000.00000" pt_clust_8="13000.00000" pt_clust_9="38.11211"></scales>
<clustering>
<clus scale="   38.112">  1  9  2 -1</clus>
<clus scale="   86.989">  5  6 -1 -1</clus>
<clus scale="   87.231">  7  8 -1 -1</clus>
<clus scale="  117.107">  1  5  2 -1</clus>
<clus scale="   38.112">  1  5  2 -1</clus>
</clustering>
</event>
<event>
 9    1  0.1782981E-005  0.1172302E+03  0.7546771E-02  0.1248198E+00
          1   -1    0    0  502    0  0.00000000000E+00  0.00000000000E+00  0.29719894663E+03  0.29719894663E+03  0.00000000000E+00 0. -1.
         -1   -1    0    0    0  501 -0.00000000000E+00 -0.00000000000E+00 -0.96307924935E+02  0.96307924935E+02  0.00000000000E+00 0.  1.
         23    2    1    2    0    0  0.76794609982E+02 -0.79489605046E+01 -0.36217000050E+02  0.12370403708E+03  0.89612608501E+02 0.  0.
         23    2    1    2    0    0 -0.57555696980E+02  0.35915579135E+00  0.20603368346E+03  0.23247515831E+03  0.91005677079E+02 0.  0.
        -13    1    4    4    0    0  0.22059802220E+02  0.73236412279E+01  0.22746697206E+02  0.32522036047E+02  0.00000000000E+00 0.  1.
         13    1    4    4    0    0 -0.79615499201E+02 -0.69644854365E+01  0.18328698626E+03  0.19995312226E+03  0.00000000000E+00 0. -1.
        -13    1    3    3    0    0  0.41925293689E+02  0.18169514724E+02  0.22223923035E+02  0.50811064458E+02  0.00000000000E+00 0.  1.
         13    1    3    3    0    0  0.34869316292E+02 -0.26118475229E+02 -0.58440923085E+02  0.72892972624E+02  0.00000000000E+00 0. -1.
         21    1    1    2  502  501 -0.19238913001E+02  0.75898047133E+01  0.31074338277E+02  0.37327676172E+02  0.00000000000E+00 0. -1.
<scales pt_clust_5="13000.00000" pt_clust_6="13000.00000" pt_clust_7="13000.00000" pt_clust_8="13000.00000" pt_clust_9="20.68190"></scales>
<clustering>
<clus scale="   20.682">  1  9  2 -1</clus>
<clus scale="   89.613">  7  8 -1 -1</clus>
<clus scale="   91.006">  5  6 -1 -1</clus>
<clus scale="  116.152">  2  7  1 -1</clus>
<clus scale="   20.682">  1  5  2 -1</clus>
</clustering>
</event>
<event>
 9    1  0.1782981E-005  0.1066318E+03  0.7546771E-02  0.1267530E+00
         -1   -1    0    0    0  501 -0.00000000000E+00  0.00000000000E+00  0.59106502012E+02  0.59106502012E+02  0.00000000000E+00 0.  1.
          1   -1    0    0  502    0  0.00000000000E+00 -0.00000000000E+00 -0.38598780283E+03  0.38598780283E+03  0.00000000000E+00 0. -1.
         23    2    1    2    0    0  0.41962494598E+02 -0.11914607025E+02 -0.33278661218E+02  0.10688887760E+03  0.91733058651E+02 0.  0.
         23    2    1    2    0    0 -0.73562735467E+02  0.28474759629E+01 -0.15215979911E+03  0.19299225561E+03  0.93133356491E+02 0.  0.
        -11    1    4    4    0    0 -0.89013741060E+02 -0.16142682464E+02 -0.13707441849E+03  0.16423589285E+03  0.00000000000E+00 0. -1.
         11    1    4    4    0    0  0.15451005592E+02  0.18990158427E+02 -0.15085380619E+02  0.28756362762E+02  0.00000000000E+00 0.  1.
        -13    1    3    3    0    0  0.68636074115E+02  0.39835083217E+01 -0.31938393431E+02  0.75807915045E+02  0.00000000000E+00 0.  1.
         13    1    3    3    0    0 -0.26673579517E+02 -0.15898115346E+02 -0.13402677867E+01  0.31080962559E+02  0.00000000000E+00 0. -1.
         21    1    1    2  502  501  0.31600240869E+02  0.90671310619E+01 -0.14144284049E+03  0.14521317163E+03  0.00000000000E+00 0. -1.
<scales pt_clust_5="13000.00000" pt_clust_6="13000.00000" pt_clust_7="13000.00000" pt_clust_8="13000.00000" pt_clust_9="32.87534"></scales>
<clustering>
<clus scale="   32.875">  2  9  1 -1</clus>
<clus scale="   91.733">  7  8 -1 -1</clus>
<clus scale="   93.133">  5  6 -1 -1</clus>
<clus scale="  105.411">  1  7  2 -1</clus>
<clus scale="   32.875">  2  5  1 -1</clus>
</clustering>
</event>
<event>
 9    1  0.1782981E-005  0.1056938E+03  0.7546771E-02  0.1269790E+00
         -1   -1    0    0    0  501 -0.00000000000E+00  0.00000000000E+00  0.39047036671E+03  0.39047036671E+03  0.00000000000E+00 0.  1.
          1   -1    0    0  502    0  0.00000000000E+00 -0.00000000000E+00 -0.54761360836E+02  0.54761360836E+02  0.00000000000E+00 0. -1.
         23    2    1    2    0    0 -0.63899230250E+02 -0.96591137968E+01  0.26110212566E+03  0.28272628275E+03  0.87082838880E+02 0.  0.
         23    2    1    2    0    0  0.36873060835E+02  0.15031500592E+02  0.88132652257E+02  0.13180979555E+03  0.89559417064E+02 0.  0.
        -11    1    3    3    0    0 -0.45235012459E+02  0.32182942045E+02  0.19160900290E+03  0.19948924307E+03  0.00000000000E+00 0.  1.
         11    1    3    3    0    0 -0.18664217791E+02 -0.41842055841E+02  0.69493122766E+02  0.83237039679E+02  0.00000000000E+00 0. -1.
        -11    1    4    4    0    0 -0.29020847208E+02  0.10081257373E+02  0.37998403811E+02  0.48864302052E+02  0.00000000000E+00 0.  1.
         11    1    4    4    0    0  0.65893908043E+02  0.49502432193E+01  0.50134248446E+02  0.82945493503E+02  0.00000000000E+00 0. -1.
         21    1    1    2  502  501  0.27026169414E+02 -0.53723867952E+01 -0.13525772043E+02  0.30695649243E+02  0.00000000000E+00 0. -1.
<scales pt_clust_5="13000.00000" pt_clust_6="13000.00000" pt_clust_7="13000.00000" pt_clust_8="13000.00000" pt_clust_9="27.55497"></scales>
<clustering>
<clus scale="   27.555">  2  9  1 -1</clus>
<clus scale="   87.083">  5  6 -1 -1</clus>
<clus scale="   89.559">  7  8 -1 -1</clus>
<clus scale="  103.604">  1  5  2 -1</clus>
<clus scale="   27.555">  2  5  1 -1</clus>
</clustering>
</event>
<event>
 9    1  0.1782981E-005  0.9503116E+02  0.7546771E-02  0.1292963E+00
          1   -1    0    0  502    0  0.00000000000E+00  0.00000000000E+00  0.42837780696E+03  0.42837780696E+03  0.00000000000E+00 0. -1.
         -1   -1    0    0    0  501 -0.00000000000E+00 -0.00000000000E+00 -0.55961956008E+02  0.55961956008E+02  0.00000000000E+00 0.  1.
         23    2    1    2    0    0  0.26067230095E+02  0.20419257163E+01  0.10606447970E+02  0.93383852606E+02  0.89018971256E+02 0.  0.
         23    2    1    2    0    0 -0.83725651376E+01  0.25129034702E+02  0.16055918017E+03  0.18711034519E+03  0.92355090324E+02 0.  0.
        -11    1    3    3    0    0  0.58900509648E+02 -0.20049146954E+00  0.31239162043E+00  0.58901679281E+02  0.00000000000E+00 0.  1.
         11    1    3    3    0    0 -0.32833279553E+02  0.22424171858E+01  0.10294056350E+02  0.34482173325E+02  0.00000000000E+00 0. -1.
        -13    1    4    4    0    0  0.41001391439E+02  0.15931882752E+02  0.56855588518E+02  0.71885304018E+02  0.00000000000E+00 0.  1.
         13    1    4    4    0    0 -0.49373956577E+02  0.91971519506E+01  0.10370359165E+03  0.11522504117E+03  0.00000000000E+00 0. -1.
         21    1    1    2  502  501 -0.17694664957E+02 -0.27170960419E+02  0.20125022281E+03  0.20384556517E+03  0.00000000000E+00 0.  1.
<scales pt_clust_5="13000.00000" pt_clust_6="13000.00000" pt_clust_7="13000.00000" pt_clust_8="13000.00000" pt_clust_9="32.42472"></scales>
<clustering>
<clus scale="   32.425">  1  9  2 -1</clus>
<clus scale="   89.019">  5  6 -1 -1</clus>
<clus scale="   91.792">  2  5  1 -1</clus>
<clus scale="   92.355">  7  8 -1 -1</clus>
<clus scale="   32.425">  1  5  2 -1</clus>
</clustering>
</event>
<event>
 9    1  0.1782981E-005  0.4555238E+03  0.7546771E-02  0.1026115E+00
         -2   -1    0    0    0  501 -0.00000000000E+00  0.00000000000E+00  0.18467858908E+03  0.18467858908E+03  0.00000000000E+00 0.  1.
          2   -1    0    0  502    0  0.00000000000E+00 -0.00000000000E+00 -0.14849162162E+04  0.14849162162E+04  0.00000000000E+00 0. -1.
         23    2    1    2    0    0  0.40202978939E+03 -0.28676503042E+03 -0.50086141723E+03  0.70920409593E+03  0.90808348588E+02 0.  0.
         23    2    1    2    0    0 -0.31917890809E+03  0.27326541731E+03 -0.74514857055E+03  0.86045500524E+03  0.92667470958E+02 0.  0.
        -13    1    4    4    0    0 -0.14595437368E+03  0.68811859356E+02 -0.30803805918E+03  0.34774300437E+03  0.00000000000E+00 0.  1.
         13    1    4    4    0    0 -0.17322453442E+03  0.20445355796E+03 -0.43711051137E+03  0.51271200087E+03  0.00000000000E+00 0. -1.
        -13    1    3    3    0    0  0.32225984952E+03 -0.25978809166E+03 -0.38005922140E+03  0.56194864085E+03  0.00000000000E+00 0.  1.
         13    1    3    3    0    0  0.79769939877E+02 -0.26976938766E+02 -0.12080219583E+03  0.14725545508E+03  0.00000000000E+00 0. -1.
         21    1    1    2  502  501 -0.82850881303E+02  0.13499613109E+02 -0.54227639307E+02  0.99935704088E+02  0.00000000000E+00 0. -1.
<scales pt_clust_5="13000.00000" pt_clust_6="13000.00000" pt_clust_7="13000.00000" pt_clust_8="13000.00000" pt_clust_9="83.94348"></scales>
<clustering>
<clus scale="   83.943">  1  9  2 -1</clus>
<clus scale="   90.808">  7  8 -1 -1</clus>
<clus scale="   92.667">  5  6 -1 -1</clus>
<clus scale="  455.149">  1  7  2 -1</clus>
<clus scale="  455.524">  2  5  1 -1</clus>
</clustering>
</event>
<event>
 9    1  0.1782981E-005  0.9712289E+02  0.7546771E-02  0.1286659E+00
         -1   -1    0    0    0  501 -0.00000000000E+00  0.00000000000E+00  0.10657071084E+03  0.10657071084E+03  0.00000000000E+00 0.  1.
          1   -1    0    0  502    0  0.00000000000E+00 -0.00000000000E+00 -0.13073914719E+03  0.13073914719E+03  0.00000000000E+00 0. -1.
         23    2    1    2    0    0 -0.49657577519E+01  0.14178745205E+02  0.14188689877E+01  0.94437143798E+02  0.93223738253E+02 0.  0.
         23    2    1    2    0    0  0.36368516183E+02 -0.24008322218E+02 -0.23662759949E+01  0.10259902525E+03  0.92854144844E+02 0.  0.
        -11    1    3    3    0    0  0.13625413611E+01 -0.39745151945E+02  0.46935851894E+01  0.40044517278E+02  0.00000000000E+00 0. -1.
         11    1    3    3    0    0 -0.63282991130E+01  0.53923897150E+02 -0.32747162017E+01  0.54392626520E+02  0.00000000000E+00 0.  1.
        -11    1    4    4    0    0  0.63381911916E+02  0.41115490018E+01  0.28871168270E+00  0.63515785029E+02  0.00000000000E+00 0.  1.
         11    1    4    4    0    0 -0.27013395734E+02 -0.28119871219E+02 -0.26549876776E+01  0.39083240219E+02  0.00000000000E+00 0. -1.
         21    1    1    2  502  501 -0.31402758431E+02  0.98295770123E+01 -0.23221029339E+02  0.40273688990E+02  0.00000000000E+00 0. -1.
<scales pt_clust_5="13000.00000" pt_clust_6="13000.00000" pt_clust_7="13000.00000" pt_clust_8="13000.00000" pt_clust_9="32.90522"></scales>
<clustering>
<clus scale="   32.905">  2  9  1 -1</clus>
<clus scale="   92.854">  7  8 -1 -1</clus>
<clus scale="   93.224">  5  6 -1 -1</clus>
<clus scale="   96.768">  2  7  1 -1</clus>
<clus scale="   32.905">  2  5  1 -1</clus>
</clustering>
</event>
<event>
 9    1  0.1782981E-005  0.9602314E+02  0.7546771E-02  0.1290148E+00
         -1   -1    0    0    0  501 -0.00000000000E+00  0.00000000000E+00  0.21371093957E+03  0.21371093957E+03  0.00000000000E+00 0.  1.
          1   -1    0    0  502    0  0.00000000000E+00 -0.00000000000E+00 -0.59323645983E+02  0.59323645983E+02  0.00000000000E+00 0. -1.
         23    2    1    2    0    0  0.20396885829E+02 -0.17819438548E+02  0.88065955119E+02  0.13074525488E+03  0.92763914756E+02 0.  0.
         23    2    1    2    0    0  0.26509338576E+01 -0.21678302175E+01  0.54277663963E+02  0.10949080935E+03  0.95028656676E+02 0.  0.
        -11    1    4    4    0    0  0.28982146282E+02  0.66047034903E-01 -0.16911314055E+02  0.33555352902E+02  0.00000000000E+00 0. -1.
         11    1    4    4    0    0 -0.26331212425E+02 -0.22338772524E+01  0.71188978018E+02  0.75935456452E+02  0.00000000000E+00 0.  1.
        -13    1    3    3    0    0  0.48692784881E+02  0.35801922615E+01  0.17684917237E+02  0.51928425489E+02  0.00000000000E+00 0.  1.
         13    1    3    3    0    0 -0.28295899051E+02 -0.21399630810E+02  0.70381037882E+02  0.78816829391E+02  0.00000000000E+00 0. -1.
         21    1    1    2  502  501 -0.23047819687E+02  0.19987268766E+02  0.12043674502E+02  0.32798521317E+02  0.00000000000E+00 0. -1.
<scales pt_clust_5="13000.00000" pt_clust_6="13000.00000" pt_clust_7="13000.00000" pt_clust_8="13000.00000" pt_clust_9="30.50726"></scales>
<clustering>
<clus scale="   30.507">  2  9  1 -1</clus>
<clus scale="   92.764">  7  8 -1 -1</clus>
<clus scale="   93.782">  1  7  2 -1</clus>
<clus scale="   95.029">  5  6 -1 -1</clus>
<clus scale="   30.507">  2  5  1 -1</clus>
</clustering>
</event>
<event>
 9    1  0.1782981E-005  0.1036926E+03  0.7546771E-02  0.1277602E+00
          4   -1    0    0  502    0  0.00000000000E+00  0.00000000000E+00  0.12883344098E+03  0.12883344098E+03  0.00000000000E+00 0. -1.
         -4   -1    0    0    0  501 -0.00000000000E+00 -0.00000000000E+00 -0.25412009354E+03  0.25412009354E+03  0.00000000000E+00 0.  1.
         23    2    1    2    0    0 -0.42556827739E+02 -0.58718222021E+01 -0.19216835426E+03  0.21361383769E+03  0.82804790881E+02 0.  0.
         23    2    1    2    0    0  0.56087870211E+02  0.31113992533E+02  0.20776275823E+02  0.11506293781E+03  0.93241065551E+02 0.  0.
        -11    1    3    3    0    0  0.24837885850E+01  0.27699625891E+02 -0.25495264683E+02  0.37728596601E+02  0.00000000000E+00 0. -1.
         11    1    3    3    0    0 -0.45040616324E+02 -0.33571448093E+02 -0.16667308958E+03  0.17588524109E+03  0.00000000000E+00 0.  1.
        -13    1    4    4    0    0 -0.33048697363E+01  0.49068200801E+02 -0.13244908425E+01  0.49197202866E+02  0.00000000000E+00 0.  1.
         13    1    4    4    0    0  0.59392739947E+02 -0.17954208269E+02  0.22100766665E+02  0.65865734948E+02  0.00000000000E+00 0. -1.
         21    1    1    2  502  501 -0.13531042472E+02 -0.25242170331E+02  0.46105425878E+02  0.54276759011E+02  0.00000000000E+00 0. -1.
<scales pt_clust_5="13000.00000" pt_clust_6="13000.00000" pt_clust_7="13000.00000" pt_clust_8="13000.00000" pt_clust_9="28.64012"></scales>
<clustering>
<clus scale="   28.640">  1  9  2 -1</clus>
<clus scale="   82.805">  5  6 -1 -1</clus>
<clus scale="   93.241">  7  8 -1 -1</clus>
<clus scale="   94.419">  2  5  1 -1</clus>
<clus scale="   28.640">  1  5  2 -1</clus>
</clustering>
</event>
<event>
 9    1  0.1782981E-005  0.1485463E+03  0.7546771E-02  0.1202341E+00
          1   -1    0    0  502    0  0.00000000000E+00  0.00000000000E+00  0.79680330598E+03  0.79680330598E+03  0.00000000000E+00 0. -1.
         -1   -1    0    0    0  501 -0.00000000000E+00 -0.00000000000E+00 -0.49271385330E+02  0.49271385330E+02  0.00000000000E+00 0.  1.
         23    2    1    2    0    0 -0.10151116764E+03 -0.60367205576E+02  0.10689576643E+03  0.18316462539E+03  0.90409393591E+02 0.  0.
         23    2    1    2    0    0  0.89418204671E+02  0.77679602536E+02  0.54289758473E+03  0.56291613206E+03  0.90039148451E+02 0.  0.
        -13    1    3    3    0    0 -0.79479912217E+02 -0.79814440453E+02  0.59473675068E+02  0.12737550540E+03  0.00000000000E+00 0.  1.
         13    1    3    3    0    0 -0.22031255423E+02  0.19447234877E+02  0.47422091361E+02  0.55789119987E+02  0.00000000000E+00 0. -1.
        -13    1    4    4    0    0  0.49107241653E+02 -0.58279710623E+01  0.11665720325E+03  0.12670591739E+03  0.00000000000E+00 0.  1.
         13    1    4    4    0    0  0.40310963017E+02  0.83507573598E+02  0.42624038147E+03  0.43621021467E+03  0.00000000000E+00 0. -1.
         21    1    1    2  502  501  0.12092962970E+02 -0.17312396960E+02  0.97738569495E+02  0.99993933860E+02  0.00000000000E+00 0. -1.
<scales pt_clust_5="13000.00000" pt_clust_6="13000.00000" pt_clust_7="13000.00000" pt_clust_8="13000.00000" pt_clust_9="21.11774"></scales>
<clustering>
<clus scale="   21.118">  1  9  2 -1</clus>
<clus scale="   90.039">  7  8 -1 -1</clus>
<clus scale="   90.409">  5  6 -1 -1</clus>
<clus scale="  148.321">  1  7  2 -1</clus>
<clus scale="   21.118">  1  5  2 -1</clus>
</clustering>
</event>
<event>
 9    1  0.1782981E-005  0.1016061E+03  0.7546771E-02  0.1279620E+00
          2   -1    0    0  502    0  0.00000000000E+00  0.00000000000E+00  0.90873894342E+02  0.90873894342E+02  0.00000000000E+00 0. -1.
         -2   -1    0    0    0  501 -0.00000000000E+00 -0.00000000000E+00 -0.41872596879E+03  0.41872596879E+03  0.00000000000E+00 0.  1.
         23    2    1    2    0    0 -0.43607310503E+01  0.36325837262E+02 -0.34876563527E+03  0.36194868176E+03  0.89614716743E+02 0.  0.
         23    2    1    2    0    0  0.24412913135E+02 -0.28496802971E+02 -0.17467094478E+02  0.10364597161E+03  0.95022786399E+02 0.  0.
        -13    1    3    3    0    0  0.19501444080E+02  0.56946887029E+02 -0.16812554599E+03  0.17857618396E+03  0.00000000000E+00 0. -1.
         13    1    3    3    0    0 -0.23862175130E+02 -0.20621049766E+02 -0.18064008928E+03  0.18337249780E+03  0.00000000000E+00 0.  1.
        -13    1    4    4    0    0 -0.31688511431E+02  0.10086959323E+02  0.37891109437E+00  0.33257361271E+02  0.00000000000E+00 0.  1.
         13    1    4    4    0    0  0.56101424566E+02 -0.38583762294E+02 -0.17846005572E+02  0.70388610343E+02  0.00000000000E+00 0. -1.
         21    1    1    2  502  501 -0.20052182085E+02 -0.78290342908E+01  0.38380655299E+02  0.44005209754E+02  0.00000000000E+00 0. -1.
<scales pt_clust_5="13000.00000" pt_clust_6="13000.00000" pt_clust_7="13000.00000" pt_clust_8="13000.00000" pt_clust_9="21.52635"></scales>
<clustering>
<clus scale="   21.526">  1  9  2 -1</clus>
<clus scale="   89.615">  5  6 -1 -1</clus>
<clus scale="   95.023">  7  8 -1 -1</clus>
<clus scale="   96.567">  2  5  1 -1</clus>
<clus scale="   21.526">  1  5  2 -1</clus>
</clustering>
</event>
<event>
 9    1  0.1782981E-005  0.1141707E+03  0.7546771E-02  0.1254678E+00
         -1   -1    0    0    0  501 -0.00000000000E+00  0.00000000000E+00  0.41955417490E+02  0.41955417490E+02  0.00000000000E+00 0.  1.
          1   -1    0    0  502    0  0.00000000000E+00 -0.00000000000E+00 -0.51562417718E+03  0.51562417718E+03  0.00000000000E+00 0. -1.
         23    2    1    2    0    0 -0.45336371490E+02  0.53335627642E+02 -0.14290933202E+03  0.18421030956E+03  0.92791622552E+02 0.  0.
         23    2    1    2    0    0 -0.23886358825E+01 -0.58150847181E+02 -0.16007540187E+03  0.19607320694E+03  0.97125391055E+02 0.  0.
        -11    1    4    4    0    0 -0.19433346994E+02  0.11823614734E+02 -0.25818654275E+01  0.22893642564E+02  0.00000000000E+00 0. -1.
         11    1    4    4    0    0  0.17044711112E+02 -0.69974461915E+02 -0.15749353644E+03  0.17317956437E+03  0.00000000000E+00 0.  1.
        -13    1    3    3    0    0 -0.38496758161E+02  0.75605110449E+02 -0.13530466448E+03  0.15970436858E+03  0.00000000000E+00 0. -1.
         13    1    3    3    0    0 -0.68396133288E+01 -0.22269482807E+02 -0.76046675404E+01  0.24505940981E+02  0.00000000000E+00 0.  1.
         21    1    1    2  502  501  0.47725007373E+02  0.48152195391E+01 -0.17068402581E+03  0.17729607817E+03  0.00000000000E+00 0.  1.
<scales pt_clust_5="13000.00000" pt_clust_6="13000.00000" pt_clust_7="13000.00000" pt_clust_8="13000.00000" pt_clust_9="47.96731"></scales>
<clustering>
<clus scale="   47.967">  2  9  1 -1</clus>
<clus scale="   92.792">  7  8 -1 -1</clus>
<clus scale="   97.125">  5  6 -1 -1</clus>
<clus scale="  110.507">  1  7  2 -1</clus>
<clus scale="   47.967">  2  5  1 -1</clus>
</clustering>
</event>
<event>
 9    1  0.1782981E-005  0.9879902E+02  0.7546771E-02  0.1285060E+00
         -3   -1    0    0    0  501 -0.00000000000E+00  0.00000000000E+00  0.14325746869E+03  0.14325746869E+03  0.00000000000E+00 0.  1.
          3   -1    0    0  502    0  0.00000000000E+00 -0.00000000000E+00 -0.21054257177E+03  0.21054257177E+03  0.00000000000E+00 0. -1.
         23    2    1    2    0    0 -0.45897584833E+01 -0.29997028943E+02  0.95441130648E+02  0.13380679453E+03  0.88737597520E+02 0.  0.
         23    2    1    2    0    0  0.25611590418E+02  0.44710386733E+02 -0.79209653959E+02  0.13262380384E+03  0.93058754663E+02 0.  0.
        -11    1    3    3    0    0 -0.43406768477E+02 -0.14131727506E+02  0.73388614222E+02  0.86427669004E+02  0.00000000000E+00 0.  1.
         11    1    3    3    0    0  0.38817009994E+02 -0.15865301437E+02  0.22052516425E+02  0.47379125522E+02  0.00000000000E+00 0. -1.
        -13    1    4    4    0    0  0.50668051035E+02  0.48154652149E+02 -0.27604628040E+02  0.75154091096E+02  0.00000000000E+00 0. -1.
         13    1    4    4    0    0 -0.25056460617E+02 -0.34442654157E+01 -0.51605025919E+02  0.57469712746E+02  0.00000000000E+00 0.  1.
         21    1    1    2  502  501 -0.21021831935E+02 -0.14713357790E+02 -0.83516579771E+02  0.87369442095E+02  0.00000000000E+00 0. -1.
<scales pt_clust_5="13000.00000" pt_clust_6="13000.00000" pt_clust_7="13000.00000" pt_clust_8="13000.00000" pt_clust_9="25.65931"></scales>
<clustering>
<clus scale="   25.659">  2  9  1 -1</clus>
<clus scale="   88.738">  5  6 -1 -1</clus>
<clus scale="   93.059">  7  8 -1 -1</clus>
<clus scale="   94.740">  1  5  2 -1</clus>
<clus scale="   25.659">  2  5  1 -1</clus>
</clustering>
</event>
<event>
 9    1  0.1782981E-005  0.9634226E+02  0.7546771E-02  0.1288185E+00
          1   -1    0    0  502    0  0.00000000000E+00  0.00000000000E+00  0.35591091923E+03  0.35591091923E+03  0.00000000000E+00 0. -1.
         -1   -1    0    0    0  501 -0.00000000000E+00 -0.00000000000E+00 -0.95565234940E+02  0.95565234940E+02  0.00000000000E+00 0.  1.
         23    2    1    2    0    0  0.24388506066E+02 -0.93744967185E+01 -0.46765609186E+02  0.10689604704E+03  0.92504390460E+02 0.  0.
         23    2    1    2    0    0 -0.14350253226E+02  0.49004088755E+02  0.26767810113E+03  0.28778003896E+03  0.92511915537E+02 0.  0.
        -13    1    3    3    0    0 -0.11684779172E+02 -0.41503192595E+02 -0.56973169212E+01  0.43491475946E+02  0.00000000000E+00 0. -1.
         13    1    3    3    0    0  0.36073285238E+02  0.32128695877E+02 -0.41068292265E+02  0.63404571098E+02  0.00000000000E+00 0.  1.
        -13    1    4    4    0    0 -0.10070882102E+02 -0.23949349415E+02  0.12275323688E+03  0.12547251161E+03  0.00000000000E+00 0.  1.
         13    1    4    4    0    0 -0.42793711237E+01  0.72953438170E+02  0.14492486425E+03  0.16230752735E+03  0.00000000000E+00 0. -1.
         21    1    1    2  502  501 -0.10038252840E+02 -0.39629592036E+02  0.39433192345E+02  0.56800068165E+02  0.00000000000E+00 0. -1.
<scales pt_clust_5="13000.00000" pt_clust_6="13000.00000" pt_clust_7="13000.00000" pt_clust_8="13000.00000" pt_clust_9="40.88118"></scales>
<clustering>
<clus scale="   40.881">  1  9  2 -1</clus>
<clus scale="   92.504">  5  6 -1 -1</clus>
<clus scale="   92.512">  7  8 -1 -1</clus>
<clus scale="   96.335">  2  5  1 -1</clus>
<clus scale="   40.881">  1  5  2 -1</clus>
</clustering>
</event>
<event>
 9    1  0.1782981E-005  0.1317354E+03  0.7546771E-02  0.1225602E+00
         -1   -1    0    0    0  501 -0.00000000000E+00  0.00000000000E+00  0.82102429377E+02  0.82102429377E+02  0.00000000000E+00 0.  1.
          1   -1    0    0  502    0  0.00000000000E+00 -0.00000000000E+00 -0.26939886850E+03  0.26939886850E+03  0.00000000000E+00 0. -1.
         23    2    1    2    0    0 -0.16086510104E+02 -0.10775848762E+03 -0.68098048487E+02  0.15708115673E+03  0.90368568280E+02 0.  0.
         23    2    1    2    0    0  0.10628093169E+02  0.76138117011E+02 -0.85820810371E+02  0.14811997897E+03  0.93082476611E+02 0.  0.
        -11    1    3    3    0    0  0.20787678933E+02 -0.10212095548E+03 -0.51673319766E+02  0.11632260795E+03  0.00000000000E+00 0. -1.
         11    1    3    3    0    0 -0.36874189036E+02 -0.56375321317E+01 -0.16424728721E+02  0.40758548786E+02  0.00000000000E+00 0.  1.
        -13    1    4    4    0    0 -0.33761561732E+02  0.67414186418E+02 -0.50858875000E+02  0.90945812148E+02  0.00000000000E+00 0.  1.
         13    1    4    4    0    0  0.44389654902E+02  0.87239305927E+01 -0.34961935371E+02  0.57174166825E+02  0.00000000000E+00 0. -1.
         21    1    1    2  502  501  0.54584169345E+01  0.31620370604E+02 -0.33377580266E+02  0.46300162170E+02  0.00000000000E+00 0. -1.
<scales pt_clust_5="13000.00000" pt_clust_6="13000.00000" pt_clust_7="13000.00000" pt_clust_8="13000.00000" pt_clust_9="32.08804"></scales>
<clustering>
<clus scale="   32.088">  2  9  1 -1</clus>
<clus scale="   90.369">  5  6 -1 -1</clus>
<clus scale="   93.082">  7  8 -1 -1</clus>
<clus scale="  129.832">  1  5  2 -1</clus>
<clus scale="   32.088">  2  5  1 -1</clus>
</clustering>
</event>
<event>
 9    1  0.1782981E-005  0.1065180E+03  0.7546771E-02  0.1267641E+00
         -2   -1    0    0    0  501 -0.00000000000E+00  0.00000000000E+00  0.33180635407E+03  0.33180635407E+03  0.00000000000E+00 0.  1.
          2   -1    0    0  502    0  0.00000000000E+00 -0.00000000000E+00 -0.20983608388E+03  0.20983608388E+03  0.00000000000E+00 0. -1.
         23    2    1    2    0    0 -0.76536933203E+02  0.84595829265E+02  0.19781337032E+03  0.24569333858E+03  0.90668245103E+02 0.  0.
         23    2    1    2    0    0 -0.99357499140E+01 -0.51476389372E+02 -0.14565151219E+03  0.17998515403E+03  0.91824587544E+02 0.  0.
        -11    1    4    4    0    0 -0.27502610737E+02 -0.10386745196E+02 -0.12898208584E+03  0.13229004702E+03  0.00000000000E+00 0.  1.
         11    1    4    4    0    0  0.17566860823E+02 -0.41089644176E+02 -0.16669426356E+02  0.47695107011E+02  0.00000000000E+00 0. -1.
        -11    1    3    3    0    0 -0.87427226770E+02  0.40561848503E+02  0.10586522161E+03  0.14316504001E+03  0.00000000000E+00 0.  1.
         11    1    3    3    0    0  0.10890293567E+02  0.44033980762E+02  0.91948148707E+02  0.10252829856E+03  0.00000000000E+00 0. -1.
         21    1    1    2  502  501  0.86472683117E+02 -0.33119439892E+02  0.69808412064E+02  0.11596394534E+03  0.00000000000E+00 0. -1.
<scales pt_clust_5="13000.00000" pt_clust_6="13000.00000" pt_clust_7="13000.00000" pt_clust_8="13000.00000" pt_clust_9="92.59818"></scales>
<clustering>
<clus scale="   90.668">  7  8 -1 -1</clus>
<clus scale="   91.825">  5  6 -1 -1</clus>
<clus scale="   92.598">  1  9  2 -1</clus>
<clus scale="  105.523">  1  7  2 -1</clus>
<clus scale="  106.518">  2  5  1 -1</clus>
</clustering>
</event>
<event>
 9    1  0.1782981E-005  0.1069204E+03  0.7546771E-02  0.1267362E+00
         -2   -1    0    0    0  501 -0.00000000000E+00  0.00000000000E+00  0.50952337189E+03  0.50952337189E+03  0.00000000000E+00 0.  1.
          2   -1    0    0  502    0  0.00000000000E+00 -0.00000000000E+00 -0.22566804873E+03  0.22566804873E+03  0.00000000000E+00 0. -1.
         23    2    1    2    0    0  0.61645428175E+01 -0.64715544418E+02  0.45509406937E+03  0.46803279992E+03  0.87852071942E+02 0.  0.
         23    2    1    2    0    0 -0.11407194927E+02 -0.40865633432E+01 -0.97948355169E+01  0.91587120356E+02  0.90252078737E+02 0.  0.
        -11    1    3    3    0    0  0.36999213920E+02 -0.16760482379E+01  0.11660793415E+03  0.12234852379E+03  0.00000000000E+00 0. -1.
         11    1    3    3    0    0 -0.30834671102E+02 -0.63039496181E+02  0.33848613522E+03  0.34568427612E+03  0.00000000000E+00 0.  1.
        -11    1    4    4    0    0 -0.25870173760E+02 -0.42635698312E+02 -0.44495923022E+01  0.50068628228E+02  0.00000000000E+00 0.  1.
         11    1    4    4    0    0  0.14462978833E+02  0.38549134969E+02 -0.53452432147E+01  0.41518492128E+02  0.00000000000E+00 0. -1.
         21    1    1    2  502  501  0.52426521091E+01  0.68802107762E+02 -0.16144391070E+03  0.17557150035E+03  0.00000000000E+00 0. -1.
<scales pt_clust_5="13000.00000" pt_clust_6="13000.00000" pt_clust_7="13000.00000" pt_clust_8="13000.00000" pt_clust_9="69.00156"></scales>
<clustering>
<clus scale="   69.002">  2  9  1 -1</clus>
<clus scale="   87.852">  5  6 -1 -1</clus>
<clus scale="   90.252">  7  8 -1 -1</clus>
<clus scale="  104.902">  1  5  2 -1</clus>
<clus scale="   69.002">  2  5  1 -1</clus>
</clustering>
</event>
<event>
 9    1  0.1782981E-005  0.9692950E+02  0.7546771E-02  0.1298760E+00
         -1   -1    0    0    0  501 -0.00000000000E+00  0.00000000000E+00  0.90416799444E+02  0.90416799444E+02  0.00000000000E+00 0.  1.
          1   -1    0    0  502    0  0.00000000000E+00 -0.00000000000E+00 -0.31477362108E+03  0.31477362108E+03  0.00000000000E+00 0. -1.
         23    2    1    2    0    0  0.83122362175E+02 -0.49255719306E+01 -0.87994447691E+02  0.13305747915E+03  0.55024372618E+02 0.  0.
         23    2    1    2    0    0 -0.58950525380E+01  0.13312253285E+02 -0.16540613351E+03  0.18919963234E+03  0.90693683047E+02 0.  0.
        -13    1    4    4    0    0 -0.97651441841E+01 -0.27112938868E+02 -0.13610498990E+03  0.13912238415E+03  0.00000000000E+00 0. -1.
         13    1    4    4    0    0  0.38700916462E+01  0.40425192152E+02 -0.29301143602E+02  0.50077248190E+02  0.00000000000E+00 0.  1.
        -13    1    3    3    0    0  0.42459904717E+02  0.23784905174E+02 -0.54465697350E+02  0.73041614239E+02  0.00000000000E+00 0. -1.
         13    1    3    3    0    0  0.40662457458E+02 -0.28710477105E+02 -0.33528750340E+02  0.60015864915E+02  0.00000000000E+00 0.  1.
         21    1    1    2  502  501 -0.77227309637E+02 -0.83866813543E+01  0.29043759557E+02  0.82933309032E+02  0.00000000000E+00 0.  1.
<scales pt_clust_5="13000.00000" pt_clust_6="13000.00000" pt_clust_7="13000.00000" pt_clust_8="13000.00000" pt_clust_9="77.68136"></scales>
<clustering>
<clus scale="   55.024">  7  8 -1 -1</clus>
<clus scale="   77.681">  1  9  2 -1</clus>
<clus scale="   77.681">  1  7  2 -1</clus>
<clus scale="   90.694">  5  6 -1 -1</clus>
<clus scale="   96.929">  2  5  1 -1</clus>
</clustering>
</event>
<event>
 9    1  0.1782981E-005  0.9671065E+02  0.7546771E-02  0.1288851E+00
         -1   -1    0    0    0  501 -0.00000000000E+00  0.00000000000E+00  0.42013603791E+02  0.42013603791E+02  0.00000000000E+00 0.  1.
          1   -1    0    0  502    0  0.00000000000E+00 -0.00000000000E+00 -0.35804847589E+03  0.35804847589E+03  0.00000000000E+00 0. -1.
         23    2    1    2    0    0 -0.24405162382E+02 -0.16375431362E+02 -0.56964053581E+02  0.11164613599E+03  0.91412196003E+02 0.  0.
         23    2    1    2    0    0 -0.59289873582E+01  0.12382349392E+02 -0.21066138951E+03  0.23114834237E+03  0.94142762243E+02 0.  0.
        -11    1    3    3    0    0  0.34105488640E+02  0.31132498186E+01 -0.17886441968E+02  0.38636789283E+02  0.00000000000E+00 0.  1.
         11    1    3    3    0    0 -0.58510651023E+02 -0.19488681180E+02 -0.39077611613E+02  0.73009346708E+02  0.00000000000E+00 0. -1.
        -13    1    4    4    0    0  0.26350953844E+02  0.42917846554E+02 -0.10209313889E+03  0.11383902376E+03  0.00000000000E+00 0.  1.
         13    1    4    4    0    0 -0.32279941203E+02 -0.30535497163E+02 -0.10856825062E+03  0.11730931862E+03  0.00000000000E+00 0. -1.
         21    1    1    2  502  501  0.30334149741E+02  0.39930819699E+01 -0.48409429006E+02  0.57267601318E+02  0.00000000000E+00 0. -1.
<scales pt_clust_5="13000.00000" pt_clust_6="13000.00000" pt_clust_7="13000.00000" pt_clust_8="13000.00000" pt_clust_9="30.59584"></scales>
<clustering>
<clus scale="   30.596">  2  9  1 -1</clus>
<clus scale="   91.412">  5  6 -1 -1</clus>
<clus scale="   94.055">  1  5  2 -1</clus>
<clus scale="   94.143">  7  8 -1 -1</clus>
<clus scale="   30.596">  2  5  1 -1</clus>
</clustering>
</event>
<event>
 9    1  0.1782981E-005  0.1500403E+03  0.7546771E-02  0.1201771E+00
         -1   -1    0    0    0  501 -0.00000000000E+00  0.00000000000E+00  0.25694310293E+03  0.25694310293E+03  0.00000000000E+00 0.  1.
          1   -1    0    0  502    0  0.00000000000E+00 -0.00000000000E+00 -0.35590843339E+03  0.35590843339E+03  0.00000000000E+00 0. -1.
         23    2    1    2    0    0 -0.94634928646E+01  0.11390982774E+03  0.16754914535E+03  0.22520097695E+03  0.97866017388E+02 0.  0.
         23    2    1    2    0    0  0.93009542436E+02 -0.98031882718E+02 -0.77664055592E+02  0.18053577778E+03  0.91106731441E+02 0.  0.
        -11    1    4    4    0    0  0.67422867687E+02 -0.80000593949E+01 -0.44765718389E+02  0.81325356319E+02  0.00000000000E+00 0. -1.
         11    1    4    4    0    0  0.25586674748E+02 -0.90031823323E+02 -0.32898337203E+02  0.99210421460E+02  0.00000000000E+00 0.  1.
        -13    1    3    3    0    0  0.30254574495E+02  0.22244833381E+02  0.10364202669E+02  0.38956239385E+02  0.00000000000E+00 0.  1.
         13    1    3    3    0    0 -0.39718067360E+02  0.91664994362E+02  0.15718494268E+03  0.18624473757E+03  0.00000000000E+00 0. -1.
         21    1    1    2  502  501 -0.83546049571E+02 -0.15877945025E+02 -0.18885042022E+03  0.20711478159E+03  0.00000000000E+00 0. -1.
<scales pt_clust_5="13000.00000" pt_clust_6="13000.00000" pt_clust_7="13000.00000" pt_clust_8="13000.00000" pt_clust_9="85.04147"></scales>
<clustering>
<clus scale="   85.041">  2  9  1 -1</clus>
<clus scale="   91.107">  5  6 -1 -1</clus>
<clus scale="   97.866">  7  8 -1 -1</clus>
<clus scale="  145.722">  2  5  1 -1</clus>
<clus scale="   85.041">  2  5  1 -1</clus>
</clustering>
</event>
<event>
 9    1  0.1782981E-005  0.1125055E+03  0.7546771E-02  0.1256493E+00
          2   -1    0    0  502    0  0.00000000000E+00  0.00000000000E+00  0.79945614581E+02  0.79945614581E+02  0.00000000000E+00 0. -1.
         -2   -1    0    0    0  501 -0.00000000000E+00 -0.00000000000E+00 -0.20691850512E+03  0.20691850512E+03  0.00000000000E+00 0.  1.
         23    2    1    2    0    0 -0.66106810677E+02  0.30551776385E+01 -0.88704562204E+02  0.14294597817E+03  0.90474354333E+02 0.  0.
         23    2    1    2    0    0  0.60710133687E+02 -0.24941065700E+02 -0.43189904763E+02  0.12084568754E+03  0.91817946132E+02 0.  0.
        -13    1    3    3    0    0  0.82093060979E+01  0.22322357608E+02 -0.53374178198E+02  0.58433579850E+02  0.00000000000E+00 0. -1.
         13    1    3    3    0    0 -0.74316116774E+02 -0.19267179969E+02 -0.35330384006E+02  0.84512398324E+02  0.00000000000E+00 0.  1.
        -13    1    4    4    0    0  0.49534438650E+02 -0.52394308262E+02 -0.53150923477E+02  0.89575916501E+02  0.00000000000E+00 0.  1.
         13    1    4    4    0    0  0.11175695037E+02  0.27453242562E+02  0.99610187136E+01  0.31269771034E+02  0.00000000000E+00 0. -1.
         21    1    1    2  502  501  0.53966769899E+01  0.21885888062E+02  0.49215764263E+01  0.23072453994E+02  0.00000000000E+00 0. -1.
<scales pt_clust_5="13000.00000" pt_clust_6="13000.00000" pt_clust_7="13000.00000" pt_clust_8="13000.00000" pt_clust_9="22.54143"></scales>
<clustering>
<clus scale="   22.541">  1  9  2 -1</clus>
<clus scale="   90.474">  5  6 -1 -1</clus>
<clus scale="   91.818">  7  8 -1 -1</clus>
<clus scale="  111.412">  2  5  1 -1</clus>
<clus scale="   22.541">  1  5  2 -1</clus>
</clustering>
</event>
<event>
 9    1  0.1782981E-005  0.1039043E+03  0.7546771E-02  0.1277077E+00
         -1   -1    0    0    0  501 -0.00000000000E+00  0.00000000000E+00  0.24666474464E+03  0.24666474464E+03  0.00000000000E+00 0.  1.
          1   -1    0    0  502    0  0.00000000000E+00 -0.00000000000E+00 -0.69021889786E+02  0.69021889786E+02  0.00000000000E+00 0. -1.
         23    2    1    2    0    0  0.13082955688E+02 -0.22065304100E+02  0.16061399706E+03  0.19073561921E+03  0.99625192648E+02 0.  0.
         23    2    1    2    0    0 -0.35634953589E+02  0.25410526950E+02  0.81340790104E+01  0.10047857735E+03  0.90079056765E+02 0.  0.
        -11    1    3    3    0    0  0.26315275501E+02 -0.58481168079E+02  0.10032248081E+03  0.11906779960E+03  0.00000000000E+00 0.  1.
         11    1    3    3    0    0 -0.13232319814E+02  0.36415863979E+02  0.60291516244E+02  0.71667819612E+02  0.00000000000E+00 0. -1.
        -13    1    4    4    0    0  0.26211579004E+02 -0.10224800211E+02 -0.27733933670E+01  0.28271631081E+02  0.00000000000E+00 0.  1.
         13    1    4    4    0    0 -0.61846532593E+02  0.35635327161E+02  0.10907472377E+02  0.72206946268E+02  0.00000000000E+00 0. -1.
         21    1    1    2  502  501  0.22551997902E+02 -0.33452228498E+01  0.88947787800E+01  0.24472437860E+02  0.00000000000E+00 0.  1.
<scales pt_clust_5="13000.00000" pt_clust_6="13000.00000" pt_clust_7="13000.00000" pt_clust_8="13000.00000" pt_clust_9="22.79875"></scales>
<clustering>
<clus scale="   22.799">  2  9  1 -1</clus>
<clus scale="   90.079">  7  8 -1 -1</clus>
<clus scale="   94.790">  2  7  1 -1</clus>
<clus scale="   99.625">  5  6 -1 -1</clus>
<clus scale="   22.799">  2  5  1 -1</clus>
</clustering>
</event>
<event>
 9    1  0.1782981E-005  0.1174336E+03  0.7546771E-02  0.1248318E+00
         -1   -1    0    0    0  501 -0.00000000000E+00  0.00000000000E+00  0.15971939218E+03  0.15971939218E+03  0.00000000000E+00 0.  1.
          1   -1    0    0  502    0  0.00000000000E+00 -0.00000000000E+00 -0.20158134269E+03  0.20158134269E+03  0.00000000000E+00 0. -1.
         23    2    1    2    0    0 -0.75063429840E+02 -0.83205195138E+01  0.10748192056E+03  0.15981018762E+03  0.91011995230E+02 0.  0.
         23    2    1    2    0    0  0.68695370160E+02 -0.12090272762E+02 -0.11364229972E+03  0.15987618887E+03  0.88207680545E+02 0.  0.
        -11    1    4    4    0    0  0.62680179640E+02  0.29626161540E+02 -0.80637384056E+02  0.10634332172E+03  0.00000000000E+00 0. -1.
         11    1    4    4    0    0  0.60151905199E+01 -0.41716434301E+02 -0.33004915661E+02  0.53532867153E+02  0.00000000000E+00 0.  1.
        -13    1    3    3    0    0 -0.47962407585E+02  0.26115457496E+02  0.13712720643E+02  0.56306734669E+02  0.00000000000E+00 0.  1.
         13    1    3    3    0    0 -0.27101022255E+02 -0.34435977010E+02  0.93769199917E+02  0.10350345295E+03  0.00000000000E+00 0. -1.
         21    1    1    2  502  501  0.63680596801E+01  0.20410792275E+02 -0.35701571352E+02  0.41614358368E+02  0.00000000000E+00 0. -1.
<scales pt_clust_5="13000.00000" pt_clust_6="13000.00000" pt_clust_7="13000.00000" pt_clust_8="13000.00000" pt_clust_9="21.38113"></scales>
<clustering>
<clus scale="   21.381">  2  9  1 -1</clus>
<clus scale="   88.208">  5  6 -1 -1</clus>
<clus scale="   91.012">  7  8 -1 -1</clus>
<clus scale="  115.274">  2  5  1 -1</clus>
<clus scale="   21.381">  2  5  1 -1</clus>
</clustering>
</event>
<event>
 9    1  0.1782981E-005  0.1131097E+03  0.7546771E-02  0.1255249E+00
          1   -1    0    0  502    0  0.00000000000E+00  0.00000000000E+00  0.44956770301E+03  0.44956770301E+03  0.00000000000E+00 0. -1.
         -1   -1    0    0    0  501 -0.00000000000E+00 -0.00000000000E+00 -0.49047438985E+02  0.49047438985E+02  0.00000000000E+00 0.  1.
         23    2    1    2    0    0 -0.30197639491E+02 -0.65547157423E+02  0.88538618009E+02  0.14684716186E+03  0.92285832016E+02 0.  0.
         23    2    1    2    0    0  0.53538609325E+02  0.31834766708E+02  0.16102506692E+03  0.19534159190E+03  0.91375217059E+02 0.  0.
        -13    1    3    3    0    0  0.24881612348E+02 -0.51097913480E+02  0.26727705874E+02  0.62804949298E+02  0.00000000000E+00 0.  1.
         13    1    3    3    0    0 -0.55079251839E+02 -0.14449243943E+02  0.61810912135E+02  0.84042212564E+02  0.00000000000E+00 0. -1.
        -13    1    4    4    0    0 -0.77596258588E+01 -0.24578375867E+02  0.25478902227E+02  0.36242003427E+02  0.00000000000E+00 0.  1.
         13    1    4    4    0    0  0.61298235183E+02  0.56413142575E+02  0.13554616469E+03  0.15909958848E+03  0.00000000000E+00 0. -1.
         21    1    1    2  502  501 -0.23340969834E+02  0.33712390715E+02  0.15095657910E+03  0.15642638823E+03  0.00000000000E+00 0. -1.
<scales pt_clust_5="13000.00000" pt_clust_6="13000.00000" pt_clust_7="13000.00000" pt_clust_8="13000.00000" pt_clust_9="41.00398"></scales>
<clustering>
<clus scale="   41.004">  1  9  2 -1</clus>
<clus scale="   91.375">  7  8 -1 -1</clus>
<clus scale="   92.286">  5  6 -1 -1</clus>
<clus scale="  112.368">  1  7  2 -1</clus>
<clus scale="   41.004">  1  5  2 -1</clus>
</clustering>
</event>
<event>
 9    1  0.1782981E-005  0.1164305E+03  0.7546771E-02  0.1249223E+00
          1   -1    0    0  502    0  0.00000000000E+00  0.00000000000E+00  0.53749708566E+02  0.53749708566E+02  0.00000000000E+00 0. -1.
         -1   -1    0    0    0  501 -0.00000000000E+00 -0.00000000000E+00 -0.76670228383E+03  0.76670228383E+03  0.00000000000E+00 0.  1.
         23    2    1    2    0    0 -0.63782566727E+02  0.34540106840E+02 -0.48163699005E+03  0.49557237432E+03  0.91414184924E+02 0.  0.
         23    2    1    2    0    0  0.89373283734E+02  0.44188129252E+02 -0.18714301358E+03  0.23104872743E+03  0.91765093051E+02 0.  0.
        -11    1    3    3    0    0  0.17018494733E+01 -0.25027740183E+02 -0.65856122698E+02  0.70472072249E+02  0.00000000000E+00 0. -1.
         11    1    3    3    0    0 -0.65484416200E+02  0.59567847023E+02 -0.41578086735E+03  0.42510030207E+03  0.00000000000E+00 0.  1.
        -11    1    4    4    0    0  0.62205382511E+02  0.40861464205E+02 -0.18948554763E+03  0.20357785153E+03  0.00000000000E+00 0.  1.
         11    1    4    4    0    0  0.27167901223E+02  0.33266650470E+01  0.23425340507E+01  0.27470875904E+02  0.00000000000E+00 0. -1.
         21    1    1    2  502  501 -0.25590717007E+02 -0.78728236092E+02 -0.44172571632E+02  0.93830890647E+02  0.00000000000E+00 0. -1.
<scales pt_clust_5="13000.00000" pt_clust_6="13000.00000" pt_clust_7="13000.00000" pt_clust_8="13000.00000" pt_clust_9="82.78297"></scales>
<clustering>
<clus scale="   82.783">  1  9  2 -1</clus>
<clus scale="   91.414">  5  6 -1 -1</clus>
<clus scale="   91.765">  7  8 -1 -1</clus>
<clus scale="  116.154">  2  5  1 -1</clus>
<clus scale="   82.783">  1  5  2 -1</clus>
</clustering>
</event>
<event>
 9    1  0.1782981E-005  0.1000202E+03  0.7546771E-02  0.1281401E+00
         -1   -1    0    0    0  501 -0.00000000000E+00  0.00000000000E+00  0.73515929875E+02  0.73515929875E+02  0.00000000000E+00 0.  1.
          1   -1    0    0  502    0  0.00000000000E+00 -0.00000000000E+00 -0.38948275727E+03  0.38948275727E+03  0.00000000000E+00 0. -1.
         23    2    1    2    0    0 -0.25891360706E+02  0.32760986124E+02  0.23291754950E+02  0.10311615583E+03  0.91360773719E+02 0.  0.
         23    2    1    2    0    0  0.36770626793E+02 -0.12522481870E+02 -0.27385229003E+03  0.29055765439E+03  0.88993158307E+02 0.  0.
        -11    1    3    3    0    0 -0.32025883091E+02  0.62295512922E+02  0.19532000348E+02  0.72717859949E+02  0.00000000000E+00 0. -1.
         11    1    3    3    0    0  0.61345223847E+01 -0.29534526798E+02  0.37597546016E+01  0.30398295886E+02  0.00000000000E+00 0.  1.
        -11    1    4    4    0    0  0.24368640722E+02  0.33734096814E+02 -0.18498065648E+03  0.18960396412E+03  0.00000000000E+00 0. -1.
         11    1    4    4    0    0  0.12401986071E+02 -0.46256578684E+02 -0.88871633552E+02  0.10095369028E+03  0.00000000000E+00 0.  1.
         21    1    1    2  502  501 -0.10879266087E+02 -0.20238504254E+02 -0.65406292314E+02  0.69324876915E+02  0.00000000000E+00 0. -1.
<scales pt_clust_5="13000.00000" pt_clust_6="13000.00000" pt_clust_7="13000.00000" pt_clust_8="13000.00000" pt_clust_9="22.97728"></scales>
<clustering>
<clus scale="   22.977">  2  9  1 -1</clus>
<clus scale="   88.993">  7  8 -1 -1</clus>
<clus scale="   91.361">  5  6 -1 -1</clus>
<clus scale="   97.862">  2  7  1 -1</clus>
<clus scale="   22.977">  2  5  1 -1</clus>
</clustering>
</event>
<event>
 9    1  0.1782981E-005  0.1056895E+03  0.7546771E-02  0.1272011E+00
         -1   -1    0    0    0  501 -0.00000000000E+00  0.00000000000E+00  0.64453083592E+02  0.64453083592E+02  0.00000000000E+00 0.  1.
          1   -1    0    0  502    0  0.00000000000E+00 -0.00000000000E+00 -0.69046483777E+03  0.69046483777E+03  0.00000000000E+00 0. -1.
         23    2    1    2    0    0  0.49537241101E+02 -0.40780464600E+02 -0.87040058448E+01  0.10498967012E+03  0.82644337770E+02 0.  0.
         23    2    1    2    0    0  0.13642117565E+02  0.48006342934E+02 -0.17545499752E+03  0.20352294428E+03  0.90257500306E+02 0.  0.
        -11    1    4    4    0    0 -0.24747381845E+01 -0.26234322053E+02 -0.34657288403E+02  0.43537244080E+02  0.00000000000E+00 0.  1.
         11    1    4    4    0    0  0.16116855750E+02  0.74240664987E+02 -0.14079770911E+03  0.15998570020E+03  0.00000000000E+00 0. -1.
        -13    1    3    3    0    0  0.40984407560E+02  0.14162435130E+02  0.13046308163E+02  0.45282473304E+02  0.00000000000E+00 0.  1.
         13    1    3    3    0    0  0.85528335413E+01 -0.54942899730E+02 -0.21750314007E+02  0.59707196817E+02  0.00000000000E+00 0. -1.
         21    1    1    2  502  501 -0.63179358667E+02 -0.72258783336E+01 -0.44185275082E+03  0.44640530696E+03  0.00000000000E+00 0. -1.
<scales pt_clust_5="13000.00000" pt_clust_6="13000.00000" pt_clust_7="13000.00000" pt_clust_8="13000.00000" pt_clust_9="63.59123"></scales>
<clustering>
<clus scale="   63.591">  2  9  1 -1</clus>
<clus scale="   82.644">  7  8 -1 -1</clus>
<clus scale="   90.258">  5  6 -1 -1</clus>
<clus scale="   99.267">  1  7  2 -1</clus>
<clus scale="   63.591">  2  5  1 -1</clus>
</clustering>
</event>
<event>
 9    1  0.1782981E-005  0.1066876E+03  0.7546771E-02  0.1267571E+00
         -1   -1    0    0    0  501 -0.00000000000E+00  0.00000000000E+00  0.89769286685E+03  0.89769286685E+03  0.00000000000E+00 0.  1.
          1   -1    0    0  502    0  0.00000000000E+00 -0.00000000000E+00 -0.14857202820E+03  0.14857202820E+03  0.00000000000E+00 0. -1.
         23    2    1    2    0    0  0.83551726586E+02  0.26968014284E+02  0.62116703375E+03  0.63386783885E+03  0.90729204172E+02 0.  0.
         23    2    1    2    0    0 -0.29179731405E+01 -0.28194990733E+02  0.24958131917E+03  0.26646364709E+03  0.88930131395E+02 0.  0.
        -11    1    4    4    0    0  0.32640292677E+02 -0.42719356578E+02  0.16576846004E+03  0.17426851258E+03  0.00000000000E+00 0.  1.
         11    1    4    4    0    0 -0.35558265818E+02  0.14524365845E+02  0.83812859131E+02  0.92195134508E+02  0.00000000000E+00 0. -1.
        -13    1    3    3    0    0  0.43135589923E+01  0.44693404209E+02  0.23648836965E+03  0.24071322388E+03  0.00000000000E+00 0. -1.
         13    1    3    3    0    0  0.79238167593E+02 -0.17725389925E+02  0.38467866411E+03  0.39315461497E+03  0.00000000000E+00 0.  1.
         21    1    1    2  502  501 -0.80633753445E+02  0.12269764489E+01 -0.12162751428E+03  0.14593340912E+03  0.00000000000E+00 0. -1.
<scales pt_clust_5="13000.00000" pt_clust_6="13000.00000" pt_clust_7="13000.00000" pt_clust_8="13000.00000" pt_clust_9="80.64309"></scales>
<clustering>
<clus scale="   80.643">  2  9  1 -1</clus>
<clus scale="   88.930">  5  6 -1 -1</clus>
<clus scale="   90.729">  7  8 -1 -1</clus>
<clus scale="  105.162">  2  5  1 -1</clus>
<clus scale="   80.643">  2  5  1 -1</clus>
</clustering>
</event>
<event>
 9    1  0.1782981E-005  0.9758045E+02  0.7546771E-02  0.1286775E+00
          1   -1    0    0  502    0  0.00000000000E+00  0.00000000000E+00  0.44151506004E+03  0.44151506004E+03  0.00000000000E+00 0. -1.
         -1   -1    0    0    0  501 -0.00000000000E+00 -0.00000000000E+00 -0.65648393168E+02  0.65648393168E+02  0.00000000000E+00 0.  1.
         23    2    1    2    0    0 -0.13879282142E+01 -0.69046296570E+01  0.42422350766E+02  0.10383508951E+03  0.94511743785E+02 0.  0.
         23    2    1    2    0    0 -0.50125954168E+02  0.12472772690E+02  0.52961806369E+02  0.11810016985E+03  0.92057133596E+02 0.  0.
        -13    1    4    4    0    0 -0.44208821911E+00  0.30283439971E+02  0.57640870060E+02  0.65113378654E+02  0.00000000000E+00 0. -1.
         13    1    4    4    0    0 -0.49683865949E+02 -0.17810667281E+02 -0.46790636914E+01  0.52986791200E+02  0.00000000000E+00 0.  1.
        -13    1    3    3    0    0 -0.45897715007E+02 -0.16598989052E+02  0.26777642052E+02  0.55670178680E+02  0.00000000000E+00 0.  1.
         13    1    3    3    0    0  0.44509786792E+02  0.96943593954E+01  0.15644708714E+02  0.48164910829E+02  0.00000000000E+00 0. -1.
         21    1    1    2  502  501  0.51513882383E+02 -0.55681430331E+01  0.28048250974E+03  0.28522819385E+03  0.00000000000E+00 0. -1.
<scales pt_clust_5="13000.00000" pt_clust_6="13000.00000" pt_clust_7="13000.00000" pt_clust_8="13000.00000" pt_clust_9="51.81394"></scales>
<clustering>
<clus scale="   51.814">  1  9  2 -1</clus>
<clus scale="   92.057">  5  6 -1 -1</clus>
<clus scale="   94.512">  7  8 -1 -1</clus>
<clus scale="   95.205">  1  5  2 -1</clus>
<clus scale="   51.814">  1  5  2 -1</clus>
</clustering>
</event>
<event>
 9    1  0.1782981E-005  0.1093882E+03  0.7546771E-02  0.1262208E+00
          2   -1    0    0  502    0  0.00000000000E+00  0.00000000000E+00  0.26596221289E+03  0.26596221289E+03  0.00000000000E+00 0. -1.
         -2   -1    0    0    0  501 -0.00000000000E+00 -0.00000000000E+00 -0.25732850616E+03  0.25732850616E+03  0.00000000000E+00 0.  1.
         23    2    1    2    0    0 -0.18743568870E+02  0.56743597009E+02 -0.22850369961E+03  0.25310145415E+03  0.90968391116E+02 0.  0.
         23    2    1    2    0    0  0.28105740892E+02 -0.34320733325E+02  0.21092848165E+03  0.23444933185E+03  0.92237841624E+02 0.  0.
        -13    1    3    3    0    0 -0.41935337011E+02  0.69863831978E+02 -0.18392284004E+03  0.20116445659E+03  0.00000000000E+00 0.  1.
         13    1    3    3    0    0  0.23191768141E+02 -0.13120234969E+02 -0.44580859576E+02  0.51936997562E+02  0.00000000000E+00 0. -1.
        -13    1    4    4    0    0  0.35060470623E+02  0.24076433393E+02  0.72640949515E+02  0.84176117704E+02  0.00000000000E+00 0.  1.
         13    1    4    4    0    0 -0.69547297310E+01 -0.58397166719E+02  0.13828753213E+03  0.15027321414E+03  0.00000000000E+00 0. -1.
         21    1    1    2  502  501 -0.93621720220E+01 -0.22422863683E+02  0.26208924697E+02  0.35739933051E+02  0.00000000000E+00 0.  1.
<scales pt_clust_5="13000.00000" pt_clust_6="13000.00000" pt_clust_7="13000.00000" pt_clust_8="13000.00000" pt_clust_9="24.29887"></scales>
<clustering>
<clus scale="   24.299">  1  9  2 -1</clus>
<clus scale="   90.968">  5  6 -1 -1</clus>
<clus scale="   92.238">  7  8 -1 -1</clus>
<clus scale="  108.320">  2  5  1 -1</clus>
<clus scale="   24.299">  1  5  2 -1</clus>
</clustering>
</event>
<event>
 9    1  0.1782981E-005  0.9821132E+02  0.7546771E-02  0.1285471E+00
         -1   -1    0    0    0  501 -0.00000000000E+00  0.00000000000E+00  0.17344824794E+03  0.17344824794E+03  0.00000000000E+00 0.  1.
          1   -1    0    0  502    0  0.00000000000E+00 -0.00000000000E+00 -0.97590728204E+02  0.97590728204E+02  0.00000000000E+00 0. -1.
         23    2    1    2    0    0  0.38971112278E+02  0.10649372096E+02  0.10463407369E+03  0.14509498244E+03  0.92044053775E+02 0.  0.
         23    2    1    2    0    0 -0.10530801712E+02 -0.20836057725E+02 -0.20355263883E+02  0.94582585000E+02  0.89367161369E+02 0.  0.
        -11    1    3    3    0    0  0.15265403015E+02 -0.20135657658E+02 -0.75507298505E+01  0.26372158800E+02  0.00000000000E+00 0. -1.
         11    1    3    3    0    0  0.23705709263E+02  0.30785029753E+02  0.11218480354E+03  0.11872282364E+03  0.00000000000E+00 0.  1.
        -13    1    4    4    0    0 -0.46325270801E+02  0.23993358837E+01 -0.23097874769E+02  0.51819874048E+02  0.00000000000E+00 0. -1.
         13    1    4    4    0    0  0.35794469089E+02 -0.23235393609E+02  0.27426108853E+01  0.42762710952E+02  0.00000000000E+00 0.  1.
         21    1    1    2  502  501 -0.28440310565E+02  0.10186685630E+02 -0.84212900713E+01  0.31361408700E+02  0.00000000000E+00 0.  1.
<scales pt_clust_5="13000.00000" pt_clust_6="13000.00000" pt_clust_7="13000.00000" pt_clust_8="13000.00000" pt_clust_9="30.20960"></scales>
<clustering>
<clus scale="   30.210">  2  9  1 -1</clus>
<clus scale="   89.367">  7  8 -1 -1</clus>
<clus scale="   92.044">  5  6 -1 -1</clus>
<clus scale="   95.707">  2  7  1 -1</clus>
<clus scale="   30.210">  2  5  1 -1</clus>
</clustering>
</event>
<event>
 9    1  0.1782981E-005  0.1009918E+03  0.7546771E-02  0.1279744E+00
          1   -1    0    0  502    0  0.00000000000E+00  0.00000000000E+00  0.44803442411E+03  0.44803442411E+03  0.00000000000E+00 0. -1.
         -1   -1    0    0    0  501 -0.00000000000E+00 -0.00000000000E+00 -0.54823077937E+02  0.54823077937E+02  0.00000000000E+00 0.  1.
         23    2    1    2    0    0  0.26759116175E+02  0.19947296988E+02  0.14786173638E+02  0.99701096289E+02  0.92777867591E+02 0.  0.
         23    2    1    2    0    0  0.14728666417E+01 -0.37495056169E+02  0.31739283331E+03  0.33365881488E+03  0.95822468868E+02 0.  0.
        -13    1    3    3    0    0 -0.15388047627E+02 -0.22223628252E+02  0.27692508994E+02  0.38698277957E+02  0.00000000000E+00 0. -1.
         13    1    3    3    0    0  0.42147163803E+02  0.42170925240E+02 -0.12906335355E+02  0.61002818332E+02  0.00000000000E+00 0.  1.
        -13    1    4    4    0    0  0.33713570749E+02 -0.49237106157E+02  0.26026700277E+03  0.26702024307E+03  0.00000000000E+00 0. -1.
         13    1    4    4    0    0 -0.32240704107E+02  0.11742049988E+02  0.57125830538E+02  0.66638571817E+02  0.00000000000E+00 0.  1.
         21    1    1    2  502  501 -0.28231982817E+02  0.17547759181E+02  0.61032339222E+02  0.69497590871E+02  0.00000000000E+00 0.  1.
<scales pt_clust_5="13000.00000" pt_clust_6="13000.00000" pt_clust_7="13000.00000" pt_clust_8="13000.00000" pt_clust_9="33.24107"></scales>
<clustering>
<clus scale="   33.241">  1  9  2 -1</clus>
<clus scale="   92.778">  5  6 -1 -1</clus>
<clus scale="   95.822">  7  8 -1 -1</clus>
<clus scale="   98.108">  2  5  1 -1</clus>
<clus scale="   33.241">  1  5  2 -1</clus>
</clustering>
</event>
<event>
 9    1  0.1782981E-005  0.1202886E+03  0.7546771E-02  0.1243174E+00
          1   -1    0    0  502    0  0.00000000000E+00  0.00000000000E+00  0.50426532903E+03  0.50426532903E+03  0.00000000000E+00 0. -1.
         -1   -1    0    0    0  501 -0.00000000000E+00 -0.00000000000E+00 -0.59982272259E+02  0.59982272259E+02  0.00000000000E+00 0.  1.
         23    2    1    2    0    0  0.27210278968E+02 -0.43676975463E+02  0.34558242153E+02  0.10841903648E+03  0.88951323231E+02 0.  0.
         23    2    1    2    0    0 -0.27571562688E+02  0.82008069445E+02  0.39557747618E+03  0.41496843171E+03  0.90728965226E+02 0.  0.
        -11    1    4    4    0    0 -0.43435944573E+02  0.94473957357E+02  0.30732474876E+03  0.32443876325E+03  0.00000000000E+00 0. -1.
         11    1    4    4    0    0  0.15864381885E+02 -0.12465887912E+02  0.88252727418E+02  0.90529668456E+02  0.00000000000E+00 0.  1.
        -13    1    3    3    0    0  0.33897159592E+01  0.24987212282E+02  0.24301496287E+02  0.35020189515E+02  0.00000000000E+00 0. -1.
         13    1    3    3    0    0  0.23820563009E+02 -0.68664187744E+02  0.10256745865E+02  0.73398846969E+02  0.00000000000E+00 0.  1.
         21    1    1    2  502  501  0.36128372041E+00 -0.38331093983E+02  0.14147338442E+02  0.40860133099E+02  0.00000000000E+00 0.  1.
<scales pt_clust_5="13000.00000" pt_clust_6="13000.00000" pt_clust_7="13000.00000" pt_clust_8="13000.00000" pt_clust_9="38.33280"></scales>
<clustering>
<clus scale="   38.333">  2  9  1 -1</clus>
<clus scale="   88.951">  7  8 -1 -1</clus>
<clus scale="   90.729">  5  6 -1 -1</clus>
<clus scale="  118.953">  2  7  1 -1</clus>
<clus scale="  120.289">  1  5  2 -1</clus>
</clustering>
</event>
<event>
 9    1  0.1782981E-005  0.1266353E+03  0.7546771E-02  0.1234895E+00
         -1   -1    0    0    0  501 -0.00000000000E+00  0.00000000000E+00  0.51086218901E+03  0.51086218901E+03  0.00000000000E+00 0.  1.
          1   -1    0    0  502    0  0.00000000000E+00 -0.00000000000E+00 -0.89771547346E+02  0.89771547346E+02  0.00000000000E+00 0. -1.
         23    2    1    2    0    0 -0.60067758158E+02 -0.59015471951E+02  0.41473592253E+03  0.43156335849E+03  0.84558177904E+02 0.  0.
         23    2    1    2    0    0  0.86457077797E+02  0.52992392553E+02  0.19634629857E+02  0.13892025838E+03  0.92899405425E+02 0.  0.
        -11    1    3    3    0    0 -0.72054629130E+02 -0.23090062272E+02  0.20681534502E+03  0.22022172347E+03  0.00000000000E+00 0.  1.
         11    1    3    3    0    0  0.11986870972E+02 -0.35925409679E+02  0.20792057752E+03  0.21134163502E+03  0.00000000000E+00 0. -1.
        -11    1    4    4    0    0  0.72523961120E+02  0.79302919882E+02  0.11638939365E+02  0.10809321416E+03  0.00000000000E+00 0. -1.
         11    1    4    4    0    0  0.13933116677E+02 -0.26310527329E+02  0.79956904913E+01  0.30827044216E+02  0.00000000000E+00 0.  1.
         21    1    1    2  502  501 -0.26389319639E+02  0.60230793983E+01 -0.13279910725E+02  0.30150119490E+02  0.00000000000E+00 0.  1.
<scales pt_clust_5="13000.00000" pt_clust_6="13000.00000" pt_clust_7="13000.00000" pt_clust_8="13000.00000" pt_clust_9="27.06795"></scales>
<clustering>
<clus scale="   27.068">  2  9  1 -1</clus>
<clus scale="   84.558">  5  6 -1 -1</clus>
<clus scale="   92.899">  7  8 -1 -1</clus>
<clus scale="  120.649">  1  5  2 -1</clus>
<clus scale="   27.068">  2  5  1 -1</clus>
</clustering>
</event>
<event>
 9    1  0.1782981E-005  0.1444452E+03  0.7546771E-02  0.1208043E+00
          2   -1    0    0  502    0  0.00000000000E+00  0.00000000000E+00  0.81671689479E+02  0.81671689479E+02  0.00000000000E+00 0. -1.
         -2   -1    0    0    0  501 -0.00000000000E+00 -0.00000000000E+00 -0.41990965128E+03  0.41990965128E+03  0.00000000000E+00 0.  1.
         23    2    1    2    0    0 -0.54347531671E+02  0.78616952009E+02 -0.15131638101E+03  0.20120693632E+03  0.91941855103E+02 0.  0.
         23    2    1    2    0    0  0.46877765202E+02 -0.12176594915E+03 -0.19979257593E+03  0.25473126824E+03  0.89142999601E+02 0.  0.
        -13    1    3    3    0    0 -0.77795947496E+02  0.40209432905E+02 -0.10243873620E+03  0.13476907143E+03  0.00000000000E+00 0.  1.
         13    1    3    3    0    0  0.23448415825E+02  0.38407519104E+02 -0.48877644817E+02  0.66437864891E+02  0.00000000000E+00 0. -1.
        -13    1    4    4    0    0  0.66242615347E+02 -0.82111735465E+02 -0.98895146926E+02  0.14460522561E+03  0.00000000000E+00 0. -1.
         13    1    4    4    0    0 -0.19364850145E+02 -0.39654213683E+02 -0.10089742901E+03  0.11012604263E+03  0.00000000000E+00 0.  1.
         21    1    1    2  502  501  0.74697664694E+01  0.43148997139E+02  0.12870995151E+02  0.45643136192E+02  0.00000000000E+00 0. -1.
<scales pt_clust_5="13000.00000" pt_clust_6="13000.00000" pt_clust_7="13000.00000" pt_clust_8="13000.00000" pt_clust_9="43.79079"></scales>
<clustering>
<clus scale="   43.791">  1  9  2 -1</clus>
<clus scale="   89.143">  7  8 -1 -1</clus>
<clus scale="   91.942">  5  6 -1 -1</clus>
<clus scale="  142.680">  1  7  2 -1</clus>
<clus scale="   43.791">  1  5  2 -1</clus>
</clustering>
</event>
<event>
 9    1  0.1782981E-005  0.1386878E+03  0.7546771E-02  0.1216257E+00
         -1   -1    0    0    0  501 -0.00000000000E+00  0.00000000000E+00  0.22176920930E+03  0.22176920930E+03  0.00000000000E+00 0.  1.
          1   -1    0    0  502    0  0.00000000000E+00 -0.00000000000E+00 -0.13527122677E+03  0.13527122677E+03  0.00000000000E+00 0. -1.
         23    2    1    2    0    0  0.87225327566E+02 -0.64222759950E+02  0.11673013045E+03  0.18253368938E+03  0.89217732202E+02 0.  0.
         23    2    1    2    0    0 -0.87427136427E+02  0.23311627152E+02 -0.27660704103E+02  0.13351438354E+03  0.94202122669E+02 0.  0.
        -11    1    4    4    0    0 -0.14871161986E+02 -0.21163504170E+02 -0.39885613678E+02  0.47538484894E+02  0.00000000000E+00 0.  1.
         11    1    4    4    0    0 -0.72555974441E+02  0.44475131322E+02  0.12224909575E+02  0.85975898642E+02  0.00000000000E+00 0. -1.
        -11    1    3    3    0    0  0.90863986192E+02 -0.16437329631E+02  0.74136593058E+02  0.11841741520E+03  0.00000000000E+00 0. -1.
         11    1    3    3    0    0 -0.36386586262E+01 -0.47785430318E+02  0.42593537397E+02  0.64116274185E+02  0.00000000000E+00 0.  1.
         21    1    1    2  502  501  0.20180886127E+00  0.40911132798E+02 -0.25714438267E+01  0.40992363154E+02  0.00000000000E+00 0. -1.
<scales pt_clust_5="13000.00000" pt_clust_6="13000.00000" pt_clust_7="13000.00000" pt_clust_8="13000.00000" pt_clust_9="40.91163"></scales>
<clustering>
<clus scale="   40.912">  2  9  1 -1</clus>
<clus scale="   89.218">  7  8 -1 -1</clus>
<clus scale="   94.202">  5  6 -1 -1</clus>
<clus scale="  135.352">  1  7  2 -1</clus>
<clus scale="   40.912">  2  5  1 -1</clus>
</clustering>
</event>
<event>
 9    1  0.1782981E-005  0.1172066E+03  0.7546771E-02  0.1248768E+00
         -1   -1    0    0    0  501 -0.00000000000E+00  0.00000000000E+00  0.53412536740E+02  0.53412536740E+02  0.00000000000E+00 0.  1.
          1   -1    0    0  502    0  0.00000000000E+00 -0.00000000000E+00 -0.44447812977E+03  0.44447812977E+03  0.00000000000E+00 0. -1.
         23    2    1    2    0    0  0.53511714894E+02  0.34175466501E+02 -0.62663714671E+02  0.12953723599E+03  0.93923842713E+02 0.  0.
         23    2    1    2    0    0 -0.57614735174E+02 -0.66166762588E+02 -0.20539272104E+03  0.24118609751E+03  0.91033321344E+02 0.  0.
        -11    1    3    3    0    0 -0.13004801420E+02  0.42554304493E+02 -0.13835557570E+02  0.46598458603E+02  0.00000000000E+00 0.  1.
         11    1    3    3    0    0  0.66516516314E+02 -0.83788379922E+01 -0.48828157101E+02  0.82938777387E+02  0.00000000000E+00 0. -1.
        -13    1    4    4    0    0  0.20922170018E+02 -0.24235278233E+01 -0.63716416615E+02  0.67107320253E+02  0.00000000000E+00 0. -1.
         13    1    4    4    0    0 -0.78536905192E+02 -0.63743234765E+02 -0.14167630443E+03  0.17407877726E+03  0.00000000000E+00 0.  1.
         21    1    1    2  502  501  0.41030202798E+01  0.31991296087E+02 -0.12300915732E+03  0.12716733301E+03  0.00000000000E+00 0. -1.
<scales pt_clust_5="13000.00000" pt_clust_6="13000.00000" pt_clust_7="13000.00000" pt_clust_8="13000.00000" pt_clust_9="32.25334"></scales>
<clustering>
<clus scale="   32.253">  2  9  1 -1</clus>
<clus scale="   91.033">  7  8 -1 -1</clus>
<clus scale="   93.924">  5  6 -1 -1</clus>
<clus scale="  114.903">  2  7  1 -1</clus>
<clus scale="   32.253">  2  5  1 -1</clus>
</clustering>
</event>
<event>
 9    1  0.1782981E-005  0.1892687E+03  0.7546771E-02  0.1173274E+00
          2   -1    0    0  502    0  0.00000000000E+00  0.00000000000E+00  0.63447939781E+03  0.63447939781E+03  0.00000000000E+00 0. -1.
         -2   -1    0    0    0  501 -0.00000000000E+00 -0.00000000000E+00 -0.38416041392E+03  0.38416041392E+03  0.00000000000E+00 0.  1.
         23    2    1    2    0    0  0.41740231226E+02  0.36222947555E+02 -0.22426656715E+03  0.26261069554E+03  0.12495813475E+03 0.  0.
         23    2    1    2    0    0  0.57118410637E+02 -0.15483844853E+03 -0.54162283085E+02  0.20519616489E+03  0.10924493214E+03 0.  0.
        -11    1    4    4    0    0  0.67282069696E+01 -0.14003204385E+03 -0.59717920011E+02  0.15238265008E+03  0.00000000000E+00 0.  1.
         11    1    4    4    0    0  0.50390203668E+02 -0.14806404685E+02  0.55556369262E+01  0.52813514814E+02  0.00000000000E+00 0. -1.
        -13    1    3    3    0    0  0.68028786894E+02  0.30784884557E+02 -0.22362046895E+03  0.23575779754E+03  0.00000000000E+00 0.  1.
         13    1    3    3    0    0 -0.26288555668E+02  0.54380629987E+01 -0.64609819185E+00  0.26852898003E+02  0.00000000000E+00 0. -1.
         21    1    1    2  502  501 -0.98858641863E+02  0.11861550098E+03  0.52874783413E+03  0.55083295130E+03  0.00000000000E+00 0. -1.
<scales pt_clust_5="13000.00000" pt_clust_6="13000.00000" pt_clust_7="13000.00000" pt_clust_8="13000.00000" pt_clust_9="154.55805"></scales>
<clustering>
<clus scale="  109.245">  5  6 -1 -1</clus>
<clus scale="  124.958">  7  8 -1 -1</clus>
<clus scale="  136.634">  2  7  1 -1</clus>
<clus scale="  154.558">  1  9  2 -1</clus>
<clus scale="  154.558">  1  5  2 -1</clus>
</clustering>
</event>
<event>
 9    1  0.1782981E-005  0.9869073E+02  0.7546771E-02  0.1286064E+00
         -1   -1    0    0    0  501 -0.00000000000E+00  0.00000000000E+00  0.19033116537E+03  0.19033116537E+03  0.00000000000E+00 0.  1.
          1   -1    0    0  502    0  0.00000000000E+00 -0.00000000000E+00 -0.22295741847E+03  0.22295741847E+03  0.00000000000E+00 0. -1.
         23    2    1    2    0    0  0.64062252363E+01  0.17244313042E+02  0.15840254875E+03  0.18645744891E+03  0.96626118355E+02 0.  0.
         23    2    1    2    0    0 -0.19571523874E+02 -0.34156462382E+02 -0.14109305540E+03  0.17249031549E+03  0.91082106843E+02 0.  0.
        -11    1    3    3    0    0 -0.28159858866E+02 -0.10775972870E+02  0.10374405729E+02  0.31886165289E+02  0.00000000000E+00 0. -1.
         11    1    3    3    0    0  0.34566084102E+02  0.28020285911E+02  0.14802814302E+03  0.15457128362E+03  0.00000000000E+00 0.  1.
        -11    1    4    4    0    0  0.64925949683E+01  0.21413867647E+02 -0.46181569144E+01  0.22848082859E+02  0.00000000000E+00 0.  1.
         11    1    4    4    0    0 -0.26064118843E+02 -0.55570330030E+02 -0.13647489848E+03  0.14964223263E+03  0.00000000000E+00 0. -1.
         21    1    1    2  502  501  0.13165298638E+02  0.16912149341E+02 -0.49935746461E+02  0.54340819447E+02  0.00000000000E+00 0. -1.
<scales pt_clust_5="13000.00000" pt_clust_6="13000.00000" pt_clust_7="13000.00000" pt_clust_8="13000.00000" pt_clust_9="21.43236"></scales>
<clustering>
<clus scale="   21.432">  2  9  1 -1</clus>
<clus scale="   91.082">  7  8 -1 -1</clus>
<clus scale="   93.270">  2  7  1 -1</clus>
<clus scale="   96.626">  5  6 -1 -1</clus>
<clus scale="   21.432">  2  5  1 -1</clus>
</clustering>
</event>
<event>
 9    1  0.1782981E-005  0.1407478E+03  0.7546771E-02  0.1212452E+00
          2   -1    0    0  502    0  0.00000000000E+00  0.00000000000E+00  0.40122457655E+02  0.40122457655E+02  0.00000000000E+00 0. -1.
         -2   -1    0    0    0  501 -0.00000000000E+00 -0.00000000000E+00 -0.66306810487E+03  0.66306810487E+03  0.00000000000E+00 0.  1.
         23    2    1    2    0    0 -0.74370259716E+02 -0.87335207126E+02 -0.38670320396E+03  0.41367902740E+03  0.91829166528E+02 0.  0.
         23    2    1    2    0    0  0.68509947593E+02  0.67855465573E+02 -0.23401138779E+03  0.26904739093E+03  0.91253448272E+02 0.  0.
        -13    1    4    4    0    0  0.39398275636E+02  0.49245248467E+02 -0.22452913742E+03  0.23321803569E+03  0.00000000000E+00 0.  1.
         13    1    4    4    0    0  0.29111671957E+02  0.18610217106E+02 -0.94822503740E+01  0.35829355242E+02  0.00000000000E+00 0. -1.
        -13    1    3    3    0    0 -0.33872431669E+01 -0.71590700752E+02 -0.15357198664E+03  0.16947287964E+03  0.00000000000E+00 0.  1.
         13    1    3    3    0    0 -0.70983016549E+02 -0.15744506375E+02 -0.23313121731E+03  0.24420614776E+03  0.00000000000E+00 0. -1.
         21    1    1    2  502  501  0.58603121230E+01  0.19479741554E+02 -0.22310554634E+01  0.20464144196E+02  0.00000000000E+00 0. -1.
<scales pt_clust_5="13000.00000" pt_clust_6="13000.00000" pt_clust_7="13000.00000" pt_clust_8="13000.00000" pt_clust_9="20.34216"></scales>
<clustering>
<clus scale="   20.342">  1  9  2 -1</clus>
<clus scale="   91.253">  5  6 -1 -1</clus>
<clus scale="   91.829">  7  8 -1 -1</clus>
<clus scale="  140.373">  1  5  2 -1</clus>
<clus scale="   20.342">  1  5  2 -1</clus>
</clustering>
</event>
<event>
 9    1  0.1782981E-005  0.1671242E+03  0.7546771E-02  0.1187956E+00
          2   -1    0    0  502    0  0.00000000000E+00  0.00000000000E+00  0.11404730702E+03  0.11404730702E+03  0.00000000000E+00 0. -1.
         -2   -1    0    0    0  501 -0.00000000000E+00 -0.00000000000E+00 -0.41506584264E+03  0.41506584264E+03  0.00000000000E+00 0.  1.
         23    2    1    2    0    0  0.50760834088E+02 -0.14180947172E+03 -0.22776166422E+03  0.28734200651E+03  0.89462083970E+02 0.  0.
         23    2    1    2    0    0 -0.44108687447E+02  0.87966295005E+02 -0.11122728321E+02  0.15928483842E+03  0.12475696092E+03 0.  0.
        -11    1    3    3    0    0  0.60571232231E+02 -0.75544112438E+02 -0.18219074106E+03  0.20632317665E+03  0.00000000000E+00 0.  1.
         11    1    3    3    0    0 -0.98103981433E+01 -0.66265359284E+02 -0.45570923162E+02  0.81018829853E+02  0.00000000000E+00 0. -1.
        -13    1    4    4    0    0 -0.58954800357E+02  0.32669767514E+02  0.43446178104E+02  0.80190726312E+02  0.00000000000E+00 0. -1.
         13    1    4    4    0    0  0.14846112910E+02  0.55296527491E+02 -0.54568906425E+02  0.79094112104E+02  0.00000000000E+00 0.  1.
         21    1    1    2  502  501 -0.66521466405E+01  0.53843176717E+02 -0.62134143073E+02  0.82486304738E+02  0.00000000000E+00 0.  1.
<scales pt_clust_5="13000.00000" pt_clust_6="13000.00000" pt_clust_7="13000.00000" pt_clust_8="13000.00000" pt_clust_9="54.25255"></scales>
<clustering>
<clus scale="   54.253">  2  9  1 -1</clus>
<clus scale="   89.462">  5  6 -1 -1</clus>
<clus scale="  124.757">  7  8 -1 -1</clus>
<clus scale="  142.722">  2  5  1 -1</clus>
<clus scale="  167.124">  1  5  2 -1</clus>
</clustering>
</event>
<event>
 9    1  0.1782981E-005  0.1040840E+03  0.7546771E-02  0.1272571E+00
         -2   -1    0    0    0  501 -0.00000000000E+00  0.00000000000E+00  0.34269441517E+03  0.34269441517E+03  0.00000000000E+00 0.  1.
          2   -1    0    0  502    0  0.00000000000E+00 -0.00000000000E+00 -0.72917880075E+02  0.72917880075E+02  0.00000000000E+00 0. -1.
         23    2    1    2    0    0  0.21825839360E+01  0.15939347535E+02  0.17314494119E+03  0.19684982146E+03  0.92259715351E+02 0.  0.
         23    2    1    2    0    0  0.63679168781E+02 -0.84916498117E+01  0.12935131109E+02  0.11199948134E+03  0.90826326302E+02 0.  0.
        -13    1    3    3    0    0 -0.24969830293E+02 -0.30312407767E+02  0.61147428907E+02  0.72672846039E+02  0.00000000000E+00 0. -1.
         13    1    3    3    0    0  0.27152414229E+02  0.46251755302E+02  0.11199751228E+03  0.12417697542E+03  0.00000000000E+00 0.  1.
        -13    1    4    4    0    0  0.20171121631E+02  0.30815260954E+02  0.33576406612E+02  0.49838033032E+02  0.00000000000E+00 0.  1.
         13    1    4    4    0    0  0.43508047149E+02 -0.39306910766E+02 -0.20641275504E+02  0.62161448303E+02  0.00000000000E+00 0. -1.
         21    1    1    2  502  501 -0.65861752717E+02 -0.74476977236E+01  0.83696462796E+02  0.10676299245E+03  0.00000000000E+00 0.  1.
<scales pt_clust_5="13000.00000" pt_clust_6="13000.00000" pt_clust_7="13000.00000" pt_clust_8="13000.00000" pt_clust_9="66.28151"></scales>
<clustering>
<clus scale="   66.282">  1  9  2 -1</clus>
<clus scale="   90.826">  7  8 -1 -1</clus>
<clus scale="   92.260">  5  6 -1 -1</clus>
<clus scale="  102.816">  2  7  1 -1</clus>
<clus scale="  102.816">  2  5  1 -1</clus>
</clustering>
</event>
<event>
 9    1  0.1782981E-005  0.1253057E+03  0.7546771E-02  0.1235629E+00
         -2   -1    0    0    0  501 -0.00000000000E+00  0.00000000000E+00  0.16908761056E+03  0.16908761056E+03  0.00000000000E+00 0.  1.
          2   -1    0    0  502    0  0.00000000000E+00 -0.00000000000E+00 -0.15075673417E+03  0.15075673417E+03  0.00000000000E+00 0. -1.
         23    2    1    2    0    0  0.90110993445E+02 -0.95353975547E+00  0.89051240594E+02  0.15436031507E+03  0.88182101579E+02 0.  0.
         23    2    1    2    0    0 -0.69818854479E+02  0.24640594888E+02 -0.61189455299E+02  0.13286983475E+03  0.91806384260E+02 0.  0.
        -11    1    4    4    0    0 -0.34618387767E+02  0.58996039664E+02 -0.30506740784E+02  0.74897441217E+02  0.00000000000E+00 0.  1.
         11    1    4    4    0    0 -0.35200466711E+02 -0.34355444776E+02 -0.30682714515E+02  0.57972393537E+02  0.00000000000E+00 0. -1.
        -13    1    3    3    0    0  0.39309055873E+02 -0.44325502254E+02  0.43810687703E+02  0.73683976418E+02  0.00000000000E+00 0. -1.
         13    1    3    3    0    0  0.50801937572E+02  0.43371962499E+02  0.45240552891E+02  0.80676338650E+02  0.00000000000E+00 0.  1.
         21    1    1    2  502  501 -0.20292138966E+02 -0.23687055132E+02 -0.95309089110E+01  0.32614194905E+02  0.00000000000E+00 0. -1.
<scales pt_clust_5="13000.00000" pt_clust_6="13000.00000" pt_clust_7="13000.00000" pt_clust_8="13000.00000" pt_clust_9="31.19050"></scales>
<clustering>
<clus scale="   31.191">  2  9  1 -1</clus>
<clus scale="   88.182">  7  8 -1 -1</clus>
<clus scale="   91.806">  5  6 -1 -1</clus>
<clus scale="  122.675">  1  7  2 -1</clus>
<clus scale="   31.191">  2  5  1 -1</clus>
</clustering>
</event>
<event>
 9    1  0.1782981E-005  0.1266267E+03  0.7546771E-02  0.1234385E+00
          1   -1    0    0  502    0  0.00000000000E+00  0.00000000000E+00  0.28670884700E+03  0.28670884700E+03  0.00000000000E+00 0. -1.
         -1   -1    0    0    0  501 -0.00000000000E+00 -0.00000000000E+00 -0.76394763785E+02  0.76394763785E+02  0.00000000000E+00 0.  1.
         23    2    1    2    0    0 -0.93894428538E+02  0.25599506099E+02  0.41570523677E+02  0.13539207740E+03  0.84447662844E+02 0.  0.
         23    2    1    2    0    0  0.70830665711E+02 -0.23975196645E+02  0.97951075035E+02  0.15323904586E+03  0.91082373792E+02 0.  0.
        -13    1    4    4    0    0  0.64605980405E+02  0.17344584898E+02  0.87545260955E+02  0.11017685803E+03  0.00000000000E+00 0. -1.
         13    1    4    4    0    0  0.62246853061E+01 -0.41319781544E+02  0.10405814080E+02  0.43062187829E+02  0.00000000000E+00 0.  1.
        -13    1    3    3    0    0 -0.26136242668E+02  0.49395457417E+02  0.92711740902E+01  0.56647763092E+02  0.00000000000E+00 0. -1.
         13    1    3    3    0    0 -0.67758185870E+02 -0.23795951319E+02  0.32299349587E+02  0.78744314304E+02  0.00000000000E+00 0.  1.
         21    1    1    2  502  501  0.23063762827E+02 -0.16243094532E+01  0.70792484504E+02  0.74472487532E+02  0.00000000000E+00 0. -1.
<scales pt_clust_5="13000.00000" pt_clust_6="13000.00000" pt_clust_7="13000.00000" pt_clust_8="13000.00000" pt_clust_9="23.12089"></scales>
<clustering>
<clus scale="   23.121">  1  9  2 -1</clus>
<clus scale="   84.448">  7  8 -1 -1</clus>
<clus scale="   91.082">  5  6 -1 -1</clus>
<clus scale="  121.942">  2  7  1 -1</clus>
<clus scale="   23.121">  1  5  2 -1</clus>
</clustering>
</event>
<event>
 9    1  0.1782981E-005  0.1066815E+03  0.7546771E-02  0.1270543E+00
          2   -1    0    0  502    0  0.00000000000E+00  0.00000000000E+00  0.22379706816E+03  0.22379706816E+03  0.00000000000E+00 0. -1.
         -2   -1    0    0    0  501 -0.00000000000E+00 -0.00000000000E+00 -0.68462083498E+02  0.68462083498E+02  0.00000000000E+00 0.  1.
         23    2    1    2    0    0  0.46269940868E+02  0.23314520072E+01  0.11843664470E+02  0.10228094202E+03  0.90414465748E+02 0.  0.
         23    2    1    2    0    0 -0.27314160517E+02 -0.12567040004E+02  0.11782773059E+03  0.15647136404E+03  0.98467861813E+02 0.  0.
        -11    1    4    4    0    0  0.28117249044E+02  0.19402944061E+02  0.65247812163E+02  0.73650057190E+02  0.00000000000E+00 0. -1.
         11    1    4    4    0    0 -0.55431409560E+02 -0.31969984065E+02  0.52579918429E+02  0.82821306853E+02  0.00000000000E+00 0.  1.
        -13    1    3    3    0    0 -0.16878758711E+02 -0.26011497269E+02 -0.40236989181E+01  0.31267885103E+02  0.00000000000E+00 0.  1.
         13    1    3    3    0    0  0.63148699579E+02  0.28342949276E+02  0.15867363389E+02  0.71013056920E+02  0.00000000000E+00 0. -1.
         21    1    1    2  502  501 -0.18955780351E+02  0.10235587996E+02  0.25663589595E+02  0.33506845588E+02  0.00000000000E+00 0. -1.
<scales pt_clust_5="13000.00000" pt_clust_6="13000.00000" pt_clust_7="13000.00000" pt_clust_8="13000.00000" pt_clust_9="21.54272"></scales>
<clustering>
<clus scale="   21.543">  1  9  2 -1</clus>
<clus scale="   90.414">  7  8 -1 -1</clus>
<clus scale="   98.468">  5  6 -1 -1</clus>
<clus scale="   99.297">  2  7  1 -1</clus>
<clus scale="   21.543">  1  5  2 -1</clus>
</clustering>
</event>
<event>
 9    1  0.1782981E-005  0.9601599E+02  0.7546771E-02  0.1292178E+00
          1   -1    0    0  502    0  0.00000000000E+00  0.00000000000E+00  0.64689028042E+02  0.64689028042E+02  0.00000000000E+00 0. -1.
         -1   -1    0    0    0  501 -0.00000000000E+00 -0.00000000000E+00 -0.19889764923E+03  0.19889764923E+03  0.00000000000E+00 0.  1.
         23    2    1    2    0    0 -0.81301622463E+01  0.29786386895E+01 -0.11371907738E+03  0.14907297899E+03  0.95998711866E+02 0.  0.
         23    2    1    2    0    0 -0.11705883590E+02  0.34226293431E+01 -0.21611615555E+02  0.93640174571E+02  0.90292182743E+02 0.  0.
        -13    1    3    3    0    0  0.37161113381E+02  0.23320672921E+02 -0.35544230529E+02  0.56464098834E+02  0.00000000000E+00 0.  1.
         13    1    3    3    0    0 -0.45291275627E+02 -0.20342034232E+02 -0.78174846849E+02  0.92608880160E+02  0.00000000000E+00 0. -1.
        -13    1    4    4    0    0 -0.29254579040E+02  0.30233470001E+02  0.15294892945E+02  0.44764124624E+02  0.00000000000E+00 0.  1.
         13    1    4    4    0    0  0.17548695450E+02 -0.26810840658E+02 -0.36906508500E+02  0.48876049947E+02  0.00000000000E+00 0. -1.
         21    1    1    2  502  501  0.19836045836E+02 -0.64012680327E+01  0.11220717474E+01  0.20873523704E+02  0.00000000000E+00 0. -1.
<scales pt_clust_5="13000.00000" pt_clust_6="13000.00000" pt_clust_7="13000.00000" pt_clust_8="13000.00000" pt_clust_9="20.84334"></scales>
<clustering>
<clus scale="   20.843">  1  9  2 -1</clus>
<clus scale="   90.292">  7  8 -1 -1</clus>
<clus scale="   90.311">  1  7  2 -1</clus>
<clus scale="   95.999">  5  6 -1 -1</clus>
<clus scale="   20.843">  1  5  2 -1</clus>
</clustering>
</event>
<event>
 9    1  0.1782981E-005  0.2137428E+03  0.7546771E-02  0.1151868E+00
          1   -1    0    0  502    0  0.00000000000E+00  0.00000000000E+00  0.33597508762E+03  0.33597508762E+03  0.00000000000E+00 0. -1.
         -1   -1    0    0    0  501 -0.00000000000E+00 -0.00000000000E+00 -0.34967034024E+03  0.34967034024E+03  0.00000000000E+00 0.  1.
         23    2    1    2    0    0  0.65184512933E+01  0.17402878571E+03 -0.13496597923E+03  0.23992462390E+03  0.94971054202E+02 0.  0.
         23    2    1    2    0    0  0.88069272740E+02  0.76255245806E+02  0.10558530205E+02  0.15615885135E+03  0.10345552175E+03 0.  0.
        -11    1    4    4    0    0  0.50900369124E+02  0.78984450185E+02 -0.32301017877E+02  0.99361696362E+02  0.00000000000E+00 0.  1.
         11    1    4    4    0    0  0.37168903616E+02 -0.27292043784E+01  0.42859548082E+02  0.56797154984E+02  0.00000000000E+00 0. -1.
        -13    1    3    3    0    0  0.16982212810E+02  0.17375416740E+02  0.99599073654E+01  0.26258339885E+02  0.00000000000E+00 0. -1.
         13    1    3    3    0    0 -0.10463761516E+02  0.15665336897E+03 -0.14492588660E+03  0.21366628401E+03  0.00000000000E+00 0.  1.
         21    1    1    2  502  501 -0.94587724033E+02 -0.25028403152E+03  0.11071219641E+03  0.28956195262E+03  0.00000000000E+00 0. -1.
<scales pt_clust_5="13000.00000" pt_clust_6="13000.00000" pt_clust_7="13000.00000" pt_clust_8="13000.00000" pt_clust_9="191.48492"></scales>
<clustering>
<clus scale="   94.971">  7  8 -1 -1</clus>
<clus scale="  103.456">  5  6 -1 -1</clus>
<clus scale="  155.801">  1  5  2 -1</clus>
<clus scale="  191.485">  1  9  2 -1</clus>
<clus scale="  155.801">  1  5  2 -1</clus>
</clustering>
</event>
<event>
 9    1  0.1782981E-005  0.9715446E+02  0.7546771E-02  0.1287446E+00
          2   -1    0    0  502    0  0.00000000000E+00  0.00000000000E+00  0.12577838889E+03  0.12577838889E+03  0.00000000000E+00 0. -1.
         -2   -1    0    0    0  501 -0.00000000000E+00 -0.00000000000E+00 -0.13267229020E+03  0.13267229020E+03  0.00000000000E+00 0.  1.
         23    2    1    2    0    0  0.38818972173E+02  0.24862696907E+01 -0.46344499000E+02  0.11024164608E+03  0.92153750905E+02 0.  0.
         23    2    1    2    0    0 -0.61293588997E+01 -0.34717904232E+02  0.23478738379E+02  0.99602558434E+02  0.90147193944E+02 0.  0.
        -11    1    3    3    0    0  0.65123464378E+02  0.20152733275E+02 -0.34602787085E+02  0.76449664127E+02  0.00000000000E+00 0. -1.
         11    1    3    3    0    0 -0.26304492206E+02 -0.17666463584E+02 -0.11741711915E+02  0.33791981955E+02  0.00000000000E+00 0.  1.
        -11    1    4    4    0    0 -0.61280272255E+01  0.27512087092E+02 -0.87618050206E+01  0.29516722058E+02  0.00000000000E+00 0.  1.
         11    1    4    4    0    0 -0.13316741721E-02 -0.62229991323E+02  0.32240543399E+02  0.70085836376E+02  0.00000000000E+00 0. -1.
         21    1    1    2  502  501 -0.32689613273E+02  0.32231634541E+02  0.15971859313E+02  0.48606474579E+02  0.00000000000E+00 0.  1.
<scales pt_clust_5="13000.00000" pt_clust_6="13000.00000" pt_clust_7="13000.00000" pt_clust_8="13000.00000" pt_clust_9="45.90740"></scales>
<clustering>
<clus scale="   45.907">  1  9  2 -1</clus>
<clus scale="   90.147">  7  8 -1 -1</clus>
<clus scale="   92.154">  5  6 -1 -1</clus>
<clus scale="   95.253">  1  7  2 -1</clus>
<clus scale="   45.907">  1  5  2 -1</clus>
</clustering>
</event>
<event>
 9    1  0.1782981E-005  0.9796254E+02  0.7546771E-02  0.1286605E+00
          3   -1    0    0  502    0  0.00000000000E+00  0.00000000000E+00  0.43900201612E+03  0.43900201612E+03  0.00000000000E+00 0. -1.
         -3   -1    0    0    0  501 -0.00000000000E+00 -0.00000000000E+00 -0.28588866404E+02  0.28588866404E+02  0.00000000000E+00 0.  1.
         23    2    1    2    0    0 -0.28938360598E+02  0.15559669544E+02  0.16106856827E+03  0.18924856994E+03  0.93767827687E+02 0.  0.
         23    2    1    2    0    0  0.81432750321E+01 -0.27404201120E+02  0.15960348392E+03  0.18546501128E+03  0.90037187666E+02 0.  0.
        -11    1    3    3    0    0  0.27153652388E+02 -0.21988533508E+01  0.10315461918E+03  0.10669128949E+03  0.00000000000E+00 0.  1.
         11    1    3    3    0    0 -0.56092012987E+02  0.17758522894E+02  0.57913949082E+02  0.82557280445E+02  0.00000000000E+00 0. -1.
        -13    1    4    4    0    0  0.27883787006E+02 -0.54221177730E+02  0.97407614307E+02  0.11491599113E+03  0.00000000000E+00 0. -1.
         13    1    4    4    0    0 -0.19740511974E+02  0.26816976610E+02  0.62195869613E+02  0.70549020152E+02  0.00000000000E+00 0.  1.
         21    1    1    2  502  501  0.20795085566E+02  0.11844531577E+02  0.89741097529E+02  0.92877301305E+02  0.00000000000E+00 0.  1.
<scales pt_clust_5="13000.00000" pt_clust_6="13000.00000" pt_clust_7="13000.00000" pt_clust_8="13000.00000" pt_clust_9="23.93175"></scales>
<clustering>
<clus scale="   23.932">  1  9  2 -1</clus>
<clus scale="   90.037">  7  8 -1 -1</clus>
<clus scale="   93.768">  5  6 -1 -1</clus>
<clus scale="   94.398">  1  7  2 -1</clus>
<clus scale="   23.932">  1  5  2 -1</clus>
</clustering>
</event>
<event>
 9    1  0.1782981E-005  0.9423638E+02  0.7546771E-02  0.1293435E+00
          2   -1    0    0  502    0  0.00000000000E+00  0.00000000000E+00  0.67956345087E+03  0.67956345087E+03  0.00000000000E+00 0. -1.
         -2   -1    0    0    0  501 -0.00000000000E+00 -0.00000000000E+00 -0.25328915501E+02  0.25328915501E+02  0.00000000000E+00 0.  1.
         23    2    1    2    0    0 -0.21193609341E+02  0.32377103237E+02  0.17035316382E+03  0.19743229320E+03  0.91988391026E+02 0.  0.
         23    2    1    2    0    0 -0.21801512267E+02 -0.12415053631E+02  0.40110618668E+03  0.41207246844E+03  0.91039039743E+02 0.  0.
        -11    1    4    4    0    0 -0.36720783237E+02 -0.42717347045E+02  0.30612139821E+03  0.31126114133E+03  0.00000000000E+00 0.  1.
         11    1    4    4    0    0  0.14919270969E+02  0.30302293415E+02  0.94984788469E+02  0.10081132711E+03  0.00000000000E+00 0. -1.
        -13    1    3    3    0    0 -0.27879632449E+02 -0.25185906460E+02  0.40547289355E+02  0.55278263935E+02  0.00000000000E+00 0.  1.
         13    1    3    3    0    0  0.66860231084E+01  0.57563009697E+02  0.12980587446E+03  0.14215402926E+03  0.00000000000E+00 0. -1.
         21    1    1    2  502  501  0.42995121608E+02 -0.19962049606E+02  0.82775184864E+02  0.95387604729E+02  0.00000000000E+00 0. -1.
<scales pt_clust_5="13000.00000" pt_clust_6="13000.00000" pt_clust_7="13000.00000" pt_clust_8="13000.00000" pt_clust_9="47.40321"></scales>
<clustering>
<clus scale="   47.403">  2  9  1 -1</clus>
<clus scale="   91.039">  5  6 -1 -1</clus>
<clus scale="   91.988">  7  8 -1 -1</clus>
<clus scale="   93.310">  1  5  2 -1</clus>
<clus scale="   93.310">  1  5  2 -1</clus>
</clustering>
</event>
<event>
 9    1  0.1782981E-005  0.9394787E+02  0.7546771E-02  0.1298638E+00
         -2   -1    0    0    0  501 -0.00000000000E+00  0.00000000000E+00  0.21761823349E+03  0.21761823349E+03  0.00000000000E+00 0.  1.
          2   -1    0    0  502    0  0.00000000000E+00 -0.00000000000E+00 -0.14301884306E+03  0.14301884306E+03  0.00000000000E+00 0. -1.
         23    2    1    2    0    0  0.19852859319E+01  0.12040643950E+02  0.12844831605E+03  0.15438075446E+03  0.84767499564E+02 0.  0.
         23    2    1    2    0    0  0.27991918994E+02 -0.16821854670E+01  0.41424757841E+02  0.10584215357E+03  0.93274721299E+02 0.  0.
        -11    1    4    4    0    0  0.52959703783E+02  0.23328692950E+02  0.40233418743E+02  0.70481814132E+02  0.00000000000E+00 0.  1.
         11    1    4    4    0    0 -0.24967784789E+02 -0.25010878417E+02  0.11913390980E+01  0.35360339439E+02  0.00000000000E+00 0. -1.
        -13    1    3    3    0    0  0.22239892347E+02  0.39814615101E+02  0.44728038961E+02  0.63878117197E+02  0.00000000000E+00 0.  1.
         13    1    3    3    0    0 -0.20254606415E+02 -0.27773971151E+02  0.83720277093E+02  0.90502637260E+02  0.00000000000E+00 0. -1.
         21    1    1    2  502  501 -0.29977204926E+02 -0.10358458483E+02 -0.95273683475E+02  0.10041416852E+03  0.00000000000E+00 0. -1.
<scales pt_clust_5="13000.00000" pt_clust_6="13000.00000" pt_clust_7="13000.00000" pt_clust_8="13000.00000" pt_clust_9="31.71641"></scales>
<clustering>
<clus scale="   31.716">  2  9  1 -1</clus>
<clus scale="   84.767">  7  8 -1 -1</clus>
<clus scale="   85.508">  1  7  2 -1</clus>
<clus scale="   93.275">  5  6 -1 -1</clus>
<clus scale="   31.716">  2  5  1 -1</clus>
</clustering>
</event>
<event>
 9    1  0.1782981E-005  0.9456737E+02  0.7546771E-02  0.1294580E+00
          1   -1    0    0  502    0  0.00000000000E+00  0.00000000000E+00  0.12414551587E+03  0.12414551587E+03  0.00000000000E+00 0. -1.
         -1   -1    0    0    0  501 -0.00000000000E+00 -0.00000000000E+00 -0.25916827084E+03  0.25916827084E+03  0.00000000000E+00 0.  1.
         23    2    1    2    0    0  0.37152276760E+01 -0.49064502598E+02 -0.11858043270E+03  0.15595815883E+03  0.88546597648E+02 0.  0.
         23    2    1    2    0    0 -0.22473917380E+02 -0.35416256550E+02 -0.71812544948E+02  0.12461932142E+03  0.92809188500E+02 0.  0.
        -11    1    3    3    0    0  0.59508317293E+01  0.19288614563E+02 -0.13417141393E+01  0.20230255729E+02  0.00000000000E+00 0. -1.
         11    1    3    3    0    0 -0.22356040533E+01 -0.68353117161E+02 -0.11723871856E+03  0.13572790310E+03  0.00000000000E+00 0.  1.
        -13    1    4    4    0    0 -0.13383364287E+02 -0.65185357665E+02 -0.64439062324E+02  0.92631733476E+02  0.00000000000E+00 0.  1.
         13    1    4    4    0    0 -0.90905530930E+01  0.29769101115E+02 -0.73734826234E+01  0.31987587948E+02  0.00000000000E+00 0. -1.
         21    1    1    2  502  501  0.18758689704E+02  0.84480759148E+02  0.55370222678E+02  0.10273630646E+03  0.00000000000E+00 0. -1.
<scales pt_clust_5="13000.00000" pt_clust_6="13000.00000" pt_clust_7="13000.00000" pt_clust_8="13000.00000" pt_clust_9="86.53836"></scales>
<clustering>
<clus scale="   86.538">  1  9  2 -1</clus>
<clus scale="   88.547">  5  6 -1 -1</clus>
<clus scale="   90.388">  2  5  1 -1</clus>
<clus scale="   92.809">  7  8 -1 -1</clus>
<clus scale="   86.538">  1  5  2 -1</clus>
</clustering>
</event>
<event>
 9    1  0.1782981E-005  0.1449395E+03  0.7546771E-02  0.1208663E+00
          2   -1    0    0  502    0  0.00000000000E+00  0.00000000000E+00  0.75024500687E+03  0.75024500687E+03  0.00000000000E+00 0. -1.
         -2   -1    0    0    0  501 -0.00000000000E+00 -0.00000000000E+00 -0.46956992533E+02  0.46956992533E+02  0.00000000000E+00 0.  1.
         23    2    1    2    0    0 -0.13438213163E+02 -0.10890191264E+03  0.10309719365E+03  0.17231162384E+03  0.83797686271E+02 0.  0.
         23    2    1    2    0    0  0.35003539729E+02  0.11349608076E+03  0.49599828466E+03  0.51839035559E+03  0.92777444648E+02 0.  0.
        -13    1    4    4    0    0 -0.31064270835E+02  0.46905883305E+02  0.20975131982E+03  0.21716529874E+03  0.00000000000E+00 0. -1.
         13    1    4    4    0    0  0.66067810564E+02  0.66590197452E+02  0.28624696485E+03  0.30122505685E+03  0.00000000000E+00 0.  1.
        -13    1    3    3    0    0 -0.37698086763E+02 -0.14213782732E+02  0.28441960810E+02  0.49316554015E+02  0.00000000000E+00 0. -1.
         13    1    3    3    0    0  0.24259873601E+02 -0.94688129905E+02  0.74655232838E+02  0.12299506983E+03  0.00000000000E+00 0.  1.
         21    1    1    2  502  501 -0.21565326566E+02 -0.45941681198E+01  0.10419253602E+03  0.10650001997E+03  0.00000000000E+00 0. -1.
<scales pt_clust_5="13000.00000" pt_clust_6="13000.00000" pt_clust_7="13000.00000" pt_clust_8="13000.00000" pt_clust_9="22.04926"></scales>
<clustering>
<clus scale="   22.049">  1  9  2 -1</clus>
<clus scale="   83.798">  7  8 -1 -1</clus>
<clus scale="   92.777">  5  6 -1 -1</clus>
<clus scale="  139.362">  2  7  1 -1</clus>
<clus scale="   22.049">  1  5  2 -1</clus>
</clustering>
</event>
<event>
 9    1  0.1782981E-005  0.1492304E+03  0.7546771E-02  0.1201557E+00
          3   -1    0    0  502    0  0.00000000000E+00  0.00000000000E+00  0.12365005069E+03  0.12365005069E+03  0.00000000000E+00 0. -1.
         -3   -1    0    0    0  501 -0.00000000000E+00 -0.00000000000E+00 -0.36929331885E+03  0.36929331885E+03  0.00000000000E+00 0.  1.
         23    2    1    2    0    0  0.39795181129E+02  0.13526621990E+03 -0.23670320357E+03  0.29024896696E+03  0.91298683198E+02 0.  0.
         23    2    1    2    0    0 -0.14554098361E+02 -0.56070161981E+02  0.28936947181E+02  0.11135002197E+03  0.90585846776E+02 0.  0.
        -13    1    4    4    0    0 -0.12695324390E+01 -0.77174566451E+02  0.36375185677E+02  0.85326898178E+02  0.00000000000E+00 0. -1.
         13    1    4    4    0    0 -0.13284565922E+02  0.21104404471E+02 -0.74382384964E+01  0.26023123789E+02  0.00000000000E+00 0.  1.
        -13    1    3    3    0    0 -0.29123044759E+02  0.44164544033E+02 -0.61855209107E+02  0.81392417211E+02  0.00000000000E+00 0. -1.
         13    1    3    3    0    0  0.68918225888E+02  0.91101675871E+02 -0.17484799446E+03  0.20885654975E+03  0.00000000000E+00 0.  1.
         21    1    1    2  502  501 -0.25241082768E+02 -0.79196057924E+02 -0.37877011770E+02  0.91344380619E+02  0.00000000000E+00 0. -1.
<scales pt_clust_5="13000.00000" pt_clust_6="13000.00000" pt_clust_7="13000.00000" pt_clust_8="13000.00000" pt_clust_9="83.12116"></scales>
<clustering>
<clus scale="   83.121">  1  9  2 -1</clus>
<clus scale="   90.586">  5  6 -1 -1</clus>
<clus scale="   91.299">  7  8 -1 -1</clus>
<clus scale="  148.795">  1  5  2 -1</clus>
<clus scale="   83.121">  1  5  2 -1</clus>
</clustering>
</event>
<event>
 9    1  0.1782981E-005  0.1102532E+03  0.7546771E-02  0.1260472E+00
          2   -1    0    0  502    0  0.00000000000E+00  0.00000000000E+00  0.39315248454E+03  0.39315248454E+03  0.00000000000E+00 0. -1.
         -2   -1    0    0    0  501 -0.00000000000E+00 -0.00000000000E+00 -0.57144469234E+02  0.57144469234E+02  0.00000000000E+00 0.  1.
         23    2    1    2    0    0 -0.75051952369E+02  0.12433252820E+02  0.50097493253E+02  0.12883351205E+03  0.91109459805E+02 0.  0.
         23    2    1    2    0    0  0.24566351351E+02 -0.38590008155E+01  0.19671218498E+03  0.21861084310E+03  0.92068558667E+02 0.  0.
        -11    1    3    3    0    0 -0.64463840204E+02 -0.81541466777E+01 -0.87801052584E+01  0.65568033753E+02  0.00000000000E+00 0.  1.
         11    1    3    3    0    0 -0.10588112166E+02  0.20587399498E+02  0.58877598512E+02  0.63265478294E+02  0.00000000000E+00 0. -1.
        -11    1    4    4    0    0 -0.12782903506E+02 -0.39499895569E+02  0.11151458283E+03  0.11899221216E+03  0.00000000000E+00 0.  1.
         11    1    4    4    0    0  0.37349254857E+02  0.35640894754E+02  0.85197602149E+02  0.99618630934E+02  0.00000000000E+00 0. -1.
         21    1    1    2  502  501  0.50485601018E+02 -0.85742520047E+01  0.89198337071E+02  0.10285259862E+03  0.00000000000E+00 0. -1.
<scales pt_clust_5="13000.00000" pt_clust_6="13000.00000" pt_clust_7="13000.00000" pt_clust_8="13000.00000" pt_clust_9="51.20853"></scales>
<clustering>
<clus scale="   51.209">  1  9  2 -1</clus>
<clus scale="   91.109">  5  6 -1 -1</clus>
<clus scale="   92.069">  7  8 -1 -1</clus>
<clus scale="  109.454">  2  5  1 -1</clus>
<clus scale="   51.209">  1  5  2 -1</clus>
</clustering>
</event>
<event>
 9    1  0.1782981E-005  0.1918111E+03  0.7546771E-02  0.1157123E+00
          2   -1    0    0  502    0  0.00000000000E+00  0.00000000000E+00  0.13471434683E+03  0.13471434683E+03  0.00000000000E+00 0. -1.
         -2   -1    0    0    0  501 -0.00000000000E+00 -0.00000000000E+00 -0.12588085169E+04  0.12588085169E+04  0.00000000000E+00 0.  1.
         23    2    1    2    0    0  0.76157381746E+02  0.16080468903E+03 -0.78631795786E+03  0.81107754929E+03  0.88841236450E+02 0.  0.
         23    2    1    2    0    0 -0.14448218183E+03 -0.89834386418E+02 -0.41467391576E+03  0.45747204143E+03  0.91547225113E+02 0.  0.
        -11    1    4    4    0    0 -0.89242627177E+02 -0.89630445788E+02 -0.20706003070E+03  0.24263495138E+03  0.00000000000E+00 0.  1.
         11    1    4    4    0    0 -0.55239554652E+02 -0.20394063029E+00 -0.20761388506E+03  0.21483709005E+03  0.00000000000E+00 0. -1.
        -13    1    3    3    0    0  0.57314240429E+02  0.16756232311E+03 -0.73397322965E+03  0.75503559924E+03  0.00000000000E+00 0.  1.
         13    1    3    3    0    0  0.18843141317E+02 -0.67576340840E+01 -0.52344728214E+02  0.56041950045E+02  0.00000000000E+00 0. -1.
         21    1    1    2  502  501  0.68324800083E+02 -0.70970302611E+02  0.76897703550E+02  0.12497327302E+03  0.00000000000E+00 0.  1.
<scales pt_clust_5="13000.00000" pt_clust_6="13000.00000" pt_clust_7="13000.00000" pt_clust_8="13000.00000" pt_clust_9="98.51427"></scales>
<clustering>
<clus scale="   88.841">  7  8 -1 -1</clus>
<clus scale="   91.547">  5  6 -1 -1</clus>
<clus scale="   98.514">  1  9  2 -1</clus>
<clus scale="  190.534">  2  7  1 -1</clus>
<clus scale="   98.514">  1  5  2 -1</clus>
</clustering>
</event>
<event>
 9    1  0.1782981E-005  0.1072665E+03  0.7546771E-02  0.1266247E+00
          1   -1    0    0  502    0  0.00000000000E+00  0.00000000000E+00  0.77961427875E+02  0.77961427875E+02  0.00000000000E+00 0. -1.
         -1   -1    0    0    0  501 -0.00000000000E+00 -0.00000000000E+00 -0.30164980018E+03  0.30164980018E+03  0.00000000000E+00 0.  1.
         23    2    1    2    0    0  0.42661868102E+02  0.47806005763E+02 -0.17073248145E+03  0.20344868520E+03  0.90201652479E+02 0.  0.
         23    2    1    2    0    0 -0.10592162614E+02 -0.46625832332E+02 -0.82801593989E+02  0.13233760913E+03  0.91493041675E+02 0.  0.
        -11    1    4    4    0    0 -0.25786824277E+02 -0.66465274045E+02 -0.37384961660E+02  0.80499865332E+02  0.00000000000E+00 0.  1.
         11    1    4    4    0    0  0.15194661663E+02  0.19839441712E+02 -0.45416632329E+02  0.51837743803E+02  0.00000000000E+00 0. -1.
        -11    1    3    3    0    0  0.69042343142E+02  0.40339469566E+02 -0.10313382401E+03  0.13050173794E+03  0.00000000000E+00 0. -1.
         11    1    3    3    0    0 -0.26380475040E+02  0.74665361968E+01 -0.67598657439E+02  0.72946947254E+02  0.00000000000E+00 0.  1.
         21    1    1    2  502  501 -0.32069705488E+02 -0.11801734306E+01  0.29845703139E+02  0.43824933716E+02  0.00000000000E+00 0.  1.
<scales pt_clust_5="13000.00000" pt_clust_6="13000.00000" pt_clust_7="13000.00000" pt_clust_8="13000.00000" pt_clust_9="32.09141"></scales>
<clustering>
<clus scale="   32.091">  1  9  2 -1</clus>
<clus scale="   90.202">  7  8 -1 -1</clus>
<clus scale="   91.493">  5  6 -1 -1</clus>
<clus scale="  106.167">  2  7  1 -1</clus>
<clus scale="   32.091">  1  5  2 -1</clus>
</clustering>
</event>
<event>
 9    1  0.1782981E-005  0.1265680E+03  0.7546771E-02  0.1236726E+00
         -2   -1    0    0    0  501 -0.00000000000E+00  0.00000000000E+00  0.17780728519E+03  0.17780728519E+03  0.00000000000E+00 0.  1.
          2   -1    0    0  502    0  0.00000000000E+00 -0.00000000000E+00 -0.12841979479E+03  0.12841979479E+03  0.00000000000E+00 0. -1.
         23    2    1    2    0    0 -0.47097837683E+02  0.46897689889E+02  0.75848738900E+02  0.13609932316E+03  0.91391438003E+02 0.  0.
         23    2    1    2    0    0  0.77111199989E+02 -0.42977685120E+02 -0.13186889601E+02  0.13707663039E+03  0.10403311953E+03 0.  0.
        -13    1    4    4    0    0  0.21668955979E+01 -0.40569247970E+02 -0.40412594252E+02  0.57303901190E+02  0.00000000000E+00 0. -1.
         13    1    4    4    0    0  0.74944304391E+02 -0.24084371498E+01  0.27225704651E+02  0.79772729200E+02  0.00000000000E+00 0.  1.
        -13    1    3    3    0    0 -0.20527169959E+01  0.47649137764E+02  0.77520495539E+02  0.91016928125E+02  0.00000000000E+00 0. -1.
         13    1    3    3    0    0 -0.45045120687E+02 -0.75144787556E+00 -0.16717566395E+01  0.45082395033E+02  0.00000000000E+00 0.  1.
         21    1    1    2  502  501 -0.30013362306E+02 -0.39200047687E+01 -0.13274358901E+02  0.33051126434E+02  0.00000000000E+00 0.  1.
<scales pt_clust_5="13000.00000" pt_clust_6="13000.00000" pt_clust_7="13000.00000" pt_clust_8="13000.00000" pt_clust_9="30.26827"></scales>
<clustering>
<clus scale="   30.268">  2  9  1 -1</clus>
<clus scale="   91.391">  7  8 -1 -1</clus>
<clus scale="  104.033">  5  6 -1 -1</clus>
<clus scale="  116.400">  1  7  2 -1</clus>
<clus scale="   30.268">  2  5  1 -1</clus>
</clustering>
</event>
<event>
 9    1  0.1782981E-005  0.9343864E+02  0.7546771E-02  0.1296482E+00
         -2   -1    0    0    0  501 -0.00000000000E+00  0.00000000000E+00  0.26755504149E+02  0.26755504149E+02  0.00000000000E+00 0.  1.
          2   -1    0    0  502    0  0.00000000000E+00 -0.00000000000E+00 -0.48059872906E+03  0.48059872906E+03  0.00000000000E+00 0. -1.
         23    2    1    2    0    0 -0.23505016786E+02 -0.24384284823E+02 -0.14225879533E+03  0.17084781463E+03  0.88342128983E+02 0.  0.
         23    2    1    2    0    0  0.47219074594E+01  0.11896946534E+02 -0.29327958289E+03  0.30745807567E+03  0.91398691498E+02 0.  0.
        -11    1    4    4    0    0 -0.18629869468E+02  0.41217111881E+02 -0.22562187719E+03  0.23011117708E+03  0.00000000000E+00 0. -1.
         11    1    4    4    0    0  0.23351776928E+02 -0.29320165347E+02 -0.67657705702E+02  0.77346898597E+02  0.00000000000E+00 0.  1.
        -11    1    3    3    0    0 -0.21393785256E+02 -0.55881055475E+02 -0.70612556184E+02  0.92555494161E+02  0.00000000000E+00 0.  1.
         11    1    3    3    0    0 -0.21112315304E+01  0.31496770652E+02 -0.71646239145E+02  0.78292320464E+02  0.00000000000E+00 0. -1.
         21    1    1    2  502  501  0.18783109327E+02  0.12487338289E+02 -0.18304846688E+02  0.29048342910E+02  0.00000000000E+00 0. -1.
<scales pt_clust_5="13000.00000" pt_clust_6="13000.00000" pt_clust_7="13000.00000" pt_clust_8="13000.00000" pt_clust_9="22.55524"></scales>
<clustering>
<clus scale="   22.555">  1  9  2 -1</clus>
<clus scale="   88.342">  7  8 -1 -1</clus>
<clus scale="   90.451">  1  7  2 -1</clus>
<clus scale="   91.399">  5  6 -1 -1</clus>
<clus scale="   93.439">  2  5  1 -1</clus>
</clustering>
</event>
<event>
 9    1  0.1782981E-005  0.1017378E+03  0.7546771E-02  0.1278125E+00
         -2   -1    0    0    0  501 -0.00000000000E+00  0.00000000000E+00  0.24441613115E+02  0.24441613115E+02  0.00000000000E+00 0.  1.
          2   -1    0    0  502    0  0.00000000000E+00 -0.00000000000E+00 -0.70476935221E+03  0.70476935221E+03  0.00000000000E+00 0. -1.
         23    2    1    2    0    0 -0.57925296196E+01 -0.40678005574E+02 -0.14548619526E+03  0.17656892342E+03  0.91225534632E+02 0.  0.
         23    2    1    2    0    0 -0.28516736772E+02  0.32032643890E+02 -0.38428081279E+03  0.39797982360E+03  0.94217314559E+02 0.  0.
        -11    1    4    4    0    0  0.43345680347E+01 -0.25983205657E+02 -0.44438775065E+02  0.51659657234E+02  0.00000000000E+00 0.  1.
         11    1    4    4    0    0 -0.32851304807E+02  0.58015849547E+02 -0.33984203773E+03  0.34632016637E+03  0.00000000000E+00 0. -1.
        -13    1    3    3    0    0 -0.30091719701E+02  0.37533051477E+01 -0.10005645257E+02  0.31932927068E+02  0.00000000000E+00 0. -1.
         13    1    3    3    0    0  0.24299190082E+02 -0.44431310722E+02 -0.13548055000E+03  0.14463599635E+03  0.00000000000E+00 0.  1.
         21    1    1    2  502  501  0.34309266392E+02  0.86453616843E+01 -0.15056073104E+03  0.15466221831E+03  0.00000000000E+00 0.  1.
<scales pt_clust_5="13000.00000" pt_clust_6="13000.00000" pt_clust_7="13000.00000" pt_clust_8="13000.00000" pt_clust_9="35.38175"></scales>
<clustering>
<clus scale="   35.382">  2  9  1 -1</clus>
<clus scale="   91.226">  7  8 -1 -1</clus>
<clus scale="   94.217">  5  6 -1 -1</clus>
<clus scale="   98.974">  1  7  2 -1</clus>
<clus scale="   35.382">  2  5  1 -1</clus>
</clustering>
</event>
<event>
 9    1  0.1782981E-005  0.1278272E+03  0.7546771E-02  0.1230988E+00
          1   -1    0    0  502    0  0.00000000000E+00  0.00000000000E+00  0.58106548241E+02  0.58106548241E+02  0.00000000000E+00 0. -1.
         -1   -1    0    0    0  501 -0.00000000000E+00 -0.00000000000E+00 -0.48188946091E+03  0.48188946091E+03  0.00000000000E+00 0.  1.
         23    2    1    2    0    0 -0.95920781011E+02 -0.57300874304E+02 -0.26151072173E+03  0.29903240360E+03  0.92457203067E+02 0.  0.
         23    2    1    2    0    0  0.63412970416E+02  0.56816065985E+01 -0.12877738125E+03  0.17137043905E+03  0.93438364641E+02 0.  0.
        -11    1    4    4    0    0  0.78526059593E+02 -0.14096438611E+02 -0.65000538398E+02  0.10290831652E+03  0.00000000000E+00 0. -1.
         11    1    4    4    0    0 -0.15113089177E+02  0.19778045210E+02 -0.63776842851E+02  0.68462122526E+02  0.00000000000E+00 0.  1.
        -13    1    3    3    0    0 -0.79511821082E+02 -0.28176310337E+02 -0.24972297058E+03  0.26358603186E+03  0.00000000000E+00 0.  1.
         13    1    3    3    0    0 -0.16408959928E+02 -0.29124563968E+02 -0.11787751141E+02  0.35446371735E+02  0.00000000000E+00 0. -1.
         21    1    1    2  502  501  0.32507810595E+02  0.51619267706E+02 -0.33494809699E+02  0.69593166511E+02  0.00000000000E+00 0. -1.
<scales pt_clust_5="13000.00000" pt_clust_6="13000.00000" pt_clust_7="13000.00000" pt_clust_8="13000.00000" pt_clust_9="61.00251"></scales>
<clustering>
<clus scale="   61.003">  1  9  2 -1</clus>
<clus scale="   92.457">  7  8 -1 -1</clus>
<clus scale="   93.438">  5  6 -1 -1</clus>
<clus scale="  127.112">  2  7  1 -1</clus>
<clus scale="   61.003">  1  5  2 -1</clus>
</clustering>
</event>
<event>
 9    1  0.1782981E-005  0.1081243E+03  0.7546771E-02  0.1265992E+00
          2   -1    0    0  502    0  0.00000000000E+00  0.00000000000E+00  0.53192198915E+03  0.53192198915E+03  0.00000000000E+00 0. -1.
         -2   -1    0    0    0  501 -0.00000000000E+00 -0.00000000000E+00 -0.28457404831E+02  0.28457404831E+02  0.00000000000E+00 0.  1.
         23    2    1    2    0    0 -0.52310054360E+02  0.40517367434E+02  0.16043970111E+03  0.19615561787E+03  0.91422808300E+02 0.  0.
         23    2    1    2    0    0  0.38587426154E+02 -0.24840286420E+02  0.24313133668E+03  0.26218063802E+03  0.86716842600E+02 0.  0.
        -11    1    3    3    0    0 -0.70127587662E+02  0.54375416087E+02  0.13970455454E+03  0.16550506635E+03  0.00000000000E+00 0.  1.
         11    1    3    3    0    0  0.17817533302E+02 -0.13858048653E+02  0.20735146568E+02  0.30650551522E+02  0.00000000000E+00 0. -1.
        -13    1    4    4    0    0 -0.25419880097E+02 -0.22501811449E+02  0.90293299505E+02  0.96464406690E+02  0.00000000000E+00 0. -1.
         13    1    4    4    0    0  0.64007306251E+02 -0.23384749710E+01  0.15283803718E+03  0.16571623133E+03  0.00000000000E+00 0.  1.
         21    1    1    2  502  501  0.13722628206E+02 -0.15677081014E+02  0.99893546522E+02  0.10204313809E+03  0.00000000000E+00 0. -1.
<scales pt_clust_5="13000.00000" pt_clust_6="13000.00000" pt_clust_7="13000.00000" pt_clust_8="13000.00000" pt_clust_9="20.83462"></scales>
<clustering>
<clus scale="   20.835">  1  9  2 -1</clus>
<clus scale="   86.717">  7  8 -1 -1</clus>
<clus scale="   91.423">  5  6 -1 -1</clus>
<clus scale="  104.176">  1  7  2 -1</clus>
<clus scale="   20.835">  1  5  2 -1</clus>
</clustering>
</event>
<event>
 9    1  0.1782981E-005  0.9408943E+02  0.7546771E-02  0.1295616E+00
          1   -1    0    0  502    0  0.00000000000E+00  0.00000000000E+00  0.31040592416E+03  0.31040592416E+03  0.00000000000E+00 0. -1.
         -1   -1    0    0    0  501 -0.00000000000E+00 -0.00000000000E+00 -0.82139160967E+02  0.82139160967E+02  0.00000000000E+00 0.  1.
         23    2    1    2    0    0  0.13470650108E+02 -0.32948270427E+02 -0.56891791720E+01  0.96819581281E+02  0.89858876141E+02 0.  0.
         23    2    1    2    0    0 -0.21999033640E+02  0.65857943325E+01  0.35694438067E+02  0.95537248551E+02  0.85591721468E+02 0.  0.
        -13    1    3    3    0    0  0.39836964684E+02 -0.48856691452E+02 -0.14707596007E+02  0.64732321410E+02  0.00000000000E+00 0. -1.
         13    1    3    3    0    0 -0.26366314577E+02  0.15908421024E+02  0.90184168346E+01  0.32087259871E+02  0.00000000000E+00 0.  1.
        -13    1    4    4    0    0 -0.12635227882E+01  0.44753723493E+02  0.13523513880E+02  0.46769409703E+02  0.00000000000E+00 0. -1.
         13    1    4    4    0    0 -0.20735510851E+02 -0.38167929160E+02  0.22170924187E+02  0.48767838849E+02  0.00000000000E+00 0.  1.
         21    1    1    2  502  501  0.85283835320E+01  0.26362476095E+02  0.19826150430E+03  0.20018825529E+03  0.00000000000E+00 0. -1.
<scales pt_clust_5="13000.00000" pt_clust_6="13000.00000" pt_clust_7="13000.00000" pt_clust_8="13000.00000" pt_clust_9="27.70764"></scales>
<clustering>
<clus scale="   27.708">  1  9  2 -1</clus>
<clus scale="   85.592">  7  8 -1 -1</clus>
<clus scale="   89.859">  5  6 -1 -1</clus>
<clus scale="   90.023">  1  7  2 -1</clus>
<clus scale="   27.708">  1  5  2 -1</clus>
</clustering>
</event>
<event>
 9    1  0.1782981E-005  0.1021491E+03  0.7546771E-02  0.1275869E+00
         -1   -1    0    0    0  501 -0.00000000000E+00  0.00000000000E+00  0.52734022111E+03  0.52734022111E+03  0.00000000000E+00 0.  1.
          1   -1    0    0  502    0  0.00000000000E+00 -0.00000000000E+00 -0.30356374548E+02  0.30356374548E+02  0.00000000000E+00 0. -1.
         23    2    1    2    0    0 -0.34341308319E+02  0.13302372986E+02  0.18277837969E+03  0.20744527649E+03  0.90935845926E+02 0.  0.
         23    2    1    2    0    0  0.58093012763E+02  0.23805529230E+02  0.23146433146E+03  0.25651106442E+03  0.90998286109E+02 0.  0.
        -11    1    4    4    0    0  0.31574030822E+01  0.49654968869E+02  0.99254912178E+02  0.11102757639E+03  0.00000000000E+00 0. -1.
         11    1    4    4    0    0  0.54935609681E+02 -0.25849439639E+02  0.13220941928E+03  0.14548348803E+03  0.00000000000E+00 0.  1.
        -11    1    3    3    0    0  0.31258865386E+02  0.54419930387E+01  0.51763889818E+02  0.60714349560E+02  0.00000000000E+00 0.  1.
         11    1    3    3    0    0 -0.65600173705E+02  0.78603799473E+01  0.13101448987E+03  0.14673092693E+03  0.00000000000E+00 0. -1.
         21    1    1    2  502  501 -0.23751704444E+02 -0.37107902216E+02  0.82741135410E+02  0.93740254745E+02  0.00000000000E+00 0. -1.
<scales pt_clust_5="13000.00000" pt_clust_6="13000.00000" pt_clust_7="13000.00000" pt_clust_8="13000.00000" pt_clust_9="44.05837"></scales>
<clustering>
<clus scale="   44.058">  2  9  1 -1</clus>
<clus scale="   90.936">  7  8 -1 -1</clus>
<clus scale="   90.998">  5  6 -1 -1</clus>
<clus scale="  102.094">  1  7  2 -1</clus>
<clus scale="   44.058">  2  5  1 -1</clus>
</clustering>
</event>
<event>
 9    1  0.1782981E-005  0.1090570E+03  0.7546771E-02  0.1268262E+00
          1   -1    0    0  502    0  0.00000000000E+00  0.00000000000E+00  0.48917087232E+03  0.48917087232E+03  0.00000000000E+00 0. -1.
         -1   -1    0    0    0  501 -0.00000000000E+00 -0.00000000000E+00 -0.86439808674E+02  0.86439808674E+02  0.00000000000E+00 0.  1.
         23    2    1    2    0    0  0.24536930852E+01  0.38260366604E+02 -0.28390706258E+02  0.10092153626E+03  0.88933953115E+02 0.  0.
         23    2    1    2    0    0 -0.56890036029E+02 -0.33471909531E+02  0.17594518485E+03  0.21372682118E+03  0.10181159607E+03 0.  0.
        -11    1    3    3    0    0  0.24744695936E+02  0.25619189714E+02  0.23759460367E+02  0.42815357239E+02  0.00000000000E+00 0. -1.
         11    1    3    3    0    0 -0.22291002851E+02  0.12641176890E+02 -0.52150166625E+02  0.58106179020E+02  0.00000000000E+00 0.  1.
        -11    1    4    4    0    0 -0.16241097521E+02  0.36593705469E+02  0.51309642476E+02  0.65081118150E+02  0.00000000000E+00 0.  1.
         11    1    4    4    0    0 -0.40648938508E+02 -0.70065615000E+02  0.12463554237E+03  0.14864570303E+03  0.00000000000E+00 0. -1.
         21    1    1    2  502  501  0.54436342944E+02 -0.47884570728E+01  0.25517658506E+03  0.26096232355E+03  0.00000000000E+00 0.  1.
<scales pt_clust_5="13000.00000" pt_clust_6="13000.00000" pt_clust_7="13000.00000" pt_clust_8="13000.00000" pt_clust_9="54.64654"></scales>
<clustering>
<clus scale="   54.647">  1  9  2 -1</clus>
<clus scale="   88.934">  5  6 -1 -1</clus>
<clus scale="   97.145">  2  5  1 -1</clus>
<clus scale="  101.812">  7  8 -1 -1</clus>
<clus scale="   54.647">  1  5  2 -1</clus>
</clustering>
</event>
<event>
 9    1  0.1782981E-005  0.1001042E+03  0.7546771E-02  0.1281298E+00
          1   -1    0    0  502    0  0.00000000000E+00  0.00000000000E+00  0.28177435711E+03  0.28177435711E+03  0.00000000000E+00 0. -1.
         -1   -1    0    0    0  501 -0.00000000000E+00 -0.00000000000E+00 -0.44386394217E+02  0.44386394217E+02  0.00000000000E+00 0.  1.
         23    2    1    2    0    0  0.43540378131E+02 -0.17883447950E+02  0.89006610063E+02  0.13570153314E+03  0.90978828431E+02 0.  0.
         23    2    1    2    0    0 -0.24363424346E+02  0.29550604099E+02  0.11255836109E+03  0.14818434591E+03  0.88444338839E+02 0.  0.
        -11    1    3    3    0    0  0.56520234427E+02 -0.44538953041E+02  0.54906067800E+02  0.90514813809E+02  0.00000000000E+00 0.  1.
         11    1    3    3    0    0 -0.12979856296E+02  0.26655505090E+02  0.34100542262E+02  0.45186719329E+02  0.00000000000E+00 0. -1.
        -13    1    4    4    0    0 -0.35043721880E+02 -0.15531134837E+02  0.87464954309E+02  0.95495533009E+02  0.00000000000E+00 0.  1.
         13    1    4    4    0    0  0.10680297534E+02  0.45081738935E+02  0.25093406781E+02  0.52688812899E+02  0.00000000000E+00 0. -1.
         21    1    1    2  502  501 -0.19176953785E+02 -0.11667156148E+02  0.35822991738E+02  0.42274872278E+02  0.00000000000E+00 0.  1.
<scales pt_clust_5="13000.00000" pt_clust_6="13000.00000" pt_clust_7="13000.00000" pt_clust_8="13000.00000" pt_clust_9="22.44723"></scales>
<clustering>
<clus scale="   22.447">  1  9  2 -1</clus>
<clus scale="   88.444">  7  8 -1 -1</clus>
<clus scale="   90.979">  5  6 -1 -1</clus>
<clus scale="   97.807">  1  7  2 -1</clus>
<clus scale="   22.447">  1  5  2 -1</clus>
</clustering>
</event>
<event>
 9    1  0.1782981E-005  0.1739705E+03  0.7546771E-02  0.1174030E+00
         -1   -1    0    0    0  501 -0.00000000000E+00  0.00000000000E+00  0.49036273392E+03  0.49036273392E+03  0.00000000000E+00 0.  1.
          1   -1    0    0  502    0  0.00000000000E+00 -0.00000000000E+00 -0.25571232336E+03  0.25571232336E+03  0.00000000000E+00 0. -1.
         23    2    1    2    0    0 -0.61106964270E+02  0.13904676753E+03  0.43772817234E+03  0.47206166743E+03  0.90378096619E+02 0.  0.
         23    2    1    2    0    0  0.48671093894E+02 -0.10070547834E+03 -0.17007562613E+03  0.22191880005E+03  0.88384198047E+02 0.  0.
        -11    1    3    3    0    0  0.87269062563E+01  0.31480958957E+02  0.28990590847E+02  0.43676813383E+02  0.00000000000E+00 0. -1.
         11    1    3    3    0    0 -0.69833870526E+02  0.10756580857E+03  0.40873758150E+03  0.42838485404E+03  0.00000000000E+00 0.  1.
        -13    1    4    4    0    0  0.59662755444E+02 -0.72524652350E+02 -0.69332304480E+02  0.11673233498E+03  0.00000000000E+00 0.  1.
         13    1    4    4    0    0 -0.10991661550E+02 -0.28180825993E+02 -0.10074332165E+03  0.10518646507E+03  0.00000000000E+00 0. -1.
         21    1    1    2  502  501  0.12435870376E+02 -0.38341289183E+02 -0.33002135655E+02  0.52094589796E+02  0.00000000000E+00 0. -1.
<scales pt_clust_5="13000.00000" pt_clust_6="13000.00000" pt_clust_7="13000.00000" pt_clust_8="13000.00000" pt_clust_9="40.30763"></scales>
<clustering>
<clus scale="   40.308">  2  9  1 -1</clus>
<clus scale="   88.384">  7  8 -1 -1</clus>
<clus scale="   90.378">  5  6 -1 -1</clus>
<clus scale="  172.943">  2  7  1 -1</clus>
<clus scale="   40.308">  2  5  1 -1</clus>
</clustering>
</event>
<event>
 9    1  0.1782981E-005  0.1382440E+03  0.7546771E-02  0.1216772E+00
          1   -1    0    0  502    0  0.00000000000E+00  0.00000000000E+00  0.28890421496E+03  0.28890421496E+03  0.00000000000E+00 0. -1.
         -1   -1    0    0    0  501 -0.00000000000E+00 -0.00000000000E+00 -0.21421255551E+03  0.21421255551E+03  0.00000000000E+00 0.  1.
         23    2    1    2    0    0 -0.50564866233E+02  0.74603664028E+02 -0.93918358291E+02  0.15833028244E+03  0.90140489956E+02 0.  0.
         23    2    1    2    0    0  0.11141199212E+03  0.36597119765E+02  0.15678279612E+03  0.21747635404E+03  0.94673851957E+02 0.  0.
        -11    1    4    4    0    0  0.49726724494E+02 -0.30723748649E+02  0.73336603871E+02  0.93781412483E+02  0.00000000000E+00 0.  1.
         11    1    4    4    0    0  0.61685267629E+02  0.67320868414E+02  0.83446192248E+02  0.12369494156E+03  0.00000000000E+00 0. -1.
        -13    1    3    3    0    0  0.36679711275E+01  0.23174955554E+02 -0.78611823346E+02  0.82038718584E+02  0.00000000000E+00 0.  1.
         13    1    3    3    0    0 -0.54232837361E+02  0.51428708474E+02 -0.15306534945E+02  0.76291563855E+02  0.00000000000E+00 0. -1.
         21    1    1    2  502  501 -0.60847125890E+02 -0.11120078379E+03  0.11827221613E+02  0.12731013399E+03  0.00000000000E+00 0.  1.
<scales pt_clust_5="13000.00000" pt_clust_6="13000.00000" pt_clust_7="13000.00000" pt_clust_8="13000.00000" pt_clust_9="126.75956"></scales>
<clustering>
<clus scale="   90.140">  7  8 -1 -1</clus>
<clus scale="   94.674">  5  6 -1 -1</clus>
<clus scale="  126.760">  2  9  1 -1</clus>
<clus scale="  135.180">  2  7  1 -1</clus>
<clus scale="  138.244">  1  5  2 -1</clus>
</clustering>
</event>
<event>
 9    1  0.1782981E-005  0.1192332E+03  0.7546771E-02  0.1250330E+00
         -1   -1    0    0    0  501 -0.00000000000E+00  0.00000000000E+00  0.24690042352E+02  0.24690042352E+02  0.00000000000E+00 0.  1.
          1   -1    0    0  502    0  0.00000000000E+00 -0.00000000000E+00 -0.70410848162E+03  0.70410848162E+03  0.00000000000E+00 0. -1.
         23    2    1    2    0    0  0.14373890290E+02 -0.88032761325E+02 -0.25522471897E+03  0.28538044261E+03  0.91356248084E+02 0.  0.
         23    2    1    2    0    0 -0.10612722489E+02  0.63037011423E+02 -0.26420345562E+03  0.28144333429E+03  0.72942372917E+02 0.  0.
        -13    1    4    4    0    0 -0.25504844209E+02  0.11406952552E+01 -0.33513550177E+02  0.42130230349E+02  0.00000000000E+00 0.  1.
         13    1    4    4    0    0  0.14892121720E+02  0.61896316167E+02 -0.23068990544E+03  0.23931310394E+03  0.00000000000E+00 0. -1.
        -13    1    3    3    0    0  0.35180701080E+02 -0.96378377137E+02 -0.18351296534E+03  0.21024624076E+03  0.00000000000E+00 0.  1.
         13    1    3    3    0    0 -0.20806810790E+02  0.83456158123E+01 -0.71711753628E+02  0.75134201846E+02  0.00000000000E+00 0. -1.
         21    1    1    2  502  501 -0.37611678007E+01  0.24995749902E+02 -0.15999026468E+03  0.16197474707E+03  0.00000000000E+00 0. -1.
<scales pt_clust_5="13000.00000" pt_clust_6="13000.00000" pt_clust_7="13000.00000" pt_clust_8="13000.00000" pt_clust_9="25.27714"></scales>
<clustering>
<clus scale="   25.277">  2  9  1 -1</clus>
<clus scale="   72.942">  5  6 -1 -1</clus>
<clus scale="   91.356">  7  8 -1 -1</clus>
<clus scale="  105.788">  2  5  1 -1</clus>
<clus scale="   25.277">  2  5  1 -1</clus>
</clustering>
</event>
<event>
 9    1  0.1782981E-005  0.9009391E+02  0.7546771E-02  0.1302670E+00
          2   -1    0    0  502    0  0.00000000000E+00  0.00000000000E+00  0.71882154223E+03  0.71882154223E+03  0.00000000000E+00 0. -1.
         -2   -1    0    0    0  501 -0.00000000000E+00 -0.00000000000E+00 -0.17965912030E+02  0.17965912030E+02  0.00000000000E+00 0.  1.
         23    2    1    2    0    0 -0.24046847975E+02  0.15098118632E+02  0.23438287966E+03  0.25241326319E+03  0.89279992583E+02 0.  0.
         23    2    1    2    0    0 -0.12406487880E+02 -0.26296411336E+01  0.28690902269E+03  0.30072386848E+03  0.89203261251E+02 0.  0.
        -11    1    3    3    0    0  0.17991918070E+02 -0.28127312904E+02  0.83725194769E+02  0.90137467715E+02  0.00000000000E+00 0.  1.
         11    1    3    3    0    0 -0.42038766046E+02  0.43225431536E+02  0.15065768489E+03  0.16227579548E+03  0.00000000000E+00 0. -1.
        -13    1    4    4    0    0  0.32074556952E+02 -0.16372995823E+02  0.18784208140E+03  0.19126290738E+03  0.00000000000E+00 0.  1.
         13    1    4    4    0    0 -0.44481044832E+02  0.13743354689E+02  0.99066941291E+02  0.10946096110E+03  0.00000000000E+00 0. -1.
         21    1    1    2  502  501  0.36453335856E+02 -0.12468477499E+02  0.17956372785E+03  0.18365032259E+03  0.00000000000E+00 0.  1.
<scales pt_clust_5="13000.00000" pt_clust_6="13000.00000" pt_clust_7="13000.00000" pt_clust_8="13000.00000" pt_clust_9="38.52673"></scales>
<clustering>
<clus scale="   38.527">  1  9  2 -1</clus>
<clus scale="   89.203">  7  8 -1 -1</clus>
<clus scale="   89.280">  5  6 -1 -1</clus>
<clus scale="   90.018">  1  7  2 -1</clus>
<clus scale="   38.527">  1  5  2 -1</clus>
</clustering>
</event>
<event>
 9    1  0.1782981E-005  0.9299684E+02  0.7546771E-02  0.1295757E+00
         -1   -1    0    0    0  501 -0.00000000000E+00  0.00000000000E+00  0.62611766145E+02  0.62611766145E+02  0.00000000000E+00 0.  1.
          1   -1    0    0  502    0  0.00000000000E+00 -0.00000000000E+00 -0.21300169039E+03  0.21300169039E+03  0.00000000000E+00 0. -1.
         23    2    1    2    0    0  0.13554830808E+02  0.18110181216E+02 -0.12935807262E+02  0.94792145336E+02  0.91140021977E+02 0.  0.
         23    2    1    2    0    0  0.10688839400E+02 -0.15769919771E+02 -0.10739647778E+03  0.14213418099E+03  0.91132762004E+02 0.  0.
        -13    1    3    3    0    0  0.10934875385E+02  0.55411089161E+02 -0.65553424407E+01  0.56858885112E+02  0.00000000000E+00 0.  1.
         13    1    3    3    0    0  0.26199554225E+01 -0.37300907945E+02 -0.63804648211E+01  0.37933260224E+02  0.00000000000E+00 0. -1.
        -13    1    4    4    0    0  0.45127139667E+02  0.10480160474E+02 -0.36160156080E+02  0.58769459636E+02  0.00000000000E+00 0.  1.
         13    1    4    4    0    0 -0.34438300267E+02 -0.26250080246E+02 -0.71236321696E+02  0.83364721357E+02  0.00000000000E+00 0. -1.
         21    1    1    2  502  501 -0.24243670208E+02 -0.23402614450E+01 -0.30057639205E+02  0.38687130203E+02  0.00000000000E+00 0. -1.
<scales pt_clust_5="13000.00000" pt_clust_6="13000.00000" pt_clust_7="13000.00000" pt_clust_8="13000.00000" pt_clust_9="24.35636"></scales>
<clustering>
<clus scale="   24.356">  2  9  1 -1</clus>
<clus scale="   91.133">  7  8 -1 -1</clus>
<clus scale="   91.140">  5  6 -1 -1</clus>
<clus scale="   92.990">  2  7  1 -1</clus>
<clus scale="   24.356">  2  5  1 -1</clus>
</clustering>
</event>
<event>
 9    1  0.1782981E-005  0.9825309E+02  0.7546771E-02  0.1284328E+00
         -2   -1    0    0    0  501 -0.00000000000E+00  0.00000000000E+00  0.65350582713E+03  0.65350582713E+03  0.00000000000E+00 0.  1.
          2   -1    0    0  502    0  0.00000000000E+00 -0.00000000000E+00 -0.22598165772E+02  0.22598165772E+02  0.00000000000E+00 0. -1.
         23    2    1    2    0    0  0.32442842351E+02  0.18468255378E+02  0.42965793344E+03  0.44121071026E+03  0.93098531685E+02 0.  0.
         23    2    1    2    0    0 -0.74834657934E+01 -0.95724421665E+01  0.15234456837E+03  0.17927115933E+03  0.93710443112E+02 0.  0.
        -11    1    4    4    0    0 -0.27519790816E+02  0.29292096031E+02  0.32463211508E+02  0.51664551463E+02  0.00000000000E+00 0. -1.
         11    1    4    4    0    0  0.20036325022E+02 -0.38864538198E+02  0.11988135686E+03  0.12760660787E+03  0.00000000000E+00 0.  1.
        -11    1    3    3    0    0 -0.23923654725E+02  0.33317297355E+02  0.20877879990E+03  0.21276976017E+03  0.00000000000E+00 0. -1.
         11    1    3    3    0    0  0.56366497076E+02 -0.14849041977E+02  0.22087913355E+03  0.22844095009E+03  0.00000000000E+00 0.  1.
         21    1    1    2  502  501 -0.24959376558E+02 -0.88958132110E+01  0.48905159553E+02  0.55622123312E+02  0.00000000000E+00 0. -1.
<scales pt_clust_5="13000.00000" pt_clust_6="13000.00000" pt_clust_7="13000.00000" pt_clust_8="13000.00000" pt_clust_9="26.49728"></scales>
<clustering>
<clus scale="   26.497">  2  9  1 -1</clus>
<clus scale="   93.099">  7  8 -1 -1</clus>
<clus scale="   93.710">  5  6 -1 -1</clus>
<clus scale="   97.670">  1  7  2 -1</clus>
<clus scale="   26.497">  2  5  1 -1</clus>
</clustering>
</event>
<event>
 9    1  0.1782981E-005  0.9392756E+02  0.7546771E-02  0.1293964E+00
          2   -1    0    0  502    0  0.00000000000E+00  0.00000000000E+00  0.80718755212E+03  0.80718755212E+03  0.00000000000E+00 0. -1.
         -2   -1    0    0    0  501 -0.00000000000E+00 -0.00000000000E+00 -0.17949230756E+02  0.17949230756E+02  0.00000000000E+00 0.  1.
         23    2    1    2    0    0  0.10879094573E+02 -0.15459345773E+02  0.18422296883E+03  0.20644668794E+03  0.91240268773E+02 0.  0.
         23    2    1    2    0    0  0.13616193944E+02  0.27147105800E+02  0.38350642075E+03  0.39552461877E+03  0.91870469708E+02 0.  0.
        -11    1    4    4    0    0  0.95628854347E+01  0.60612805148E+02  0.21035795271E+03  0.21912514505E+03  0.00000000000E+00 0. -1.
         11    1    4    4    0    0  0.40533085090E+01 -0.33465699348E+02  0.17314846804E+03  0.17639947372E+03  0.00000000000E+00 0.  1.
        -13    1    3    3    0    0  0.31080893112E+02 -0.33164760517E+02  0.42588249173E+02  0.62287095168E+02  0.00000000000E+00 0.  1.
         13    1    3    3    0    0 -0.20201798538E+02  0.17705414745E+02  0.14163471966E+03  0.14415959278E+03  0.00000000000E+00 0. -1.
         21    1    1    2  502  501 -0.24495288517E+02 -0.11687760027E+02  0.22150893177E+03  0.22316547616E+03  0.00000000000E+00 0.  1.
<scales pt_clust_5="13000.00000" pt_clust_6="13000.00000" pt_clust_7="13000.00000" pt_clust_8="13000.00000" pt_clust_9="27.14080"></scales>
<clustering>
<clus scale="   27.141">  1  9  2 -1</clus>
<clus scale="   91.240">  7  8 -1 -1</clus>
<clus scale="   91.870">  5  6 -1 -1</clus>
<clus scale="   93.311">  2  7  1 -1</clus>
<clus scale="   27.141">  1  5  2 -1</clus>
</clustering>
</event>
<event>
 9    1  0.1782981E-005  0.2166456E+03  0.7546771E-02  0.1136841E+00
          1   -1    0    0  502    0  0.00000000000E+00  0.00000000000E+00  0.17108975087E+03  0.17108975087E+03  0.00000000000E+00 0. -1.
         -1   -1    0    0    0  501 -0.00000000000E+00 -0.00000000000E+00 -0.35860493357E+03  0.35860493357E+03  0.00000000000E+00 0.  1.
         23    2    1    2    0    0 -0.16242055691E+03 -0.11410504594E+03 -0.15146020172E+03  0.26385257734E+03  0.85308798191E+02 0.  0.
         23    2    1    2    0    0  0.18260352093E+03  0.75042789522E+02 -0.17193407529E+02  0.21799891671E+03  0.90842987132E+02 0.  0.
        -11    1    4    4    0    0  0.13155926804E+03  0.60812050822E+02  0.28874966688E+02  0.14778264524E+03  0.00000000000E+00 0. -1.
         11    1    4    4    0    0  0.51044252889E+02  0.14230738700E+02 -0.46068374217E+02  0.70216271476E+02  0.00000000000E+00 0.  1.
        -13    1    3    3    0    0 -0.10214073321E+03 -0.79148390553E+02 -0.14446048561E+03  0.19381957850E+03  0.00000000000E+00 0.  1.
         13    1    3    3    0    0 -0.60279823700E+02 -0.34956655388E+02 -0.69997161134E+01  0.70032998842E+02  0.00000000000E+00 0. -1.
         21    1    1    2  502  501 -0.20182964022E+02  0.39062256419E+02 -0.18861573450E+02  0.47843190386E+02  0.00000000000E+00 0. -1.
<scales pt_clust_5="13000.00000" pt_clust_6="13000.00000" pt_clust_7="13000.00000" pt_clust_8="13000.00000" pt_clust_9="43.96831"></scales>
<clustering>
<clus scale="   43.968">  2  9  1 -1</clus>
<clus scale="   85.309">  7  8 -1 -1</clus>
<clus scale="   90.843">  5  6 -1 -1</clus>
<clus scale="  214.384">  2  7  1 -1</clus>
<clus scale="  216.646">  1  5  2 -1</clus>
</clustering>
</event>
<event>
 9    1  0.1782981E-005  0.1215205E+03  0.7546771E-02  0.1245114E+00
          1   -1    0    0  502    0  0.00000000000E+00  0.00000000000E+00  0.64167984963E+03  0.64167984963E+03  0.00000000000E+00 0. -1.
         -1   -1    0    0    0  501 -0.00000000000E+00 -0.00000000000E+00 -0.49818149840E+02  0.49818149840E+02  0.00000000000E+00 0.  1.
         23    2    1    2    0    0  0.50016089799E+02 -0.36457629584E+02  0.11111659297E+03  0.16424323586E+03  0.10391426898E+03 0.  0.
         23    2    1    2    0    0 -0.43283243895E+01  0.80084722332E+02  0.16318711022E+03  0.20347431897E+03  0.91320689852E+02 0.  0.
        -11    1    4    4    0    0 -0.36439156043E+02  0.34150359573E+02  0.12775231144E+03  0.13716673150E+03  0.00000000000E+00 0.  1.
         11    1    4    4    0    0  0.32110831654E+02  0.45934362759E+02  0.35434798784E+02  0.66307587472E+02  0.00000000000E+00 0. -1.
        -11    1    3    3    0    0 -0.28809040779E+02 -0.12393802815E+02  0.82425740973E+01  0.32426951854E+02  0.00000000000E+00 0. -1.
         11    1    3    3    0    0  0.78825130577E+02 -0.24063826769E+02  0.10287401888E+03  0.13181628401E+03  0.00000000000E+00 0.  1.
         21    1    1    2  502  501 -0.45687765409E+02 -0.43627092748E+02  0.31755799659E+03  0.32378044463E+03  0.00000000000E+00 0. -1.
<scales pt_clust_5="13000.00000" pt_clust_6="13000.00000" pt_clust_7="13000.00000" pt_clust_8="13000.00000" pt_clust_9="63.17195"></scales>
<clustering>
<clus scale="   63.172">  1  9  2 -1</clus>
<clus scale="   91.321">  5  6 -1 -1</clus>
<clus scale="  103.914">  7  8 -1 -1</clus>
<clus scale="  110.944">  1  5  2 -1</clus>
<clus scale="   63.172">  1  5  2 -1</clus>
</clustering>
</event>
<event>
 9    1  0.1782981E-005  0.1164016E+03  0.7546771E-02  0.1254554E+00
          1   -1    0    0  502    0  0.00000000000E+00  0.00000000000E+00  0.33457293669E+03  0.33457293669E+03  0.00000000000E+00 0. -1.
         -1   -1    0    0    0  501 -0.00000000000E+00 -0.00000000000E+00 -0.97927885555E+02  0.97927885555E+02  0.00000000000E+00 0.  1.
         23    2    1    2    0    0 -0.47436713160E+02 -0.84502960478E+00 -0.40197819143E+02  0.12179740967E+03  0.10472720997E+03 0.  0.
         23    2    1    2    0    0  0.70634536264E+02  0.10365722485E+02  0.23015654453E+03  0.25770911475E+03  0.91352432481E+02 0.  0.
        -11    1    3    3    0    0  0.29312239849E+02 -0.69161369927E+01  0.77505606196E+01  0.31098417094E+02  0.00000000000E+00 0. -1.
         11    1    3    3    0    0 -0.76748953008E+02  0.60711073879E+01 -0.47948379762E+02  0.90698992578E+02  0.00000000000E+00 0.  1.
        -13    1    4    4    0    0 -0.19870463870E+02  0.90804499373E+01  0.74619964065E+02  0.77752356508E+02  0.00000000000E+00 0.  1.
         13    1    4    4    0    0  0.90505000134E+02  0.12852725480E+01  0.15553658047E+03  0.17995675825E+03  0.00000000000E+00 0. -1.
         21    1    1    2  502  501 -0.23197823104E+02 -0.95206928805E+01  0.46686325744E+02  0.52994297817E+02  0.00000000000E+00 0.  1.
<scales pt_clust_5="13000.00000" pt_clust_6="13000.00000" pt_clust_7="13000.00000" pt_clust_8="13000.00000" pt_clust_9="25.07554"></scales>
<clustering>
<clus scale="   25.076">  1  9  2 -1</clus>
<clus scale="   91.352">  7  8 -1 -1</clus>
<clus scale="  104.531">  1  7  2 -1</clus>
<clus scale="  104.727">  5  6 -1 -1</clus>
<clus scale="   25.076">  1  5  2 -1</clus>
</clustering>
</event>
<event>
 9    1  0.1782981E-005  0.9909306E+02  0.7546771E-02  0.1283755E+00
         -3   -1    0    0    0  501 -0.00000000000E+00  0.00000000000E+00  0.37244100172E+03  0.37244100172E+03  0.00000000000E+00 0.  1.
          3   -1    0    0  502    0  0.00000000000E+00 -0.00000000000E+00 -0.21815517386E+03  0.21815517386E+03  0.00000000000E+00 0. -1.
         23    2    1    2    0    0  0.11322003356E+02  0.32849306852E+02  0.32868286331E+03  0.34226492914E+03  0.88913398123E+02 0.  0.
         23    2    1    2    0    0 -0.35640485645E+02 -0.57406063544E+02 -0.60245524175E+02  0.12906268223E+03  0.91988871142E+02 0.  0.
        -11    1    4    4    0    0 -0.18012411637E+02 -0.20098581511E+02  0.23446868093E+02  0.35751301726E+02  0.00000000000E+00 0.  1.
         11    1    4    4    0    0 -0.17628074009E+02 -0.37307482033E+02 -0.83692392268E+02  0.93311380509E+02  0.00000000000E+00 0. -1.
        -11    1    3    3    0    0  0.49151164853E+02  0.22974784302E+02  0.15454304268E+03  0.16379020044E+03  0.00000000000E+00 0.  1.
         11    1    3    3    0    0 -0.37829161496E+02  0.98745225497E+01  0.17413982063E+03  0.17847472870E+03  0.00000000000E+00 0. -1.
         21    1    1    2  502  501  0.24318482289E+02  0.24556756692E+02 -0.11415151128E+03  0.11926856420E+03  0.00000000000E+00 0. -1.
<scales pt_clust_5="13000.00000" pt_clust_6="13000.00000" pt_clust_7="13000.00000" pt_clust_8="13000.00000" pt_clust_9="34.56042"></scales>
<clustering>
<clus scale="   34.560">  2  9  1 -1</clus>
<clus scale="   88.913">  7  8 -1 -1</clus>
<clus scale="   91.989">  5  6 -1 -1</clus>
<clus scale="   96.245">  1  7  2 -1</clus>
<clus scale="   34.560">  2  5  1 -1</clus>
</clustering>
</event>
<event>
 9    1  0.1782981E-005  0.1039194E+03  0.7546771E-02  0.1272865E+00
          1   -1    0    0  502    0  0.00000000000E+00  0.00000000000E+00  0.13319244027E+03  0.13319244027E+03  0.00000000000E+00 0. -1.
         -1   -1    0    0    0  501 -0.00000000000E+00 -0.00000000000E+00 -0.16185209913E+03  0.16185209913E+03  0.00000000000E+00 0.  1.
         23    2    1    2    0    0 -0.46709373534E+02  0.40575296067E+02 -0.71684454470E+02  0.13077197417E+03  0.90191618177E+02 0.  0.
         23    2    1    2    0    0 -0.73165354269E+01 -0.40356238174E+02  0.96799787821E+01  0.10078458499E+03  0.91551476950E+02 0.  0.
        -13    1    3    3    0    0  0.25976160405E+02  0.87862735925E+01 -0.31757125278E+02  0.41958008996E+02  0.00000000000E+00 0. -1.
         13    1    3    3    0    0 -0.72685533939E+02  0.31789022475E+02 -0.39927329193E+02  0.88813965176E+02  0.00000000000E+00 0.  1.
        -13    1    4    4    0    0 -0.11251711444E+01 -0.66499085182E+02  0.23543188941E+02  0.70552647616E+02  0.00000000000E+00 0. -1.
         13    1    4    4    0    0 -0.61913642826E+01  0.26142847008E+02 -0.13863210159E+02  0.30231937372E+02  0.00000000000E+00 0.  1.
         21    1    1    2  502  501  0.54025908961E+02 -0.21905789327E+00  0.33344816834E+02  0.63487980241E+02  0.00000000000E+00 0.  1.
<scales pt_clust_5="13000.00000" pt_clust_6="13000.00000" pt_clust_7="13000.00000" pt_clust_8="13000.00000" pt_clust_9="54.02635"></scales>
<clustering>
<clus scale="   54.026">  1  9  2 -1</clus>
<clus scale="   90.192">  5  6 -1 -1</clus>
<clus scale="   91.551">  7  8 -1 -1</clus>
<clus scale="  102.723">  2  5  1 -1</clus>
<clus scale="   54.026">  1  5  2 -1</clus>
</clustering>
</event>
<event>
 9    1  0.1782981E-005  0.1020276E+03  0.7546771E-02  0.1277083E+00
         -2   -1    0    0    0  501 -0.00000000000E+00  0.00000000000E+00  0.82235378907E+02  0.82235378907E+02  0.00000000000E+00 0.  1.
          2   -1    0    0  502    0  0.00000000000E+00 -0.00000000000E+00 -0.24595245837E+03  0.24595245837E+03  0.00000000000E+00 0. -1.
         23    2    1    2    0    0 -0.40887991980E+02  0.55291330550E+02 -0.84272800535E+01  0.11153977464E+03  0.87413632555E+02 0.  0.
         23    2    1    2    0    0 -0.19007915076E+01 -0.45676861732E+02 -0.13491517226E+03  0.16829060784E+03  0.89608237762E+02 0.  0.
        -13    1    4    4    0    0  0.12838328731E+02  0.21428031896E+02 -0.12545617594E+02  0.27953099227E+02  0.00000000000E+00 0.  1.
         13    1    4    4    0    0 -0.14739120239E+02 -0.67104893629E+02 -0.12236955466E+03  0.14033750861E+03  0.00000000000E+00 0. -1.
        -13    1    3    3    0    0 -0.15861344556E+02  0.76200953083E+02 -0.11918214520E+02  0.78741420734E+02  0.00000000000E+00 0.  1.
         13    1    3    3    0    0 -0.25026647423E+02 -0.20909622533E+02  0.34909344662E+01  0.32798353910E+02  0.00000000000E+00 0. -1.
         21    1    1    2  502  501  0.42788783487E+02 -0.96144688175E+01 -0.20374627156E+02  0.48357454800E+02  0.00000000000E+00 0.  1.
<scales pt_clust_5="13000.00000" pt_clust_6="13000.00000" pt_clust_7="13000.00000" pt_clust_8="13000.00000" pt_clust_9="43.85565"></scales>
<clustering>
<clus scale="   43.856">  1  9  2 -1</clus>
<clus scale="   87.414">  7  8 -1 -1</clus>
<clus scale="   89.608">  5  6 -1 -1</clus>
<clus scale="  100.106">  1  7  2 -1</clus>
<clus scale="  102.028">  2  5  1 -1</clus>
</clustering>
</event>
<event>
 9    1  0.1782981E-005  0.1095739E+03  0.7546771E-02  0.1261397E+00
          2   -1    0    0  502    0  0.00000000000E+00  0.00000000000E+00  0.14322118596E+03  0.14322118596E+03  0.00000000000E+00 0.  1.
         -2   -1    0    0    0  501 -0.00000000000E+00 -0.00000000000E+00 -0.12234822622E+03  0.12234822622E+03  0.00000000000E+00 0. -1.
         23    2    1    2    0    0  0.64252270465E+02 -0.28014972748E+02 -0.41549781851E+02  0.12135670422E+03  0.89932598813E+02 0.  0.
         23    2    1    2    0    0 -0.37916218132E+02  0.31318486950E+02  0.42559104033E+02  0.11106055939E+03  0.90026014533E+02 0.  0.
        -13    1    4    4    0    0  0.43008698892E+01 -0.25186483452E+02 -0.49393708200E+01  0.26024100649E+02  0.00000000000E+00 0. -1.
         13    1    4    4    0    0 -0.42217088022E+02  0.56504970402E+02  0.47498474853E+02  0.85036458737E+02  0.00000000000E+00 0.  1.
        -13    1    3    3    0    0 -0.12876811526E+02  0.19346677229E+02 -0.51640281386E+01  0.23807002782E+02  0.00000000000E+00 0.  1.
         13    1    3    3    0    0  0.77129081991E+02 -0.47361649977E+02 -0.36385753713E+02  0.97549701438E+02  0.00000000000E+00 0. -1.
         21    1    1    2  502  501 -0.26336052333E+02 -0.33035142016E+01  0.19863637557E+02  0.33152148582E+02  0.00000000000E+00 0.  1.
<scales pt_clust_5="13000.00000" pt_clust_6="13000.00000" pt_clust_7="13000.00000" pt_clust_8="13000.00000" pt_clust_9="26.54244"></scales>
<clustering>
<clus scale="   26.542">  1  9  2 -1</clus>
<clus scale="   89.933">  7  8 -1 -1</clus>
<clus scale="   90.026">  5  6 -1 -1</clus>
<clus scale="  109.497">  2  7  1 -1</clus>
<clus scale="   26.542">  1  5  2 -1</clus>
</clustering>
</event>
<event>
 9    1  0.1782981E-005  0.9356834E+02  0.7546771E-02  0.1295232E+00
         -1   -1    0    0    0  501 -0.00000000000E+00  0.00000000000E+00  0.19800117742E+03  0.19800117742E+03  0.00000000000E+00 0.  1.
          1   -1    0    0  502    0  0.00000000000E+00 -0.00000000000E+00 -0.70249425229E+02  0.70249425229E+02  0.00000000000E+00 0. -1.
         23    2    1    2    0    0 -0.48907498994E+01 -0.10864585472E+02  0.11440450229E+03  0.14784018204E+03  0.92878257029E+02 0.  0.
         23    2    1    2    0    0  0.19368910069E+02 -0.37658256854E+01  0.24844175853E+02  0.96834047722E+02  0.91489144733E+02 0.  0.
        -13    1    3    3    0    0  0.34803989224E+02 -0.33184381133E+02  0.59901428875E+02  0.76816026963E+02  0.00000000000E+00 0.  1.
         13    1    3    3    0    0 -0.39694739124E+02  0.22319795661E+02  0.54503073412E+02  0.71024155073E+02  0.00000000000E+00 0. -1.
        -13    1    4    4    0    0  0.32826351463E+02  0.21069848724E+02  0.46896340067E+02  0.60998152327E+02  0.00000000000E+00 0.  1.
         13    1    4    4    0    0 -0.13457441394E+02 -0.24835674409E+02 -0.22052164214E+02  0.35835895395E+02  0.00000000000E+00 0. -1.
         21    1    1    2  502  501 -0.14478160170E+02  0.14630411157E+02 -0.11496925947E+02  0.23576372892E+02  0.00000000000E+00 0. -1.
<scales pt_clust_5="13000.00000" pt_clust_6="13000.00000" pt_clust_7="13000.00000" pt_clust_8="13000.00000" pt_clust_9="20.58315"></scales>
<clustering>
<clus scale="   20.583">  2  9  1 -1</clus>
<clus scale="   91.489">  7  8 -1 -1</clus>
<clus scale="   92.190">  2  7  1 -1</clus>
<clus scale="   92.878">  5  6 -1 -1</clus>
<clus scale="   20.583">  2  5  1 -1</clus>
</clustering>
</event>
<event>
 9    1  0.1782981E-005  0.9770895E+02  0.7546771E-02  0.1288447E+00
          2   -1    0    0  502    0  0.00000000000E+00  0.00000000000E+00  0.87726559057E+03  0.87726559057E+03  0.00000000000E+00 0. -1.
         -2   -1    0    0    0  501 -0.00000000000E+00 -0.00000000000E+00 -0.76273624477E+02  0.76273624477E+02  0.00000000000E+00 0.  1.
         23    2    1    2    0    0  0.34687235130E+01 -0.20799522061E+01 -0.34442157320E+02  0.98173013041E+02  0.91843998414E+02 0.  0.
         23    2    1    2    0    0  0.59570333251E+02  0.21505498775E+02  0.57897139502E+03  0.59055607080E+03  0.97660050276E+02 0.  0.
        -11    1    3    3    0    0  0.26922553402E+02  0.35886469740E+02 -0.28506578916E+02  0.53153434824E+02  0.00000000000E+00 0. -1.
         11    1    3    3    0    0 -0.23453829889E+02 -0.37966421946E+02 -0.59355784047E+01  0.45019578217E+02  0.00000000000E+00 0.  1.
        -13    1    4    4    0    0 -0.24089202133E+02  0.19334910027E+02  0.11385339501E+03  0.11796916530E+03  0.00000000000E+00 0. -1.
         13    1    4    4    0    0  0.83659535384E+02  0.21705887478E+01  0.46511800001E+03  0.47258690550E+03  0.00000000000E+00 0.  1.
         21    1    1    2  502  501 -0.63039056764E+02 -0.19425546569E+02  0.25646272839E+03  0.26481013121E+03  0.00000000000E+00 0.  1.
<scales pt_clust_5="13000.00000" pt_clust_6="13000.00000" pt_clust_7="13000.00000" pt_clust_8="13000.00000" pt_clust_9="65.96419"></scales>
<clustering>
<clus scale="   65.964">  1  9  2 -1</clus>
<clus scale="   91.844">  5  6 -1 -1</clus>
<clus scale="   91.896">  2  5  1 -1</clus>
<clus scale="   97.660">  7  8 -1 -1</clus>
<clus scale="   65.964">  1  5  2 -1</clus>
</clustering>
</event>
<event>
 9    1  0.1782981E-005  0.1213467E+03  0.7546771E-02  0.1240987E+00
         -2   -1    0    0    0  501 -0.00000000000E+00  0.00000000000E+00  0.41291735814E+02  0.41291735814E+02  0.00000000000E+00 0.  1.
          2   -1    0    0  502    0  0.00000000000E+00 -0.00000000000E+00 -0.71920310499E+03  0.71920310499E+03  0.00000000000E+00 0. -1.
         23    2    1    2    0    0  0.67300024418E+02 -0.40163636447E+02 -0.14186214912E+03  0.18617088008E+03  0.91609586063E+02 0.  0.
         23    2    1    2    0    0 -0.96042408749E+02 -0.22892011221E+02 -0.31506024977E+03  0.34272459900E+03  0.91918449299E+02 0.  0.
        -11    1    4    4    0    0 -0.34542423986E+02 -0.41891382262E+02 -0.65912120260E+02  0.85395986790E+02  0.00000000000E+00 0.  1.
         11    1    4    4    0    0 -0.61499984762E+02  0.18999371041E+02 -0.24914812951E+03  0.25732861221E+03  0.00000000000E+00 0. -1.
        -13    1    3    3    0    0  0.90477830981E+02 -0.32341066915E+02 -0.11194324752E+03  0.14752448330E+03  0.00000000000E+00 0.  1.
         13    1    3    3    0    0 -0.23177806563E+02 -0.78225695315E+01 -0.29918901605E+02  0.38646396784E+02  0.00000000000E+00 0. -1.
         21    1    1    2  502  501  0.28742384331E+02  0.63055647668E+02 -0.22098897028E+03  0.23159936171E+03  0.00000000000E+00 0. -1.
<scales pt_clust_5="13000.00000" pt_clust_6="13000.00000" pt_clust_7="13000.00000" pt_clust_8="13000.00000" pt_clust_9="69.29747"></scales>
<clustering>
<clus scale="   69.297">  2  9  1 -1</clus>
<clus scale="   91.610">  7  8 -1 -1</clus>
<clus scale="   91.918">  5  6 -1 -1</clus>
<clus scale="  121.113">  1  7  2 -1</clus>
<clus scale="   69.297">  2  5  1 -1</clus>
</clustering>
</event>
<event>
 9    1  0.1782981E-005  0.2047942E+03  0.7546771E-02  0.1145891E+00
          4   -1    0    0  502    0  0.00000000000E+00  0.00000000000E+00  0.11158008249E+03  0.11158008249E+03  0.00000000000E+00 0. -1.
         -4   -1    0    0    0  501 -0.00000000000E+00 -0.00000000000E+00 -0.55607074472E+03  0.55607074472E+03  0.00000000000E+00 0.  1.
         23    2    1    2    0    0  0.16470395216E+03 -0.86589851160E+02 -0.36350621328E+03  0.41826316186E+03  0.90455023602E+02 0.  0.
         23    2    1    2    0    0 -0.16987676220E+03  0.50891795433E+02 -0.66661481645E+02  0.21057714437E+03  0.91928730103E+02 0.  0.
        -11    1    4    4    0    0 -0.33231277442E+01  0.31882039178E+02 -0.88576580548E+01  0.33256062701E+02  0.00000000000E+00 0.  1.
         11    1    4    4    0    0 -0.16655363445E+03  0.19009756255E+02 -0.57803823590E+02  0.17732108167E+03  0.00000000000E+00 0. -1.
        -11    1    3    3    0    0  0.16537007962E+03 -0.53510614913E+02 -0.30589985117E+03  0.35183144841E+03  0.00000000000E+00 0.  1.
         11    1    3    3    0    0 -0.66612746608E+00 -0.33079236246E+02 -0.57606362118E+02  0.66431713457E+02  0.00000000000E+00 0. -1.
         21    1    1    2  502  501  0.51728100372E+01  0.35698055727E+02 -0.14322967302E+02  0.38810520979E+02  0.00000000000E+00 0. -1.
<scales pt_clust_5="13000.00000" pt_clust_6="13000.00000" pt_clust_7="13000.00000" pt_clust_8="13000.00000" pt_clust_9="36.07089"></scales>
<clustering>
<clus scale="   36.071">  1  9  2 -1</clus>
<clus scale="   90.455">  7  8 -1 -1</clus>
<clus scale="   91.929">  5  6 -1 -1</clus>
<clus scale="  204.137">  2  7  1 -1</clus>
<clus scale="   36.071">  1  5  2 -1</clus>
</clustering>
</event>
<event>
 9    1  0.1782981E-005  0.1689790E+03  0.7546771E-02  0.1178946E+00
          2   -1    0    0  502    0  0.00000000000E+00  0.00000000000E+00  0.82427547981E+03  0.82427547981E+03  0.00000000000E+00 0. -1.
         -2   -1    0    0    0  501 -0.00000000000E+00 -0.00000000000E+00 -0.64819592034E+02  0.64819592034E+02  0.00000000000E+00 0.  1.
         23    2    1    2    0    0  0.65865340277E+02  0.12106618740E+03  0.94132547956E+02  0.19028393612E+03  0.91388046153E+02 0.  0.
         23    2    1    2    0    0 -0.93000695928E+02 -0.13091556582E+03  0.56465316542E+03  0.59408376683E+03  0.91182838165E+02 0.  0.
        -13    1    3    3    0    0  0.46265701863E+02  0.83224202126E+02  0.97083561466E+01  0.95713296712E+02  0.00000000000E+00 0. -1.
         13    1    3    3    0    0  0.19599638414E+02  0.37841985271E+02  0.84424191809E+02  0.94570639407E+02  0.00000000000E+00 0.  1.
        -13    1    4    4    0    0 -0.10283236680E+03 -0.10068179968E+03  0.51805745883E+03  0.53767541425E+03  0.00000000000E+00 0. -1.
         13    1    4    4    0    0  0.98316708748E+01 -0.30233766142E+02  0.46595706593E+02  0.56408352575E+02  0.00000000000E+00 0.  1.
         21    1    1    2  502  501  0.27135355650E+02  0.98493784249E+01  0.10067017440E+03  0.10472736889E+03  0.00000000000E+00 0. -1.
<scales pt_clust_5="13000.00000" pt_clust_6="13000.00000" pt_clust_7="13000.00000" pt_clust_8="13000.00000" pt_clust_9="28.86759"></scales>
<clustering>
<clus scale="   28.868">  1  9  2 -1</clus>
<clus scale="   91.183">  7  8 -1 -1</clus>
<clus scale="   91.388">  5  6 -1 -1</clus>
<clus scale="  168.868">  1  7  2 -1</clus>
<clus scale="   28.868">  1  5  2 -1</clus>
</clustering>
</event>
<event>
 9    1  0.1782981E-005  0.1280689E+03  0.7546771E-02  0.1230862E+00
         -1   -1    0    0    0  501 -0.00000000000E+00  0.00000000000E+00  0.19783062223E+03  0.19783062223E+03  0.00000000000E+00 0.  1.
          1   -1    0    0  502    0  0.00000000000E+00 -0.00000000000E+00 -0.12167158058E+03  0.12167158058E+03  0.00000000000E+00 0. -1.
         23    2    1    2    0    0  0.72294895829E+02  0.37686108015E+02  0.56094933354E+02  0.13366232463E+03  0.89845315839E+02 0.  0.
         23    2    1    2    0    0 -0.73951123742E+02 -0.58600482752E+02 -0.26973736323E+02  0.13433538335E+03  0.91736729211E+02 0.  0.
        -11    1    3    3    0    0  0.30238993908E+02 -0.27023554986E+01 -0.21062536265E+02  0.36950370928E+02  0.00000000000E+00 0. -1.
         11    1    3    3    0    0  0.42055901921E+02  0.40388463514E+02  0.77157469619E+02  0.96711953705E+02  0.00000000000E+00 0.  1.
        -13    1    4    4    0    0  0.48594152978E+01 -0.46424735337E+02 -0.28284380397E+02  0.54579081548E+02  0.00000000000E+00 0.  1.
         13    1    4    4    0    0 -0.78810539040E+02 -0.12175747415E+02  0.13106440737E+01  0.79756301800E+02  0.00000000000E+00 0. -1.
         21    1    1    2  502  501  0.16562279136E+01  0.20914374737E+02  0.47037844622E+02  0.51504494835E+02  0.00000000000E+00 0.  1.
<scales pt_clust_5="13000.00000" pt_clust_6="13000.00000" pt_clust_7="13000.00000" pt_clust_8="13000.00000" pt_clust_9="20.97985"></scales>
<clustering>
<clus scale="   20.980">  1  9  2 -1</clus>
<clus scale="   89.845">  5  6 -1 -1</clus>
<clus scale="   91.737">  7  8 -1 -1</clus>
<clus scale="  126.721">  1  5  2 -1</clus>
<clus scale="  128.069">  2  5  1 -1</clus>
</clustering>
</event>
<event>
 9    1  0.1782981E-005  0.4645380E+03  0.7546771E-02  0.1023489E+00
         -2   -1    0    0    0  501 -0.00000000000E+00  0.00000000000E+00  0.18178757952E+03  0.18178757952E+03  0.00000000000E+00 0.  1.
          2   -1    0    0  502    0  0.00000000000E+00 -0.00000000000E+00 -0.23311247684E+04  0.23311247684E+04  0.00000000000E+00 0. -1.
         23    2    1    2    0    0 -0.47794536297E+03 -0.11009386858E+03 -0.29956398523E+03  0.58195664185E+03  0.91556113206E+02 0.  0.
         23    2    1    2    0    0  0.32099015038E+03  0.18123466379E+03 -0.12027522940E+04  0.12613797141E+04  0.92655395943E+02 0.  0.
        -11    1    3    3    0    0 -0.38678121981E+03 -0.10989753355E+03 -0.20782542210E+03  0.45262411110E+03  0.00000000000E+00 0.  1.
         11    1    3    3    0    0 -0.91164143156E+02 -0.19633502878E+00 -0.91738563126E+02  0.12933253075E+03  0.00000000000E+00 0. -1.
        -13    1    4    4    0    0  0.84998539147E+02  0.15207279475E+02 -0.19783888342E+03  0.21586161493E+03  0.00000000000E+00 0.  1.
         13    1    4    4    0    0  0.23599161123E+03  0.16602738432E+03 -0.10049134106E+04  0.10455180992E+04  0.00000000000E+00 0. -1.
         21    1    1    2  502  501  0.15695521259E+03 -0.71140795211E+02 -0.64702090964E+03  0.66957599196E+03  0.00000000000E+00 0.  1.
<scales pt_clust_5="13000.00000" pt_clust_6="13000.00000" pt_clust_7="13000.00000" pt_clust_8="13000.00000" pt_clust_9="172.32513"></scales>
<clustering>
<clus scale="   91.556">  5  6 -1 -1</clus>
<clus scale="   92.655">  7  8 -1 -1</clus>
<clus scale="  172.325">  2  9  1 -1</clus>
<clus scale="  464.320">  1  5  2 -1</clus>
<clus scale="  172.325">  2  5  1 -1</clus>
</clustering>
</event>
<event>
 9    1  0.1782981E-005  0.1816121E+03  0.7546771E-02  0.1166388E+00
          1   -1    0    0  502    0  0.00000000000E+00  0.00000000000E+00  0.54703265812E+03  0.54703265812E+03  0.00000000000E+00 0. -1.
         -1   -1    0    0    0  501 -0.00000000000E+00 -0.00000000000E+00 -0.16800381598E+03  0.16800381598E+03  0.00000000000E+00 0.  1.
         23    2    1    2    0    0 -0.89663517853E+02  0.12758937747E+03 -0.83891180831E+02  0.19904153086E+03  0.90891171795E+02 0.  0.
         23    2    1    2    0    0  0.11680826864E+03 -0.12240129933E+03  0.44075534802E+03  0.48056859053E+03  0.89747666785E+02 0.  0.
        -11    1    3    3    0    0 -0.10203166076E+03  0.83858974374E+02 -0.45938984362E+02  0.13983267738E+03  0.00000000000E+00 0.  1.
         11    1    3    3    0    0  0.12368142903E+02  0.43730403098E+02 -0.37952196468E+02  0.59208853483E+02  0.00000000000E+00 0. -1.
        -13    1    4    4    0    0  0.96410854386E+02 -0.37922968532E+02  0.26410285139E+03  0.28369617639E+03  0.00000000000E+00 0. -1.
         13    1    4    4    0    0  0.20397414253E+02 -0.84478330803E+02  0.17665249664E+03  0.19687241415E+03  0.00000000000E+00 0.  1.
         21    1    1    2  502  501 -0.27144750787E+02 -0.51880781377E+01  0.22164674947E+02  0.35426352699E+02  0.00000000000E+00 0. -1.
<scales pt_clust_5="13000.00000" pt_clust_6="13000.00000" pt_clust_7="13000.00000" pt_clust_8="13000.00000" pt_clust_9="27.63609"></scales>
<clustering>
<clus scale="   27.636">  1  9  2 -1</clus>
<clus scale="   89.748">  7  8 -1 -1</clus>
<clus scale="   90.891">  5  6 -1 -1</clus>
<clus scale="  181.043">  1  7  2 -1</clus>
<clus scale="   27.636">  1  5  2 -1</clus>
</clustering>
</event>
<event>
 9    1  0.1782981E-005  0.1419798E+03  0.7546771E-02  0.1223703E+00
         -1   -1    0    0    0  501 -0.00000000000E+00  0.00000000000E+00  0.11447996381E+03  0.11447996381E+03  0.00000000000E+00 0.  1.
          1   -1    0    0  502    0  0.00000000000E+00 -0.00000000000E+00 -0.35128815653E+03  0.35128815653E+03  0.00000000000E+00 0. -1.
         23    2    1    2    0    0  0.41924961719E+02 -0.36901439180E+02 -0.72696449984E+00  0.10789558240E+03  0.92312023024E+02 0.  0.
         23    2    1    2    0    0 -0.55778408639E+02 -0.77402530033E+02 -0.57126313701E+02  0.14507644588E+03  0.93173906790E+02 0.  0.
        -11    1    4    4    0    0 -0.28997985206E+02  0.85537175209E+01  0.11002393048E+02  0.32172999272E+02  0.00000000000E+00 0.  1.
         11    1    4    4    0    0 -0.26780423433E+02 -0.85956247554E+02 -0.68128706749E+02  0.11290344661E+03  0.00000000000E+00 0. -1.
        -13    1    3    3    0    0  0.58650309602E+02 -0.56955833004E+02 -0.15447283095E+01  0.81769260209E+02  0.00000000000E+00 0. -1.
         13    1    3    3    0    0 -0.16725347883E+02  0.20054393824E+02  0.81776380965E+00  0.26126322188E+02  0.00000000000E+00 0.  1.
         21    1    1    2  502  501  0.13853446920E+02  0.11430396921E+03 -0.17895491451E+03  0.21279609206E+03  0.00000000000E+00 0.  1.
<scales pt_clust_5="13000.00000" pt_clust_6="13000.00000" pt_clust_7="13000.00000" pt_clust_8="13000.00000" pt_clust_9="107.13025"></scales>
<clustering>
<clus scale="   92.312">  7  8 -1 -1</clus>
<clus scale="   93.174">  5  6 -1 -1</clus>
<clus scale="  107.893">  1  7  2 -1</clus>
<clus scale="  107.130">  2  9  1 -1</clus>
<clus scale="  107.130">  2  5  1 -1</clus>
</clustering>
</event>
<event>
 9    1  0.1782981E-005  0.1059553E+03  0.7546771E-02  0.1268619E+00
          1   -1    0    0  502    0  0.00000000000E+00  0.00000000000E+00  0.86515834874E+02  0.86515834874E+02  0.00000000000E+00 0. -1.
         -1   -1    0    0    0  501 -0.00000000000E+00 -0.00000000000E+00 -0.18260277695E+03  0.18260277695E+03  0.00000000000E+00 0.  1.
         23    2    1    2    0    0  0.16050300774E+02 -0.42864770095E+02 -0.86468876130E+02  0.13454203584E+03  0.92356332743E+02 0.  0.
         23    2    1    2    0    0 -0.31980923928E+02  0.56821202692E+02 -0.13127571967E+02  0.11310838096E+03  0.91486305684E+02 0.  0.
        -11    1    4    4    0    0 -0.90249179730E+01  0.58179970231E+02 -0.44789829071E+02  0.73976258818E+02  0.00000000000E+00 0.  1.
         11    1    4    4    0    0 -0.22956005955E+02 -0.13587675397E+01  0.31662257104E+02  0.39132122145E+02  0.00000000000E+00 0. -1.
        -13    1    3    3    0    0 -0.30374343430E+02 -0.46749327564E+02 -0.39041699662E+02  0.68061403740E+02  0.00000000000E+00 0.  1.
         13    1    3    3    0    0  0.46424644205E+02  0.38845574690E+01 -0.47427176468E+02  0.66480632097E+02  0.00000000000E+00 0. -1.
         21    1    1    2  502  501  0.15930623153E+02 -0.13956432596E+02  0.35095060249E+01  0.21468195020E+02  0.00000000000E+00 0.  1.
<scales pt_clust_5="13000.00000" pt_clust_6="13000.00000" pt_clust_7="13000.00000" pt_clust_8="13000.00000" pt_clust_9="21.17939"></scales>
<clustering>
<clus scale="   21.179">  1  9  2 -1</clus>
<clus scale="   91.486">  5  6 -1 -1</clus>
<clus scale="   92.356">  7  8 -1 -1</clus>
<clus scale="  105.198">  1  5  2 -1</clus>
<clus scale="   21.179">  1  5  2 -1</clus>
</clustering>
</event>
<event>
 9    1  0.1782981E-005  0.9558058E+02  0.7546771E-02  0.1295711E+00
          1   -1    0    0  502    0  0.00000000000E+00  0.00000000000E+00  0.24631980727E+03  0.24631980727E+03  0.00000000000E+00 0. -1.
         -1   -1    0    0    0  501 -0.00000000000E+00 -0.00000000000E+00 -0.65901360163E+02  0.65901360163E+02  0.00000000000E+00 0.  1.
         23    2    1    2    0    0 -0.81710523358E+01  0.30801298495E+02 -0.98929088085E+01  0.87548847631E+02  0.80940996976E+02 0.  0.
         23    2    1    2    0    0 -0.61087328723E+01 -0.12763371310E+02  0.17206828816E+03  0.19531097440E+03  0.91316267258E+02 0.  0.
        -11    1    3    3    0    0 -0.12104403784E+02 -0.22401470085E+02 -0.21061464244E+02  0.33044329756E+02  0.00000000000E+00 0.  1.
         11    1    3    3    0    0  0.39333514483E+01  0.53202768581E+02  0.11168555435E+02  0.54504517875E+02  0.00000000000E+00 0. -1.
        -13    1    4    4    0    0 -0.47838941325E+02 -0.21203931881E+01  0.73218284231E+02  0.87487013437E+02  0.00000000000E+00 0. -1.
         13    1    4    4    0    0  0.41730208453E+02 -0.10642978122E+02  0.98850003932E+02  0.10782396096E+03  0.00000000000E+00 0.  1.
         21    1    1    2  502  501  0.14279785208E+02 -0.18037927186E+02  0.18243067756E+02  0.29361345403E+02  0.00000000000E+00 0. -1.
<scales pt_clust_5="13000.00000" pt_clust_6="13000.00000" pt_clust_7="13000.00000" pt_clust_8="13000.00000" pt_clust_9="23.00607"></scales>
<clustering>
<clus scale="   23.006">  1  9  2 -1</clus>
<clus scale="   80.941">  5  6 -1 -1</clus>
<clus scale="   85.723">  2  5  1 -1</clus>
<clus scale="   91.316">  7  8 -1 -1</clus>
<clus scale="   23.006">  1  5  2 -1</clus>
</clustering>
</event>
<event>
 9    1  0.1782981E-005  0.2308492E+03  0.7546771E-02  0.1126914E+00
         -1   -1    0    0    0  501 -0.00000000000E+00  0.00000000000E+00  0.59752794355E+03  0.59752794355E+03  0.00000000000E+00 0.  1.
          1   -1    0    0  502    0  0.00000000000E+00 -0.00000000000E+00 -0.48913490440E+03  0.48913490440E+03  0.00000000000E+00 0. -1.
         23    2    1    2    0    0  0.31296488393E+02  0.23666858505E+03  0.48633872728E+03  0.54922798108E+03  0.90191619434E+02 0.  0.
         23    2    1    2    0    0  0.60691674399E+02 -0.10855667737E+03 -0.41780373965E+02  0.16611074776E+03  0.10187811017E+03 0.  0.
        -13    1    3    3    0    0  0.27071312712E+02  0.19362140499E+03  0.45671952448E+03  0.49680461802E+03  0.00000000000E+00 0.  1.
         13    1    3    3    0    0  0.42251756813E+01  0.43047180053E+02  0.29619202795E+02  0.52423363058E+02  0.00000000000E+00 0. -1.
        -13    1    4    4    0    0  0.48564893981E+02 -0.34349060269E+02  0.25962454737E+02  0.64903435384E+02  0.00000000000E+00 0.  1.
         13    1    4    4    0    0  0.12126780418E+02 -0.74207617096E+02 -0.67742828702E+02  0.10120731238E+03  0.00000000000E+00 0. -1.
         21    1    1    2  502  501 -0.91988162792E+02 -0.12811190768E+03 -0.33616531417E+03  0.37132411911E+03  0.00000000000E+00 0. -1.
<scales pt_clust_5="13000.00000" pt_clust_6="13000.00000" pt_clust_7="13000.00000" pt_clust_8="13000.00000" pt_clust_9="157.71646"></scales>
<clustering>
<clus scale="   90.192">  5  6 -1 -1</clus>
<clus scale="  101.878">  7  8 -1 -1</clus>
<clus scale="  157.716">  2  9  1 -1</clus>
<clus scale="  225.935">  1  5  2 -1</clus>
<clus scale="  157.716">  2  5  1 -1</clus>
</clustering>
</event>
<event>
 9    1  0.1782981E-005  0.9941496E+02  0.7546771E-02  0.1287592E+00
          2   -1    0    0  502    0  0.00000000000E+00  0.00000000000E+00  0.10673360695E+03  0.10673360695E+03  0.00000000000E+00 0. -1.
         -2   -1    0    0    0  501 -0.00000000000E+00 -0.00000000000E+00 -0.14748291096E+03  0.14748291096E+03  0.00000000000E+00 0.  1.
         23    2    1    2    0    0  0.33488121878E+01  0.27249634523E+02 -0.84783539234E+02  0.13181230217E+03  0.97120941896E+02 0.  0.
         23    2    1    2    0    0 -0.42151104899E+01 -0.19085387101E+01  0.44568744016E+02  0.97042683659E+02  0.86078451613E+02 0.  0.
        -11    1    3    3    0    0  0.12725473471E+02  0.52137794498E+02 -0.12943251107E+02  0.55207019838E+02  0.00000000000E+00 0. -1.
         11    1    3    3    0    0 -0.93766612832E+01 -0.24888159975E+02 -0.71840288126E+02  0.76605282336E+02  0.00000000000E+00 0.  1.
        -11    1    4    4    0    0  0.15872525965E+02 -0.38222490396E+02  0.35584757876E+02  0.54581781262E+02  0.00000000000E+00 0.  1.
         11    1    4    4    0    0 -0.20087636455E+02  0.36313951686E+02  0.89839861397E+01  0.42460902397E+02  0.00000000000E+00 0. -1.
         21    1    1    2  502  501  0.86629830216E+00 -0.25341095813E+02 -0.53450878962E+00  0.25361532079E+02  0.00000000000E+00 0. -1.
<scales pt_clust_5="13000.00000" pt_clust_6="13000.00000" pt_clust_7="13000.00000" pt_clust_8="13000.00000" pt_clust_9="25.35590"></scales>
<clustering>
<clus scale="   25.356">  1  9  2 -1</clus>
<clus scale="   86.078">  7  8 -1 -1</clus>
<clus scale="   88.659">  1  7  2 -1</clus>
<clus scale="   97.121">  5  6 -1 -1</clus>
<clus scale="   25.356">  1  5  2 -1</clus>
</clustering>
</event>
<event>
 9    1  0.1782981E-005  0.1066762E+03  0.7546771E-02  0.1266893E+00
         -1   -1    0    0    0  501 -0.00000000000E+00  0.00000000000E+00  0.66059045713E+02  0.66059045713E+02  0.00000000000E+00 0.  1.
          1   -1    0    0  502    0  0.00000000000E+00 -0.00000000000E+00 -0.22942587489E+03  0.22942587489E+03  0.00000000000E+00 0. -1.
         23    2    1    2    0    0  0.40554023745E+02 -0.27939074517E+02 -0.34855374640E+02  0.10985997418E+03  0.91810108699E+02 0.  0.
         23    2    1    2    0    0 -0.61187910519E+02  0.21491084095E+02 -0.10731345784E+03  0.15534807525E+03  0.91711608651E+02 0.  0.
        -11    1    3    3    0    0 -0.12524616841E+02  0.16694095012E+02 -0.34719813054E+02  0.40509557561E+02  0.00000000000E+00 0. -1.
         11    1    3    3    0    0  0.53078640586E+02 -0.44633169529E+02 -0.13556158644E+00  0.69350416621E+02  0.00000000000E+00 0.  1.
        -13    1    4    4    0    0 -0.84272988312E+02  0.13522454451E+02 -0.68270265623E+02  0.10929603150E+03  0.00000000000E+00 0. -1.
         13    1    4    4    0    0  0.23085077793E+02  0.79686296439E+01 -0.39043192217E+02  0.46052043750E+02  0.00000000000E+00 0.  1.
         21    1    1    2  502  501  0.20633886774E+02  0.64479904218E+01 -0.21197996695E+02  0.30276871169E+02  0.00000000000E+00 0.  1.
<scales pt_clust_5="13000.00000" pt_clust_6="13000.00000" pt_clust_7="13000.00000" pt_clust_8="13000.00000" pt_clust_9="21.61791"></scales>
<clustering>
<clus scale="   21.618">  2  9  1 -1</clus>
<clus scale="   91.712">  7  8 -1 -1</clus>
<clus scale="   91.810">  5  6 -1 -1</clus>
<clus scale="  106.591">  2  7  1 -1</clus>
<clus scale="   21.618">  2  5  1 -1</clus>
</clustering>
</event>
<event>
 9    1  0.1782981E-005  0.1609476E+03  0.7546771E-02  0.1187729E+00
          1   -1    0    0  502    0  0.00000000000E+00  0.00000000000E+00  0.41735011106E+02  0.41735011106E+02  0.00000000000E+00 0. -1.
         -1   -1    0    0    0  501 -0.00000000000E+00 -0.00000000000E+00 -0.10045201804E+04  0.10045201804E+04  0.00000000000E+00 0.  1.
         23    2    1    2    0    0  0.13335780321E+03 -0.27096059666E+02 -0.64832362438E+03  0.66899872280E+03  0.93366316410E+02 0.  0.
         23    2    1    2    0    0 -0.10900847693E+03  0.62896876510E+02 -0.28442023717E+03  0.32455857172E+03  0.92760606129E+02 0.  0.
        -11    1    3    3    0    0  0.81979900871E+02  0.20559209043E+02 -0.46735670452E+03  0.47493754798E+03  0.00000000000E+00 0.  1.
         11    1    3    3    0    0  0.51377902343E+02 -0.47655268709E+02 -0.18096691986E+03  0.19406117481E+03  0.00000000000E+00 0. -1.
        -13    1    4    4    0    0  0.14263628257E+01  0.26516429005E+02 -0.12171215596E+03  0.12457529621E+03  0.00000000000E+00 0.  1.
         13    1    4    4    0    0 -0.11043483976E+03  0.36380447505E+02 -0.16270808121E+03  0.19998327551E+03  0.00000000000E+00 0. -1.
         21    1    1    2  502  501 -0.24349326284E+02 -0.35800816844E+02 -0.30041307760E+02  0.52697897008E+02  0.00000000000E+00 0. -1.
<scales pt_clust_5="13000.00000" pt_clust_6="13000.00000" pt_clust_7="13000.00000" pt_clust_8="13000.00000" pt_clust_9="43.29651"></scales>
<clustering>
<clus scale="   43.297">  1  9  2 -1</clus>
<clus scale="   92.761">  7  8 -1 -1</clus>
<clus scale="   93.366">  5  6 -1 -1</clus>
<clus scale="  160.597">  1  7  2 -1</clus>
<clus scale="   43.297">  1  5  2 -1</clus>
</clustering>
</event>
<event>
 9    1  0.1782981E-005  0.1264479E+03  0.7546771E-02  0.1238979E+00
          2   -1    0    0  502    0  0.00000000000E+00  0.00000000000E+00  0.24756214616E+03  0.24756214616E+03  0.00000000000E+00 0. -1.
         -2   -1    0    0    0  501 -0.00000000000E+00 -0.00000000000E+00 -0.11578173922E+03  0.11578173922E+03  0.00000000000E+00 0.  1.
         23    2    1    2    0    0  0.39508807710E+02 -0.98707247429E+01  0.81306308610E+01  0.10190658338E+03  0.93061632721E+02 0.  0.
         23    2    1    2    0    0 -0.11084842457E+03 -0.67893193337E+01  0.77028771527E+02  0.17460173286E+03  0.11053897678E+03 0.  0.
        -11    1    3    3    0    0  0.68798009334E+00 -0.46893612022E+02 -0.34526996686E+01  0.47025581337E+02  0.00000000000E+00 0. -1.
         11    1    3    3    0    0  0.38820827616E+02  0.37022887279E+02  0.11583330530E+02  0.54881002045E+02  0.00000000000E+00 0.  1.
        -11    1    4    4    0    0 -0.54274078673E+02 -0.58444534019E+02  0.33673869364E+02  0.86575797140E+02  0.00000000000E+00 0.  1.
         11    1    4    4    0    0 -0.56574345898E+02  0.51655214685E+02  0.43354902164E+02  0.88025935721E+02  0.00000000000E+00 0. -1.
         21    1    1    2  502  501  0.71339616861E+02  0.16660044077E+02  0.46621004545E+02  0.86835569137E+02  0.00000000000E+00 0.  1.
<scales pt_clust_5="13000.00000" pt_clust_6="13000.00000" pt_clust_7="13000.00000" pt_clust_8="13000.00000" pt_clust_9="73.25912"></scales>
<clustering>
<clus scale="   73.259">  1  9  2 -1</clus>
<clus scale="   93.062">  5  6 -1 -1</clus>
<clus scale="  110.539">  7  8 -1 -1</clus>
<clus scale="  111.493">  2  5  1 -1</clus>
<clus scale="   73.259">  1  5  2 -1</clus>
</clustering>
</event>
<event>
 9    1  0.1782981E-005  0.1552839E+03  0.7546771E-02  0.1196853E+00
          3   -1    0    0  502    0  0.00000000000E+00  0.00000000000E+00  0.35183180507E+03  0.35183180507E+03  0.00000000000E+00 0. -1.
         -3   -1    0    0    0  501 -0.00000000000E+00 -0.00000000000E+00 -0.12037599896E+03  0.12037599896E+03  0.00000000000E+00 0.  1.
         23    2    1    2    0    0  0.23153759661E+02  0.10768118554E+03  0.23498767839E+02  0.14449336564E+03  0.90525169537E+02 0.  0.
         23    2    1    2    0    0 -0.10063974044E+03 -0.98303033296E+02  0.14548963143E+03  0.22774342322E+03  0.10444132446E+03 0.  0.
        -11    1    4    4    0    0  0.72205902921E+01 -0.29232435542E+02  0.76613123565E+02  0.82317937986E+02  0.00000000000E+00 0. -1.
         11    1    4    4    0    0 -0.10786033073E+03 -0.69070597754E+02  0.68876507865E+02  0.14542548523E+03  0.00000000000E+00 0.  1.
        -13    1    3    3    0    0 -0.25038051616E+02  0.77130397073E+01 -0.10797532448E+02  0.28336932036E+02  0.00000000000E+00 0.  1.
         13    1    3    3    0    0  0.48191811277E+02  0.99968145832E+02  0.34296300287E+02  0.11615643361E+03  0.00000000000E+00 0. -1.
         21    1    1    2  502  501  0.77485980776E+02 -0.93781522435E+01  0.62467406838E+02  0.99971015166E+02  0.00000000000E+00 0. -1.
<scales pt_clust_5="13000.00000" pt_clust_6="13000.00000" pt_clust_7="13000.00000" pt_clust_8="13000.00000" pt_clust_9="78.05144"></scales>
<clustering>
<clus scale="   78.051">  1  9  2 -1</clus>
<clus scale="   90.525">  7  8 -1 -1</clus>
<clus scale="  104.441">  5  6 -1 -1</clus>
<clus scale="  146.287">  2  7  1 -1</clus>
<clus scale="   78.051">  1  5  2 -1</clus>
</clustering>
</event>
<event>
 9    1  0.1782981E-005  0.9855205E+02  0.7546771E-02  0.1288501E+00
          1   -1    0    0  502    0  0.00000000000E+00  0.00000000000E+00  0.23288817808E+03  0.23288817808E+03  0.00000000000E+00 0. -1.
         -1   -1    0    0    0  501 -0.00000000000E+00 -0.00000000000E+00 -0.16350575543E+03  0.16350575543E+03  0.00000000000E+00 0.  1.
         23    2    1    2    0    0  0.17838670045E+02 -0.30005915834E+02 -0.12738465522E+03  0.15542081856E+03  0.81915855145E+02 0.  0.
         23    2    1    2    0    0 -0.46726009470E+02  0.30024095661E+02  0.17307489635E+03  0.20361273252E+03  0.91752159742E+02 0.  0.
        -11    1    4    4    0    0 -0.18360335520E+02 -0.20781242093E+02  0.12528024745E+03  0.12831251827E+03  0.00000000000E+00 0. -1.
         11    1    4    4    0    0 -0.28365673950E+02  0.50805337754E+02  0.47794648895E+02  0.75300214249E+02  0.00000000000E+00 0.  1.
        -11    1    3    3    0    0 -0.32278446862E+02 -0.38684724037E+01 -0.45346753525E+02  0.55795978939E+02  0.00000000000E+00 0. -1.
         11    1    3    3    0    0  0.50117116906E+02 -0.26137443430E+02 -0.82037901691E+02  0.99624839623E+02  0.00000000000E+00 0.  1.
         21    1    1    2  502  501  0.28887339425E+02 -0.18179826776E-01  0.23692181524E+02  0.37360382425E+02  0.00000000000E+00 0.  1.
<scales pt_clust_5="13000.00000" pt_clust_6="13000.00000" pt_clust_7="13000.00000" pt_clust_8="13000.00000" pt_clust_9="28.88735"></scales>
<clustering>
<clus scale="   28.887">  1  9  2 -1</clus>
<clus scale="   81.916">  7  8 -1 -1</clus>
<clus scale="   89.466">  2  7  1 -1</clus>
<clus scale="   91.752">  5  6 -1 -1</clus>
<clus scale="   28.887">  1  5  2 -1</clus>
</clustering>
</event>
<event>
 9    1  0.1782981E-005  0.1169913E+03  0.7546771E-02  0.1249033E+00
         -1   -1    0    0    0  501 -0.00000000000E+00  0.00000000000E+00  0.78483918483E+03  0.78483918483E+03  0.00000000000E+00 0.  1.
          1   -1    0    0  502    0  0.00000000000E+00 -0.00000000000E+00 -0.26953423050E+03  0.26953423050E+03  0.00000000000E+00 0. -1.
         23    2    1    2    0    0 -0.46614760311E+02 -0.59903639691E+01  0.32869942355E+03  0.34416397082E+03  0.90535669376E+02 0.  0.
         23    2    1    2    0    0  0.10640029815E+03 -0.28504619266E+02  0.43191872358E+03  0.45537071715E+03  0.93140589928E+02 0.  0.
        -13    1    3    3    0    0 -0.34865623207E+02  0.37231751267E+02  0.23276700434E+03  0.23829035501E+03  0.00000000000E+00 0. -1.
         13    1    3    3    0    0 -0.11749137103E+02 -0.43222115236E+02  0.95932419215E+02  0.10587361581E+03  0.00000000000E+00 0.  1.
        -13    1    4    4    0    0  0.64586695270E+02  0.19056673919E+02  0.31782018102E+03  0.32487576931E+03  0.00000000000E+00 0.  1.
         13    1    4    4    0    0  0.41813602878E+02 -0.47561293184E+02  0.11409854256E+03  0.13049494783E+03  0.00000000000E+00 0. -1.
         21    1    1    2  502  501 -0.59785537838E+02  0.34494983235E+02 -0.24531319280E+03  0.25483872737E+03  0.00000000000E+00 0. -1.
<scales pt_clust_5="13000.00000" pt_clust_6="13000.00000" pt_clust_7="13000.00000" pt_clust_8="13000.00000" pt_clust_9="69.02329"></scales>
<clustering>
<clus scale="   69.023">  2  9  1 -1</clus>
<clus scale="   90.536">  5  6 -1 -1</clus>
<clus scale="   93.141">  7  8 -1 -1</clus>
<clus scale="  114.928">  1  5  2 -1</clus>
<clus scale="   69.023">  2  5  1 -1</clus>
</clustering>
</event>
<event>
 9    1  0.1782981E-005  0.9434187E+02  0.7546771E-02  0.1298235E+00
         -1   -1    0    0    0  501 -0.00000000000E+00  0.00000000000E+00  0.24051340937E+02  0.24051340937E+02  0.00000000000E+00 0.  1.
          1   -1    0    0  502    0  0.00000000000E+00 -0.00000000000E+00 -0.50647612947E+03  0.50647612947E+03  0.00000000000E+00 0. -1.
         23    2    1    2    0    0  0.36780866298E+02  0.25180974315E+02 -0.15246635057E+03  0.17720472927E+03  0.78540527290E+02 0.  0.
         23    2    1    2    0    0 -0.16353884275E+02 -0.91694881636E+01 -0.18354616132E+03  0.20462780499E+03  0.88497549095E+02 0.  0.
        -13    1    4    4    0    0 -0.14179817343E+02 -0.37797103986E+02 -0.16631388930E+03  0.17114320922E+03  0.00000000000E+00 0. -1.
         13    1    4    4    0    0 -0.21740669319E+01  0.28627615822E+02 -0.17232272022E+02  0.33484595768E+02  0.00000000000E+00 0.  1.
        -13    1    3    3    0    0 -0.76741873605E+01 -0.23266556020E+02 -0.44200643608E+02  0.50536350047E+02  0.00000000000E+00 0. -1.
         13    1    3    3    0    0  0.44455053659E+02  0.48447530336E+02 -0.10826570696E+03  0.12666837922E+03  0.00000000000E+00 0.  1.
         21    1    1    2  502  501 -0.20426982024E+02 -0.16011486152E+02 -0.14641227664E+03  0.14869493615E+03  0.00000000000E+00 0. -1.
<scales pt_clust_5="13000.00000" pt_clust_6="13000.00000" pt_clust_7="13000.00000" pt_clust_8="13000.00000" pt_clust_9="25.95437"></scales>
<clustering>
<clus scale="   25.954">  2  9  1 -1</clus>
<clus scale="   78.541">  7  8 -1 -1</clus>
<clus scale="   85.072">  1  7  2 -1</clus>
<clus scale="   88.498">  5  6 -1 -1</clus>
<clus scale="   25.954">  2  5  1 -1</clus>
</clustering>
</event>
<event>
 9    1  0.1782981E-005  0.1003720E+03  0.7546771E-02  0.1280720E+00
         -1   -1    0    0    0  501 -0.00000000000E+00  0.00000000000E+00  0.70850197774E+02  0.70850197774E+02  0.00000000000E+00 0.  1.
          1   -1    0    0  502    0  0.00000000000E+00 -0.00000000000E+00 -0.44244321217E+03  0.44244321217E+03  0.00000000000E+00 0. -1.
         23    2    1    2    0    0  0.95067046691E+01  0.49622089262E+02 -0.33392393652E+02  0.11128979878E+03  0.93368293234E+02 0.  0.
         23    2    1    2    0    0  0.30092766759E+02 -0.20140452815E+02 -0.50553281039E+02  0.11015043393E+03  0.90919037721E+02 0.  0.
        -11    1    3    3    0    0  0.44099560282E+02  0.24020148100E+02  0.88445440261E+01  0.50989848900E+02  0.00000000000E+00 0.  1.
         11    1    3    3    0    0 -0.34592855612E+02  0.25601941162E+02 -0.42236937678E+02  0.60299949877E+02  0.00000000000E+00 0. -1.
        -13    1    4    4    0    0  0.26671233447E+02 -0.55645333347E+02 -0.37264581659E+02  0.72086107283E+02  0.00000000000E+00 0. -1.
         13    1    4    4    0    0  0.34215333117E+01  0.35504880533E+02 -0.13288699380E+02  0.38064326647E+02  0.00000000000E+00 0.  1.
         21    1    1    2  502  501 -0.39599471428E+02 -0.29481636447E+02 -0.28764733971E+03  0.29185317724E+03  0.00000000000E+00 0. -1.
<scales pt_clust_5="13000.00000" pt_clust_6="13000.00000" pt_clust_7="13000.00000" pt_clust_8="13000.00000" pt_clust_9="49.36887"></scales>
<clustering>
<clus scale="   49.369">  2  9  1 -1</clus>
<clus scale="   90.919">  7  8 -1 -1</clus>
<clus scale="   93.368">  5  6 -1 -1</clus>
<clus scale="   98.098">  2  7  1 -1</clus>
<clus scale="   49.369">  2  5  1 -1</clus>
</clustering>
</event>
<event>
 9    1  0.1782981E-005  0.1629449E+03  0.7546771E-02  0.1187467E+00
          1   -1    0    0  502    0  0.00000000000E+00  0.00000000000E+00  0.12212062002E+04  0.12212062002E+04  0.00000000000E+00 0. -1.
         -1   -1    0    0    0  501 -0.00000000000E+00 -0.00000000000E+00 -0.35303112289E+02  0.35303112289E+02  0.00000000000E+00 0.  1.
         23    2    1    2    0    0 -0.47883910954E+02 -0.15778559873E+03  0.40639703346E+03  0.44554984067E+03  0.78529915455E+02 0.  0.
         23    2    1    2    0    0 -0.16216568012E+02  0.10473039052E+03  0.48233814366E+03  0.50236184751E+03  0.92118994948E+02 0.  0.
        -11    1    4    4    0    0 -0.51517940544E+02  0.37070672440E+02  0.24294753908E+03  0.25110125387E+03  0.00000000000E+00 0.  1.
         11    1    4    4    0    0  0.35301372533E+02  0.67659718081E+02  0.23939060458E+03  0.25126059364E+03  0.00000000000E+00 0. -1.
        -11    1    3    3    0    0 -0.15623010260E+02 -0.80112624873E+02  0.29429737441E+03  0.30540637796E+03  0.00000000000E+00 0.  1.
         11    1    3    3    0    0 -0.32260900695E+02 -0.77672973862E+02  0.11209965905E+03  0.14014346272E+03  0.00000000000E+00 0. -1.
         21    1    1    2  502  501  0.64100478966E+02  0.53055208213E+02  0.29716791081E+03  0.30859762432E+03  0.00000000000E+00 0. -1.
<scales pt_clust_5="13000.00000" pt_clust_6="13000.00000" pt_clust_7="13000.00000" pt_clust_8="13000.00000" pt_clust_9="83.20893"></scales>
<clustering>
<clus scale="   78.530">  7  8 -1 -1</clus>
<clus scale="   83.209">  1  9  2 -1</clus>
<clus scale="   92.119">  5  6 -1 -1</clus>
<clus scale="  155.667">  2  7  1 -1</clus>
<clus scale="   83.209">  1  5  2 -1</clus>
</clustering>
</event>
<event>
 9    1  0.1782981E-005  0.2087024E+03  0.7546771E-02  0.1155895E+00
         -2   -1    0    0    0  501 -0.00000000000E+00  0.00000000000E+00  0.15181143562E+03  0.15181143562E+03  0.00000000000E+00 0.  1.
          2   -1    0    0  502    0  0.00000000000E+00 -0.00000000000E+00 -0.16544107434E+04  0.16544107434E+04  0.00000000000E+00 0. -1.
         23    2    1    2    0    0  0.35938963715E+02  0.11580435874E+03  0.77693897783E+02  0.17091293103E+03  0.92046888193E+02 0.  0.
         23    2    1    2    0    0  0.10153829682E+03  0.71461979546E+02 -0.33422223503E+03  0.36776771328E+03  0.90176206939E+02 0.  0.
        -13    1    3    3    0    0  0.17197967217E+02  0.12842239713E+03  0.67992465532E+02  0.14632517736E+03  0.00000000000E+00 0.  1.
         13    1    3    3    0    0  0.18740996498E+02 -0.12618038396E+02  0.97014322510E+01  0.24587753668E+02  0.00000000000E+00 0. -1.
        -13    1    4    4    0    0  0.88544423725E+02  0.16464984668E+02 -0.25514250780E+03  0.27057145078E+03  0.00000000000E+00 0. -1.
         13    1    4    4    0    0  0.12993873091E+02  0.54996994878E+02 -0.79079727235E+02  0.97196262496E+02  0.00000000000E+00 0.  1.
         21    1    1    2  502  501 -0.13747726053E+03 -0.18726633828E+03 -0.12460709706E+04  0.12675415347E+04  0.00000000000E+00 0. -1.
<scales pt_clust_5="13000.00000" pt_clust_6="13000.00000" pt_clust_7="13000.00000" pt_clust_8="13000.00000" pt_clust_9="188.21511"></scales>
<clustering>
<clus scale="   90.176">  7  8 -1 -1</clus>
<clus scale="   92.047">  5  6 -1 -1</clus>
<clus scale="  152.233">  1  5  2 -1</clus>
<clus scale="  188.215">  2  9  1 -1</clus>
<clus scale="  188.215">  2  5  1 -1</clus>
</clustering>
</event>
<event>
 9    1  0.1782981E-005  0.1371229E+03  0.7546771E-02  0.1219348E+00
          2   -1    0    0  502    0  0.00000000000E+00  0.00000000000E+00  0.38389870235E+03  0.38389870235E+03  0.00000000000E+00 0. -1.
         -2   -1    0    0    0  501 -0.00000000000E+00 -0.00000000000E+00 -0.30203589961E+03  0.30203589961E+03  0.00000000000E+00 0.  1.
         23    2    1    2    0    0 -0.91776045089E+02  0.13666532935E+02 -0.21748471826E+03  0.25645974073E+03  0.99309512974E+02 0.  0.
         23    2    1    2    0    0  0.83257364414E+02  0.47069418683E+02  0.33392721249E+03  0.35906762578E+03  0.90966245067E+02 0.  0.
        -13    1    3    3    0    0 -0.54355495065E+02  0.54063093760E+02 -0.15665752105E+03  0.17441019710E+03  0.00000000000E+00 0.  1.
         13    1    3    3    0    0 -0.37420550024E+02 -0.40396560825E+02 -0.60827197210E+02  0.82049543637E+02  0.00000000000E+00 0. -1.
        -13    1    4    4    0    0  0.13910116501E+02  0.30411810572E+02  0.24314809681E+02  0.41347061965E+02  0.00000000000E+00 0.  1.
         13    1    4    4    0    0  0.69347247914E+02  0.16657608111E+02  0.30961240280E+03  0.31772056382E+03  0.00000000000E+00 0. -1.
         21    1    1    2  502  501  0.85186806746E+01 -0.60735951618E+02 -0.34579691490E+02  0.70407235445E+02  0.00000000000E+00 0.  1.
<scales pt_clust_5="13000.00000" pt_clust_6="13000.00000" pt_clust_7="13000.00000" pt_clust_8="13000.00000" pt_clust_9="61.33045"></scales>
<clustering>
<clus scale="   61.330">  2  9  1 -1</clus>
<clus scale="   90.966">  7  8 -1 -1</clus>
<clus scale="   99.310">  5  6 -1 -1</clus>
<clus scale="  131.207">  1  7  2 -1</clus>
<clus scale="  131.207">  1  5  2 -1</clus>
</clustering>
</event>
<event>
 9    1  0.1782981E-005  0.1034080E+03  0.7546771E-02  0.1274038E+00
         -1   -1    0    0    0  501 -0.00000000000E+00  0.00000000000E+00  0.63409698146E+02  0.63409698146E+02  0.00000000000E+00 0.  1.
          1   -1    0    0  502    0  0.00000000000E+00 -0.00000000000E+00 -0.37098846475E+03  0.37098846475E+03  0.00000000000E+00 0. -1.
         23    2    1    2    0    0 -0.37203156261E+02  0.33539268535E+02 -0.75778101672E+01  0.10295720105E+03  0.89631493748E+02 0.  0.
         23    2    1    2    0    0  0.15802025021E+02 -0.45370850678E+02 -0.16769996538E+03  0.19689897216E+03  0.91311054989E+02 0.  0.
        -11    1    4    4    0    0 -0.16394951725E+02 -0.61634323827E+02 -0.12953797574E+03  0.14438722754E+03  0.00000000000E+00 0. -1.
         11    1    4    4    0    0  0.32196976746E+02  0.16263473149E+02 -0.38161989639E+02  0.52511744626E+02  0.00000000000E+00 0.  1.
        -11    1    3    3    0    0 -0.45361546752E+02  0.59775457012E+02 -0.81193277446E+01  0.75476477579E+02  0.00000000000E+00 0.  1.
         11    1    3    3    0    0  0.81583904915E+01 -0.26236188476E+02  0.54151757739E+00  0.27480723471E+02  0.00000000000E+00 0. -1.
         21    1    1    2  502  501  0.21401131239E+02  0.11831582143E+02 -0.13230099105E+03  0.13454198968E+03  0.00000000000E+00 0. -1.
<scales pt_clust_5="13000.00000" pt_clust_6="13000.00000" pt_clust_7="13000.00000" pt_clust_8="13000.00000" pt_clust_9="24.45393"></scales>
<clustering>
<clus scale="   24.454">  2  9  1 -1</clus>
<clus scale="   89.631">  7  8 -1 -1</clus>
<clus scale="   91.311">  5  6 -1 -1</clus>
<clus scale="  101.928">  1  7  2 -1</clus>
<clus scale="   24.454">  2  5  1 -1</clus>
</clustering>
</event>
<event>
 9    1  0.1782981E-005  0.2074626E+03  0.7546771E-02  0.1143803E+00
         -1   -1    0    0    0  501 -0.00000000000E+00  0.00000000000E+00  0.48057453156E+03  0.48057453156E+03  0.00000000000E+00 0.  1.
          1   -1    0    0  502    0  0.00000000000E+00 -0.00000000000E+00 -0.11896054114E+03  0.11896054114E+03  0.00000000000E+00 0. -1.
         23    2    1    2    0    0 -0.19157619194E+03 -0.33912466948E+02  0.28343711065E+03  0.35572533849E+03  0.91391618982E+02 0.  0.
         23    2    1    2    0    0  0.16183068353E+03  0.56491906424E+02  0.59703838374E+02  0.20214584557E+03  0.88982520438E+02 0.  0.
        -11    1    3    3    0    0 -0.42403896976E+02  0.28356661897E+02  0.91763928616E+02  0.10498956780E+03  0.00000000000E+00 0. -1.
         11    1    3    3    0    0 -0.14917229497E+03 -0.62269128845E+02  0.19167318203E+03  0.25073577069E+03  0.00000000000E+00 0.  1.
        -13    1    4    4    0    0  0.12432522097E+03  0.71324928052E+02  0.18556030451E+02  0.14452796337E+03  0.00000000000E+00 0. -1.
         13    1    4    4    0    0  0.37505462558E+02 -0.14833021628E+02  0.41147807923E+02  0.57617882200E+02  0.00000000000E+00 0.  1.
         21    1    1    2  502  501  0.29745508417E+02 -0.22579439476E+02  0.18473041395E+02  0.41663888638E+02  0.00000000000E+00 0.  1.
<scales pt_clust_5="13000.00000" pt_clust_6="13000.00000" pt_clust_7="13000.00000" pt_clust_8="13000.00000" pt_clust_9="37.34470"></scales>
<clustering>
<clus scale="   37.345">  2  9  1 -1</clus>
<clus scale="   88.983">  7  8 -1 -1</clus>
<clus scale="   91.392">  5  6 -1 -1</clus>
<clus scale="  206.413">  2  7  1 -1</clus>
<clus scale="   37.345">  2  5  1 -1</clus>
</clustering>
</event>
<event>
 9    1  0.1782981E-005  0.1035996E+03  0.7546771E-02  0.1272972E+00
         -1   -1    0    0    0  501 -0.00000000000E+00  0.00000000000E+00  0.87024844162E+02  0.87024844162E+02  0.00000000000E+00 0.  1.
          1   -1    0    0  502    0  0.00000000000E+00 -0.00000000000E+00 -0.20366077416E+03  0.20366077416E+03  0.00000000000E+00 0. -1.
         23    2    1    2    0    0 -0.11705424066E+02  0.32097665267E+02 -0.18374169044E+02  0.10024648431E+03  0.92436304879E+02 0.  0.
         23    2    1    2    0    0  0.31359636693E+01 -0.63692458996E+02 -0.32188570442E+02  0.11670085938E+03  0.92284467333E+02 0.  0.
        -11    1    4    4    0    0 -0.21218279491E+02 -0.13009829183E+01 -0.43836675257E+02  0.48719216318E+02  0.00000000000E+00 0.  1.
         11    1    4    4    0    0  0.24354243160E+02 -0.62391476077E+02  0.11648104815E+02  0.67981643057E+02  0.00000000000E+00 0. -1.
        -13    1    3    3    0    0  0.23617166343E+02  0.19946341370E+02 -0.44842480656E+02  0.54465357352E+02  0.00000000000E+00 0. -1.
         13    1    3    3    0    0 -0.35322590409E+02  0.12151323897E+02  0.26468311612E+02  0.45781126955E+02  0.00000000000E+00 0.  1.
         21    1    1    2  502  501  0.85694603970E+01  0.31594793729E+02 -0.66073190510E+02  0.73738274637E+02  0.00000000000E+00 0.  1.
<scales pt_clust_5="13000.00000" pt_clust_6="13000.00000" pt_clust_7="13000.00000" pt_clust_8="13000.00000" pt_clust_9="32.73632"></scales>
<clustering>
<clus scale="   32.736">  2  9  1 -1</clus>
<clus scale="   92.284">  5  6 -1 -1</clus>
<clus scale="   92.436">  7  8 -1 -1</clus>
<clus scale="  103.464">  2  5  1 -1</clus>
<clus scale="   32.736">  2  5  1 -1</clus>
</clustering>
</event>
<event>
 9    1  0.1782981E-005  0.2363132E+03  0.7546771E-02  0.1122280E+00
          1   -1    0    0  502    0  0.00000000000E+00  0.00000000000E+00  0.47228985304E+03  0.47228985304E+03  0.00000000000E+00 0. -1.
         -1   -1    0    0    0  501 -0.00000000000E+00 -0.00000000000E+00 -0.19597143072E+03  0.19597143072E+03  0.00000000000E+00 0.  1.
         23    2    1    2    0    0  0.22632895585E+03 -0.69975015288E+02 -0.35180070190E+02  0.25603686598E+03  0.90531433104E+02 0.  0.
         23    2    1    2    0    0 -0.20714148059E+03  0.51105211627E+02  0.30739756886E+03  0.38500225270E+03  0.90631857567E+02 0.  0.
        -11    1    3    3    0    0  0.17337735956E+03 -0.80814965187E+02 -0.54068550835E+02  0.19878172852E+03  0.00000000000E+00 0.  1.
         11    1    3    3    0    0  0.52951596296E+02  0.10839949899E+02  0.18888480645E+02  0.57255137457E+02  0.00000000000E+00 0. -1.
        -13    1    4    4    0    0 -0.92318323351E+02 -0.22660091675E+02  0.11712652657E+03  0.15084686211E+03  0.00000000000E+00 0. -1.
         13    1    4    4    0    0 -0.11482315724E+03  0.73765303302E+02  0.19027104228E+03  0.23415539059E+03  0.00000000000E+00 0.  1.
         21    1    1    2  502  501 -0.19187475261E+02  0.18869803661E+02  0.41009236535E+01  0.27222165085E+02  0.00000000000E+00 0.  1.
<scales pt_clust_5="13000.00000" pt_clust_6="13000.00000" pt_clust_7="13000.00000" pt_clust_8="13000.00000" pt_clust_9="26.91150"></scales>
<clustering>
<clus scale="   26.911">  2  9  1 -1</clus>
<clus scale="   90.531">  5  6 -1 -1</clus>
<clus scale="   90.632">  7  8 -1 -1</clus>
<clus scale="  236.275">  2  5  1 -1</clus>
<clus scale="  236.313">  1  5  2 -1</clus>
</clustering>
</event>
<event>
 9    1  0.1782981E-005  0.9270667E+02  0.7546771E-02  0.1299191E+00
         -2   -1    0    0    0  501 -0.00000000000E+00  0.00000000000E+00  0.20298932534E+02  0.20298932534E+02  0.00000000000E+00 0.  1.
          2   -1    0    0  502    0  0.00000000000E+00 -0.00000000000E+00 -0.59673295213E+03  0.59673295213E+03  0.00000000000E+00 0. -1.
         23    2    1    2    0    0 -0.34827248375E+02 -0.28627234691E+02 -0.19765165783E+03  0.22131859330E+03  0.88787871378E+02 0.  0.
         23    2    1    2    0    0  0.12740302289E+02  0.12154288043E+02 -0.30910864303E+03  0.32078920818E+03  0.83949513788E+02 0.  0.
        -11    1    3    3    0    0 -0.39210591491E+02 -0.51440733092E+02 -0.87887286416E+02  0.10912284188E+03  0.00000000000E+00 0.  1.
         11    1    3    3    0    0  0.43833431156E+01  0.22813498401E+02 -0.10976437141E+03  0.11219575143E+03  0.00000000000E+00 0. -1.
        -13    1    4    4    0    0  0.48378618597E+02  0.12848640554E+02 -0.18712552205E+03  0.19370477357E+03  0.00000000000E+00 0. -1.
         13    1    4    4    0    0 -0.35638316308E+02 -0.69435251118E+00 -0.12198312098E+03  0.12708443460E+03  0.00000000000E+00 0.  1.
         21    1    1    2  502  501  0.22086946086E+02  0.16472946648E+02 -0.69673718737E+02  0.74924083187E+02  0.00000000000E+00 0. -1.
<scales pt_clust_5="13000.00000" pt_clust_6="13000.00000" pt_clust_7="13000.00000" pt_clust_8="13000.00000" pt_clust_9="27.55342"></scales>
<clustering>
<clus scale="   27.553">  1  9  2 -1</clus>
<clus scale="   83.950">  7  8 -1 -1</clus>
<clus scale="   88.084">  2  7  1 -1</clus>
<clus scale="   88.788">  5  6 -1 -1</clus>
<clus scale="   88.084">  2  5  1 -1</clus>
</clustering>
</event>
<event>
 9    1  0.1782981E-005  0.1456801E+03  0.7546771E-02  0.1206244E+00
          2   -1    0    0  502    0  0.00000000000E+00  0.00000000000E+00  0.56969106135E+03  0.56969106135E+03  0.00000000000E+00 0. -1.
         -2   -1    0    0    0  501 -0.00000000000E+00 -0.00000000000E+00 -0.82156212185E+02  0.82156212185E+02  0.00000000000E+00 0.  1.
         23    2    1    2    0    0  0.81227810208E+02 -0.64765612913E+02  0.42611165064E+02  0.14201505353E+03  0.86948388561E+02 0.  0.
         23    2    1    2    0    0 -0.14354880668E+03  0.63533727413E+02  0.27529974533E+03  0.32911779129E+03  0.88801893819E+02 0.  0.
        -11    1    3    3    0    0  0.25064760561E+02 -0.73677430719E+02  0.32108198571E+02  0.84187543228E+02  0.00000000000E+00 0. -1.
         11    1    3    3    0    0  0.56163049647E+02  0.89118178064E+01  0.10502966493E+02  0.57827510300E+02  0.00000000000E+00 0.  1.
        -13    1    4    4    0    0 -0.13521381071E+03  0.39312782724E+02  0.26757214091E+03  0.30236256396E+03  0.00000000000E+00 0. -1.
         13    1    4    4    0    0 -0.83349959683E+01  0.24220944690E+02  0.77276044214E+01  0.26755227331E+02  0.00000000000E+00 0.  1.
         21    1    1    2  502  501  0.62320996471E+02  0.12318854997E+01  0.16962393877E+03  0.18071442872E+03  0.00000000000E+00 0. -1.
<scales pt_clust_5="13000.00000" pt_clust_6="13000.00000" pt_clust_7="13000.00000" pt_clust_8="13000.00000" pt_clust_9="62.33317"></scales>
<clustering>
<clus scale="   62.333">  1  9  2 -1</clus>
<clus scale="   86.948">  5  6 -1 -1</clus>
<clus scale="   88.802">  7  8 -1 -1</clus>
<clus scale="  144.558">  2  5  1 -1</clus>
<clus scale="   62.333">  1  5  2 -1</clus>
</clustering>
</event>
<event>
 9    1  0.1782981E-005  0.1563705E+03  0.7546771E-02  0.1193035E+00
          1   -1    0    0  502    0  0.00000000000E+00  0.00000000000E+00  0.83030436477E+02  0.83030436477E+02  0.00000000000E+00 0. -1.
         -1   -1    0    0    0  501 -0.00000000000E+00 -0.00000000000E+00 -0.56937441850E+03  0.56937441850E+03  0.00000000000E+00 0.  1.
         23    2    1    2    0    0 -0.91041057196E+02  0.99270602565E+02 -0.43256395185E+03  0.46206993589E+03  0.90851123200E+02 0.  0.
         23    2    1    2    0    0  0.68787485180E+02 -0.63822909110E+02 -0.13136778431E+02  0.13199424416E+03  0.91895721871E+02 0.  0.
        -13    1    3    3    0    0 -0.84484292674E+02  0.26390350840E+02 -0.21398736965E+03  0.23156994774E+03  0.00000000000E+00 0.  1.
         13    1    3    3    0    0 -0.65567645217E+01  0.72880251726E+02 -0.21857658220E+03  0.23049998816E+03  0.00000000000E+00 0. -1.
        -13    1    4    4    0    0  0.28882616996E+02 -0.81438716835E+02  0.10396916957E+00  0.86408801484E+02  0.00000000000E+00 0.  1.
         13    1    4    4    0    0  0.39904868184E+02  0.17615807726E+02 -0.13240747601E+02  0.45585442673E+02  0.00000000000E+00 0. -1.
         21    1    1    2  502  501  0.22253572015E+02 -0.35447693456E+02 -0.40643251739E+02  0.58340674925E+02  0.00000000000E+00 0.  1.
<scales pt_clust_5="13000.00000" pt_clust_6="13000.00000" pt_clust_7="13000.00000" pt_clust_8="13000.00000" pt_clust_9="41.85404"></scales>
<clustering>
<clus scale="   41.854">  1  9  2 -1</clus>
<clus scale="   90.851">  5  6 -1 -1</clus>
<clus scale="   91.896">  7  8 -1 -1</clus>
<clus scale="  155.759">  2  5  1 -1</clus>
<clus scale="   41.854">  1  5  2 -1</clus>
</clustering>
</event>
<event>
 9    1  0.1782981E-005  0.9892064E+02  0.7546771E-02  0.1284505E+00
          1   -1    0    0  502    0  0.00000000000E+00  0.00000000000E+00  0.33521782136E+03  0.33521782136E+03  0.00000000000E+00 0. -1.
         -1   -1    0    0    0  501 -0.00000000000E+00 -0.00000000000E+00 -0.68970914829E+02  0.68970914829E+02  0.00000000000E+00 0.  1.
         23    2    1    2    0    0 -0.32400331259E+02 -0.14977263870E+02 -0.34491344195E+01  0.98107733488E+02  0.91318842214E+02 0.  0.
         23    2    1    2    0    0  0.24512408942E+02  0.53484091469E+02  0.19474751068E+03  0.22145076414E+03  0.87478236077E+02 0.  0.
        -11    1    4    4    0    0 -0.29498052666E+02  0.25070579276E+00  0.58680637182E+02  0.65678117700E+02  0.00000000000E+00 0.  1.
         11    1    4    4    0    0  0.54010461608E+02  0.53233385677E+02  0.13606687350E+03  0.15577264644E+03  0.00000000000E+00 0. -1.
        -11    1    3    3    0    0 -0.81173868330E+01  0.25223159443E+02  0.30316782590E+02  0.40264215476E+02  0.00000000000E+00 0. -1.
         11    1    3    3    0    0 -0.24282944426E+02 -0.40200423314E+02 -0.33765917009E+02  0.57843518012E+02  0.00000000000E+00 0.  1.
         21    1    1    2  502  501  0.78879223175E+01 -0.38506827599E+02  0.74948530267E+02  0.84630238564E+02  0.00000000000E+00 0.  1.
<scales pt_clust_5="13000.00000" pt_clust_6="13000.00000" pt_clust_7="13000.00000" pt_clust_8="13000.00000" pt_clust_9="39.30643"></scales>
<clustering>
<clus scale="   39.306">  1  9  2 -1</clus>
<clus scale="   87.478">  5  6 -1 -1</clus>
<clus scale="   91.319">  7  8 -1 -1</clus>
<clus scale="   95.387">  1  5  2 -1</clus>
<clus scale="   39.306">  1  5  2 -1</clus>
</clustering>
</event>
<event>
 9    1  0.1782981E-005  0.1159598E+03  0.7546771E-02  0.1249981E+00
         -2   -1    0    0    0  501 -0.00000000000E+00  0.00000000000E+00  0.58578309823E+02  0.58578309823E+02  0.00000000000E+00 0.  1.
          2   -1    0    0  502    0  0.00000000000E+00 -0.00000000000E+00 -0.41197687418E+03  0.41197687418E+03  0.00000000000E+00 0. -1.
         23    2    1    2    0    0  0.58167460489E+02  0.22802952184E+02 -0.62783962266E+02  0.12669337834E+03  0.90586743556E+02 0.  0.
         23    2    1    2    0    0 -0.72436095775E+02 -0.56033112111E+02 -0.14599528731E+03  0.19478939478E+03  0.90783185539E+02 0.  0.
        -13    1    4    4    0    0 -0.22452634005E+02 -0.69957413775E+02 -0.62371649759E+02  0.96376258536E+02  0.00000000000E+00 0.  1.
         13    1    4    4    0    0 -0.49983461769E+02  0.13924301663E+02 -0.83623637552E+02  0.98413136240E+02  0.00000000000E+00 0. -1.
        -13    1    3    3    0    0  0.57090964794E+02  0.45488769082E+00  0.30371456433E+01  0.57173502932E+02  0.00000000000E+00 0.  1.
         13    1    3    3    0    0  0.10764956956E+01  0.22348064494E+02 -0.65821107909E+02  0.69519875403E+02  0.00000000000E+00 0. -1.
         21    1    1    2  502  501  0.14268635285E+02  0.33230159927E+02 -0.14461931478E+03  0.14907241089E+03  0.00000000000E+00 0.  1.
<scales pt_clust_5="13000.00000" pt_clust_6="13000.00000" pt_clust_7="13000.00000" pt_clust_8="13000.00000" pt_clust_9="36.16404"></scales>
<clustering>
<clus scale="   36.164">  2  9  1 -1</clus>
<clus scale="   90.587">  7  8 -1 -1</clus>
<clus scale="   90.783">  5  6 -1 -1</clus>
<clus scale="  115.806">  1  7  2 -1</clus>
<clus scale="   36.164">  2  5  1 -1</clus>
</clustering>
</event>
<event>
 9    1  0.1782981E-005  0.1099736E+03  0.7546771E-02  0.1266373E+00
         -1   -1    0    0    0  501 -0.00000000000E+00  0.00000000000E+00  0.20458504669E+03  0.20458504669E+03  0.00000000000E+00 0.  1.
          1   -1    0    0  502    0  0.00000000000E+00 -0.00000000000E+00 -0.82639990098E+02  0.82639990098E+02  0.00000000000E+00 0. -1.
         23    2    1    2    0    0 -0.21795441677E+02 -0.18489500793E+02  0.11538800752E+03  0.15801029793E+03  0.10409591276E+03 0.  0.
         23    2    1    2    0    0  0.41246635338E+02  0.28619016420E+02  0.15281167771E+02  0.10561248752E+03  0.91652334412E+02 0.  0.
        -11    1    3    3    0    0  0.11007467462E+02 -0.25067890140E+02  0.12102465742E+03  0.12408275931E+03  0.00000000000E+00 0.  1.
         11    1    3    3    0    0 -0.32802909139E+02  0.65783893472E+01 -0.56366498949E+01  0.33927538614E+02  0.00000000000E+00 0. -1.
        -13    1    4    4    0    0  0.45459969444E+02  0.37058012034E+01  0.46710770275E+02  0.65285816561E+02  0.00000000000E+00 0.  1.
         13    1    4    4    0    0 -0.42133341061E+01  0.24913215217E+02 -0.31429602504E+02  0.40326670954E+02  0.00000000000E+00 0. -1.
         21    1    1    2  502  501 -0.19451193661E+02 -0.10129515627E+02 -0.87241186982E+01  0.23602251349E+02  0.00000000000E+00 0. -1.
<scales pt_clust_5="13000.00000" pt_clust_6="13000.00000" pt_clust_7="13000.00000" pt_clust_8="13000.00000" pt_clust_9="21.93071"></scales>
<clustering>
<clus scale="   21.931">  2  9  1 -1</clus>
<clus scale="   91.652">  7  8 -1 -1</clus>
<clus scale="   98.277">  2  7  1 -1</clus>
<clus scale="  104.096">  5  6 -1 -1</clus>
<clus scale="   21.931">  2  5  1 -1</clus>
</clustering>
</event>
<event>
 9    1  0.1782981E-005  0.1258309E+03  0.7546771E-02  0.1234969E+00
         -1   -1    0    0    0  501 -0.00000000000E+00  0.00000000000E+00  0.28469442335E+03  0.28469442335E+03  0.00000000000E+00 0.  1.
          1   -1    0    0  502    0  0.00000000000E+00 -0.00000000000E+00 -0.14584495418E+03  0.14584495418E+03  0.00000000000E+00 0. -1.
         23    2    1    2    0    0 -0.40048424301E+02 -0.81171829649E+02  0.44874015204E+02  0.13573461244E+03  0.90650237483E+02 0.  0.
         23    2    1    2    0    0  0.10327424218E+03  0.86842184709E+01 -0.29680724660E+02  0.13814332015E+03  0.86380823891E+02 0.  0.
        -11    1    4    4    0    0  0.32559948601E+02  0.20022752843E+01  0.30791609015E+02  0.44858472388E+02  0.00000000000E+00 0.  1.
         11    1    4    4    0    0  0.70714293581E+02  0.66819431866E+01 -0.60472333675E+02  0.93284847759E+02  0.00000000000E+00 0. -1.
        -13    1    3    3    0    0  0.19771323840E+02 -0.43308439456E+02  0.44159495781E+02  0.64935254232E+02  0.00000000000E+00 0. -1.
         13    1    3    3    0    0 -0.59819748141E+02 -0.37863390193E+02  0.71451942328E+00  0.70799358207E+02  0.00000000000E+00 0.  1.
         21    1    1    2  502  501 -0.63225817882E+02  0.72487611178E+02  0.12365617863E+03  0.15666144495E+03  0.00000000000E+00 0.  1.
<scales pt_clust_5="13000.00000" pt_clust_6="13000.00000" pt_clust_7="13000.00000" pt_clust_8="13000.00000" pt_clust_9="96.18710"></scales>
<clustering>
<clus scale="   86.381">  5  6 -1 -1</clus>
<clus scale="   90.650">  7  8 -1 -1</clus>
<clus scale="   96.187">  1  9  2 -1</clus>
<clus scale="  122.791">  2  5  1 -1</clus>
<clus scale="  122.791">  2  5  1 -1</clus>
</clustering>
</event>
<event>
 9    1  0.1782981E-005  0.1853010E+03  0.7546771E-02  0.1162828E+00
          2   -1    0    0  502    0  0.00000000000E+00  0.00000000000E+00  0.87532303017E+03  0.87532303017E+03  0.00000000000E+00 0. -1.
         -2   -1    0    0    0  501 -0.00000000000E+00 -0.00000000000E+00 -0.62252959032E+02  0.62252959032E+02  0.00000000000E+00 0.  1.
         23    2    1    2    0    0 -0.30820500547E+02 -0.13709053236E+03  0.25595774406E+03  0.31298284904E+03  0.11269507414E+03 0.  0.
         23    2    1    2    0    0 -0.45716814742E+02  0.16118231885E+03  0.39912347748E+03  0.44739592967E+03  0.11310968370E+03 0.  0.
        -11    1    3    3    0    0 -0.13462012561E+02 -0.15245495825E+03  0.19583567234E+03  0.24854647581E+03  0.00000000000E+00 0. -1.
         11    1    3    3    0    0 -0.17358487986E+02  0.15364425888E+02  0.60122071716E+02  0.64436373233E+02  0.00000000000E+00 0.  1.
        -13    1    4    4    0    0 -0.29140904160E+02 -0.66806295272E+01  0.34537283654E+02  0.45679832184E+02  0.00000000000E+00 0. -1.
         13    1    4    4    0    0 -0.16575910582E+02  0.16786294837E+03  0.36458619382E+03  0.40171609748E+03  0.00000000000E+00 0.  1.
         21    1    1    2  502  501  0.76537315289E+02 -0.24091786487E+02  0.15798884960E+03  0.17719721049E+03  0.00000000000E+00 0.  1.
<scales pt_clust_5="13000.00000" pt_clust_6="13000.00000" pt_clust_7="13000.00000" pt_clust_8="13000.00000" pt_clust_9="80.23948"></scales>
<clustering>
<clus scale="   80.239">  1  9  2 -1</clus>
<clus scale="  112.695">  5  6 -1 -1</clus>
<clus scale="  113.110">  7  8 -1 -1</clus>
<clus scale="  185.048">  2  5  1 -1</clus>
<clus scale="   80.239">  1  5  2 -1</clus>
</clustering>
</event>
<event>
 9    1  0.1782981E-005  0.1127892E+03  0.7546771E-02  0.1255898E+00
          1   -1    0    0  502    0  0.00000000000E+00  0.00000000000E+00  0.79201417494E+02  0.79201417494E+02  0.00000000000E+00 0. -1.
         -1   -1    0    0    0  501 -0.00000000000E+00 -0.00000000000E+00 -0.36703252425E+03  0.36703252425E+03  0.00000000000E+00 0.  1.
         23    2    1    2    0    0  0.27879994123E+02 -0.54721660777E+02 -0.26783101455E+03  0.28957572694E+03  0.91372288155E+02 0.  0.
         23    2    1    2    0    0 -0.39126325281E+02  0.79677825083E+02 -0.24442402263E+02  0.12892692887E+03  0.90251298156E+02 0.  0.
        -11    1    3    3    0    0  0.49510113397E+02 -0.68304443279E+02 -0.21255855472E+03  0.22868731378E+03  0.00000000000E+00 0.  1.
         11    1    3    3    0    0 -0.21630119274E+02  0.13582782501E+02 -0.55272459838E+02  0.60888413157E+02  0.00000000000E+00 0. -1.
        -11    1    4    4    0    0 -0.55587278619E+02  0.54139963517E+02  0.15108578942E+02  0.79052832660E+02  0.00000000000E+00 0. -1.
         11    1    4    4    0    0  0.16460953338E+02  0.25537861567E+02 -0.39550981206E+02  0.49874096208E+02  0.00000000000E+00 0.  1.
         21    1    1    2  502  501  0.11246331158E+02 -0.24956164306E+02  0.44423100588E+01  0.27731285943E+02  0.00000000000E+00 0.  1.
<scales pt_clust_5="13000.00000" pt_clust_6="13000.00000" pt_clust_7="13000.00000" pt_clust_8="13000.00000" pt_clust_9="27.37316"></scales>
<clustering>
<clus scale="   27.373">  1  9  2 -1</clus>
<clus scale="   90.251">  7  8 -1 -1</clus>
<clus scale="   91.372">  5  6 -1 -1</clus>
<clus scale="  111.883">  1  7  2 -1</clus>
<clus scale="   27.373">  1  5  2 -1</clus>
</clustering>
</event>
<event>
 9    1  0.1782981E-005  0.1695858E+03  0.7546771E-02  0.1178567E+00
          3   -1    0    0  502    0  0.00000000000E+00  0.00000000000E+00  0.15614649279E+03  0.15614649279E+03  0.00000000000E+00 0. -1.
         -3   -1    0    0    0  501 -0.00000000000E+00 -0.00000000000E+00 -0.29094959674E+03  0.29094959674E+03  0.00000000000E+00 0.  1.
         23    2    1    2    0    0  0.10083253816E+03 -0.73940919276E+02 -0.79027910155E+02  0.17561470275E+03  0.94660725449E+02 0.  0.
         23    2    1    2    0    0 -0.13811033953E+03  0.78083823051E+02 -0.10341243005E+03  0.21085050021E+03  0.92694408911E+02 0.  0.
        -11    1    4    4    0    0 -0.28508075753E+02 -0.40380125682E+00 -0.64530203703E+02  0.70548002300E+02  0.00000000000E+00 0.  1.
         11    1    4    4    0    0 -0.10960226378E+03  0.78487624307E+02 -0.38882226348E+02  0.14030249791E+03  0.00000000000E+00 0. -1.
        -13    1    3    3    0    0  0.53587343161E+02  0.11204396292E+02 -0.85475635509E+01  0.55409409724E+02  0.00000000000E+00 0. -1.
         13    1    3    3    0    0  0.47245195003E+02 -0.85145315568E+02 -0.70480346604E+02  0.12020529303E+03  0.00000000000E+00 0.  1.
         21    1    1    2  502  501  0.37277801369E+02 -0.41429037748E+01  0.47637236260E+02  0.60630886560E+02  0.00000000000E+00 0. -1.
<scales pt_clust_5="13000.00000" pt_clust_6="13000.00000" pt_clust_7="13000.00000" pt_clust_8="13000.00000" pt_clust_9="37.50731"></scales>
<clustering>
<clus scale="   37.507">  1  9  2 -1</clus>
<clus scale="   92.694">  5  6 -1 -1</clus>
<clus scale="   94.661">  7  8 -1 -1</clus>
<clus scale="  168.496">  1  5  2 -1</clus>
<clus scale="   37.507">  1  5  2 -1</clus>
</clustering>
</event>
<event>
 9    1  0.1782981E-005  0.1452394E+03  0.7546771E-02  0.1207172E+00
          1   -1    0    0  502    0  0.00000000000E+00  0.00000000000E+00  0.99511279025E+03  0.99511279025E+03  0.00000000000E+00 0. -1.
         -1   -1    0    0    0  501 -0.00000000000E+00 -0.00000000000E+00 -0.32448534534E+02  0.32448534534E+02  0.00000000000E+00 0.  1.
         23    2    1    2    0    0 -0.43377037867E+02 -0.13406733171E+03  0.39018317635E+03  0.42574782158E+03  0.95721886863E+02 0.  0.
         23    2    1    2    0    0  0.14276256622E+02  0.92276430566E+02  0.45947246287E+03  0.47786076105E+03  0.92288740744E+02 0.  0.
        -11    1    4    4    0    0  0.45261383943E+02  0.88872185762E+02  0.36486336357E+03  0.37824877046E+03  0.00000000000E+00 0.  1.
         11    1    4    4    0    0 -0.30985127321E+02  0.34042448038E+01  0.94609099307E+02  0.99611990591E+02  0.00000000000E+00 0. -1.
        -13    1    3    3    0    0  0.28672980068E+02 -0.29131740011E+02  0.12666403576E+03  0.13309611571E+03  0.00000000000E+00 0.  1.
         13    1    3    3    0    0 -0.72050017934E+02 -0.10493559170E+03  0.26351914060E+03  0.29265170587E+03  0.00000000000E+00 0. -1.
         21    1    1    2  502  501  0.29100781245E+02  0.41790901145E+02  0.11300861649E+03  0.12395274216E+03  0.00000000000E+00 0.  1.
<scales pt_clust_5="13000.00000" pt_clust_6="13000.00000" pt_clust_7="13000.00000" pt_clust_8="13000.00000" pt_clust_9="50.92480"></scales>
<clustering>
<clus scale="   50.925">  2  9  1 -1</clus>
<clus scale="   92.289">  5  6 -1 -1</clus>
<clus scale="   95.722">  7  8 -1 -1</clus>
<clus scale="  143.000">  1  5  2 -1</clus>
<clus scale="  143.000">  1  5  2 -1</clus>
</clustering>
</event>
<event>
 9    1  0.1782981E-005  0.1390588E+03  0.7546771E-02  0.1230279E+00
          1   -1    0    0  502    0  0.00000000000E+00  0.00000000000E+00  0.65542038865E+03  0.65542038865E+03  0.00000000000E+00 0. -1.
         -1   -1    0    0    0  501 -0.00000000000E+00 -0.00000000000E+00 -0.81132463902E+02  0.81132463902E+02  0.00000000000E+00 0.  1.
         23    2    1    2    0    0  0.46511825963E+01  0.45412384666E+02  0.15802053749E+02  0.10142573788E+03  0.89182718171E+02 0.  0.
         23    2    1    2    0    0 -0.10886044778E+03 -0.17388163731E+02  0.12657511862E+03  0.18993970927E+03  0.88898184326E+02 0.  0.
        -11    1    3    3    0    0 -0.68190031478E+01 -0.21584500940E+02  0.23965436993E+02  0.32965613220E+02  0.00000000000E+00 0. -1.
         11    1    3    3    0    0  0.11470185744E+02  0.66996885606E+02 -0.81633832438E+01  0.68460124655E+02  0.00000000000E+00 0.  1.
        -13    1    4    4    0    0 -0.59568051920E+02 -0.30182899625E+02  0.12165349626E+03  0.13877655923E+03  0.00000000000E+00 0. -1.
         13    1    4    4    0    0 -0.49292395859E+02  0.12794735895E+02  0.49216223657E+01  0.51163150048E+02  0.00000000000E+00 0.  1.
         21    1    1    2  502  501  0.10420926518E+03 -0.28024220935E+02  0.43191075238E+03  0.44518740540E+03  0.00000000000E+00 0. -1.
<scales pt_clust_5="13000.00000" pt_clust_6="13000.00000" pt_clust_7="13000.00000" pt_clust_8="13000.00000" pt_clust_9="106.93208"></scales>
<clustering>
<clus scale="   88.898">  7  8 -1 -1</clus>
<clus scale="   89.183">  5  6 -1 -1</clus>
<clus scale="  100.187">  2  5  1 -1</clus>
<clus scale="  106.932">  1  9  2 -1</clus>
<clus scale="  106.932">  1  5  2 -1</clus>
</clustering>
</event>
<event>
 9    1  0.1782981E-005  0.9937754E+02  0.7546771E-02  0.1282049E+00
          1   -1    0    0  502    0  0.00000000000E+00  0.00000000000E+00  0.26500720318E+03  0.26500720318E+03  0.00000000000E+00 0. -1.
         -1   -1    0    0    0  501 -0.00000000000E+00 -0.00000000000E+00 -0.62706380986E+02  0.62706380986E+02  0.00000000000E+00 0.  1.
         23    2    1    2    0    0  0.35934434974E+02 -0.48747699930E+01  0.13469104933E+02  0.98806605013E+02  0.90919092644E+02 0.  0.
         23    2    1    2    0    0 -0.46831748194E+02  0.21941915398E+02  0.12808652798E+03  0.16487560475E+03  0.90017476638E+02 0.  0.
        -11    1    3    3    0    0  0.38570991892E+02 -0.43262862928E+02 -0.23434624713E+00  0.57960776758E+02  0.00000000000E+00 0.  1.
         11    1    3    3    0    0 -0.26365569179E+01  0.38388092935E+02  0.13703451180E+02  0.40845828255E+02  0.00000000000E+00 0. -1.
        -13    1    4    4    0    0 -0.48658552366E+02 -0.25984050933E+02  0.77946563052E+02  0.95490797006E+02  0.00000000000E+00 0. -1.
         13    1    4    4    0    0  0.18268041720E+01  0.47925966331E+02  0.50139964931E+02  0.69384807743E+02  0.00000000000E+00 0.  1.
         21    1    1    2  502  501  0.10897313220E+02 -0.17067145405E+02  0.60745189277E+02  0.64031374404E+02  0.00000000000E+00 0. -1.
<scales pt_clust_5="13000.00000" pt_clust_6="13000.00000" pt_clust_7="13000.00000" pt_clust_8="13000.00000" pt_clust_9="20.24942"></scales>
<clustering>
<clus scale="   20.249">  1  9  2 -1</clus>
<clus scale="   90.017">  7  8 -1 -1</clus>
<clus scale="   90.919">  5  6 -1 -1</clus>
<clus scale="   98.553">  1  7  2 -1</clus>
<clus scale="   20.249">  1  5  2 -1</clus>
</clustering>
</event>
<event>
 9    1  0.1838675E-005  0.2182990E+03  0.7546771E-02  0.1136171E+00
          2   -1    0    0  502    0  0.00000000000E+00  0.00000000000E+00  0.31857018128E+03  0.31857018128E+03  0.00000000000E+00 0. -1.
         -2   -1    0    0    0  501 -0.00000000000E+00 -0.00000000000E+00 -0.35820012770E+03  0.35820012770E+03  0.00000000000E+00 0.  1.
         23    2    1    2    0    0  0.75965218352E+02  0.17581371051E+03 -0.25715025249E+03  0.33663332366E+03  0.10254056291E+03 0.  0.
         23    2    1    2    0    0 -0.11427279994E+03 -0.16776848249E+03  0.18652770221E+03  0.29020965818E+03  0.90689169615E+02 0.  0.
        -11    1    4    4    0    0 -0.15474713657E+02 -0.34323948429E+02 -0.35581856714E+01  0.37818790089E+02  0.00000000000E+00 0.  1.
         11    1    4    4    0    0 -0.98798086282E+02 -0.13344453406E+03  0.19008588788E+03  0.25239086809E+03  0.00000000000E+00 0. -1.
        -13    1    3    3    0    0  0.49789950404E+02  0.17599849896E+03 -0.18619594961E+03  0.26100467898E+03  0.00000000000E+00 0.  1.
         13    1    3    3    0    0  0.26175267948E+02 -0.18478845569E+00 -0.70954302879E+02  0.75628644679E+02  0.00000000000E+00 0. -1.
         21    1    1    2  502  501  0.38307581587E+02 -0.80452280135E+01  0.30992603869E+02  0.49927327141E+02  0.00000000000E+00 0. -1.
<scales pt_clust_5="13000.00000" pt_clust_6="13000.00000" pt_clust_7="13000.00000" pt_clust_8="13000.00000" pt_clust_9="39.14328"></scales>
<clustering>
<clus scale="   39.143">  1  9  2 -1</clus>
<clus scale="   90.689">  5  6 -1 -1</clus>
<clus scale="  102.541">  7  8 -1 -1</clus>
<clus scale="  212.989">  1  5  2 -1</clus>
<clus scale="   39.143">  1  5  2 -1</clus>
</clustering>
</event>
<event>
 9    1  0.1782981E-005  0.1175625E+03  0.7546771E-02  0.1255887E+00
          2   -1    0    0  502    0  0.00000000000E+00  0.00000000000E+00  0.20266467994E+03  0.20266467994E+03  0.00000000000E+00 0. -1.
         -2   -1    0    0    0  501 -0.00000000000E+00 -0.00000000000E+00 -0.12315675899E+03  0.12315675899E+03  0.00000000000E+00 0.  1.
         23    2    1    2    0    0  0.27047381004E+02 -0.55651323440E+02 -0.38819306322E+02  0.10055836004E+03  0.69111609817E+02 0.  0.
         23    2    1    2    0    0 -0.43282614133E+02  0.86278675674E+02  0.41479627335E+02  0.14095903916E+03  0.93976043091E+02 0.  0.
        -11    1    3    3    0    0  0.46988346891E+02 -0.46816071319E+02 -0.42011932422E+02  0.78515296237E+02  0.00000000000E+00 0. -1.
         11    1    3    3    0    0 -0.19940965887E+02 -0.88352521215E+01  0.31926261005E+01  0.22043063807E+02  0.00000000000E+00 0.  1.
        -11    1    4    4    0    0 -0.41302247654E+02  0.64006548707E+01  0.44434044368E+02  0.61001871635E+02  0.00000000000E+00 0.  1.
         11    1    4    4    0    0 -0.19803664786E+01  0.79878020803E+02 -0.29544170325E+01  0.79957167527E+02  0.00000000000E+00 0. -1.
         21    1    1    2  502  501  0.16235233129E+02 -0.30627352234E+02  0.76847599936E+02  0.84304039735E+02  0.00000000000E+00 0.  1.
<scales pt_clust_5="13000.00000" pt_clust_6="13000.00000" pt_clust_7="13000.00000" pt_clust_8="13000.00000" pt_clust_9="34.66435"></scales>
<clustering>
<clus scale="   34.664">  1  9  2 -1</clus>
<clus scale="   69.112">  5  6 -1 -1</clus>
<clus scale="   93.976">  7  8 -1 -1</clus>
<clus scale="   98.822">  2  5  1 -1</clus>
<clus scale="   34.664">  1  5  2 -1</clus>
</clustering>
</event>
<event>
 9    1  0.1782981E-005  0.1485851E+03  0.7546771E-02  0.1203164E+00
         -2   -1    0    0    0  501 -0.00000000000E+00  0.00000000000E+00  0.12982779323E+03  0.12982779323E+03  0.00000000000E+00 0.  1.
          2   -1    0    0  502    0  0.00000000000E+00 -0.00000000000E+00 -0.41489832058E+03  0.41489832058E+03  0.00000000000E+00 0. -1.
         23    2    1    2    0    0  0.94925432356E+02  0.76252438977E+02 -0.45334623200E+02  0.16207444000E+03  0.96889751168E+02 0.  0.
         23    2    1    2    0    0 -0.11900205602E+03  0.18920556686E+02 -0.24062460607E+03  0.28447645952E+03  0.92234365472E+02 0.  0.
        -11    1    4    4    0    0 -0.10942415315E+03  0.48112602104E+02 -0.17392554479E+03  0.21104161415E+03  0.00000000000E+00 0. -1.
         11    1    4    4    0    0 -0.95779028747E+01 -0.29192045417E+02 -0.66699061283E+02  0.73434845374E+02  0.00000000000E+00 0.  1.
        -11    1    3    3    0    0  0.81830653421E+02  0.97482021720E+02 -0.24583111754E+02  0.12962765824E+03  0.00000000000E+00 0.  1.
         11    1    3    3    0    0  0.13094778935E+02 -0.21229582744E+02 -0.20751511447E+02  0.32446781753E+02  0.00000000000E+00 0. -1.
         21    1    1    2  502  501  0.24076623668E+02 -0.95172995663E+02  0.88870191905E+00  0.98175214295E+02  0.00000000000E+00 0. -1.
<scales pt_clust_5="13000.00000" pt_clust_6="13000.00000" pt_clust_7="13000.00000" pt_clust_8="13000.00000" pt_clust_9="98.17119"></scales>
<clustering>
<clus scale="   92.234">  5  6 -1 -1</clus>
<clus scale="   96.890">  7  8 -1 -1</clus>
<clus scale="   98.171">  1  9  2 -1</clus>
<clus scale="  145.592">  2  5  1 -1</clus>
<clus scale="  145.592">  2  5  1 -1</clus>
</clustering>
</event>
<event>
 9    1  0.1782981E-005  0.1454342E+03  0.7546771E-02  0.1206435E+00
         -1   -1    0    0    0  501 -0.00000000000E+00  0.00000000000E+00  0.17234481606E+03  0.17234481606E+03  0.00000000000E+00 0.  1.
          1   -1    0    0  502    0  0.00000000000E+00 -0.00000000000E+00 -0.21522315622E+03  0.21522315622E+03  0.00000000000E+00 0. -1.
         23    2    1    2    0    0  0.83346704549E+02  0.74021415420E+02  0.89704186410E+02  0.16951918794E+03  0.90906935486E+02 0.  0.
         23    2    1    2    0    0 -0.10130492149E+03 -0.60837134578E+02 -0.10682161407E+03  0.18399078338E+03  0.92075550890E+02 0.  0.
        -11    1    3    3    0    0  0.47173358321E+02  0.63414265155E+01  0.78727652121E+02  0.91997731679E+02  0.00000000000E+00 0.  1.
         11    1    3    3    0    0  0.36173346229E+02  0.67679988904E+02  0.10976534289E+02  0.77521456259E+02  0.00000000000E+00 0. -1.
        -13    1    4    4    0    0 -0.63774782935E+02  0.12858204093E+02 -0.62254202691E+02  0.90045222547E+02  0.00000000000E+00 0.  1.
         13    1    4    4    0    0 -0.37530138560E+02 -0.73695338672E+02 -0.44567411382E+02  0.93945560829E+02  0.00000000000E+00 0. -1.
         21    1    1    2  502  501  0.17958216945E+02 -0.13184280842E+02 -0.25760912502E+02  0.34058000971E+02  0.00000000000E+00 0.  1.
<scales pt_clust_5="13000.00000" pt_clust_6="13000.00000" pt_clust_7="13000.00000" pt_clust_8="13000.00000" pt_clust_9="22.27830"></scales>
<clustering>
<clus scale="   22.278">  2  9  1 -1</clus>
<clus scale="   90.907">  5  6 -1 -1</clus>
<clus scale="   92.076">  7  8 -1 -1</clus>
<clus scale="  144.697">  1  5  2 -1</clus>
<clus scale="   22.278">  2  5  1 -1</clus>
</clustering>
</event>
<event>
 9    1  0.1782981E-005  0.1198040E+03  0.7546771E-02  0.1244020E+00
         -3   -1    0    0    0  501 -0.00000000000E+00  0.00000000000E+00  0.48728936250E+02  0.48728936250E+02  0.00000000000E+00 0.  1.
          3   -1    0    0  502    0  0.00000000000E+00 -0.00000000000E+00 -0.50627516624E+03  0.50627516624E+03  0.00000000000E+00 0. -1.
         23    2    1    2    0    0 -0.64826438968E+02 -0.57482149188E+02 -0.73656842399E+02  0.14439652670E+03  0.88985177570E+02 0.  0.
         23    2    1    2    0    0  0.35136613547E+02  0.47644760684E+02 -0.24024653327E+03  0.26359897215E+03  0.90892334868E+02 0.  0.
        -11    1    4    4    0    0  0.65614814223E+02  0.23963116611E+02 -0.15227942848E+03  0.16753673968E+03  0.00000000000E+00 0. -1.
         11    1    4    4    0    0 -0.30478200677E+02  0.23681644072E+02 -0.87967104785E+02  0.96062232468E+02  0.00000000000E+00 0.  1.
        -11    1    3    3    0    0 -0.25021243954E+02 -0.73042689604E+02 -0.64689159171E+02  0.10072727768E+03  0.00000000000E+00 0. -1.
         11    1    3    3    0    0 -0.39805195014E+02  0.15560540416E+02 -0.89676832280E+01  0.43669249028E+02  0.00000000000E+00 0.  1.
         21    1    1    2  502  501  0.29689825421E+02  0.98373885044E+01 -0.14364285433E+03  0.14700860364E+03  0.00000000000E+00 0. -1.
<scales pt_clust_5="13000.00000" pt_clust_6="13000.00000" pt_clust_7="13000.00000" pt_clust_8="13000.00000" pt_clust_9="31.27715"></scales>
<clustering>
<clus scale="   31.277">  2  9  1 -1</clus>
<clus scale="   88.985">  7  8 -1 -1</clus>
<clus scale="   90.892">  5  6 -1 -1</clus>
<clus scale="  118.364">  1  7  2 -1</clus>
<clus scale="   31.277">  2  5  1 -1</clus>
</clustering>
</event>
<event>
 9    1  0.1782981E-005  0.4501687E+03  0.7546771E-02  0.1058211E+00
          1   -1    0    0  502    0  0.00000000000E+00  0.00000000000E+00  0.18173889165E+04  0.18173889165E+04  0.00000000000E+00 0. -1.
         -1   -1    0    0    0  501 -0.00000000000E+00 -0.00000000000E+00 -0.28871440071E+03  0.28871440071E+03  0.00000000000E+00 0.  1.
         23    2    1    2    0    0  0.14844767002E+03 -0.63307784452E+02  0.38902556795E+02  0.19007501173E+03  0.92577075210E+02 0.  0.
         23    2    1    2    0    0  0.47396454971E+02 -0.35326340919E+03  0.11816119426E+02  0.36804899541E+03  0.90988912089E+02 0.  0.
        -11    1    4    4    0    0  0.64855249486E+02 -0.22435372254E+03  0.34263835771E+02  0.23603984122E+03  0.00000000000E+00 0.  1.
         11    1    4    4    0    0 -0.17458794514E+02 -0.12890968665E+03 -0.22447716345E+02  0.13200915418E+03  0.00000000000E+00 0. -1.
        -13    1    3    3    0    0  0.80311122070E+02  0.14232641042E+02  0.28191558436E+02  0.86297209493E+02  0.00000000000E+00 0. -1.
         13    1    3    3    0    0  0.68136547946E+02 -0.77540425494E+02  0.10710998359E+02  0.10377780224E+03  0.00000000000E+00 0.  1.
         21    1    1    2  502  501 -0.19584412499E+03  0.41657119365E+03  0.14779558396E+04  0.15479793101E+04  0.00000000000E+00 0. -1.
<scales pt_clust_5="13000.00000" pt_clust_6="13000.00000" pt_clust_7="13000.00000" pt_clust_8="13000.00000" pt_clust_9="440.87741"></scales>
<clustering>
<clus scale="   90.989">  5  6 -1 -1</clus>
<clus scale="   92.577">  7  8 -1 -1</clus>
<clus scale="  186.051">  2  7  1 -1</clus>
<clus scale="  440.877">  1  9  2 -1</clus>
<clus scale="  440.877">  1  5  2 -1</clus>
</clustering>
</event>
<event>
 9    1  0.1782981E-005  0.1052619E+03  0.7546771E-02  0.1270542E+00
         -1   -1    0    0    0  501 -0.00000000000E+00  0.00000000000E+00  0.92173695467E+02  0.92173695467E+02  0.00000000000E+00 0.  1.
          1   -1    0    0  502    0  0.00000000000E+00 -0.00000000000E+00 -0.23298318447E+03  0.23298318447E+03  0.00000000000E+00 0. -1.
         23    2    1    2    0    0 -0.20486511481E+02 -0.56731765286E+02  0.13237944812E+02  0.11288010392E+03  0.94490657385E+02 0.  0.
         23    2    1    2    0    0 -0.38482842314E+01  0.22369172048E+02 -0.69456769108E+02  0.11778576770E+03  0.92379949929E+02 0.  0.
        -11    1    3    3    0    0 -0.28579419321E+02 -0.28500847436E+02  0.51002066915E+02  0.65040697589E+02  0.00000000000E+00 0.  1.
         11    1    3    3    0    0  0.80929078397E+01 -0.28230917850E+02 -0.37764122103E+02  0.47839406331E+02  0.00000000000E+00 0. -1.
        -13    1    4    4    0    0 -0.27182569714E+02  0.13495694586E+02  0.11965691028E+02  0.32622134056E+02  0.00000000000E+00 0.  1.
         13    1    4    4    0    0  0.23334285482E+02  0.88734774621E+01 -0.81422460137E+02  0.85163633647E+02  0.00000000000E+00 0. -1.
         21    1    1    2  502  501  0.24334795712E+02  0.34362593238E+02 -0.84590664707E+02  0.94491008313E+02  0.00000000000E+00 0.  1.
<scales pt_clust_5="13000.00000" pt_clust_6="13000.00000" pt_clust_7="13000.00000" pt_clust_8="13000.00000" pt_clust_9="42.10665"></scales>
<clustering>
<clus scale="   42.107">  2  9  1 -1</clus>
<clus scale="   92.380">  7  8 -1 -1</clus>
<clus scale="   94.491">  5  6 -1 -1</clus>
<clus scale="  103.371">  2  7  1 -1</clus>
<clus scale="   42.107">  2  5  1 -1</clus>
</clustering>
</event>
<event>
 9    1  0.1782981E-005  0.1090512E+03  0.7546771E-02  0.1262795E+00
         -1   -1    0    0    0  501 -0.00000000000E+00  0.00000000000E+00  0.88900126499E+02  0.88900126499E+02  0.00000000000E+00 0.  1.
          1   -1    0    0  502    0  0.00000000000E+00 -0.00000000000E+00 -0.46701492369E+03  0.46701492369E+03  0.00000000000E+00 0. -1.
         23    2    1    2    0    0 -0.13002819887E+02  0.53256184495E+02 -0.95264062460E+01  0.10573203881E+03  0.89906713341E+02 0.  0.
         23    2    1    2    0    0  0.90491766653E+02 -0.32926276035E+02 -0.89765544087E+02  0.16007954366E+03  0.91075287035E+02 0.  0.
        -13    1    4    4    0    0  0.60874653700E+02 -0.14713267262E+02  0.12594309534E+01  0.62640161741E+02  0.00000000000E+00 0.  1.
         13    1    4    4    0    0  0.29617112953E+02 -0.18213008774E+02 -0.91024975040E+02  0.97439381922E+02  0.00000000000E+00 0. -1.
        -13    1    3    3    0    0  0.31253271589E+02  0.32396589234E+01  0.14698965608E+02  0.34688931446E+02  0.00000000000E+00 0. -1.
         13    1    3    3    0    0 -0.44256091476E+02  0.50016525572E+02 -0.24225371854E+02  0.71043107368E+02  0.00000000000E+00 0.  1.
         21    1    1    2  502  501 -0.77488946766E+02 -0.20329908460E+02 -0.27882284686E+03  0.29010346772E+03  0.00000000000E+00 0. -1.
<scales pt_clust_5="13000.00000" pt_clust_6="13000.00000" pt_clust_7="13000.00000" pt_clust_8="13000.00000" pt_clust_9="80.11144"></scales>
<clustering>
<clus scale="   80.111">  2  9  1 -1</clus>
<clus scale="   89.907">  7  8 -1 -1</clus>
<clus scale="   91.075">  5  6 -1 -1</clus>
<clus scale="  108.077">  1  7  2 -1</clus>
<clus scale="   80.111">  2  5  1 -1</clus>
</clustering>
</event>
<event>
 9    1  0.1782981E-005  0.1171770E+03  0.7546771E-02  0.1249943E+00
          2   -1    0    0  502    0  0.00000000000E+00  0.00000000000E+00  0.42685636827E+03  0.42685636827E+03  0.00000000000E+00 0. -1.
         -2   -1    0    0    0  501 -0.00000000000E+00 -0.00000000000E+00 -0.67243155483E+02  0.67243155483E+02  0.00000000000E+00 0.  1.
         23    2    1    2    0    0  0.67098198065E+02  0.88708483000E+01  0.23546356473E+02  0.11484701205E+03  0.89747117723E+02 0.  0.
         23    2    1    2    0    0 -0.55793307827E+02 -0.57925773447E+02  0.22816450039E+03  0.26018486439E+03  0.95754039026E+02 0.  0.
        -11    1    4    4    0    0 -0.18511695189E+02  0.22271788051E+02  0.23731598825E+02  0.37442010958E+02  0.00000000000E+00 0.  1.
         11    1    4    4    0    0 -0.37281612638E+02 -0.80197561498E+02  0.20443290157E+03  0.22274285343E+03  0.00000000000E+00 0. -1.
        -13    1    3    3    0    0  0.63919957980E+02  0.43065079510E+02  0.23249737239E+02  0.80504114075E+02  0.00000000000E+00 0.  1.
         13    1    3    3    0    0  0.31782400856E+01 -0.34194231210E+02  0.29661923379E+00  0.34342897971E+02  0.00000000000E+00 0. -1.
         21    1    1    2  502  501 -0.11304890239E+02  0.49054925147E+02  0.10790235591E+03  0.11906764731E+03  0.00000000000E+00 0. -1.
<scales pt_clust_5="13000.00000" pt_clust_6="13000.00000" pt_clust_7="13000.00000" pt_clust_8="13000.00000" pt_clust_9="50.34070"></scales>
<clustering>
<clus scale="   50.341">  1  9  2 -1</clus>
<clus scale="   89.747">  7  8 -1 -1</clus>
<clus scale="   95.754">  5  6 -1 -1</clus>
<clus scale="  112.322">  2  7  1 -1</clus>
<clus scale="   50.341">  1  5  2 -1</clus>
</clustering>
</event>
<event>
 9    1  0.1782981E-005  0.2401345E+03  0.7546771E-02  0.1120052E+00
          1   -1    0    0  502    0  0.00000000000E+00  0.00000000000E+00  0.69130974617E+03  0.69130974617E+03  0.00000000000E+00 0. -1.
         -1   -1    0    0    0  501 -0.00000000000E+00 -0.00000000000E+00 -0.95231734550E+02  0.95231734550E+02  0.00000000000E+00 0.  1.
         23    2    1    2    0    0  0.47304790291E+02 -0.20728297003E+03  0.21569152792E+03  0.31776131483E+03  0.96153237807E+02 0.  0.
         23    2    1    2    0    0 -0.63796754858E+02  0.22132475001E+03  0.31982689259E+03  0.40446360071E+03  0.90812401021E+02 0.  0.
        -11    1    3    3    0    0 -0.34762777309E+01 -0.70612037456E+02  0.13176030781E+03  0.14952900406E+03  0.00000000000E+00 0.  1.
         11    1    3    3    0    0  0.50781068022E+02 -0.13667093257E+03  0.83931220105E+02  0.16823231077E+03  0.00000000000E+00 0. -1.
        -13    1    4    4    0    0 -0.77222385867E+02  0.19027725898E+03  0.22923165689E+03  0.30775945913E+03  0.00000000000E+00 0.  1.
         13    1    4    4    0    0  0.13425631009E+02  0.31047491030E+02  0.90595235701E+02  0.96704141581E+02  0.00000000000E+00 0. -1.
         21    1    1    2  502  501  0.16491964566E+02 -0.14041779986E+02  0.60559591110E+02  0.64316565175E+02  0.00000000000E+00 0. -1.
<scales pt_clust_5="13000.00000" pt_clust_6="13000.00000" pt_clust_7="13000.00000" pt_clust_8="13000.00000" pt_clust_9="21.66002"></scales>
<clustering>
<clus scale="   21.660">  1  9  2 -1</clus>
<clus scale="   90.812">  7  8 -1 -1</clus>
<clus scale="   96.153">  5  6 -1 -1</clus>
<clus scale="  238.046">  1  7  2 -1</clus>
<clus scale="   21.660">  1  5  2 -1</clus>
</clustering>
</event>
<event>
 9    1  0.1782981E-005  0.3601456E+03  0.7546771E-02  0.1099441E+00
         -2   -1    0    0    0  501 -0.00000000000E+00  0.00000000000E+00  0.37702490363E+03  0.37702490363E+03  0.00000000000E+00 0.  1.
          2   -1    0    0  502    0  0.00000000000E+00 -0.00000000000E+00 -0.77469927586E+03  0.77469927586E+03  0.00000000000E+00 0. -1.
         23    2    1    2    0    0  0.27446674835E+03 -0.20391961692E+03 -0.44453378461E+03  0.56805313208E+03  0.90326458460E+02 0.  0.
         23    2    1    2    0    0  0.47608901595E+02  0.63028372795E+02 -0.14129811137E+03  0.18494015984E+03  0.89434462917E+02 0.  0.
        -11    1    4    4    0    0  0.64232954026E+02  0.12397510378E+02 -0.68478584356E+02  0.94704208786E+02  0.00000000000E+00 0.  1.
         11    1    4    4    0    0 -0.16624052430E+02  0.50630862417E+02 -0.72819527018E+02  0.90235951058E+02  0.00000000000E+00 0. -1.
        -13    1    3    3    0    0  0.83474315632E+02 -0.10940554962E+03 -0.13948148922E+03  0.19594035187E+03  0.00000000000E+00 0.  1.
         13    1    3    3    0    0  0.19099243272E+03 -0.94514067299E+02 -0.30505229539E+03  0.37211278021E+03  0.00000000000E+00 0. -1.
         21    1    1    2  502  501 -0.32207564994E+03  0.14089124412E+03  0.18815752374E+03  0.39873088756E+03  0.00000000000E+00 0.  1.
<scales pt_clust_5="13000.00000" pt_clust_6="13000.00000" pt_clust_7="13000.00000" pt_clust_8="13000.00000" pt_clust_9="348.63443"></scales>
<clustering>
<clus scale="   89.434">  5  6 -1 -1</clus>
<clus scale="   90.326">  7  8 -1 -1</clus>
<clus scale="  119.322">  2  5  1 -1</clus>
<clus scale="  348.634">  1  9  2 -1</clus>
<clus scale="  119.322">  2  5  1 -1</clus>
</clustering>
</event>
<event>
 9    1  0.1782981E-005  0.9058200E+02  0.7546771E-02  0.1303170E+00
         -1   -1    0    0    0  501 -0.00000000000E+00  0.00000000000E+00  0.11710160208E+03  0.11710160208E+03  0.00000000000E+00 0.  1.
          1   -1    0    0  502    0  0.00000000000E+00 -0.00000000000E+00 -0.11666526357E+03  0.11666526357E+03  0.00000000000E+00 0. -1.
         23    2    1    2    0    0  0.58479722477E+01 -0.32674671360E+00  0.56292571284E+02  0.10666880482E+03  0.90416120234E+02 0.  0.
         23    2    1    2    0    0  0.68389095919E+01 -0.19932700176E+02 -0.46941990156E+02  0.10158598760E+03  0.87590405955E+02 0.  0.
        -11    1    3    3    0    0  0.16828132645E+02  0.41858067611E+02  0.39476390411E+02  0.59947220722E+02  0.00000000000E+00 0. -1.
         11    1    3    3    0    0 -0.10980160398E+02 -0.42184814324E+02  0.16816180873E+02  0.46721584103E+02  0.00000000000E+00 0.  1.
        -13    1    4    4    0    0 -0.16009058792E+02  0.25622272129E+02 -0.40036245975E+02  0.50156672380E+02  0.00000000000E+00 0. -1.
         13    1    4    4    0    0  0.22847968384E+02 -0.45554972304E+02 -0.69057441806E+01  0.51429315216E+02  0.00000000000E+00 0.  1.
         21    1    1    2  502  501 -0.12686881840E+02  0.20259446889E+02 -0.89142426183E+01  0.25512073231E+02  0.00000000000E+00 0. -1.
<scales pt_clust_5="13000.00000" pt_clust_6="13000.00000" pt_clust_7="13000.00000" pt_clust_8="13000.00000" pt_clust_9="23.90402"></scales>
<clustering>
<clus scale="   23.904">  2  9  1 -1</clus>
<clus scale="   87.590">  7  8 -1 -1</clus>
<clus scale="   87.762">  2  7  1 -1</clus>
<clus scale="   90.416">  5  6 -1 -1</clus>
<clus scale="   23.904">  2  5  1 -1</clus>
</clustering>
</event>
<event>
 9    1  0.1782981E-005  0.1142842E+03  0.7546771E-02  0.1253823E+00
         -1   -1    0    0    0  501 -0.00000000000E+00  0.00000000000E+00  0.11969736981E+03  0.11969736981E+03  0.00000000000E+00 0.  1.
          1   -1    0    0  502    0  0.00000000000E+00 -0.00000000000E+00 -0.36919880391E+03  0.36919880391E+03  0.00000000000E+00 0. -1.
         23    2    1    2    0    0 -0.67207487994E+02  0.30302623612E+02  0.72775356544E+02  0.13665576772E+03  0.89126039352E+02 0.  0.
         23    2    1    2    0    0  0.24603956862E+02 -0.16995543577E+02 -0.20142102199E+03  0.22340618672E+03  0.91900451404E+02 0.  0.
        -11    1    4    4    0    0  0.22899062629E+02 -0.40928760587E+02 -0.19197371013E+03  0.19761942185E+03  0.00000000000E+00 0. -1.
         11    1    4    4    0    0  0.17048942335E+01  0.23933217010E+02 -0.94473118641E+01  0.25786764866E+02  0.00000000000E+00 0.  1.
        -11    1    3    3    0    0 -0.57054123317E+02  0.57189297395E+02  0.71512613877E+02  0.10788810253E+03  0.00000000000E+00 0.  1.
         11    1    3    3    0    0 -0.10153364677E+02 -0.26886673783E+02  0.12627426666E+01  0.28767665189E+02  0.00000000000E+00 0. -1.
         21    1    1    2  502  501  0.42603531132E+02 -0.13307080036E+02 -0.12085576865E+03  0.12883421929E+03  0.00000000000E+00 0. -1.
<scales pt_clust_5="13000.00000" pt_clust_6="13000.00000" pt_clust_7="13000.00000" pt_clust_8="13000.00000" pt_clust_9="44.63339"></scales>
<clustering>
<clus scale="   44.633">  2  9  1 -1</clus>
<clus scale="   89.126">  7  8 -1 -1</clus>
<clus scale="   91.900">  5  6 -1 -1</clus>
<clus scale="  112.065">  1  7  2 -1</clus>
<clus scale="   44.633">  2  5  1 -1</clus>
</clustering>
</event>
<event>
 9    1  0.1782981E-005  0.9445907E+02  0.7546771E-02  0.1294475E+00
         -2   -1    0    0    0  501 -0.00000000000E+00  0.00000000000E+00  0.47732588698E+03  0.47732588698E+03  0.00000000000E+00 0. -1.
          2   -1    0    0  502    0  0.00000000000E+00 -0.00000000000E+00 -0.28650647810E+02  0.28650647810E+02  0.00000000000E+00 0.  1.
         23    2    1    2    0    0  0.13113638698E+02  0.18259340412E+02  0.24887663592E+03  0.26481398254E+03  0.87644135054E+02 0.  0.
         23    2    1    2    0    0  0.16250211103E+02 -0.33332000112E+02  0.17086419310E+03  0.19726926306E+03  0.91353697630E+02 0.  0.
        -11    1    4    4    0    0 -0.23822889232E+02  0.10065247331E+02  0.13477749058E+02  0.29163144118E+02  0.00000000000E+00 0. -1.
         11    1    4    4    0    0  0.40073100335E+02 -0.43397247443E+02  0.15738644405E+03  0.16810611894E+03  0.00000000000E+00 0.  1.
        -13    1    3    3    0    0 -0.34820433988E+02 -0.93884415724E+00  0.64039920133E+02  0.72900311536E+02  0.00000000000E+00 0.  1.
         13    1    3    3    0    0  0.47934072686E+02  0.19198184569E+02  0.18483671578E+03  0.19191367100E+03  0.00000000000E+00 0. -1.
         21    1    1    2  502  501 -0.29363849801E+02  0.15072659700E+02  0.28934410146E+02  0.43893289192E+02  0.00000000000E+00 0.  1.
<scales pt_clust_5="13000.00000" pt_clust_6="13000.00000" pt_clust_7="13000.00000" pt_clust_8="13000.00000" pt_clust_9="33.00637"></scales>
<clustering>
<clus scale="   33.006">  2  9  1 -1</clus>
<clus scale="   87.644">  7  8 -1 -1</clus>
<clus scale="   90.876">  1  7  2 -1</clus>
<clus scale="   91.354">  5  6 -1 -1</clus>
<clus scale="   33.006">  2  5  1 -1</clus>
</clustering>
</event>
<event>
 9    1  0.1782981E-005  0.9503624E+02  0.7546771E-02  0.1293171E+00
          1   -1    0    0  502    0  0.00000000000E+00  0.00000000000E+00  0.66268435300E+02  0.66268435300E+02  0.00000000000E+00 0. -1.
         -1   -1    0    0    0  501 -0.00000000000E+00 -0.00000000000E+00 -0.25449702787E+03  0.25449702787E+03  0.00000000000E+00 0.  1.
         23    2    1    2    0    0 -0.10499541490E+02 -0.14627471483E+02 -0.13302030439E+03  0.16027353765E+03  0.87572839380E+02 0.  0.
         23    2    1    2    0    0  0.69613842581E+01  0.43234554363E+02 -0.74558200795E+02  0.12577445348E+03  0.91337835972E+02 0.  0.
        -13    1    4    4    0    0 -0.29390675212E+02  0.49884121367E+02 -0.66084626095E+02  0.87860202368E+02  0.00000000000E+00 0.  1.
         13    1    4    4    0    0  0.36352059470E+02 -0.66495670031E+01 -0.84735746993E+01  0.37914251110E+02  0.00000000000E+00 0. -1.
        -13    1    3    3    0    0 -0.46749209821E+02  0.52419600446E+01 -0.58632592223E+02  0.75171454920E+02  0.00000000000E+00 0.  1.
         13    1    3    3    0    0  0.36249668331E+02 -0.19869431528E+02 -0.74387712166E+02  0.85102082728E+02  0.00000000000E+00 0. -1.
         21    1    1    2  502  501  0.35381572322E+01 -0.28607082880E+02  0.19349912608E+02  0.34717472049E+02  0.00000000000E+00 0. -1.
<scales pt_clust_5="13000.00000" pt_clust_6="13000.00000" pt_clust_7="13000.00000" pt_clust_8="13000.00000" pt_clust_9="28.82505"></scales>
<clustering>
<clus scale="   28.825">  1  9  2 -1</clus>
<clus scale="   87.573">  7  8 -1 -1</clus>
<clus scale="   91.338">  5  6 -1 -1</clus>
<clus scale="   91.424">  2  7  1 -1</clus>
<clus scale="   28.825">  1  5  2 -1</clus>
</clustering>
</event>
<event>
 9    1  0.1782981E-005  0.9696932E+02  0.7546771E-02  0.1288920E+00
         -2   -1    0    0    0  501 -0.00000000000E+00  0.00000000000E+00  0.45803057233E+02  0.45803057233E+02  0.00000000000E+00 0.  1.
          2   -1    0    0  502    0  0.00000000000E+00 -0.00000000000E+00 -0.30408299902E+03  0.30408299902E+03  0.00000000000E+00 0. -1.
         23    2    1    2    0    0  0.96632603607E+01  0.17330485338E+02 -0.56974314497E+02  0.11053521934E+03  0.92618777146E+02 0.  0.
         23    2    1    2    0    0  0.11443046913E+02  0.59245667085E+01 -0.16292277593E+03  0.18975731989E+03  0.96425959780E+02 0.  0.
        -11    1    4    4    0    0  0.40839713550E+01 -0.44429715669E+02 -0.94318940682E+02  0.10433954681E+03  0.00000000000E+00 0. -1.
         11    1    4    4    0    0  0.73590755576E+01  0.50354282377E+02 -0.68603835252E+02  0.85417773081E+02  0.00000000000E+00 0.  1.
        -13    1    3    3    0    0  0.36456090697E+02 -0.18420079116E+02 -0.51186217653E+02  0.65485683482E+02  0.00000000000E+00 0. -1.
         13    1    3    3    0    0 -0.26792830336E+02  0.35750564454E+02 -0.57880968436E+01  0.45049535861E+02  0.00000000000E+00 0.  1.
         21    1    1    2  502  501 -0.21106307273E+02 -0.23255052046E+02 -0.38382851357E+02  0.49593517023E+02  0.00000000000E+00 0.  1.
<scales pt_clust_5="13000.00000" pt_clust_6="13000.00000" pt_clust_7="13000.00000" pt_clust_8="13000.00000" pt_clust_9="31.40499"></scales>
<clustering>
<clus scale="   31.405">  2  9  1 -1</clus>
<clus scale="   92.619">  7  8 -1 -1</clus>
<clus scale="   93.184">  1  7  2 -1</clus>
<clus scale="   96.426">  5  6 -1 -1</clus>
<clus scale="   31.405">  2  5  1 -1</clus>
</clustering>
</event>
<event>
 9    1  0.3958532E-005  0.1172721E+03  0.7546771E-02  0.1248113E+00
         -1   -1    0    0    0  501 -0.00000000000E+00  0.00000000000E+00  0.81363530234E+02  0.81363530234E+02  0.00000000000E+00 0.  1.
          1   -1    0    0  502    0  0.00000000000E+00 -0.00000000000E+00 -0.57603473198E+03  0.57603473198E+03  0.00000000000E+00 0. -1.
         23    2    1    2    0    0 -0.50618318739E+02 -0.57148750542E+02  0.24480059916E+02  0.11980066403E+03  0.89020963198E+02 0.  0.
         23    2    1    2    0    0  0.23842194218E+02  0.57415955160E+02 -0.45589134758E+03  0.46890371947E+03  0.90381055547E+02 0.  0.
        -11    1    4    4    0    0  0.11687048915E+02  0.75302140840E+02 -0.42109699189E+03  0.42793653281E+03  0.00000000000E+00 0. -1.
         11    1    4    4    0    0  0.12155145303E+02 -0.17886185680E+02 -0.34794355685E+02  0.40967186663E+02  0.00000000000E+00 0.  1.
        -13    1    3    3    0    0 -0.23448399782E+02 -0.63301386011E+02  0.48415849028E+02  0.83072181628E+02  0.00000000000E+00 0.  1.
         13    1    3    3    0    0 -0.27169918957E+02  0.61526354689E+01 -0.23935789112E+02  0.36728482405E+02  0.00000000000E+00 0. -1.
         21    1    1    2  502  501  0.26776124521E+02 -0.26720461817E+00 -0.63259914084E+02  0.68693878713E+02  0.00000000000E+00 0. -1.
<scales pt_clust_5="13000.00000" pt_clust_6="13000.00000" pt_clust_7="13000.00000" pt_clust_8="13000.00000" pt_clust_9="26.77746"></scales>
<clustering>
<clus scale="   26.777">  2  9  1 -1</clus>
<clus scale="   89.021">  7  8 -1 -1</clus>
<clus scale="   90.381">  5  6 -1 -1</clus>
<clus scale="  116.227">  1  7  2 -1</clus>
<clus scale="   26.777">  2  5  1 -1</clus>
</clustering>
</event>
<event>
 9    1  0.1782981E-005  0.9564464E+02  0.7546771E-02  0.1290672E+00
         -1   -1    0    0    0  501 -0.00000000000E+00  0.00000000000E+00  0.13931103571E+03  0.13931103571E+03  0.00000000000E+00 0.  1.
          1   -1    0    0  502    0  0.00000000000E+00 -0.00000000000E+00 -0.31560558288E+03  0.31560558288E+03  0.00000000000E+00 0. -1.
         23    2    1    2    0    0 -0.11388225964E+01  0.17855558679E+02  0.68031256490E+02  0.11392847018E+03  0.89617668827E+02 0.  0.
         23    2    1    2    0    0 -0.15203686417E+02 -0.56343391822E+02 -0.16868939142E+02  0.10971987103E+03  0.91368260944E+02 0.  0.
        -11    1    3    3    0    0  0.18964893812E+02  0.49218069792E+02  0.49442082443E+02  0.72295263383E+02  0.00000000000E+00 0. -1.
         11    1    3    3    0    0 -0.20103716408E+02 -0.31362511112E+02  0.18589174048E+02  0.41633206800E+02  0.00000000000E+00 0.  1.
        -13    1    4    4    0    0 -0.49280734603E+02 -0.10422510013E+02 -0.10226370240E+01  0.50381199911E+02  0.00000000000E+00 0. -1.
         13    1    4    4    0    0  0.34077048186E+02 -0.45920881809E+02 -0.15846302118E+02  0.59338671117E+02  0.00000000000E+00 0.  1.
         21    1    1    2  502  501  0.16342509013E+02  0.38487833143E+02 -0.22745686452E+03  0.23126827737E+03  0.00000000000E+00 0. -1.
<scales pt_clust_5="13000.00000" pt_clust_6="13000.00000" pt_clust_7="13000.00000" pt_clust_8="13000.00000" pt_clust_9="41.81376"></scales>
<clustering>
<clus scale="   41.814">  2  9  1 -1</clus>
<clus scale="   89.618">  5  6 -1 -1</clus>
<clus scale="   91.368">  7  8 -1 -1</clus>
<clus scale="   93.974">  1  5  2 -1</clus>
<clus scale="   41.814">  2  5  1 -1</clus>
</clustering>
</event>
<event>
 9    1  0.1782981E-005  0.1351050E+03  0.7546771E-02  0.1220123E+00
         -1   -1    0    0    0  501 -0.00000000000E+00  0.00000000000E+00  0.32621990063E+03  0.32621990063E+03  0.00000000000E+00 0.  1.
          1   -1    0    0  502    0  0.00000000000E+00 -0.00000000000E+00 -0.18951913827E+03  0.18951913827E+03  0.00000000000E+00 0. -1.
         23    2    1    2    0    0 -0.71588860902E+02  0.50943978066E+02  0.27745876198E+03  0.30932532063E+03  0.10477850674E+03 0.  0.
         23    2    1    2    0    0  0.55271883718E+02 -0.29256308701E+02 -0.10236608251E+03  0.15939735892E+03  0.10496566322E+03 0.  0.
        -11    1    3    3    0    0 -0.24713568715E+02 -0.25888568005E+02  0.14380718544E+03  0.14819407889E+03  0.00000000000E+00 0.  1.
         11    1    3    3    0    0 -0.46875292186E+02  0.76832546071E+02  0.13365157654E+03  0.16113124174E+03  0.00000000000E+00 0. -1.
        -13    1    4    4    0    0 -0.23297165198E+02 -0.31843730970E+02 -0.15904267313E+02  0.42540884184E+02  0.00000000000E+00 0.  1.
         13    1    4    4    0    0  0.78569048916E+02  0.25874222690E+01 -0.86461815193E+02  0.11685647474E+03  0.00000000000E+00 0. -1.
         21    1    1    2  502  501  0.16316977184E+02 -0.21687669365E+02 -0.38391917112E+02  0.47016359349E+02  0.00000000000E+00 0. -1.
<scales pt_clust_5="13000.00000" pt_clust_6="13000.00000" pt_clust_7="13000.00000" pt_clust_8="13000.00000" pt_clust_9="27.14035"></scales>
<clustering>
<clus scale="   27.140">  2  9  1 -1</clus>
<clus scale="  104.779">  5  6 -1 -1</clus>
<clus scale="  104.966">  7  8 -1 -1</clus>
<clus scale="  134.960">  1  5  2 -1</clus>
<clus scale="   27.140">  2  5  1 -1</clus>
</clustering>
</event>
<event>
 9    1  0.1782981E-005  0.9776293E+02  0.7546771E-02  0.1285093E+00
         -2   -1    0    0    0  501 -0.00000000000E+00  0.00000000000E+00  0.10380579459E+03  0.10380579459E+03  0.00000000000E+00 0.  1.
          2   -1    0    0  502    0  0.00000000000E+00 -0.00000000000E+00 -0.19240743114E+03  0.19240743114E+03  0.00000000000E+00 0. -1.
         23    2    1    2    0    0  0.33792960934E+02  0.19958560823E+02  0.41026622539E+02  0.10777206330E+03  0.91604178470E+02 0.  0.
         23    2    1    2    0    0 -0.10572976739E+02 -0.22381116589E+02 -0.53833809006E+02  0.10913268175E+03  0.91646936760E+02 0.  0.
        -11    1    3    3    0    0 -0.31061282198E+02 -0.21491994575E+01  0.13221207314E+02  0.33826360031E+02  0.00000000000E+00 0. -1.
         11    1    3    3    0    0  0.64854243132E+02  0.22107760280E+02  0.27805415225E+02  0.73945703274E+02  0.00000000000E+00 0.  1.
        -11    1    4    4    0    0  0.20189830739E+02 -0.31118792853E+02  0.94044838747E+01  0.38268170205E+02  0.00000000000E+00 0.  1.
         11    1    4    4    0    0 -0.30762807477E+02  0.87376762642E+01 -0.63238292881E+02  0.70864511548E+02  0.00000000000E+00 0. -1.
         21    1    1    2  502  501 -0.23219984195E+02  0.24225557660E+01 -0.75794450089E+02  0.79308480674E+02  0.00000000000E+00 0.  1.
<scales pt_clust_5="13000.00000" pt_clust_6="13000.00000" pt_clust_7="13000.00000" pt_clust_8="13000.00000" pt_clust_9="23.34602"></scales>
<clustering>
<clus scale="   23.346">  2  9  1 -1</clus>
<clus scale="   91.604">  5  6 -1 -1</clus>
<clus scale="   91.647">  7  8 -1 -1</clus>
<clus scale="   97.723">  1  5  2 -1</clus>
<clus scale="   23.346">  2  5  1 -1</clus>
</clustering>
</event>
<event>
 9    1  0.1782981E-005  0.4179850E+03  0.7546771E-02  0.1037862E+00
         -2   -1    0    0    0  501 -0.00000000000E+00  0.00000000000E+00  0.90617601583E+03  0.90617601583E+03  0.00000000000E+00 0.  1.
          2   -1    0    0  502    0  0.00000000000E+00 -0.00000000000E+00 -0.23408361605E+03  0.23408361605E+03  0.00000000000E+00 0. -1.
         23    2    1    2    0    0  0.39625933559E+03 -0.10655533395E+03  0.49188393848E+03  0.64724845149E+03  0.92764480187E+02 0.  0.
         23    2    1    2    0    0 -0.37146422944E+03  0.14642808753E+03  0.15604008449E+03  0.44020261853E+03  0.10001489300E+03 0.  0.
        -11    1    3    3    0    0  0.10254510332E+03 -0.28895783473E+02  0.19644931216E+03  0.22347885082E+03  0.00000000000E+00 0. -1.
         11    1    3    3    0    0  0.29371423228E+03 -0.77659550480E+02  0.29543462632E+03  0.42376960067E+03  0.00000000000E+00 0.  1.
        -13    1    4    4    0    0 -0.25045223169E+03  0.58576988343E+02  0.13076600628E+03  0.28854346695E+03  0.00000000000E+00 0.  1.
         13    1    4    4    0    0 -0.12101199775E+03  0.87851099192E+02  0.25274078211E+02  0.15165915158E+03  0.00000000000E+00 0. -1.
         21    1    1    2  502  501 -0.24795106151E+02 -0.39872753581E+02  0.24168376813E+02  0.52808561853E+02  0.00000000000E+00 0. -1.
<scales pt_clust_5="13000.00000" pt_clust_6="13000.00000" pt_clust_7="13000.00000" pt_clust_8="13000.00000" pt_clust_9="46.95353"></scales>
<clustering>
<clus scale="   46.954">  2  9  1 -1</clus>
<clus scale="   92.764">  5  6 -1 -1</clus>
<clus scale="  100.015">  7  8 -1 -1</clus>
<clus scale="  416.310">  1  5  2 -1</clus>
<clus scale="   46.954">  2  5  1 -1</clus>
</clustering>
</event>
<event>
 9    1  0.1782981E-005  0.1347530E+03  0.7546771E-02  0.1220580E+00
          2   -1    0    0  502    0  0.00000000000E+00  0.00000000000E+00  0.70527507861E+03  0.70527507861E+03  0.00000000000E+00 0. -1.
         -2   -1    0    0    0  501 -0.00000000000E+00 -0.00000000000E+00 -0.33182302993E+02  0.33182302993E+02  0.00000000000E+00 0.  1.
         23    2    1    2    0    0 -0.97766863756E+02 -0.38358616664E+02  0.20273346488E+03  0.24579120327E+03  0.91009420945E+02 0.  0.
         23    2    1    2    0    0  0.87957956361E+02  0.19204690365E+02  0.39154601728E+03  0.41193207033E+03  0.90963315126E+02 0.  0.
        -11    1    3    3    0    0 -0.86822137478E+02 -0.65194186040E+02  0.17316414786E+03  0.20438734685E+03  0.00000000000E+00 0.  1.
         11    1    3    3    0    0 -0.10944726278E+02  0.26835569376E+02  0.29569317020E+02  0.41403856415E+02  0.00000000000E+00 0. -1.
        -13    1    4    4    0    0 -0.17514965652E+02  0.11870792151E+02  0.87717704289E+02  0.90233504719E+02  0.00000000000E+00 0.  1.
         13    1    4    4    0    0  0.10547292201E+03  0.73338982139E+01  0.30382831299E+03  0.32169856561E+03  0.00000000000E+00 0. -1.
         21    1    1    2  502  501  0.98089073949E+01  0.19153926299E+02  0.77813293460E+02  0.80734108009E+02  0.00000000000E+00 0.  1.
<scales pt_clust_5="13000.00000" pt_clust_6="13000.00000" pt_clust_7="13000.00000" pt_clust_8="13000.00000" pt_clust_9="21.51947"></scales>
<clustering>
<clus scale="   21.519">  1  9  2 -1</clus>
<clus scale="   90.963">  7  8 -1 -1</clus>
<clus scale="   91.009">  5  6 -1 -1</clus>
<clus scale="  134.722">  1  7  2 -1</clus>
<clus scale="   21.519">  1  5  2 -1</clus>
</clustering>
</event>
<event>
 9    1  0.1782981E-005  0.3055720E+03  0.7546771E-02  0.1082497E+00
         -2   -1    0    0    0  501 -0.00000000000E+00  0.00000000000E+00  0.40193281511E+03  0.40193281511E+03  0.00000000000E+00 0.  1.
          2   -1    0    0  502    0  0.00000000000E+00 -0.00000000000E+00 -0.68513524697E+03  0.68513524697E+03  0.00000000000E+00 0. -1.
         23    2    1    2    0    0 -0.71317208847E+01  0.30268218090E+03  0.28123292413E+03  0.42307369326E+03  0.90730525395E+02 0.  0.
         23    2    1    2    0    0  0.48903245408E+02 -0.23137434544E+03 -0.33433246695E+03  0.41950100039E+03  0.90979534703E+02 0.  0.
        -11    1    3    3    0    0 -0.30506985576E+02  0.67670792945E+02  0.35612616869E+02  0.82330254870E+02  0.00000000000E+00 0. -1.
         11    1    3    3    0    0  0.23375264691E+02  0.23501138795E+03  0.24562030726E+03  0.34074343839E+03  0.00000000000E+00 0.  1.
        -11    1    4    4    0    0  0.10676161300E+02 -0.33685541747E+02 -0.12142416900E+03  0.12646155526E+03  0.00000000000E+00 0.  1.
         11    1    4    4    0    0  0.38227084108E+02 -0.19768880369E+03 -0.21290829795E+03  0.29303944512E+03  0.00000000000E+00 0. -1.
         21    1    1    2  502  501 -0.41771524523E+02 -0.71307835462E+02 -0.23010288905E+03  0.24449336843E+03  0.00000000000E+00 0. -1.
<scales pt_clust_5="13000.00000" pt_clust_6="13000.00000" pt_clust_7="13000.00000" pt_clust_8="13000.00000" pt_clust_9="82.64180"></scales>
<clustering>
<clus scale="   82.642">  2  9  1 -1</clus>
<clus scale="   90.731">  5  6 -1 -1</clus>
<clus scale="   90.980">  7  8 -1 -1</clus>
<clus scale="  305.498">  1  5  2 -1</clus>
<clus scale="   82.642">  2  5  1 -1</clus>
</clustering>
</event>
<event>
 9    1  0.1782981E-005  0.9691299E+02  0.7546771E-02  0.1287416E+00
          2   -1    0    0  502    0  0.00000000000E+00  0.00000000000E+00  0.32812386792E+03  0.32812386792E+03  0.00000000000E+00 0. -1.
         -2   -1    0    0    0  501 -0.00000000000E+00 -0.00000000000E+00 -0.40978672902E+02  0.40978672902E+02  0.00000000000E+00 0.  1.
         23    2    1    2    0    0  0.20084357048E+02  0.60769923791E+01  0.72111600614E+02  0.11905561257E+03  0.92378810919E+02 0.  0.
         23    2    1    2    0    0 -0.43712189197E+02 -0.61569243036E+01  0.15263835503E+03  0.18332776505E+03  0.91443637355E+02 0.  0.
        -13    1    4    4    0    0 -0.65872899134E+02 -0.23703954893E+02  0.85658566617E+02  0.11062778291E+03  0.00000000000E+00 0.  1.
         13    1    4    4    0    0  0.22160709937E+02  0.17547030590E+02  0.66979788411E+02  0.72699982139E+02  0.00000000000E+00 0. -1.
        -13    1    3    3    0    0 -0.13067115238E+02 -0.29475592441E+02  0.18477190225E+00  0.32242738578E+02  0.00000000000E+00 0.  1.
         13    1    3    3    0    0  0.33151472286E+02  0.35552584820E+02  0.71926828712E+02  0.86812873992E+02  0.00000000000E+00 0. -1.
         21    1    1    2  502  501  0.23627832149E+02  0.79931924436E-01  0.62395239376E+02  0.66719163199E+02  0.00000000000E+00 0.  1.
<scales pt_clust_5="13000.00000" pt_clust_6="13000.00000" pt_clust_7="13000.00000" pt_clust_8="13000.00000" pt_clust_9="23.62797"></scales>
<clustering>
<clus scale="   23.628">  1  9  2 -1</clus>
<clus scale="   91.444">  5  6 -1 -1</clus>
<clus scale="   92.379">  7  8 -1 -1</clus>
<clus scale="   96.022">  1  5  2 -1</clus>
<clus scale="   23.628">  1  5  2 -1</clus>
</clustering>
</event>
<event>
 9    1  0.1782981E-005  0.1164898E+03  0.7546771E-02  0.1261655E+00
          2   -1    0    0  502    0  0.00000000000E+00  0.00000000000E+00  0.16192740947E+03  0.16192740947E+03  0.00000000000E+00 0. -1.
         -2   -1    0    0    0  501 -0.00000000000E+00 -0.00000000000E+00 -0.18517425499E+03  0.18517425499E+03  0.00000000000E+00 0.  1.
         23    2    1    2    0    0  0.28633742724E+01 -0.49045538697E+01 -0.96364743152E+02  0.15061168141E+03  0.11560908828E+03 0.  0.
         23    2    1    2    0    0 -0.53831147034E+02 -0.36628176283E+02  0.69351062529E+02  0.13063506235E+03  0.89535098991E+02 0.  0.
        -11    1    3    3    0    0 -0.28632043729E+02  0.46704368536E+02 -0.52854543353E+02  0.76122892230E+02  0.00000000000E+00 0.  1.
         11    1    3    3    0    0  0.31495418002E+02 -0.51608922406E+02 -0.43510199799E+02  0.74488789180E+02  0.00000000000E+00 0. -1.
        -13    1    4    4    0    0 -0.23368518080E+02 -0.25205691947E+02 -0.17009125435E+02  0.38350031185E+02  0.00000000000E+00 0.  1.
         13    1    4    4    0    0 -0.30462628954E+02 -0.11422484336E+02  0.86360187964E+02  0.92285031161E+02  0.00000000000E+00 0. -1.
         21    1    1    2  502  501  0.50967772762E+02  0.41532730153E+02  0.37668351011E+01  0.65854920704E+02  0.00000000000E+00 0.  1.
<scales pt_clust_5="13000.00000" pt_clust_6="13000.00000" pt_clust_7="13000.00000" pt_clust_8="13000.00000" pt_clust_9="65.74710"></scales>
<clustering>
<clus scale="   65.747">  1  9  2 -1</clus>
<clus scale="   89.535">  7  8 -1 -1</clus>
<clus scale="   90.669">  1  7  2 -1</clus>
<clus scale="  115.609">  5  6 -1 -1</clus>
<clus scale="   65.747">  1  5  2 -1</clus>
</clustering>
</event>
<event>
 9    1  0.1782981E-005  0.1248192E+03  0.7546771E-02  0.1237537E+00
         -1   -1    0    0    0  501 -0.00000000000E+00  0.00000000000E+00  0.28774575208E+03  0.28774575208E+03  0.00000000000E+00 0.  1.
          1   -1    0    0  502    0  0.00000000000E+00 -0.00000000000E+00 -0.76355971316E+02  0.76355971316E+02  0.00000000000E+00 0. -1.
         23    2    1    2    0    0 -0.84238774413E+02  0.29399629912E+01  0.11950583228E+03  0.17588091341E+03  0.97712011827E+02 0.  0.
         23    2    1    2    0    0  0.65336812693E+02 -0.42767188074E+02  0.60235468290E+02  0.13395186571E+03  0.90646893041E+02 0.  0.
        -11    1    4    4    0    0  0.33616337011E+02  0.24294373772E+02  0.56733391026E+01  0.41862411393E+02  0.00000000000E+00 0.  1.
         11    1    4    4    0    0  0.31720475683E+02 -0.67061561846E+02  0.54562129188E+02  0.92089454316E+02  0.00000000000E+00 0. -1.
        -11    1    3    3    0    0 -0.66130696295E+02  0.23694590528E+02  0.20591464020E+02  0.73203217165E+02  0.00000000000E+00 0.  1.
         11    1    3    3    0    0 -0.18108078117E+02 -0.20754627537E+02  0.98914368263E+02  0.10267769624E+03  0.00000000000E+00 0. -1.
         21    1    1    2  502  501  0.18901961719E+02  0.39827225083E+02  0.31648480191E+02  0.54268944278E+02  0.00000000000E+00 0.  1.
<scales pt_clust_5="13000.00000" pt_clust_6="13000.00000" pt_clust_7="13000.00000" pt_clust_8="13000.00000" pt_clust_9="44.08505"></scales>
<clustering>
<clus scale="   44.085">  1  9  2 -1</clus>
<clus scale="   90.647">  5  6 -1 -1</clus>
<clus scale="   97.712">  7  8 -1 -1</clus>
<clus scale="  119.369">  2  5  1 -1</clus>
<clus scale="  119.369">  2  5  1 -1</clus>
</clustering>
</event>
<event>
 9    1  0.1782981E-005  0.1554687E+03  0.7546771E-02  0.1193922E+00
         -1   -1    0    0    0  501 -0.00000000000E+00  0.00000000000E+00  0.15397645894E+03  0.15397645894E+03  0.00000000000E+00 0.  1.
          1   -1    0    0  502    0  0.00000000000E+00 -0.00000000000E+00 -0.49795079770E+03  0.49795079770E+03  0.00000000000E+00 0. -1.
         23    2    1    2    0    0 -0.77719285782E+01 -0.14417301658E+03  0.48650708734E+02  0.17773848464E+03  0.91530409572E+02 0.  0.
         23    2    1    2    0    0  0.24779028310E+02  0.91062986230E+02 -0.74383104587E+02  0.15109768425E+03  0.91603472818E+02 0.  0.
        -13    1    3    3    0    0  0.17842532950E+02 -0.10634073371E+03 -0.41602081992E+01  0.10790743700E+03  0.00000000000E+00 0.  1.
         13    1    3    3    0    0 -0.25614461528E+02 -0.37832282877E+02  0.52810916933E+02  0.69831047639E+02  0.00000000000E+00 0. -1.
        -13    1    4    4    0    0 -0.17472629867E+02  0.39361497085E+02  0.92829571589E+01  0.44054438378E+02  0.00000000000E+00 0.  1.
         13    1    4    4    0    0  0.42251658177E+02  0.51701489145E+02 -0.83666061746E+02  0.10704324587E+03  0.00000000000E+00 0. -1.
         21    1    1    2  502  501 -0.17007099732E+02  0.53110030355E+02 -0.31824194290E+03  0.32309108776E+03  0.00000000000E+00 0. -1.
<scales pt_clust_5="13000.00000" pt_clust_6="13000.00000" pt_clust_7="13000.00000" pt_clust_8="13000.00000" pt_clust_9="55.76663"></scales>
<clustering>
<clus scale="   55.767">  2  9  1 -1</clus>
<clus scale="   91.530">  5  6 -1 -1</clus>
<clus scale="   91.603">  7  8 -1 -1</clus>
<clus scale="  155.426">  1  5  2 -1</clus>
<clus scale="   55.767">  2  5  1 -1</clus>
</clustering>
</event>
<event>
 9    1  0.1782981E-005  0.1262797E+03  0.7546771E-02  0.1233874E+00
          1   -1    0    0  502    0  0.00000000000E+00  0.00000000000E+00  0.48496520338E+02  0.48496520338E+02  0.00000000000E+00 0. -1.
         -1   -1    0    0    0  501 -0.00000000000E+00 -0.00000000000E+00 -0.71707810574E+03  0.71707810574E+03  0.00000000000E+00 0.  1.
         23    2    1    2    0    0  0.78481333705E+02 -0.44062565249E+02 -0.59123788185E+03  0.60456749492E+03  0.88536961662E+02 0.  0.
         23    2    1    2    0    0 -0.55418815837E+02  0.49009268351E+02 -0.66177123235E+02  0.13491034749E+03  0.91368685482E+02 0.  0.
        -13    1    4    4    0    0 -0.80798290399E+02  0.41609345721E+02 -0.54831347617E+02  0.10614225391E+03  0.00000000000E+00 0. -1.
         13    1    4    4    0    0  0.25379474562E+02  0.73999226298E+01 -0.11345775618E+02  0.28768093582E+02  0.00000000000E+00 0.  1.
        -13    1    3    3    0    0  0.92679740746E+02 -0.21610071281E+02 -0.51779780142E+03  0.52647041007E+03  0.00000000000E+00 0.  1.
         13    1    3    3    0    0 -0.14198407041E+02 -0.22452493969E+02 -0.73440080431E+02  0.78097084847E+02  0.00000000000E+00 0. -1.
         21    1    1    2  502  501 -0.23062517868E+02 -0.49467031013E+01 -0.11166580315E+02  0.26096783670E+02  0.00000000000E+00 0. -1.
<scales pt_clust_5="13000.00000" pt_clust_6="13000.00000" pt_clust_7="13000.00000" pt_clust_8="13000.00000" pt_clust_9="23.58706"></scales>
<clustering>
<clus scale="   23.587">  1  9  2 -1</clus>
<clus scale="   88.537">  7  8 -1 -1</clus>
<clus scale="   91.369">  5  6 -1 -1</clus>
<clus scale="  124.246">  2  7  1 -1</clus>
<clus scale="   23.587">  1  5  2 -1</clus>
</clustering>
</event>
<event>
 9    1  0.1782981E-005  0.1040416E+03  0.7546771E-02  0.1274629E+00
          2   -1    0    0  502    0  0.00000000000E+00  0.00000000000E+00  0.16536709051E+03  0.16536709051E+03  0.00000000000E+00 0. -1.
         -2   -1    0    0    0  501 -0.00000000000E+00 -0.00000000000E+00 -0.13653017590E+03  0.13653017590E+03  0.00000000000E+00 0.  1.
         23    2    1    2    0    0  0.26995520224E+02  0.82998714566E+02 -0.21093344099E+02  0.12708918655E+03  0.89939910172E+02 0.  0.
         23    2    1    2    0    0  0.61777872378E+01 -0.42534171316E+02  0.71325734117E+02  0.11827831818E+03  0.83994520169E+02 0.  0.
        -11    1    3    3    0    0  0.19192992280E+02  0.46169467670E+02  0.33925737601E+02  0.60423061569E+02  0.00000000000E+00 0. -1.
         11    1    3    3    0    0  0.78025279440E+01  0.36829246895E+02 -0.55019081700E+02  0.66666124984E+02  0.00000000000E+00 0.  1.
        -13    1    4    4    0    0 -0.14059387324E+01 -0.62701338409E+02  0.25619042009E+02  0.67747839932E+02  0.00000000000E+00 0. -1.
         13    1    4    4    0    0  0.75837259701E+01  0.20167167092E+02  0.45706692109E+02  0.50530478244E+02  0.00000000000E+00 0.  1.
         21    1    1    2  502  501 -0.33173307462E+02 -0.40464543249E+02 -0.21395475407E+02  0.56529761686E+02  0.00000000000E+00 0. -1.
<scales pt_clust_5="13000.00000" pt_clust_6="13000.00000" pt_clust_7="13000.00000" pt_clust_8="13000.00000" pt_clust_9="52.32445"></scales>
<clustering>
<clus scale="   52.324">  2  9  1 -1</clus>
<clus scale="   83.995">  7  8 -1 -1</clus>
<clus scale="   89.940">  5  6 -1 -1</clus>
<clus scale="   98.947">  1  7  2 -1</clus>
<clus scale="   98.947">  1  5  2 -1</clus>
</clustering>
</event>
<event>
 9    1  0.1782981E-005  0.1281891E+03  0.7546771E-02  0.1230548E+00
         -1   -1    0    0    0  501 -0.00000000000E+00  0.00000000000E+00  0.59301118619E+03  0.59301118619E+03  0.00000000000E+00 0.  1.
          1   -1    0    0  502    0  0.00000000000E+00 -0.00000000000E+00 -0.12261732742E+03  0.12261732742E+03  0.00000000000E+00 0. -1.
         23    2    1    2    0    0  0.92418245463E+02 -0.13963271479E+02  0.52684253211E+03  0.54270258750E+03  0.90702479543E+02 0.  0.
         23    2    1    2    0    0 -0.57813208727E+02 -0.14343772216E+02 -0.67608116696E+02  0.12684631602E+03  0.89280566420E+02 0.  0.
        -11    1    4    4    0    0 -0.30280676935E+02 -0.46420510862E+02 -0.11513396868E+02  0.56606903570E+02  0.00000000000E+00 0.  1.
         11    1    4    4    0    0 -0.27532531792E+02  0.32076738645E+02 -0.56094719827E+02  0.70239412451E+02  0.00000000000E+00 0. -1.
        -13    1    3    3    0    0  0.49397068260E+02 -0.49674632696E+02  0.35963835039E+03  0.36639784737E+03  0.00000000000E+00 0.  1.
         13    1    3    3    0    0  0.43021177203E+02  0.35711361217E+02  0.16720418171E+03  0.17630474012E+03  0.00000000000E+00 0. -1.
         21    1    1    2  502  501 -0.34605036736E+02  0.28307043695E+02  0.11159443356E+02  0.46079610093E+02  0.00000000000E+00 0. -1.
<scales pt_clust_5="13000.00000" pt_clust_6="13000.00000" pt_clust_7="13000.00000" pt_clust_8="13000.00000" pt_clust_9="44.70791"></scales>
<clustering>
<clus scale="   44.708">  2  9  1 -1</clus>
<clus scale="   89.281">  5  6 -1 -1</clus>
<clus scale="   90.702">  7  8 -1 -1</clus>
<clus scale="  127.187">  2  5  1 -1</clus>
<clus scale="   44.708">  2  5  1 -1</clus>
</clustering>
</event>
<event>
 9    1  0.1782981E-005  0.2011675E+03  0.7546771E-02  0.1178967E+00
          2   -1    0    0  502    0  0.00000000000E+00  0.00000000000E+00  0.21431093457E+04  0.21431093457E+04  0.00000000000E+00 0. -1.
         -2   -1    0    0    0  501 -0.00000000000E+00 -0.00000000000E+00 -0.30978509393E+02  0.30978509393E+02  0.00000000000E+00 0.  1.
         23    2    1    2    0    0 -0.39087880669E+02  0.53853298997E+01  0.29219387860E+03  0.30884419138E+03  0.91927186765E+02 0.  0.
         23    2    1    2    0    0 -0.19366710692E+02  0.16888200223E+03  0.57028374937E+03  0.60214462428E+03  0.91969525347E+02 0.  0.
        -13    1    4    4    0    0  0.95333568320E+01  0.10653195831E+03  0.21339246226E+03  0.23869705901E+03  0.00000000000E+00 0.  1.
         13    1    4    4    0    0 -0.28900067524E+02  0.62350043921E+02  0.35689128711E+03  0.36344756526E+03  0.00000000000E+00 0. -1.
        -13    1    3    3    0    0  0.27731657872E+02  0.13460319811E+02  0.12176981326E+03  0.12561095685E+03  0.00000000000E+00 0.  1.
         13    1    3    3    0    0 -0.66819538541E+02 -0.80749899108E+01  0.17042406533E+03  0.18323323453E+03  0.00000000000E+00 0. -1.
         21    1    1    2  502  501  0.58454591361E+02 -0.17426733213E+03  0.12496532083E+04  0.12630990394E+04  0.00000000000E+00 0. -1.
<scales pt_clust_5="13000.00000" pt_clust_6="13000.00000" pt_clust_7="13000.00000" pt_clust_8="13000.00000" pt_clust_9="178.91325"></scales>
<clustering>
<clus scale="   91.927">  7  8 -1 -1</clus>
<clus scale="   91.970">  5  6 -1 -1</clus>
<clus scale="  100.037">  2  7  1 -1</clus>
<clus scale="  178.913">  1  9  2 -1</clus>
<clus scale="  178.913">  1  5  2 -1</clus>
</clustering>
</event>
<event>
 9    1  0.1782981E-005  0.2115965E+03  0.7546771E-02  0.1140894E+00
          1   -1    0    0  502    0  0.00000000000E+00  0.00000000000E+00  0.14865240842E+03  0.14865240842E+03  0.00000000000E+00 0. -1.
         -1   -1    0    0    0  501 -0.00000000000E+00 -0.00000000000E+00 -0.39774453680E+03  0.39774453680E+03  0.00000000000E+00 0.  1.
         23    2    1    2    0    0 -0.13025866654E+03 -0.10399017883E+03 -0.12147780198E+03  0.22543744055E+03  0.91015964139E+02 0.  0.
         23    2    1    2    0    0  0.13075076500E+03  0.16434589959E+03 -0.83460613125E+02  0.24617577926E+03  0.97629417162E+02 0.  0.
        -11    1    3    3    0    0 -0.80541893178E+02 -0.12636920374E+02 -0.77602779504E+02  0.11255611800E+03  0.00000000000E+00 0.  1.
         11    1    3    3    0    0 -0.49716773366E+02 -0.91353258452E+02 -0.43875022474E+02  0.11288132255E+03  0.00000000000E+00 0. -1.
        -13    1    4    4    0    0  0.26413275957E+01  0.24607101192E+02 -0.47011537370E+02  0.53127871088E+02  0.00000000000E+00 0.  1.
         13    1    4    4    0    0  0.12810943740E+03  0.13973879839E+03 -0.36449075756E+02  0.19304790818E+03  0.00000000000E+00 0. -1.
         21    1    1    2  502  501 -0.49209845165E+00 -0.60355720760E+02 -0.44153713279E+02  0.74783725407E+02  0.00000000000E+00 0.  1.
<scales pt_clust_5="13000.00000" pt_clust_6="13000.00000" pt_clust_7="13000.00000" pt_clust_8="13000.00000" pt_clust_9="60.35773"></scales>
<clustering>
<clus scale="   60.358">  2  9  1 -1</clus>
<clus scale="   91.016">  5  6 -1 -1</clus>
<clus scale="   97.629">  7  8 -1 -1</clus>
<clus scale="  208.628">  2  5  1 -1</clus>
<clus scale="  211.597">  1  5  2 -1</clus>
</clustering>
</event>
<event>
 9    1  0.1782981E-005  0.1350700E+03  0.7546771E-02  0.1225788E+00
          2   -1    0    0  502    0  0.00000000000E+00  0.00000000000E+00  0.22466190091E+03  0.22466190091E+03  0.00000000000E+00 0. -1.
         -2   -1    0    0    0  501 -0.00000000000E+00 -0.00000000000E+00 -0.12978824633E+03  0.12978824633E+03  0.00000000000E+00 0.  1.
         23    2    1    2    0    0  0.52666708189E+01  0.83097083439E+02 -0.35612244422E+02  0.14237038995E+03  0.10985550912E+03 0.  0.
         23    2    1    2    0    0  0.23503980686E+02 -0.70396866994E+02  0.53286668241E+02  0.12872049196E+03  0.90671605522E+02 0.  0.
        -11    1    3    3    0    0  0.39220397792E+02  0.52217462906E+02  0.21817761664E+02  0.68854322735E+02  0.00000000000E+00 0.  1.
         11    1    3    3    0    0 -0.33953726973E+02  0.30879620533E+02 -0.57430006086E+02  0.73516067214E+02  0.00000000000E+00 0. -1.
        -13    1    4    4    0    0  0.12924515204E+01 -0.50344077133E+02  0.75986890215E+02  0.91160320413E+02  0.00000000000E+00 0. -1.
         13    1    4    4    0    0  0.22211529166E+02 -0.20052789861E+02 -0.22700221974E+02  0.37560171548E+02  0.00000000000E+00 0.  1.
         21    1    1    2  502  501 -0.28770651505E+02 -0.12700216445E+02  0.77199230762E+02  0.83359265328E+02  0.00000000000E+00 0. -1.
<scales pt_clust_5="13000.00000" pt_clust_6="13000.00000" pt_clust_7="13000.00000" pt_clust_8="13000.00000" pt_clust_9="31.44910"></scales>
<clustering>
<clus scale="   31.449">  1  9  2 -1</clus>
<clus scale="   90.672">  7  8 -1 -1</clus>
<clus scale="  109.856">  5  6 -1 -1</clus>
<clus scale="  119.988">  1  7  2 -1</clus>
<clus scale="   31.449">  1  5  2 -1</clus>
</clustering>
</event>
<event>
 9    1  0.1782981E-005  0.1166278E+03  0.7546771E-02  0.1253272E+00
          1   -1    0    0  502    0  0.00000000000E+00  0.00000000000E+00  0.36281955808E+03  0.36281955808E+03  0.00000000000E+00 0. -1.
         -1   -1    0    0    0  501 -0.00000000000E+00 -0.00000000000E+00 -0.42745188442E+02  0.42745188442E+02  0.00000000000E+00 0.  1.
         23    2    1    2    0    0 -0.44181923313E+02  0.44741420498E+02  0.12031306214E+03  0.15662261831E+03  0.78112576381E+02 0.  0.
         23    2    1    2    0    0  0.61239592637E+02 -0.58715380012E+02  0.15382744051E+03  0.19798964286E+03  0.91319404665E+02 0.  0.
        -11    1    3    3    0    0 -0.61248897097E+02  0.23572374829E+02  0.10886959559E+03  0.12712070286E+03  0.00000000000E+00 0. -1.
         11    1    3    3    0    0  0.17066973784E+02  0.21169045669E+02  0.11443466547E+02  0.29501915451E+02  0.00000000000E+00 0.  1.
        -13    1    4    4    0    0 -0.22223849176E+02 -0.26705331791E+02  0.51398843059E+02  0.62039626740E+02  0.00000000000E+00 0. -1.
         13    1    4    4    0    0  0.83463441813E+02 -0.32010048221E+02  0.10242859745E+03  0.13595001612E+03  0.00000000000E+00 0.  1.
         21    1    1    2  502  501 -0.17057669324E+02  0.13973959514E+02  0.45933866989E+02  0.50952485355E+02  0.00000000000E+00 0.  1.
<scales pt_clust_5="13000.00000" pt_clust_6="13000.00000" pt_clust_7="13000.00000" pt_clust_8="13000.00000" pt_clust_9="22.05075"></scales>
<clustering>
<clus scale="   22.051">  1  9  2 -1</clus>
<clus scale="   78.113">  5  6 -1 -1</clus>
<clus scale="   91.319">  7  8 -1 -1</clus>
<clus scale="  106.604">  2  5  1 -1</clus>
<clus scale="   22.051">  1  5  2 -1</clus>
</clustering>
</event>
<event>
 9    1  0.1782981E-005  0.9460125E+02  0.7546771E-02  0.1293097E+00
         -1   -1    0    0    0  501 -0.00000000000E+00  0.00000000000E+00  0.20832540863E+03  0.20832540863E+03  0.00000000000E+00 0.  1.
          1   -1    0    0  502    0  0.00000000000E+00 -0.00000000000E+00 -0.11051859384E+03  0.11051859384E+03  0.00000000000E+00 0. -1.
         23    2    1    2    0    0  0.11968398321E+02  0.59797298710E+01  0.10821124035E+03  0.14241098641E+03  0.91609043126E+02 0.  0.
         23    2    1    2    0    0 -0.37252960686E+02 -0.19453620902E+02  0.48934991997E+02  0.11053900033E+03  0.89766423047E+02 0.  0.
        -11    1    4    4    0    0 -0.62179133087E+02 -0.69742232250E+01  0.11103277316E+02  0.63546574638E+02  0.00000000000E+00 0.  1.
         11    1    4    4    0    0  0.24926172401E+02 -0.12479397677E+02  0.37831714681E+02  0.46992425694E+02  0.00000000000E+00 0. -1.
        -11    1    3    3    0    0  0.42937420643E+02  0.29540146868E+02  0.74539711016E+02  0.90952794827E+02  0.00000000000E+00 0. -1.
         11    1    3    3    0    0 -0.30969022322E+02 -0.23560416997E+02  0.33671529337E+02  0.51458191578E+02  0.00000000000E+00 0.  1.
         21    1    1    2  502  501  0.25284562365E+02  0.13473891031E+02 -0.59339417563E+02  0.65894015739E+02  0.00000000000E+00 0. -1.
<scales pt_clust_5="13000.00000" pt_clust_6="13000.00000" pt_clust_7="13000.00000" pt_clust_8="13000.00000" pt_clust_9="28.65056"></scales>
<clustering>
<clus scale="   28.651">  2  9  1 -1</clus>
<clus scale="   89.766">  5  6 -1 -1</clus>
<clus scale="   91.609">  7  8 -1 -1</clus>
<clus scale="   92.818">  2  5  1 -1</clus>
<clus scale="   28.651">  2  5  1 -1</clus>
</clustering>
</event>
<event>
 9    1  0.1782981E-005  0.1402511E+03  0.7546771E-02  0.1217782E+00
         -1   -1    0    0    0  501 -0.00000000000E+00  0.00000000000E+00  0.36049008333E+02  0.36049008333E+02  0.00000000000E+00 0.  1.
          1   -1    0    0  502    0  0.00000000000E+00 -0.00000000000E+00 -0.97457010839E+03  0.97457010839E+03  0.00000000000E+00 0. -1.
         23    2    1    2    0    0  0.14897141621E+01  0.65963796028E+02 -0.20135479708E+03  0.23904582371E+03  0.11066033568E+03 0.  0.
         23    2    1    2    0    0 -0.13558796930E+02 -0.12235493989E+03 -0.38552809007E+03  0.41523769748E+03  0.92929354266E+02 0.  0.
        -11    1    4    4    0    0 -0.11506799154E+02 -0.82227848337E+02 -0.35552646002E+03  0.36509298712E+03  0.00000000000E+00 0. -1.
         11    1    4    4    0    0 -0.20519977759E+01 -0.40127091552E+02 -0.30001630049E+02  0.50144710358E+02  0.00000000000E+00 0.  1.
        -13    1    3    3    0    0 -0.48299781405E+02  0.56447044693E+02 -0.14709872043E+03  0.16479433027E+03  0.00000000000E+00 0.  1.
         13    1    3    3    0    0  0.49789495567E+02  0.95167513349E+01 -0.54256076648E+02  0.74251493439E+02  0.00000000000E+00 0. -1.
         21    1    1    2  502  501  0.12069082768E+02  0.56391143861E+02 -0.35163821291E+03  0.35633559553E+03  0.00000000000E+00 0.  1.
<scales pt_clust_5="13000.00000" pt_clust_6="13000.00000" pt_clust_7="13000.00000" pt_clust_8="13000.00000" pt_clust_9="57.66822"></scales>
<clustering>
<clus scale="   57.668">  2  9  1 -1</clus>
<clus scale="   92.929">  5  6 -1 -1</clus>
<clus scale="  110.660">  7  8 -1 -1</clus>
<clus scale="  126.730">  2  5  1 -1</clus>
<clus scale="   57.668">  2  5  1 -1</clus>
</clustering>
</event>
<event>
 9    1  0.1782981E-005  0.9798960E+02  0.7546771E-02  0.1285310E+00
          1   -1    0    0  502    0  0.00000000000E+00  0.00000000000E+00  0.31219240024E+03  0.31219240024E+03  0.00000000000E+00 0. -1.
         -1   -1    0    0    0  501 -0.00000000000E+00 -0.00000000000E+00 -0.10384648401E+03  0.10384648401E+03  0.00000000000E+00 0.  1.
         23    2    1    2    0    0  0.31018613694E+02  0.66946195139E+01 -0.37365572061E+02  0.10506584733E+03  0.92928327077E+02 0.  0.
         23    2    1    2    0    0 -0.31086190787E+02  0.20783523282E+02  0.45401058745E+02  0.10878668456E+03  0.91514919574E+02 0.  0.
        -11    1    4    4    0    0 -0.24691439050E+02 -0.21822638720E+02  0.55490652219E+02  0.64537641782E+02  0.00000000000E+00 0. -1.
         11    1    4    4    0    0 -0.63947517370E+01  0.42606162002E+02 -0.10089593474E+02  0.44249042778E+02  0.00000000000E+00 0.  1.
        -11    1    3    3    0    0  0.11593493975E+02  0.24085065866E+02  0.25540690043E+02  0.36970614658E+02  0.00000000000E+00 0. -1.
         11    1    3    3    0    0  0.19425119719E+02 -0.17390446352E+02 -0.62906262104E+02  0.68095232670E+02  0.00000000000E+00 0.  1.
         21    1    1    2  502  501  0.67577092919E-01 -0.27478142796E+02  0.20031042955E+03  0.20218635237E+03  0.00000000000E+00 0. -1.
<scales pt_clust_5="13000.00000" pt_clust_6="13000.00000" pt_clust_7="13000.00000" pt_clust_8="13000.00000" pt_clust_9="27.47823"></scales>
<clustering>
<clus scale="   27.478">  1  9  2 -1</clus>
<clus scale="   91.515">  5  6 -1 -1</clus>
<clus scale="   92.928">  7  8 -1 -1</clus>
<clus scale="   96.650">  1  5  2 -1</clus>
<clus scale="   27.478">  1  5  2 -1</clus>
</clustering>
</event>
<event>
 9    1  0.1782981E-005  0.9324183E+02  0.7546771E-02  0.1295653E+00
         -1   -1    0    0    0  501 -0.00000000000E+00  0.00000000000E+00  0.18554223093E+03  0.18554223093E+03  0.00000000000E+00 0.  1.
          1   -1    0    0  502    0  0.00000000000E+00 -0.00000000000E+00 -0.17743367170E+03  0.17743367170E+03  0.00000000000E+00 0. -1.
         23    2    1    2    0    0 -0.12394200766E+02  0.28069501057E+02  0.13441629399E+03  0.16480462870E+03  0.90284619110E+02 0.  0.
         23    2    1    2    0    0 -0.88048931021E+01 -0.17661449326E+02 -0.14196454408E+03  0.16983640496E+03  0.91109932171E+02 0.  0.
        -13    1    3    3    0    0  0.23463845840E+02 -0.19827795985E+02  0.72314739651E+02  0.78569174147E+02  0.00000000000E+00 0.  1.
         13    1    3    3    0    0 -0.35858046606E+02  0.47897297042E+02  0.62101554337E+02  0.86235454550E+02  0.00000000000E+00 0. -1.
        -13    1    4    4    0    0  0.31220477058E+02  0.20864942718E+02 -0.53112716146E+02  0.65046326866E+02  0.00000000000E+00 0.  1.
         13    1    4    4    0    0 -0.40025370160E+02 -0.38526392044E+02 -0.88851827934E+02  0.10479007810E+03  0.00000000000E+00 0. -1.
         21    1    1    2  502  501  0.21199093868E+02 -0.10408051731E+02  0.15656809320E+02  0.28334868974E+02  0.00000000000E+00 0. -1.
<scales pt_clust_5="13000.00000" pt_clust_6="13000.00000" pt_clust_7="13000.00000" pt_clust_8="13000.00000" pt_clust_9="23.61629"></scales>
<clustering>
<clus scale="   23.616">  1  9  2 -1</clus>
<clus scale="   90.285">  5  6 -1 -1</clus>
<clus scale="   91.110">  7  8 -1 -1</clus>
<clus scale="   92.436">  1  5  2 -1</clus>
<clus scale="   93.242">  2  5  1 -1</clus>
</clustering>
</event>
<event>
 9    1  0.1782981E-005  0.1036532E+03  0.7546771E-02  0.1274384E+00
         -1   -1    0    0    0  501 -0.00000000000E+00  0.00000000000E+00  0.37074522978E+02  0.37074522978E+02  0.00000000000E+00 0.  1.
          1   -1    0    0  502    0  0.00000000000E+00 -0.00000000000E+00 -0.73229930684E+03  0.73229930684E+03  0.00000000000E+00 0. -1.
         23    2    1    2    0    0 -0.26301368087E+02  0.55569891655E+02 -0.19528041102E+03  0.22232088657E+03  0.86673887973E+02 0.  0.
         23    2    1    2    0    0  0.61800247446E+02  0.11969507697E+02 -0.42891470871E+03  0.44280825951E+03  0.90270635551E+02 0.  0.
        -13    1    3    3    0    0  0.17143306228E+01 -0.22472498245E+02 -0.53840933305E+02  0.58367783973E+02  0.00000000000E+00 0.  1.
         13    1    3    3    0    0 -0.28015698710E+02  0.78042389899E+02 -0.14143947771E+03  0.16395310260E+03  0.00000000000E+00 0. -1.
        -13    1    4    4    0    0  0.83734224247E+01  0.43485088957E+02 -0.12458543323E+03  0.13222177331E+03  0.00000000000E+00 0. -1.
         13    1    4    4    0    0  0.53426825022E+02 -0.31515581260E+02 -0.30432927548E+03  0.31058648620E+03  0.00000000000E+00 0.  1.
         21    1    1    2  502  501 -0.35498879359E+02 -0.67539399352E+02 -0.71029664131E+02  0.10424468374E+03  0.00000000000E+00 0.  1.
<scales pt_clust_5="13000.00000" pt_clust_6="13000.00000" pt_clust_7="13000.00000" pt_clust_8="13000.00000" pt_clust_9="76.30033"></scales>
<clustering>
<clus scale="   76.300">  1  9  2 -1</clus>
<clus scale="   86.674">  5  6 -1 -1</clus>
<clus scale="   90.271">  7  8 -1 -1</clus>
<clus scale="  100.536">  1  5  2 -1</clus>
<clus scale="  103.653">  2  5  1 -1</clus>
</clustering>
</event>
<event>
 9    1  0.3137405E-005  0.2263048E+03  0.7546771E-02  0.1129275E+00
          2   -1    0    0  502    0  0.00000000000E+00  0.00000000000E+00  0.58948918188E+03  0.58948918188E+03  0.00000000000E+00 0. -1.
         -2   -1    0    0    0  501 -0.00000000000E+00 -0.00000000000E+00 -0.40389489812E+03  0.40389489812E+03  0.00000000000E+00 0.  1.
         23    2    1    2    0    0 -0.23292344421E+02  0.20773537003E+03 -0.34526987856E+03  0.41397455453E+03  0.92016984792E+02 0.  0.
         23    2    1    2    0    0  0.15184533282E+02 -0.17429640252E+03  0.45854619549E+03  0.49932338762E+03  0.91920759605E+02 0.  0.
        -13    1    4    4    0    0  0.48053197013E+02 -0.11997697020E+03  0.35577211866E+03  0.37851999094E+03  0.00000000000E+00 0. -1.
         13    1    4    4    0    0 -0.32868663730E+02 -0.54319432321E+02  0.10277407683E+03  0.12080339668E+03  0.00000000000E+00 0.  1.
        -13    1    3    3    0    0 -0.43192960967E+02  0.38448812172E+02 -0.81846321370E+02  0.10021358868E+03  0.00000000000E+00 0. -1.
         13    1    3    3    0    0  0.19900616545E+02  0.16928655785E+03 -0.26342355719E+03  0.31376096585E+03  0.00000000000E+00 0.  1.
         21    1    1    2  502  501  0.81078111390E+01 -0.33438967506E+02  0.72317966823E+02  0.80086137844E+02  0.00000000000E+00 0. -1.
<scales pt_clust_5="13000.00000" pt_clust_6="13000.00000" pt_clust_7="13000.00000" pt_clust_8="13000.00000" pt_clust_9="34.40786"></scales>
<clustering>
<clus scale="   34.408">  1  9  2 -1</clus>
<clus scale="   91.921">  5  6 -1 -1</clus>
<clus scale="   92.017">  7  8 -1 -1</clus>
<clus scale="  226.266">  1  5  2 -1</clus>
<clus scale="   34.408">  1  5  2 -1</clus>
</clustering>
</event>
<event>
 9    1  0.1782981E-005  0.9858607E+02  0.7546771E-02  0.1293044E+00
         -2   -1    0    0    0  501 -0.00000000000E+00  0.00000000000E+00  0.15098859099E+03  0.15098859099E+03  0.00000000000E+00 0.  1.
          2   -1    0    0  502    0  0.00000000000E+00 -0.00000000000E+00 -0.19759606852E+03  0.19759606852E+03  0.00000000000E+00 0. -1.
         23    2    1    2    0    0 -0.97161186140E-01 -0.29053201855E+02  0.10572817258E+03  0.13316421425E+03  0.75565623820E+02 0.  0.
         23    2    1    2    0    0  0.88291225951E+01  0.64857374368E+02 -0.12754774134E+03  0.17100618696E+03  0.93221549244E+02 0.  0.
        -11    1    3    3    0    0  0.14115992267E+02  0.22738350982E+02  0.28491490921E+02  0.39090393935E+02  0.00000000000E+00 0. -1.
         11    1    3    3    0    0 -0.14213153453E+02 -0.51791552837E+02  0.77236681655E+02  0.94073820319E+02  0.00000000000E+00 0.  1.
        -13    1    4    4    0    0 -0.13677212215E+02  0.75486603570E+02 -0.55239809505E+02  0.94534279532E+02  0.00000000000E+00 0.  1.
         13    1    4    4    0    0  0.22506334810E+02 -0.10629229202E+02 -0.72307931835E+02  0.76471907432E+02  0.00000000000E+00 0. -1.
         21    1    1    2  502  501 -0.87319614089E+01 -0.35804172513E+02 -0.24787908764E+02  0.44414258300E+02  0.00000000000E+00 0.  1.
<scales pt_clust_5="13000.00000" pt_clust_6="13000.00000" pt_clust_7="13000.00000" pt_clust_8="13000.00000" pt_clust_9="36.85357"></scales>
<clustering>
<clus scale="   36.854">  2  9  1 -1</clus>
<clus scale="   75.566">  5  6 -1 -1</clus>
<clus scale="   82.092">  1  5  2 -1</clus>
<clus scale="   93.222">  7  8 -1 -1</clus>
<clus scale="   36.854">  2  5  1 -1</clus>
</clustering>
</event>
<event>
 9    1  0.1782981E-005  0.1006401E+03  0.7546771E-02  0.1286120E+00
         -2   -1    0    0    0  501 -0.00000000000E+00  0.00000000000E+00  0.47063366658E+02  0.47063366658E+02  0.00000000000E+00 0.  1.
          2   -1    0    0  502    0  0.00000000000E+00 -0.00000000000E+00 -0.25366980370E+03  0.25366980370E+03  0.00000000000E+00 0. -1.
         23    2    1    2    0    0 -0.34952542365E+02 -0.38936347101E+02 -0.64012756698E+02  0.12314385769E+03  0.91263669242E+02 0.  0.
         23    2    1    2    0    0  0.20421838926E+02  0.20458629951E+02 -0.11473960725E+03  0.14114186061E+03  0.76943097810E+02 0.  0.
        -13    1    3    3    0    0  0.13550982695E+02 -0.43372976907E+02 -0.58576574920E+02  0.74135412504E+02  0.00000000000E+00 0. -1.
         13    1    3    3    0    0 -0.48503525060E+02  0.44366298059E+01 -0.54361817783E+01  0.49008445187E+02  0.00000000000E+00 0.  1.
        -13    1    4    4    0    0 -0.12188490807E+02  0.41506573293E+02 -0.56633781546E+02  0.71265280094E+02  0.00000000000E+00 0.  1.
         13    1    4    4    0    0  0.32610329733E+02 -0.21047943342E+02 -0.58105825704E+02  0.69876580519E+02  0.00000000000E+00 0. -1.
         21    1    1    2  502  501  0.14530703439E+02  0.18477717149E+02 -0.27854073098E+02  0.36447452059E+02  0.00000000000E+00 0. -1.
<scales pt_clust_5="13000.00000" pt_clust_6="13000.00000" pt_clust_7="13000.00000" pt_clust_8="13000.00000" pt_clust_9="23.50675"></scales>
<clustering>
<clus scale="   23.507">  2  9  1 -1</clus>
<clus scale="   76.943">  7  8 -1 -1</clus>
<clus scale="   87.861">  2  7  1 -1</clus>
<clus scale="   91.264">  5  6 -1 -1</clus>
<clus scale="   23.507">  2  5  1 -1</clus>
</clustering>
</event>
<event>
 9    1  0.1782981E-005  0.9302513E+02  0.7546771E-02  0.1297319E+00
          2   -1    0    0  502    0  0.00000000000E+00  0.00000000000E+00  0.47540617255E+03  0.47540617255E+03  0.00000000000E+00 0. -1.
         -2   -1    0    0    0  501 -0.00000000000E+00 -0.00000000000E+00 -0.30852478664E+02  0.30852478664E+02  0.00000000000E+00 0.  1.
         23    2    1    2    0    0  0.18872272098E+02 -0.36536662669E+02  0.14859429642E+03  0.17925554232E+03  0.91439565563E+02 0.  0.
         23    2    1    2    0    0 -0.13631973774E+02 -0.98981551279E+01  0.22061304615E+03  0.23834237527E+03  0.88618099359E+02 0.  0.
        -11    1    3    3    0    0  0.37675626659E+02 -0.50821728601E+02  0.14084754945E+03  0.15440315129E+03  0.00000000000E+00 0. -1.
         11    1    3    3    0    0 -0.18803354561E+02  0.14285065932E+02  0.77467469776E+01  0.24852391035E+02  0.00000000000E+00 0.  1.
        -13    1    4    4    0    0  0.36915319001E+02 -0.13973429759E+02  0.93931644442E+02  0.10188793522E+03  0.00000000000E+00 0. -1.
         13    1    4    4    0    0 -0.50547292775E+02  0.40752746311E+01  0.12668140170E+03  0.13645444004E+03  0.00000000000E+00 0.  1.
         21    1    1    2  502  501 -0.52402983238E+01  0.46434817797E+02  0.75346351313E+02  0.88660733623E+02  0.00000000000E+00 0.  1.
<scales pt_clust_5="13000.00000" pt_clust_6="13000.00000" pt_clust_7="13000.00000" pt_clust_8="13000.00000" pt_clust_9="46.72957"></scales>
<clustering>
<clus scale="   46.730">  2  9  1 -1</clus>
<clus scale="   88.618">  7  8 -1 -1</clus>
<clus scale="   90.253">  1  7  2 -1</clus>
<clus scale="   91.440">  5  6 -1 -1</clus>
<clus scale="   90.253">  1  5  2 -1</clus>
</clustering>
</event>
<event>
 9    1  0.1782981E-005  0.2111981E+03  0.7546771E-02  0.1140755E+00
          1   -1    0    0  502    0  0.00000000000E+00  0.00000000000E+00  0.65403790160E+03  0.65403790160E+03  0.00000000000E+00 0. -1.
         -1   -1    0    0    0  501 -0.00000000000E+00 -0.00000000000E+00 -0.83426993984E+02  0.83426993984E+02  0.00000000000E+00 0.  1.
         23    2    1    2    0    0 -0.15682921260E+03  0.11091890850E+03  0.15571949210E+03  0.26374978388E+03  0.91744112005E+02 0.  0.
         23    2    1    2    0    0  0.16357144713E+03 -0.91335404732E+02  0.37834090553E+03  0.43170426636E+03  0.90160736051E+02 0.  0.
        -13    1    3    3    0    0 -0.26670562900E+02  0.42434145503E+02  0.78800264115E+00  0.50125807506E+02  0.00000000000E+00 0.  1.
         13    1    3    3    0    0 -0.13015864969E+03  0.68484763000E+02  0.15493148946E+03  0.21362397637E+03  0.00000000000E+00 0. -1.
        -13    1    4    4    0    0  0.11989096995E+03 -0.10120269709E+03  0.33230284642E+03  0.36747926787E+03  0.00000000000E+00 0.  1.
         13    1    4    4    0    0  0.43680477177E+02  0.98672923573E+01  0.46038059104E+02  0.64224998489E+02  0.00000000000E+00 0. -1.
         21    1    1    2  502  501 -0.67422345333E+01 -0.19583503771E+02  0.36550509988E+02  0.42010845347E+02  0.00000000000E+00 0. -1.
<scales pt_clust_5="13000.00000" pt_clust_6="13000.00000" pt_clust_7="13000.00000" pt_clust_8="13000.00000" pt_clust_9="20.71162"></scales>
<clustering>
<clus scale="   20.712">  1  9  2 -1</clus>
<clus scale="   90.161">  7  8 -1 -1</clus>
<clus scale="   91.744">  5  6 -1 -1</clus>
<clus scale="  210.515">  1  7  2 -1</clus>
<clus scale="   20.712">  1  5  2 -1</clus>
</clustering>
</event>
<event>
 9    1  0.1782981E-005  0.2315644E+03  0.7546771E-02  0.1148718E+00
          2   -1    0    0  502    0  0.00000000000E+00  0.00000000000E+00  0.12990883010E+04  0.12990883010E+04  0.00000000000E+00 0. -1.
         -2   -1    0    0    0  501 -0.00000000000E+00 -0.00000000000E+00 -0.15081858634E+03  0.15081858634E+03  0.00000000000E+00 0.  1.
         23    2    1    2    0    0  0.54559681268E+02  0.21093950215E+03 -0.23612401049E+02  0.23740657807E+03  0.91280367219E+02 0.  0.
         23    2    1    2    0    0 -0.14181145591E+02 -0.37428624447E+02  0.45032048887E+03  0.46927246254E+03  0.12580180676E+03 0.  0.
        -11    1    3    3    0    0 -0.86440923371E+01  0.10942134749E+03 -0.39748039587E+02  0.11673756152E+03  0.00000000000E+00 0.  1.
         11    1    3    3    0    0  0.63203773605E+02  0.10151815466E+03  0.16135638539E+02  0.12066901655E+03  0.00000000000E+00 0. -1.
        -13    1    4    4    0    0 -0.38615307467E+02 -0.75254740542E+02  0.24889990582E+03  0.26287940403E+03  0.00000000000E+00 0. -1.
         13    1    4    4    0    0  0.24434161877E+02  0.37826116095E+02  0.20142058305E+03  0.20639305851E+03  0.00000000000E+00 0.  1.
         21    1    1    2  502  501 -0.40378535677E+02 -0.17351087770E+03  0.72156162686E+03  0.74322784675E+03  0.00000000000E+00 0. -1.
<scales pt_clust_5="13000.00000" pt_clust_6="13000.00000" pt_clust_7="13000.00000" pt_clust_8="13000.00000" pt_clust_9="212.81442"></scales>
<clustering>
<clus scale="   91.280">  5  6 -1 -1</clus>
<clus scale="  125.802">  7  8 -1 -1</clus>
<clus scale="  132.016">  1  7  2 -1</clus>
<clus scale="  212.814">  1  9  2 -1</clus>
<clus scale="  132.016">  1  5  2 -1</clus>
</clustering>
</event>
<event>
 9    1  0.1782981E-005  0.1006118E+03  0.7546771E-02  0.1280616E+00
         -1   -1    0    0    0  501 -0.00000000000E+00  0.00000000000E+00  0.36963117796E+03  0.36963117796E+03  0.00000000000E+00 0.  1.
          1   -1    0    0  502    0  0.00000000000E+00 -0.00000000000E+00 -0.23539005216E+03  0.23539005216E+03  0.00000000000E+00 0. -1.
         23    2    1    2    0    0  0.21078546006E+02  0.37622697971E+01  0.14589114967E+03  0.17365740192E+03  0.91728980763E+02 0.  0.
         23    2    1    2    0    0 -0.33780950134E+02  0.42959869632E+02  0.19253520568E+03  0.22151646140E+03  0.94937001520E+02 0.  0.
        -11    1    4    4    0    0  0.32149194001E+02  0.14026785114E+02  0.42539870873E+02  0.55135850310E+02  0.00000000000E+00 0. -1.
         11    1    4    4    0    0 -0.65930144135E+02  0.28933084518E+02  0.14999533480E+03  0.16638061109E+03  0.00000000000E+00 0.  1.
        -11    1    3    3    0    0  0.50819544334E+02 -0.18539191128E+02  0.10676581625E+03  0.11968820833E+03  0.00000000000E+00 0.  1.
         11    1    3    3    0    0 -0.29740998328E+02  0.22301460925E+02  0.39125333428E+02  0.53969193590E+02  0.00000000000E+00 0. -1.
         21    1    1    2  502  501  0.12702404128E+02 -0.46722139429E+02 -0.20418522955E+03  0.20984736679E+03  0.00000000000E+00 0. -1.
<scales pt_clust_5="13000.00000" pt_clust_6="13000.00000" pt_clust_7="13000.00000" pt_clust_8="13000.00000" pt_clust_9="48.41807"></scales>
<clustering>
<clus scale="   48.418">  2  9  1 -1</clus>
<clus scale="   91.729">  7  8 -1 -1</clus>
<clus scale="   94.937">  5  6 -1 -1</clus>
<clus scale="   97.591">  1  7  2 -1</clus>
<clus scale="   48.418">  2  5  1 -1</clus>
</clustering>
</event>
<event>
 9    1  0.1782981E-005  0.1112695E+03  0.7546771E-02  0.1259746E+00
          1   -1    0    0  502    0  0.00000000000E+00  0.00000000000E+00  0.92392852408E+02  0.92392852408E+02  0.00000000000E+00 0. -1.
         -1   -1    0    0    0  501 -0.00000000000E+00 -0.00000000000E+00 -0.23211199421E+03  0.23211199421E+03  0.00000000000E+00 0.  1.
         23    2    1    2    0    0  0.36272856506E+02 -0.47375421650E+02 -0.16112996293E+03  0.19665551706E+03  0.95657601566E+02 0.  0.
         23    2    1    2    0    0 -0.16251748389E+02  0.46949130789E+02  0.10255194586E+02  0.10492609904E+03  0.91847575015E+02 0.  0.
        -11    1    4    4    0    0  0.73485336409E+01  0.24267731445E+02 -0.38561631114E+02  0.46151090240E+02  0.00000000000E+00 0.  1.
         11    1    4    4    0    0 -0.23600282030E+02  0.22681399344E+02  0.48816825700E+02  0.58775008800E+02  0.00000000000E+00 0. -1.
        -13    1    3    3    0    0  0.64913184850E+02 -0.52694941128E+02 -0.11997387555E+03  0.14623340659E+03  0.00000000000E+00 0.  1.
         13    1    3    3    0    0 -0.28640328344E+02  0.53195194782E+01 -0.41156087388E+02  0.50422110470E+02  0.00000000000E+00 0. -1.
         21    1    1    2  502  501 -0.20021108117E+02  0.42629086098E+00  0.11155626544E+02  0.22923230526E+02  0.00000000000E+00 0. -1.
<scales pt_clust_5="13000.00000" pt_clust_6="13000.00000" pt_clust_7="13000.00000" pt_clust_8="13000.00000" pt_clust_9="20.02565"></scales>
<clustering>
<clus scale="   20.026">  1  9  2 -1</clus>
<clus scale="   91.848">  5  6 -1 -1</clus>
<clus scale="   95.658">  7  8 -1 -1</clus>
<clus scale="  108.012">  1  5  2 -1</clus>
<clus scale="   20.026">  1  5  2 -1</clus>
</clustering>
</event>
<event>
 9    1  0.1782981E-005  0.1077567E+03  0.7546771E-02  0.1268132E+00
         -2   -1    0    0    0  501 -0.00000000000E+00  0.00000000000E+00  0.10070309672E+03  0.10070309672E+03  0.00000000000E+00 0.  1.
          2   -1    0    0  502    0  0.00000000000E+00 -0.00000000000E+00 -0.35445625251E+03  0.35445625251E+03  0.00000000000E+00 0. -1.
         23    2    1    2    0    0 -0.37286227666E+02 -0.13160670208E+02  0.53616223137E+02  0.11451564618E+03  0.93143265044E+02 0.  0.
         23    2    1    2    0    0  0.55616518491E+02  0.40327657233E+01 -0.30307715726E+03  0.31972143336E+03  0.85185511490E+02 0.  0.
        -11    1    4    4    0    0  0.53394691426E+02  0.30091616874E+02 -0.27330648920E+03  0.28009451176E+03  0.00000000000E+00 0. -1.
         11    1    4    4    0    0  0.22218270655E+01 -0.26058851151E+02 -0.29770668062E+02  0.39626921602E+02  0.00000000000E+00 0.  1.
        -11    1    3    3    0    0 -0.29733189601E+01  0.38635209235E+02  0.16284224238E+02  0.42032082715E+02  0.00000000000E+00 0. -1.
         11    1    3    3    0    0 -0.34312908706E+02 -0.51795879443E+02  0.37331998899E+02  0.72483563468E+02  0.00000000000E+00 0.  1.
         21    1    1    2  502  501 -0.18330290825E+02  0.91279044851E+01 -0.42922216719E+01  0.20922269688E+02  0.00000000000E+00 0.  1.
<scales pt_clust_5="13000.00000" pt_clust_6="13000.00000" pt_clust_7="13000.00000" pt_clust_8="13000.00000" pt_clust_9="20.47726"></scales>
<clustering>
<clus scale="   20.477">  1  9  2 -1</clus>
<clus scale="   85.186">  5  6 -1 -1</clus>
<clus scale="   93.143">  7  8 -1 -1</clus>
<clus scale="  100.957">  2  5  1 -1</clus>
<clus scale="  100.957">  2  5  1 -1</clus>
</clustering>
</event>
<event>
 9    1  0.1782981E-005  0.4963852E+03  0.7546771E-02  0.1014840E+00
          2   -1    0    0  502    0  0.00000000000E+00  0.00000000000E+00  0.17274575142E+03  0.17274575142E+03  0.00000000000E+00 0. -1.
         -2   -1    0    0    0  501 -0.00000000000E+00 -0.00000000000E+00 -0.21570893729E+04  0.21570893729E+04  0.00000000000E+00 0.  1.
         23    2    1    2    0    0  0.48482070566E+03  0.49908588597E+02 -0.16116674304E+04  0.16864912023E+04  0.96118081088E+02 0.  0.
         23    2    1    2    0    0 -0.48028677013E+03 -0.75178747228E+02 -0.33135449044E+03  0.59469599877E+03  0.86834941232E+02 0.  0.
        -11    1    4    4    0    0 -0.44789634233E+03 -0.90357176334E+02 -0.29610290777E+03  0.54447450333E+03  0.00000000000E+00 0. -1.
         11    1    4    4    0    0 -0.32390427800E+02  0.15178429106E+02 -0.35251582668E+02  0.50221495435E+02  0.00000000000E+00 0.  1.
        -11    1    3    3    0    0  0.30822669616E+03  0.30933643323E+02 -0.11734267502E+04  0.12136271769E+04  0.00000000000E+00 0.  1.
         11    1    3    3    0    0  0.17659400950E+03  0.18974945274E+02 -0.43824068019E+03  0.47286402540E+03  0.00000000000E+00 0. -1.
         21    1    1    2  502  501 -0.45339355346E+01  0.25270158631E+02 -0.41321700611E+02  0.48647923184E+02  0.00000000000E+00 0. -1.
<scales pt_clust_5="13000.00000" pt_clust_6="13000.00000" pt_clust_7="13000.00000" pt_clust_8="13000.00000" pt_clust_9="25.67367"></scales>
<clustering>
<clus scale="   25.674">  1  9  2 -1</clus>
<clus scale="   86.835">  5  6 -1 -1</clus>
<clus scale="   96.118">  7  8 -1 -1</clus>
<clus scale="  494.672">  1  5  2 -1</clus>
<clus scale="   25.674">  1  5  2 -1</clus>
</clustering>
</event>
<event>
 9    1  0.1782981E-005  0.1407872E+03  0.7546771E-02  0.1212573E+00
         -3   -1    0    0    0  501 -0.00000000000E+00  0.00000000000E+00  0.34270762000E+03  0.34270762000E+03  0.00000000000E+00 0.  1.
          3   -1    0    0  502    0  0.00000000000E+00 -0.00000000000E+00 -0.10284933962E+03  0.10284933962E+03  0.00000000000E+00 0. -1.
         23    2    1    2    0    0 -0.10343973754E+03  0.80612447743E+02  0.16939735159E+03  0.23307185052E+03  0.91808925201E+02 0.  0.
         23    2    1    2    0    0  0.76094792478E+02 -0.70944823118E+01  0.29787645170E+02  0.12412814411E+03  0.93165139587E+02 0.  0.
        -11    1    3    3    0    0  0.63335766394E+01  0.37654824209E+02  0.66103000497E+02  0.76338762460E+02  0.00000000000E+00 0. -1.
         11    1    3    3    0    0 -0.10977331418E+03  0.42957623533E+02  0.10329435109E+03  0.15673308806E+03  0.00000000000E+00 0.  1.
        -11    1    4    4    0    0  0.27673869408E+02  0.42798580234E+02  0.11873837484E+02  0.52331152622E+02  0.00000000000E+00 0.  1.
         11    1    4    4    0    0  0.48420923070E+02 -0.49893062546E+02  0.17913807686E+02  0.71796991490E+02  0.00000000000E+00 0. -1.
         21    1    1    2  502  501  0.27344945061E+02 -0.73517965431E+02  0.40673283621E+02  0.88356964989E+02  0.00000000000E+00 0. -1.
<scales pt_clust_5="13000.00000" pt_clust_6="13000.00000" pt_clust_7="13000.00000" pt_clust_8="13000.00000" pt_clust_9="78.43875"></scales>
<clustering>
<clus scale="   78.439">  2  9  1 -1</clus>
<clus scale="   91.809">  5  6 -1 -1</clus>
<clus scale="   93.165">  7  8 -1 -1</clus>
<clus scale="  139.893">  1  5  2 -1</clus>
<clus scale="   78.439">  2  5  1 -1</clus>
</clustering>
</event>
<event>
 9    1  0.1782981E-005  0.9143601E+02  0.7546771E-02  0.1299576E+00
         -1   -1    0    0    0  501 -0.00000000000E+00  0.00000000000E+00  0.47046643185E+03  0.47046643185E+03  0.00000000000E+00 0.  1.
          1   -1    0    0  502    0  0.00000000000E+00 -0.00000000000E+00 -0.28297379290E+02  0.28297379290E+02  0.00000000000E+00 0. -1.
         23    2    1    2    0    0  0.19972474448E+02  0.26649032029E+01  0.23614435828E+03  0.25377022561E+03  0.90714761825E+02 0.  0.
         23    2    1    2    0    0  0.40472998196E+01 -0.22258686294E+01  0.20066259108E+03  0.22037866205E+03  0.90994198174E+02 0.  0.
        -11    1    4    4    0    0  0.21989514652E+02  0.38253269715E+02  0.73487682669E+02  0.85716339764E+02  0.00000000000E+00 0.  1.
         11    1    4    4    0    0 -0.17942214832E+02 -0.40479138345E+02  0.12717490841E+03  0.13466232228E+03  0.00000000000E+00 0. -1.
        -13    1    3    3    0    0 -0.28030049689E+02 -0.21183412961E+02  0.58742613305E+02  0.68447902000E+02  0.00000000000E+00 0. -1.
         13    1    3    3    0    0  0.48002524137E+02  0.23848316164E+02  0.17740174497E+03  0.18532232361E+03  0.00000000000E+00 0.  1.
         21    1    1    2  502  501 -0.24019774267E+02 -0.43903457350E+00  0.53621031981E+01  0.24614923480E+02  0.00000000000E+00 0. -1.
<scales pt_clust_5="13000.00000" pt_clust_6="13000.00000" pt_clust_7="13000.00000" pt_clust_8="13000.00000" pt_clust_9="24.02379"></scales>
<clustering>
<clus scale="   24.024">  2  9  1 -1</clus>
<clus scale="   90.715">  7  8 -1 -1</clus>
<clus scale="   90.994">  5  6 -1 -1</clus>
<clus scale="   91.158">  1  7  2 -1</clus>
<clus scale="   24.024">  2  5  1 -1</clus>
</clustering>
</event>
<event>
 9    1  0.1782981E-005  0.1120308E+03  0.7546771E-02  0.1258704E+00
         -1   -1    0    0    0  501 -0.00000000000E+00  0.00000000000E+00  0.62416151551E+02  0.62416151551E+02  0.00000000000E+00 0.  1.
          1   -1    0    0  502    0  0.00000000000E+00 -0.00000000000E+00 -0.42902071620E+03  0.42902071620E+03  0.00000000000E+00 0. -1.
         23    2    1    2    0    0 -0.22874904195E+02 -0.62819507173E+02 -0.23735909397E+02  0.11726184295E+03  0.93366989320E+02 0.  0.
         23    2    1    2    0    0  0.35829196738E+02  0.38281258660E+02 -0.16709742906E+03  0.19622710182E+03  0.88511799136E+02 0.  0.
        -11    1    4    4    0    0  0.40922772864E+02 -0.11562137376E+01 -0.14513852938E+03  0.15080186630E+03  0.00000000000E+00 0. -1.
         11    1    4    4    0    0 -0.50935761263E+01  0.39437472398E+02 -0.21958899683E+02  0.45425235521E+02  0.00000000000E+00 0.  1.
        -11    1    3    3    0    0  0.10945091022E+02 -0.20677612536E+02  0.31995230369E+02  0.39636516548E+02  0.00000000000E+00 0.  1.
         11    1    3    3    0    0 -0.33819995218E+02 -0.42141894637E+02 -0.55731139766E+02  0.77625326406E+02  0.00000000000E+00 0. -1.
         21    1    1    2  502  501 -0.12954292543E+02  0.24538248513E+02 -0.17577122620E+03  0.17794792298E+03  0.00000000000E+00 0. -1.
<scales pt_clust_5="13000.00000" pt_clust_6="13000.00000" pt_clust_7="13000.00000" pt_clust_8="13000.00000" pt_clust_9="27.74778"></scales>
<clustering>
<clus scale="   27.748">  2  9  1 -1</clus>
<clus scale="   88.512">  5  6 -1 -1</clus>
<clus scale="   93.367">  7  8 -1 -1</clus>
<clus scale="  108.018">  2  5  1 -1</clus>
<clus scale="   27.748">  2  5  1 -1</clus>
</clustering>
</event>
<event>
 9    1  0.1782981E-005  0.1867449E+03  0.7546771E-02  0.1161512E+00
         -4   -1    0    0    0  501 -0.00000000000E+00  0.00000000000E+00  0.44341207673E+03  0.44341207673E+03  0.00000000000E+00 0.  1.
          4   -1    0    0  502    0  0.00000000000E+00 -0.00000000000E+00 -0.18075890251E+03  0.18075890251E+03  0.00000000000E+00 0. -1.
         23    2    1    2    0    0 -0.18056232383E+02  0.13524437734E+03  0.18341290940E+03  0.24627171591E+03  0.91610008153E+02 0.  0.
         23    2    1    2    0    0  0.55553424879E+02 -0.23443309881E+03  0.86426729539E+02  0.27161621112E+03  0.90888534668E+02 0.  0.
        -11    1    3    3    0    0  0.20148550848E+02  0.11975887881E+03  0.15133766383E+03  0.19403927862E+03  0.00000000000E+00 0.  1.
         11    1    3    3    0    0 -0.38204783232E+02  0.15485498521E+02  0.32075245569E+02  0.52232437283E+02  0.00000000000E+00 0. -1.
        -13    1    4    4    0    0  0.38971590490E+02 -0.19166896882E+03  0.28385628165E+02  0.19763988049E+03  0.00000000000E+00 0. -1.
         13    1    4    4    0    0  0.16581834389E+02 -0.42764129987E+02  0.58041101374E+02  0.73976330633E+02  0.00000000000E+00 0.  1.
         21    1    1    2  502  501 -0.37497192496E+02  0.99188721471E+02 -0.71864647177E+01  0.10628305221E+03  0.00000000000E+00 0.  1.
<scales pt_clust_5="13000.00000" pt_clust_6="13000.00000" pt_clust_7="13000.00000" pt_clust_8="13000.00000" pt_clust_9="106.03981"></scales>
<clustering>
<clus scale="   90.889">  7  8 -1 -1</clus>
<clus scale="   91.610">  5  6 -1 -1</clus>
<clus scale="  106.040">  2  9  1 -1</clus>
<clus scale="  186.392">  2  7  1 -1</clus>
<clus scale="  106.040">  2  5  1 -1</clus>
</clustering>
</event>
<event>
 9    1  0.1782981E-005  0.9173642E+02  0.7546771E-02  0.1299658E+00
         -1   -1    0    0    0  501 -0.00000000000E+00  0.00000000000E+00  0.97834133403E+02  0.97834133403E+02  0.00000000000E+00 0.  1.
          1   -1    0    0  502    0  0.00000000000E+00 -0.00000000000E+00 -0.22514919502E+03  0.22514919502E+03  0.00000000000E+00 0. -1.
         23    2    1    2    0    0  0.35260948306E+02  0.34618057616E+02  0.24961127719E+02  0.10513952742E+03  0.89384103404E+02 0.  0.
         23    2    1    2    0    0 -0.57423740321E+01  0.18918397545E+01 -0.14357446282E+03  0.17009404836E+03  0.91004422946E+02 0.  0.
        -11    1    4    4    0    0 -0.13180327353E+02 -0.28476750994E+02 -0.13365936994E+03  0.13729338494E+03  0.00000000000E+00 0. -1.
         11    1    4    4    0    0  0.74379533206E+01  0.30368590748E+02 -0.99150928793E+01  0.32800663415E+02  0.00000000000E+00 0.  1.
        -13    1    3    3    0    0  0.58491970035E+02  0.42430490798E+02  0.32869821697E+02  0.79385655419E+02  0.00000000000E+00 0.  1.
         13    1    3    3    0    0 -0.23231021729E+02 -0.78124331822E+01 -0.79086939782E+01  0.25753872005E+02  0.00000000000E+00 0. -1.
         21    1    1    2  502  501 -0.29518574273E+02 -0.36509897370E+02 -0.87017265190E+01  0.47749752644E+02  0.00000000000E+00 0. -1.
<scales pt_clust_5="13000.00000" pt_clust_6="13000.00000" pt_clust_7="13000.00000" pt_clust_8="13000.00000" pt_clust_9="46.95017"></scales>
<clustering>
<clus scale="   46.950">  1  9  2 -1</clus>
<clus scale="   89.384">  7  8 -1 -1</clus>
<clus scale="   90.129">  1  7  2 -1</clus>
<clus scale="   91.004">  5  6 -1 -1</clus>
<clus scale="   91.736">  2  5  1 -1</clus>
</clustering>
</event>
<event>
 9    1  0.1782981E-005  0.9617701E+02  0.7546771E-02  0.1291490E+00
          2   -1    0    0  502    0  0.00000000000E+00  0.00000000000E+00  0.84474199838E+03  0.84474199838E+03  0.00000000000E+00 0. -1.
         -2   -1    0    0    0  501 -0.00000000000E+00 -0.00000000000E+00 -0.21557466163E+02  0.21557466163E+02  0.00000000000E+00 0.  1.
         23    2    1    2    0    0  0.23906074737E+02  0.13245680950E+02  0.19043028864E+03  0.21476652277E+03  0.95467355680E+02 0.  0.
         23    2    1    2    0    0  0.56016912319E+01  0.23414845426E+02  0.26931022247E+03  0.28505475835E+03  0.90269515322E+02 0.  0.
        -11    1    4    4    0    0 -0.38211153621E+02  0.24746286834E+02  0.95396273162E+02  0.10570203360E+03  0.00000000000E+00 0.  1.
         11    1    4    4    0    0  0.43812844853E+02 -0.13314414079E+01  0.17391394931E+03  0.17935272475E+03  0.00000000000E+00 0. -1.
        -11    1    3    3    0    0  0.34563345928E+02  0.35322026953E+02  0.43597769691E+02  0.65901714635E+02  0.00000000000E+00 0.  1.
         11    1    3    3    0    0 -0.10657271191E+02 -0.22076346003E+02  0.14683251894E+03  0.14886480814E+03  0.00000000000E+00 0. -1.
         21    1    1    2  502  501 -0.29507765969E+02 -0.36660526376E+02  0.36344402111E+03  0.36647818343E+03  0.00000000000E+00 0. -1.
<scales pt_clust_5="13000.00000" pt_clust_6="13000.00000" pt_clust_7="13000.00000" pt_clust_8="13000.00000" pt_clust_9="47.06063"></scales>
<clustering>
<clus scale="   47.061">  1  9  2 -1</clus>
<clus scale="   90.270">  5  6 -1 -1</clus>
<clus scale="   91.020">  1  5  2 -1</clus>
<clus scale="   95.467">  7  8 -1 -1</clus>
<clus scale="   47.061">  1  5  2 -1</clus>
</clustering>
</event>
<event>
 9    1  0.1782981E-005  0.9657663E+02  0.7546771E-02  0.1289168E+00
         -2   -1    0    0    0  501 -0.00000000000E+00  0.00000000000E+00  0.10978598631E+03  0.10978598631E+03  0.00000000000E+00 0.  1.
          2   -1    0    0  502    0  0.00000000000E+00 -0.00000000000E+00 -0.16736975359E+03  0.16736975359E+03  0.00000000000E+00 0. -1.
         23    2    1    2    0    0 -0.19997663871E+02 -0.16840982859E+02  0.54357350247E+02  0.11041898844E+03  0.92488411264E+02 0.  0.
         23    2    1    2    0    0  0.10121153761E+02  0.39035521180E+02 -0.97518277625E+02  0.13848500295E+03  0.89677599787E+02 0.  0.
        -11    1    4    4    0    0 -0.27814879591E+02  0.12366799435E+02  0.69124165201E-01  0.30440269925E+02  0.00000000000E+00 0.  1.
         11    1    4    4    0    0  0.37936033352E+02  0.26668721745E+02 -0.97587401790E+02  0.10804473302E+03  0.00000000000E+00 0. -1.
        -13    1    3    3    0    0  0.28830703253E+02 -0.19635481818E+01 -0.78548173824E+01  0.29946003533E+02  0.00000000000E+00 0. -1.
         13    1    3    3    0    0 -0.48828367124E+02 -0.14877434677E+02  0.62212167630E+02  0.80472984906E+02  0.00000000000E+00 0.  1.
         21    1    1    2  502  501  0.98765101101E+01 -0.22194538320E+02 -0.14422839902E+02  0.28251748513E+02  0.00000000000E+00 0.  1.
<scales pt_clust_5="13000.00000" pt_clust_6="13000.00000" pt_clust_7="13000.00000" pt_clust_8="13000.00000" pt_clust_9="24.29286"></scales>
<clustering>
<clus scale="   24.293">  2  9  1 -1</clus>
<clus scale="   89.678">  5  6 -1 -1</clus>
<clus scale="   92.488">  7  8 -1 -1</clus>
<clus scale="   93.888">  2  5  1 -1</clus>
<clus scale="   24.293">  2  5  1 -1</clus>
</clustering>
</event>
<event>
 9    1  0.1782981E-005  0.1123833E+03  0.7546771E-02  0.1256338E+00
         -1   -1    0    0    0  501 -0.00000000000E+00  0.00000000000E+00  0.16111974065E+03  0.16111974065E+03  0.00000000000E+00 0.  1.
          1   -1    0    0  502    0  0.00000000000E+00 -0.00000000000E+00 -0.20392606245E+03  0.20392606245E+03  0.00000000000E+00 0. -1.
         23    2    1    2    0    0 -0.20866422850E+02  0.45199900492E+02  0.43525454777E+02  0.11076547973E+03  0.88859932921E+02 0.  0.
         23    2    1    2    0    0  0.30204290955E+02 -0.98370449811E+02  0.17881052524E+02  0.13691500974E+03  0.88526511642E+02 0.  0.
        -11    1    3    3    0    0  0.21463827999E+02 -0.95190118224E+01 -0.76707766854E+01  0.24701180405E+02  0.00000000000E+00 0. -1.
         11    1    3    3    0    0 -0.42330250849E+02  0.54718912314E+02  0.51196231462E+02  0.86064299322E+02  0.00000000000E+00 0.  1.
        -13    1    4    4    0    0  0.55354614563E+02 -0.65909533801E+02  0.34349344244E+02  0.92671880575E+02  0.00000000000E+00 0. -1.
         13    1    4    4    0    0 -0.25150323608E+02 -0.32460916010E+02 -0.16468291720E+02  0.44243129161E+02  0.00000000000E+00 0.  1.
         21    1    1    2  502  501 -0.93378681054E+01  0.53170549319E+02 -0.10421282910E+03  0.11736531364E+03  0.00000000000E+00 0. -1.
<scales pt_clust_5="13000.00000" pt_clust_6="13000.00000" pt_clust_7="13000.00000" pt_clust_8="13000.00000" pt_clust_9="53.98429"></scales>
<clustering>
<clus scale="   53.984">  2  9  1 -1</clus>
<clus scale="   88.527">  7  8 -1 -1</clus>
<clus scale="   88.860">  5  6 -1 -1</clus>
<clus scale="  112.120">  2  7  1 -1</clus>
<clus scale="   53.984">  2  5  1 -1</clus>
</clustering>
</event>
<event>
 9    1  0.1782981E-005  0.9327969E+02  0.7546771E-02  0.1295987E+00
         -1   -1    0    0    0  501 -0.00000000000E+00  0.00000000000E+00  0.38313571628E+02  0.38313571628E+02  0.00000000000E+00 0.  1.
          1   -1    0    0  502    0  0.00000000000E+00 -0.00000000000E+00 -0.32586030531E+03  0.32586030531E+03  0.00000000000E+00 0. -1.
         23    2    1    2    0    0 -0.21102719164E+02 -0.19844565134E+01 -0.98239176037E+02  0.13600358711E+03  0.91633930256E+02 0.  0.
         23    2    1    2    0    0 -0.68389961505E+01 -0.50199843907E+01 -0.16818078531E+03  0.19244715788E+03  0.93162008980E+02 0.  0.
        -11    1    3    3    0    0 -0.56911438905E+02 -0.34484586495E+01 -0.70583754466E+02  0.90735164847E+02  0.00000000000E+00 0. -1.
         11    1    3    3    0    0  0.35808719741E+02  0.14640021362E+01 -0.27655421572E+02  0.45268422262E+02  0.00000000000E+00 0.  1.
        -13    1    4    4    0    0  0.30267578815E+02 -0.16658051398E+02 -0.21485511388E+02  0.40684692494E+02  0.00000000000E+00 0.  1.
         13    1    4    4    0    0 -0.37106574966E+02  0.11638067007E+02 -0.14669527392E+03  0.15176246538E+03  0.00000000000E+00 0. -1.
         21    1    1    2  502  501  0.27941715315E+02  0.70044409040E+01 -0.21126772343E+02  0.35723131956E+02  0.00000000000E+00 0.  1.
<scales pt_clust_5="13000.00000" pt_clust_6="13000.00000" pt_clust_7="13000.00000" pt_clust_8="13000.00000" pt_clust_9="28.80628"></scales>
<clustering>
<clus scale="   28.806">  1  9  2 -1</clus>
<clus scale="   91.634">  5  6 -1 -1</clus>
<clus scale="   91.754">  1  5  2 -1</clus>
<clus scale="   93.162">  7  8 -1 -1</clus>
<clus scale="   93.280">  2  5  1 -1</clus>
</clustering>
</event>
<event>
 9    1  0.1782981E-005  0.1282040E+03  0.7546771E-02  0.1230165E+00
         -1   -1    0    0    0  501 -0.00000000000E+00  0.00000000000E+00  0.20540376874E+03  0.20540376874E+03  0.00000000000E+00 0.  1.
          1   -1    0    0  502    0  0.00000000000E+00 -0.00000000000E+00 -0.28385567289E+03  0.28385567289E+03  0.00000000000E+00 0. -1.
         23    2    1    2    0    0 -0.68943454646E+02 -0.23287024292E+02  0.91452399947E+02  0.14889185854E+03  0.92248353079E+02 0.  0.
         23    2    1    2    0    0  0.15206005603E+03  0.16181696113E+02 -0.35297035967E+02  0.18200732372E+03  0.92177422461E+02 0.  0.
        -11    1    4    4    0    0  0.10551025473E+03  0.46222562249E+02 -0.48611828867E+02  0.12502819290E+03  0.00000000000E+00 0.  1.
         11    1    4    4    0    0  0.46549801299E+02 -0.30040866136E+02  0.13314792900E+02  0.56979130821E+02  0.00000000000E+00 0. -1.
        -13    1    3    3    0    0 -0.40230033163E+02  0.84725431091E+01  0.97347390065E+02  0.10567286268E+03  0.00000000000E+00 0. -1.
         13    1    3    3    0    0 -0.28713421483E+02 -0.31759567401E+02 -0.58949901189E+01  0.43218995861E+02  0.00000000000E+00 0.  1.
         21    1    1    2  502  501 -0.83116601381E+02  0.71053281791E+01 -0.13460726813E+03  0.15836025936E+03  0.00000000000E+00 0. -1.
<scales pt_clust_5="13000.00000" pt_clust_6="13000.00000" pt_clust_7="13000.00000" pt_clust_8="13000.00000" pt_clust_9="83.41975"></scales>
<clustering>
<clus scale="   83.420">  2  9  1 -1</clus>
<clus scale="   92.177">  5  6 -1 -1</clus>
<clus scale="   92.248">  7  8 -1 -1</clus>
<clus scale="  128.153">  2  5  1 -1</clus>
<clus scale="   83.420">  2  5  1 -1</clus>
</clustering>
</event>
<event>
 9    1  0.1782981E-005  0.9812758E+02  0.7546771E-02  0.1286188E+00
         -1   -1    0    0    0  501 -0.00000000000E+00  0.00000000000E+00  0.42056394887E+02  0.42056394887E+02  0.00000000000E+00 0.  1.
          1   -1    0    0  502    0  0.00000000000E+00 -0.00000000000E+00 -0.32978405494E+03  0.32978405494E+03  0.00000000000E+00 0. -1.
         23    2    1    2    0    0  0.28627541377E+02 -0.36990167592E+02 -0.58745847687E+02  0.11404894378E+03  0.85838676206E+02 0.  0.
         23    2    1    2    0    0 -0.12657194754E+02  0.19551104277E+02 -0.19985661479E+03  0.22027550900E+03  0.89644760766E+02 0.  0.
        -11    1    4    4    0    0  0.19460140536E+02 -0.23330947306E+02 -0.12227189677E+03  0.12598986829E+03  0.00000000000E+00 0.  1.
         11    1    4    4    0    0 -0.32117335291E+02  0.42882051583E+02 -0.77584718022E+02  0.94285640713E+02  0.00000000000E+00 0. -1.
        -13    1    3    3    0    0 -0.21719026341E+02 -0.39023794048E+02 -0.14395999634E+02  0.46923527281E+02  0.00000000000E+00 0. -1.
         13    1    3    3    0    0  0.50346567718E+02  0.20336264554E+01 -0.44349848053E+02  0.67125416497E+02  0.00000000000E+00 0.  1.
         21    1    1    2  502  501 -0.15970346623E+02  0.17439063315E+02 -0.29125197574E+02  0.37515997046E+02  0.00000000000E+00 0.  1.
<scales pt_clust_5="13000.00000" pt_clust_6="13000.00000" pt_clust_7="13000.00000" pt_clust_8="13000.00000" pt_clust_9="23.64684"></scales>
<clustering>
<clus scale="   23.647">  2  9  1 -1</clus>
<clus scale="   85.839">  7  8 -1 -1</clus>
<clus scale="   89.645">  5  6 -1 -1</clus>
<clus scale="   94.663">  1  7  2 -1</clus>
<clus scale="   23.647">  2  5  1 -1</clus>
</clustering>
</event>
<event>
 9    1  0.1883258E-005  0.1694282E+03  0.7546771E-02  0.1178495E+00
          3   -1    0    0  502    0  0.00000000000E+00  0.00000000000E+00  0.41400281261E+03  0.41400281261E+03  0.00000000000E+00 0. -1.
         -3   -1    0    0    0  501 -0.00000000000E+00 -0.00000000000E+00 -0.44947285427E+03  0.44947285427E+03  0.00000000000E+00 0.  1.
         23    2    1    2    0    0  0.46538106329E+02  0.13396273074E+03 -0.40563871313E+03  0.43944672244E+03  0.91971994155E+02 0.  0.
         23    2    1    2    0    0 -0.66547607872E+02 -0.13653072120E+03  0.27868698816E+03  0.33034931427E+03  0.91624287855E+02 0.  0.
        -11    1    4    4    0    0 -0.15315644830E+02 -0.12042282685E+03  0.16740910198E+03  0.20678982961E+03  0.00000000000E+00 0. -1.
         11    1    4    4    0    0 -0.51231963042E+02 -0.16107894345E+02  0.11127788618E+03  0.12355948466E+03  0.00000000000E+00 0.  1.
        -11    1    3    3    0    0  0.44288529138E+02  0.22365187188E+02 -0.19319969658E+03  0.19946878996E+03  0.00000000000E+00 0. -1.
         11    1    3    3    0    0  0.22495771908E+01  0.11159754356E+03 -0.21243901655E+03  0.23997793248E+03  0.00000000000E+00 0.  1.
         21    1    1    2  502  501  0.20009501543E+02  0.25679904516E+01  0.91481683308E+02  0.93679630165E+02  0.00000000000E+00 0. -1.
<scales pt_clust_5="13000.00000" pt_clust_6="13000.00000" pt_clust_7="13000.00000" pt_clust_8="13000.00000" pt_clust_9="20.17361"></scales>
<clustering>
<clus scale="   20.174">  1  9  2 -1</clus>
<clus scale="   91.624">  5  6 -1 -1</clus>
<clus scale="   91.972">  7  8 -1 -1</clus>
<clus scale="  169.240">  1  5  2 -1</clus>
<clus scale="   20.174">  1  5  2 -1</clus>
</clustering>
</event>
<event>
 9    1  0.1782981E-005  0.1461070E+03  0.7546771E-02  0.1208189E+00
         -1   -1    0    0    0  501 -0.00000000000E+00  0.00000000000E+00  0.61020395245E+03  0.61020395245E+03  0.00000000000E+00 0.  1.
          1   -1    0    0  502    0  0.00000000000E+00 -0.00000000000E+00 -0.81288033685E+02  0.81288033685E+02  0.00000000000E+00 0. -1.
         23    2    1    2    0    0 -0.30081292364E+02 -0.10791992602E+03  0.46154897874E+03  0.48608573903E+03  0.10344221252E+03 0.  0.
         23    2    1    2    0    0  0.30009827061E+02  0.77015645720E+02  0.10154465354E+03  0.15932809883E+03  0.90786160886E+02 0.  0.
        -11    1    3    3    0    0  0.30651525256E+02 -0.75358326552E+02  0.29052469698E+03  0.30170017059E+03  0.00000000000E+00 0.  1.
         11    1    3    3    0    0 -0.60732817620E+02 -0.32561599468E+02  0.17102428176E+03  0.18438556844E+03  0.00000000000E+00 0. -1.
        -13    1    4    4    0    0  0.32560944055E+02 -0.30204105414E+01  0.61827796465E+02  0.69942936551E+02  0.00000000000E+00 0.  1.
         13    1    4    4    0    0 -0.25511169946E+01  0.80036056261E+02  0.39716857074E+02  0.89385162279E+02  0.00000000000E+00 0. -1.
         21    1    1    2  502  501  0.71465303659E-01  0.30904280300E+02 -0.34177713510E+02  0.46078148280E+02  0.00000000000E+00 0. -1.
<scales pt_clust_5="13000.00000" pt_clust_6="13000.00000" pt_clust_7="13000.00000" pt_clust_8="13000.00000" pt_clust_9="30.90436"></scales>
<clustering>
<clus scale="   30.904">  2  9  1 -1</clus>
<clus scale="   90.786">  7  8 -1 -1</clus>
<clus scale="  103.442">  5  6 -1 -1</clus>
<clus scale="  137.438">  2  7  1 -1</clus>
<clus scale="   30.904">  2  5  1 -1</clus>
</clustering>
</event>
<event>
 9    1  0.1782981E-005  0.1249810E+03  0.7546771E-02  0.1235431E+00
         -3   -1    0    0    0  501 -0.00000000000E+00  0.00000000000E+00  0.13905563892E+03  0.13905563892E+03  0.00000000000E+00 0.  1.
          3   -1    0    0  502    0  0.00000000000E+00 -0.00000000000E+00 -0.31682570629E+03  0.31682570629E+03  0.00000000000E+00 0. -1.
         23    2    1    2    0    0 -0.82981147204E+02 -0.34893940259E+02  0.82696222482E+02  0.15276959706E+03  0.91632017958E+02 0.  0.
         23    2    1    2    0    0  0.46118502015E+02  0.19579021828E+02 -0.23222909290E+03  0.25421654768E+03  0.90473461289E+02 0.  0.
        -11    1    3    3    0    0 -0.94948692432E+02 -0.57475870339E+01  0.72671468228E+02  0.11970560240E+03  0.00000000000E+00 0.  1.
         11    1    3    3    0    0  0.11967545228E+02 -0.29146353226E+02  0.10024754254E+02  0.33063994662E+02  0.00000000000E+00 0. -1.
        -11    1    4    4    0    0  0.32604408516E+02 -0.31340260131E+02 -0.14902898601E+03  0.15573984086E+03  0.00000000000E+00 0.  1.
         11    1    4    4    0    0  0.13514093499E+02  0.50919281959E+02 -0.83200106896E+02  0.98476706819E+02  0.00000000000E+00 0. -1.
         21    1    1    2  502  501  0.36862645189E+02  0.15314918432E+02 -0.28237196949E+02  0.48895200465E+02  0.00000000000E+00 0. -1.
<scales pt_clust_5="13000.00000" pt_clust_6="13000.00000" pt_clust_7="13000.00000" pt_clust_8="13000.00000" pt_clust_9="39.91743"></scales>
<clustering>
<clus scale="   39.917">  2  9  1 -1</clus>
<clus scale="   90.473">  7  8 -1 -1</clus>
<clus scale="   91.632">  5  6 -1 -1</clus>
<clus scale="  124.134">  2  7  1 -1</clus>
<clus scale="   39.917">  2  5  1 -1</clus>
</clustering>
</event>
<event>
 9    1  0.1782981E-005  0.1221256E+03  0.7546771E-02  0.1240119E+00
         -2   -1    0    0    0  501 -0.00000000000E+00  0.00000000000E+00  0.90696281780E+02  0.90696281780E+02  0.00000000000E+00 0.  1.
          2   -1    0    0  502    0  0.00000000000E+00 -0.00000000000E+00 -0.22001800285E+03  0.22001800285E+03  0.00000000000E+00 0. -1.
         23    2    1    2    0    0  0.45057242696E+02 -0.60437392816E+02 -0.10910305828E+02  0.11844783249E+03  0.90708437753E+02 0.  0.
         23    2    1    2    0    0 -0.38651032893E+02  0.81745910269E+02 -0.10030404758E+03  0.16357901231E+03  0.92308694704E+02 0.  0.
        -13    1    3    3    0    0  0.13969869108E+02 -0.28371317321E+02  0.39826012670E+02  0.50854696682E+02  0.00000000000E+00 0. -1.
         13    1    3    3    0    0  0.31087373588E+02 -0.32066075495E+02 -0.50736318498E+02  0.67593135813E+02  0.00000000000E+00 0.  1.
        -13    1    4    4    0    0  0.28106691177E+02  0.71798600454E+01 -0.19590198619E+02  0.35004462017E+02  0.00000000000E+00 0.  1.
         13    1    4    4    0    0 -0.66757724070E+02  0.74566050224E+02 -0.80713848962E+02  0.12857455029E+03  0.00000000000E+00 0. -1.
         21    1    1    2  502  501 -0.64062098030E+01 -0.21308517453E+02 -0.18107367661E+02  0.28687439825E+02  0.00000000000E+00 0.  1.
<scales pt_clust_5="13000.00000" pt_clust_6="13000.00000" pt_clust_7="13000.00000" pt_clust_8="13000.00000" pt_clust_9="22.25067"></scales>
<clustering>
<clus scale="   22.251">  2  9  1 -1</clus>
<clus scale="   90.708">  5  6 -1 -1</clus>
<clus scale="   92.309">  7  8 -1 -1</clus>
<clus scale="  120.921">  1  5  2 -1</clus>
<clus scale="   22.251">  2  5  1 -1</clus>
</clustering>
</event>
<event>
 9    1  0.1782981E-005  0.1247053E+03  0.7546771E-02  0.1238600E+00
          1   -1    0    0  502    0  0.00000000000E+00  0.00000000000E+00  0.57211676023E+03  0.57211676023E+03  0.00000000000E+00 0. -1.
         -1   -1    0    0    0  501 -0.00000000000E+00 -0.00000000000E+00 -0.69075010141E+02  0.69075010141E+02  0.00000000000E+00 0.  1.
         23    2    1    2    0    0  0.67609274271E+02 -0.45610931391E+02  0.13795781377E+02  0.12039838399E+03  0.87487577711E+02 0.  0.
         23    2    1    2    0    0 -0.19589003446E+02  0.67459260102E+02  0.39423393648E+03  0.41211688411E+03  0.97393268067E+02 0.  0.
        -13    1    3    3    0    0  0.65617200424E+02 -0.63570932302E+01  0.36146212363E+02  0.75183630492E+02  0.00000000000E+00 0. -1.
         13    1    3    3    0    0  0.19920738477E+01 -0.39253838161E+02 -0.22350430986E+02  0.45214753498E+02  0.00000000000E+00 0.  1.
        -13    1    4    4    0    0  0.18122131567E+01  0.83908582580E+02  0.35295318247E+03  0.36279454704E+03  0.00000000000E+00 0. -1.
         13    1    4    4    0    0 -0.21401216603E+02 -0.16449322478E+02  0.41280754010E+02  0.49322337066E+02  0.00000000000E+00 0.  1.
         21    1    1    2  502  501 -0.48020270825E+02 -0.21848328711E+02  0.95012032230E+02  0.10867650227E+03  0.00000000000E+00 0.  1.
<scales pt_clust_5="13000.00000" pt_clust_6="13000.00000" pt_clust_7="13000.00000" pt_clust_8="13000.00000" pt_clust_9="52.75695"></scales>
<clustering>
<clus scale="   52.757">  1  9  2 -1</clus>
<clus scale="   87.488">  5  6 -1 -1</clus>
<clus scale="   97.393">  7  8 -1 -1</clus>
<clus scale="  117.133">  2  5  1 -1</clus>
<clus scale="   52.757">  1  5  2 -1</clus>
</clustering>
</event>
<event>
 9    1  0.1782981E-005  0.1697646E+03  0.7546771E-02  0.1178095E+00
         -1   -1    0    0    0  501 -0.00000000000E+00  0.00000000000E+00  0.88255271891E+02  0.88255271891E+02  0.00000000000E+00 0.  1.
          1   -1    0    0  502    0  0.00000000000E+00 -0.00000000000E+00 -0.81603142539E+03  0.81603142539E+03  0.00000000000E+00 0. -1.
         23    2    1    2    0    0  0.64138448526E+02  0.13234633070E+03 -0.21919544580E+02  0.17464489226E+03  0.91602839085E+02 0.  0.
         23    2    1    2    0    0 -0.66350093643E+02 -0.10058591503E+03 -0.54305909925E+03  0.56376038794E+03  0.91611836048E+02 0.  0.
        -11    1    3    3    0    0  0.34463005192E+02  0.12979451499E+03 -0.39598435325E+02  0.14000839592E+03  0.00000000000E+00 0.  1.
         11    1    3    3    0    0  0.29675443334E+02  0.25518157099E+01  0.17678890745E+02  0.34636496336E+02  0.00000000000E+00 0. -1.
        -13    1    4    4    0    0 -0.15399066878E+02  0.13796661896E+02 -0.36447815638E+02  0.41903727817E+02  0.00000000000E+00 0.  1.
         13    1    4    4    0    0 -0.50951026765E+02 -0.11438257692E+03 -0.50661128362E+03  0.52185666013E+03  0.00000000000E+00 0. -1.
         21    1    1    2  502  501  0.22116451164E+01 -0.31760415678E+02 -0.16279750966E+03  0.16588141707E+03  0.00000000000E+00 0. -1.
<scales pt_clust_5="13000.00000" pt_clust_6="13000.00000" pt_clust_7="13000.00000" pt_clust_8="13000.00000" pt_clust_9="31.83733"></scales>
<clustering>
<clus scale="   31.837">  2  9  1 -1</clus>
<clus scale="   91.603">  5  6 -1 -1</clus>
<clus scale="   91.612">  7  8 -1 -1</clus>
<clus scale="  169.760">  1  5  2 -1</clus>
<clus scale="   31.837">  2  5  1 -1</clus>
</clustering>
</event>
<event>
 9    1  0.1782981E-005  0.1170408E+03  0.7546771E-02  0.1248380E+00
         -2   -1    0    0    0  501 -0.00000000000E+00  0.00000000000E+00  0.81768089466E+02  0.81768089466E+02  0.00000000000E+00 0.  1.
          2   -1    0    0  502    0  0.00000000000E+00 -0.00000000000E+00 -0.22834893542E+03  0.22834893542E+03  0.00000000000E+00 0. -1.
         23    2    1    2    0    0 -0.40117245540E+02  0.43393914459E+02 -0.15789053266E+02  0.10928575416E+03  0.90562998279E+02 0.  0.
         23    2    1    2    0    0  0.65631242438E+02 -0.47154733930E+02 -0.12430448509E+03  0.17423817086E+03  0.91522162642E+02 0.  0.
        -11    1    4    4    0    0  0.60672837593E+02  0.81360359861E+01 -0.39409940122E+02  0.72804750419E+02  0.00000000000E+00 0.  1.
         11    1    4    4    0    0  0.49584048441E+01 -0.55290769916E+02 -0.84894544972E+02  0.10143342044E+03  0.00000000000E+00 0. -1.
        -13    1    3    3    0    0 -0.41732824313E+02  0.64944790766E+02 -0.30648358280E+02  0.83058872723E+02  0.00000000000E+00 0. -1.
         13    1    3    3    0    0  0.16155787732E+01 -0.21550876307E+02  0.14859305014E+02  0.26226881436E+02  0.00000000000E+00 0.  1.
         21    1    1    2  502  501 -0.25513996897E+02  0.37608194706E+01 -0.64873075975E+01  0.26593099869E+02  0.00000000000E+00 0. -1.
<scales pt_clust_5="13000.00000" pt_clust_6="13000.00000" pt_clust_7="13000.00000" pt_clust_8="13000.00000" pt_clust_9="25.78968"></scales>
<clustering>
<clus scale="   25.790">  1  9  2 -1</clus>
<clus scale="   90.563">  7  8 -1 -1</clus>
<clus scale="   91.522">  5  6 -1 -1</clus>
<clus scale="  116.292">  1  7  2 -1</clus>
<clus scale="  117.041">  2  5  1 -1</clus>
</clustering>
</event>
<event>
 9    1  0.1782981E-005  0.9953038E+02  0.7546771E-02  0.1284207E+00
         -1   -1    0    0    0  501 -0.00000000000E+00  0.00000000000E+00  0.12484938779E+03  0.12484938779E+03  0.00000000000E+00 0.  1.
          1   -1    0    0  502    0  0.00000000000E+00 -0.00000000000E+00 -0.11930683487E+03  0.11930683487E+03  0.00000000000E+00 0. -1.
         23    2    1    2    0    0 -0.17545557166E+02 -0.61648571582E+00  0.30714584924E+02  0.10225067401E+03  0.95935332265E+02 0.  0.
         23    2    1    2    0    0  0.37081015837E+02 -0.51169325803E+01  0.12972588889E+02  0.98667621624E+02  0.90364964228E+02 0.  0.
        -13    1    4    4    0    0 -0.19883150572E+02  0.22589060606E+02  0.18097779498E+02  0.35116021393E+02  0.00000000000E+00 0. -1.
         13    1    4    4    0    0  0.56964166409E+02 -0.27705993186E+02 -0.51251906094E+01  0.63551600231E+02  0.00000000000E+00 0.  1.
        -13    1    3    3    0    0  0.34875600972E+02 -0.14227767517E+02  0.29890243625E+02  0.48084962053E+02  0.00000000000E+00 0.  1.
         13    1    3    3    0    0 -0.52421158138E+02  0.13611281801E+02  0.82434129919E+00  0.54165711953E+02  0.00000000000E+00 0. -1.
         21    1    1    2  502  501 -0.19535458672E+02  0.57334182961E+01 -0.38144620890E+02  0.43237927028E+02  0.00000000000E+00 0. -1.
<scales pt_clust_5="13000.00000" pt_clust_6="13000.00000" pt_clust_7="13000.00000" pt_clust_8="13000.00000" pt_clust_9="20.35943"></scales>
<clustering>
<clus scale="   20.359">  2  9  1 -1</clus>
<clus scale="   90.365">  5  6 -1 -1</clus>
<clus scale="   94.173">  2  5  1 -1</clus>
<clus scale="   95.935">  7  8 -1 -1</clus>
<clus scale="   20.359">  2  5  1 -1</clus>
</clustering>
</event>
<event>
 9    1  0.1782981E-005  0.9575609E+02  0.7546771E-02  0.1292308E+00
         -2   -1    0    0    0  501 -0.00000000000E+00  0.00000000000E+00  0.10920215433E+03  0.10920215433E+03  0.00000000000E+00 0.  1.
          2   -1    0    0  502    0  0.00000000000E+00 -0.00000000000E+00 -0.13191620911E+03  0.13191620911E+03  0.00000000000E+00 0. -1.
         23    2    1    2    0    0 -0.29065223785E+02  0.13827259135E+02  0.48764649459E+02  0.10910746534E+03  0.92143733522E+02 0.  0.
         23    2    1    2    0    0  0.11829371247E+02  0.51645378132E+00 -0.50466569370E+02  0.10128100183E+03  0.87010148595E+02 0.  0.
        -11    1    3    3    0    0 -0.34860271761E+02  0.49508923857E+02  0.37593106879E+02  0.71271409230E+02  0.00000000000E+00 0. -1.
         11    1    3    3    0    0  0.57950479757E+01 -0.35681664723E+02  0.11171542580E+02  0.37836056111E+02  0.00000000000E+00 0.  1.
        -13    1    4    4    0    0  0.37432710784E+02  0.29046722166E+02 -0.38714023171E+02  0.61185745851E+02  0.00000000000E+00 0.  1.
         13    1    4    4    0    0 -0.25603339538E+02 -0.28530268385E+02 -0.11752546199E+02  0.40095255976E+02  0.00000000000E+00 0. -1.
         21    1    1    2  502  501  0.17235852539E+02 -0.14343712916E+02 -0.21012134873E+02  0.30729896272E+02  0.00000000000E+00 0.  1.
<scales pt_clust_5="13000.00000" pt_clust_6="13000.00000" pt_clust_7="13000.00000" pt_clust_8="13000.00000" pt_clust_9="22.42357"></scales>
<clustering>
<clus scale="   22.424">  2  9  1 -1</clus>
<clus scale="   87.010">  7  8 -1 -1</clus>
<clus scale="   90.827">  2  7  1 -1</clus>
<clus scale="   92.144">  5  6 -1 -1</clus>
<clus scale="   22.424">  2  5  1 -1</clus>
</clustering>
</event>
<event>
 9    1  0.1782981E-005  0.2640793E+03  0.7546771E-02  0.1104955E+00
         -2   -1    0    0    0  501 -0.00000000000E+00  0.00000000000E+00  0.85186927446E+02  0.85186927446E+02  0.00000000000E+00 0.  1.
          2   -1    0    0  502    0  0.00000000000E+00 -0.00000000000E+00 -0.91677878476E+03  0.91677878476E+03  0.00000000000E+00 0. -1.
         23    2    1    2    0    0  0.23525682197E+03  0.11166434852E+03 -0.35273218683E+03  0.44812947280E+03  0.92657054544E+02 0.  0.
         23    2    1    2    0    0 -0.20988067504E+03 -0.10056191506E+03 -0.40956570577E+03  0.47921140166E+03  0.87959670460E+02 0.  0.
        -11    1    4    4    0    0 -0.16827979191E+02 -0.41137006685E+02 -0.10181083340E+03  0.11108951346E+03  0.00000000000E+00 0. -1.
         11    1    4    4    0    0 -0.19305269585E+03 -0.59424908372E+02 -0.30775487237E+03  0.36812188820E+03  0.00000000000E+00 0.  1.
        -13    1    3    3    0    0  0.51606043417E+02  0.53258426750E+02 -0.15602375760E+03  0.17275143030E+03  0.00000000000E+00 0.  1.
         13    1    3    3    0    0  0.18365077855E+03  0.58405921766E+02 -0.19670842923E+03  0.27537804250E+03  0.00000000000E+00 0. -1.
         21    1    1    2  502  501 -0.25376146927E+02 -0.11102433460E+02 -0.69293964716E+02  0.74624837740E+02  0.00000000000E+00 0.  1.
<scales pt_clust_5="13000.00000" pt_clust_6="13000.00000" pt_clust_7="13000.00000" pt_clust_8="13000.00000" pt_clust_9="27.69861"></scales>
<clustering>
<clus scale="   27.699">  2  9  1 -1</clus>
<clus scale="   87.960">  5  6 -1 -1</clus>
<clus scale="   92.657">  7  8 -1 -1</clus>
<clus scale="  262.468">  2  5  1 -1</clus>
<clus scale="   27.699">  2  5  1 -1</clus>
</clustering>
</event>
<event>
 9    1  0.1782981E-005  0.9792391E+02  0.7546771E-02  0.1305109E+00
         -3   -1    0    0    0  501 -0.00000000000E+00  0.00000000000E+00  0.72509680799E+02  0.72509680799E+02  0.00000000000E+00 0.  1.
          3   -1    0    0  502    0  0.00000000000E+00 -0.00000000000E+00 -0.21489061709E+03  0.21489061709E+03  0.00000000000E+00 0. -1.
         23    2    1    2    0    0  0.30593074908E+02  0.28160463764E+01  0.16085263021E+02  0.99611559474E+02  0.93380194607E+02 0.  0.
         23    2    1    2    0    0 -0.19472139810E+02 -0.30571947450E+02 -0.12003671632E+03  0.13909694850E+03  0.60210793205E+02 0.  0.
        -11    1    3    3    0    0 -0.13792572724E+01  0.33416281093E+02  0.37668233592E+02  0.50373068347E+02  0.00000000000E+00 0.  1.
         11    1    3    3    0    0  0.31972332180E+02 -0.30600234717E+02 -0.21582970571E+02  0.49238491127E+02  0.00000000000E+00 0. -1.
        -13    1    4    4    0    0  0.31332876807E+01 -0.42608043203E+02 -0.58464636956E+02  0.72411163585E+02  0.00000000000E+00 0. -1.
         13    1    4    4    0    0 -0.22605427491E+02  0.12036095753E+02 -0.61572079363E+02  0.66685784917E+02  0.00000000000E+00 0.  1.
         21    1    1    2  502  501 -0.11120935098E+02  0.27755901074E+02 -0.38429482998E+02  0.48691789917E+02  0.00000000000E+00 0.  1.
<scales pt_clust_5="13000.00000" pt_clust_6="13000.00000" pt_clust_7="13000.00000" pt_clust_8="13000.00000" pt_clust_9="29.90092"></scales>
<clustering>
<clus scale="   29.901">  2  9  1 -1</clus>
<clus scale="   60.211">  7  8 -1 -1</clus>
<clus scale="   67.042">  2  7  1 -1</clus>
<clus scale="   93.380">  5  6 -1 -1</clus>
<clus scale="   29.901">  2  5  1 -1</clus>
</clustering>
</event>
<event>
 9    1  0.1782981E-005  0.1100448E+03  0.7546771E-02  0.1261462E+00
          1   -1    0    0  502    0  0.00000000000E+00  0.00000000000E+00  0.26914440761E+03  0.26914440761E+03  0.00000000000E+00 0. -1.
         -1   -1    0    0    0  501 -0.00000000000E+00 -0.00000000000E+00 -0.78549680483E+02  0.78549680483E+02  0.00000000000E+00 0.  1.
         23    2    1    2    0    0 -0.12929632348E+02 -0.66228901587E+02  0.13134859089E+01  0.11237480150E+03  0.89849473944E+02 0.  0.
         23    2    1    2    0    0 -0.10701929725E+02  0.43754811834E+02  0.11510743121E+03  0.15429281236E+03  0.92344660741E+02 0.  0.
        -11    1    4    4    0    0  0.29728449506E+02 -0.46536294735E+01  0.71614546360E+02  0.77679342348E+02  0.00000000000E+00 0. -1.
         11    1    4    4    0    0 -0.40430379231E+02  0.48408441307E+02  0.43492884855E+02  0.76613470014E+02  0.00000000000E+00 0.  1.
        -13    1    3    3    0    0  0.20439038946E+02  0.12209021431E+02 -0.11041019945E+02  0.26243449445E+02  0.00000000000E+00 0. -1.
         13    1    3    3    0    0 -0.33368671294E+02 -0.78437923018E+02  0.12354505854E+02  0.86131352052E+02  0.00000000000E+00 0.  1.
         21    1    1    2  502  501  0.23631562073E+02  0.22474089753E+02  0.74173810000E+02  0.81026474230E+02  0.00000000000E+00 0. -1.
<scales pt_clust_5="13000.00000" pt_clust_6="13000.00000" pt_clust_7="13000.00000" pt_clust_8="13000.00000" pt_clust_9="32.61189"></scales>
<clustering>
<clus scale="   32.612">  1  9  2 -1</clus>
<clus scale="   89.849">  7  8 -1 -1</clus>
<clus scale="   92.345">  5  6 -1 -1</clus>
<clus scale="  107.959">  2  7  1 -1</clus>
<clus scale="   32.612">  1  5  2 -1</clus>
</clustering>
</event>
<event>
 9    1  0.1782981E-005  0.1076697E+03  0.7546771E-02  0.1265254E+00
         -2   -1    0    0    0  501 -0.00000000000E+00  0.00000000000E+00  0.87068711884E+02  0.87068711884E+02  0.00000000000E+00 0.  1.
          2   -1    0    0  502    0  0.00000000000E+00 -0.00000000000E+00 -0.18731017809E+03  0.18731017809E+03  0.00000000000E+00 0. -1.
         23    2    1    2    0    0  0.43058928283E+02  0.23213846672E+02 -0.15584951806E+01  0.10419210116E+03  0.91981579972E+02 0.  0.
         23    2    1    2    0    0 -0.57878105394E+02 -0.39551067592E+02 -0.72664631726E+02  0.13607716001E+03  0.91228738563E+02 0.  0.
        -11    1    3    3    0    0 -0.23628082027E+02 -0.13276019557E+02  0.61292463062E+01  0.27786806507E+02  0.00000000000E+00 0.  1.
         11    1    3    3    0    0  0.66687010310E+02  0.36489866229E+02 -0.76877414868E+01  0.76405294651E+02  0.00000000000E+00 0. -1.
        -11    1    4    4    0    0 -0.69021223990E+02  0.21591455545E+01 -0.29708252986E+02  0.75174274629E+02  0.00000000000E+00 0.  1.
         11    1    4    4    0    0  0.11143118595E+02 -0.41710213147E+02 -0.42956378740E+02  0.60902885377E+02  0.00000000000E+00 0. -1.
         21    1    1    2  502  501  0.14819177111E+02  0.16337220921E+02 -0.26018339300E+02  0.34109628810E+02  0.00000000000E+00 0. -1.
<scales pt_clust_5="13000.00000" pt_clust_6="13000.00000" pt_clust_7="13000.00000" pt_clust_8="13000.00000" pt_clust_9="22.05704"></scales>
<clustering>
<clus scale="   22.057">  2  9  1 -1</clus>
<clus scale="   91.229">  7  8 -1 -1</clus>
<clus scale="   91.982">  5  6 -1 -1</clus>
<clus scale="  107.027">  2  7  1 -1</clus>
<clus scale="   22.057">  2  5  1 -1</clus>
</clustering>
</event>
<event>
 9    1  0.1782981E-005  0.1517727E+03  0.7546771E-02  0.1198316E+00
          4   -1    0    0  502    0  0.00000000000E+00  0.00000000000E+00  0.65896206948E+02  0.65896206948E+02  0.00000000000E+00 0. -1.
         -4   -1    0    0    0  501 -0.00000000000E+00 -0.00000000000E+00 -0.88190173037E+03  0.88190173037E+03  0.00000000000E+00 0.  1.
         23    2    1    2    0    0 -0.95588104742E+02 -0.69203611440E+02 -0.69630945106E+03  0.71206209188E+03  0.90880941098E+02 0.  0.
         23    2    1    2    0    0  0.12785635332E+03  0.67466408541E+02 -0.10079631142E+03  0.19829978390E+03  0.90906240339E+02 0.  0.
        -13    1    3    3    0    0 -0.51458057429E+02  0.15176583131E+02 -0.26191146615E+03  0.26734972685E+03  0.00000000000E+00 0. -1.
         13    1    3    3    0    0 -0.44130047313E+02 -0.84380194570E+02 -0.43439798491E+03  0.44471236503E+03  0.00000000000E+00 0.  1.
        -13    1    4    4    0    0  0.11370177601E+03  0.84530378473E+02 -0.64281690633E+02  0.15558153651E+03  0.00000000000E+00 0. -1.
         13    1    4    4    0    0  0.14154577308E+02 -0.17063969932E+02 -0.36514620784E+02  0.42718247384E+02  0.00000000000E+00 0.  1.
         21    1    1    2  502  501 -0.32268248575E+02  0.17372028984E+01 -0.18899760946E+02  0.37436061543E+02  0.00000000000E+00 0. -1.
<scales pt_clust_5="13000.00000" pt_clust_6="13000.00000" pt_clust_7="13000.00000" pt_clust_8="13000.00000" pt_clust_9="32.31498"></scales>
<clustering>
<clus scale="   32.315">  1  9  2 -1</clus>
<clus scale="   90.881">  5  6 -1 -1</clus>
<clus scale="   90.906">  7  8 -1 -1</clus>
<clus scale="  151.758">  2  5  1 -1</clus>
<clus scale="   32.315">  1  5  2 -1</clus>
</clustering>
</event>
<event>
 9    1  0.1782981E-005  0.1048434E+03  0.7546771E-02  0.1270551E+00
          3   -1    0    0  502    0  0.00000000000E+00  0.00000000000E+00  0.88265589738E+02  0.88265589738E+02  0.00000000000E+00 0. -1.
         -3   -1    0    0    0  501 -0.00000000000E+00 -0.00000000000E+00 -0.28059054165E+03  0.28059054165E+03  0.00000000000E+00 0.  1.
         23    2    1    2    0    0  0.47313864177E+02 -0.80806582980E+01 -0.19389135878E+03  0.21973968044E+03  0.91584766028E+02 0.  0.
         23    2    1    2    0    0 -0.66704947657E+02 -0.19820521927E+02 -0.29817789406E+01  0.11483561124E+03  0.91301278593E+02 0.  0.
        -11    1    4    4    0    0  0.22636858072E+02 -0.39933467911E+01 -0.69556776744E+01  0.24015736796E+02  0.00000000000E+00 0.  1.
         11    1    4    4    0    0 -0.89341805729E+02 -0.15827175136E+02  0.39738987338E+01  0.90819874448E+02  0.00000000000E+00 0. -1.
        -13    1    3    3    0    0  0.33411504064E+02  0.15860991467E+02 -0.18778026221E+03  0.19138789546E+03  0.00000000000E+00 0.  1.
         13    1    3    3    0    0  0.13902360113E+02 -0.23941649765E+02 -0.61110965722E+01  0.28351784979E+02  0.00000000000E+00 0. -1.
         21    1    1    2  502  501  0.19391083481E+02  0.27901180225E+02  0.45481858100E+01  0.34280839702E+02  0.00000000000E+00 0.  1.
<scales pt_clust_5="13000.00000" pt_clust_6="13000.00000" pt_clust_7="13000.00000" pt_clust_8="13000.00000" pt_clust_9="33.97779"></scales>
<clustering>
<clus scale="   33.978">  1  9  2 -1</clus>
<clus scale="   91.301">  5  6 -1 -1</clus>
<clus scale="   91.585">  7  8 -1 -1</clus>
<clus scale="  104.596">  1  5  2 -1</clus>
<clus scale="   33.978">  1  5  2 -1</clus>
</clustering>
</event>
<event>
 9    1  0.1782981E-005  0.9615539E+02  0.7546771E-02  0.1288639E+00
         -2   -1    0    0    0  501 -0.00000000000E+00  0.00000000000E+00  0.37225703896E+02  0.37225703896E+02  0.00000000000E+00 0.  1.
          2   -1    0    0  502    0  0.00000000000E+00 -0.00000000000E+00 -0.33928238572E+03  0.33928238572E+03  0.00000000000E+00 0. -1.
         23    2    1    2    0    0  0.28842866391E+01 -0.15211128616E+02 -0.87792936499E+02  0.12750019553E+03  0.91153730681E+02 0.  0.
         23    2    1    2    0    0  0.51539635917E+01  0.39986145260E+02 -0.18200066670E+03  0.20754319635E+03  0.91238591162E+02 0.  0.
        -13    1    4    4    0    0 -0.20514964770E+02  0.60576955372E+02 -0.94957579797E+02  0.11448743714E+03  0.00000000000E+00 0.  1.
         13    1    4    4    0    0  0.25668928361E+02 -0.20590810112E+02 -0.87043086906E+02  0.93055759212E+02  0.00000000000E+00 0. -1.
        -13    1    3    3    0    0 -0.18806697250E+02 -0.47901047540E+02 -0.61885372599E+02  0.80486033314E+02  0.00000000000E+00 0.  1.
         13    1    3    3    0    0  0.21690983889E+02  0.32689918924E+02 -0.25907563901E+02  0.47014162213E+02  0.00000000000E+00 0. -1.
         21    1    1    2  502  501 -0.80382502308E+01 -0.24775016644E+02 -0.32263078617E+02  0.41464697736E+02  0.00000000000E+00 0. -1.
<scales pt_clust_5="13000.00000" pt_clust_6="13000.00000" pt_clust_7="13000.00000" pt_clust_8="13000.00000" pt_clust_9="26.04640"></scales>
<clustering>
<clus scale="   26.046">  1  9  2 -1</clus>
<clus scale="   91.154">  7  8 -1 -1</clus>
<clus scale="   91.239">  5  6 -1 -1</clus>
<clus scale="   96.075">  1  7  2 -1</clus>
<clus scale="   96.155">  2  5  1 -1</clus>
</clustering>
</event>
<event>
 9    1  0.1782981E-005  0.1263044E+03  0.7546771E-02  0.1233840E+00
         -1   -1    0    0    0  501 -0.00000000000E+00  0.00000000000E+00  0.18620780706E+02  0.18620780706E+02  0.00000000000E+00 0.  1.
          1   -1    0    0  502    0  0.00000000000E+00 -0.00000000000E+00 -0.11169093570E+04  0.11169093570E+04  0.00000000000E+00 0. -1.
         23    2    1    2    0    0 -0.80636362948E+02 -0.21254336878E+02 -0.33410136060E+03  0.35620628173E+03  0.91133013373E+02 0.  0.
         23    2    1    2    0    0  0.86393136740E+02  0.42634900080E+02 -0.64690254623E+03  0.65996740403E+03  0.88275485223E+02 0.  0.
        -11    1    3    3    0    0 -0.63696710131E+02 -0.55641325481E+02 -0.21276993233E+03  0.22896347326E+03  0.00000000000E+00 0. -1.
         11    1    3    3    0    0 -0.16939652817E+02  0.34386988603E+02 -0.12133142827E+03  0.12724280848E+03  0.00000000000E+00 0.  1.
        -13    1    4    4    0    0  0.99290265381E+02  0.15373101457E+02 -0.49094352884E+03  0.50111918498E+03  0.00000000000E+00 0.  1.
         13    1    4    4    0    0 -0.12897128641E+02  0.27261798623E+02 -0.15595901739E+03  0.15884821905E+03  0.00000000000E+00 0. -1.
         21    1    1    2  502  501 -0.57567737922E+01 -0.21380563202E+02 -0.11728466949E+03  0.11935645196E+03  0.00000000000E+00 0.  1.
<scales pt_clust_5="13000.00000" pt_clust_6="13000.00000" pt_clust_7="13000.00000" pt_clust_8="13000.00000" pt_clust_9="22.14202"></scales>
<clustering>
<clus scale="   22.142">  2  9  1 -1</clus>
<clus scale="   88.275">  7  8 -1 -1</clus>
<clus scale="   91.133">  5  6 -1 -1</clus>
<clus scale="  124.258">  2  7  1 -1</clus>
<clus scale="   22.142">  2  5  1 -1</clus>
</clustering>
</event>
<event>
 9    1  0.1782981E-005  0.1378724E+03  0.7546771E-02  0.1216457E+00
         -3   -1    0    0    0  501 -0.00000000000E+00  0.00000000000E+00  0.60312328220E+02  0.60312328220E+02  0.00000000000E+00 0.  1.
          3   -1    0    0  502    0  0.00000000000E+00 -0.00000000000E+00 -0.50337159536E+03  0.50337159536E+03  0.00000000000E+00 0. -1.
         23    2    1    2    0    0  0.34797243122E+02 -0.89827553957E+02 -0.14134032701E+03  0.19400817656E+03  0.91554611864E+02 0.  0.
         23    2    1    2    0    0  0.19445897078E+02  0.11994777152E+03 -0.21103899060E+03  0.25980127769E+03  0.90518713687E+02 0.  0.
        -11    1    4    4    0    0 -0.11494292775E+02  0.57014748174E+02 -0.16737210739E+03  0.17718979262E+03  0.00000000000E+00 0. -1.
         11    1    4    4    0    0  0.30940189853E+02  0.62933023350E+02 -0.43666883210E+02  0.82611485069E+02  0.00000000000E+00 0.  1.
        -13    1    3    3    0    0  0.51875610268E+02 -0.26773175176E+02 -0.31823438532E+02  0.66487691265E+02  0.00000000000E+00 0.  1.
         13    1    3    3    0    0 -0.17078367146E+02 -0.63054378780E+02 -0.10951688847E+03  0.12752048529E+03  0.00000000000E+00 0. -1.
         21    1    1    2  502  501 -0.54243140201E+02 -0.30120217567E+02 -0.90679949538E+02  0.10987446934E+03  0.00000000000E+00 0. -1.
<scales pt_clust_5="13000.00000" pt_clust_6="13000.00000" pt_clust_7="13000.00000" pt_clust_8="13000.00000" pt_clust_9="62.04471"></scales>
<clustering>
<clus scale="   62.045">  2  9  1 -1</clus>
<clus scale="   90.519">  5  6 -1 -1</clus>
<clus scale="   91.555">  7  8 -1 -1</clus>
<clus scale="  137.187">  2  5  1 -1</clus>
<clus scale="   62.045">  2  5  1 -1</clus>
</clustering>
</event>
<event>
 9    1  0.1782981E-005  0.2099328E+03  0.7546771E-02  0.1161918E+00
          1   -1    0    0  502    0  0.00000000000E+00  0.00000000000E+00  0.24374002651E+03  0.24374002651E+03  0.00000000000E+00 0. -1.
         -1   -1    0    0    0  501 -0.00000000000E+00 -0.00000000000E+00 -0.74875625331E+03  0.74875625331E+03  0.00000000000E+00 0.  1.
         23    2    1    2    0    0  0.68551363825E+02 -0.54038840378E+02 -0.14840186080E+03  0.19726810940E+03  0.96291790656E+02 0.  0.
         23    2    1    2    0    0 -0.20617834285E+03  0.17106429298E+03 -0.49292054588E+03  0.56891971591E+03  0.94480036061E+02 0.  0.
        -11    1    4    4    0    0 -0.45422693390E+02  0.79867956751E+02 -0.10707526586E+03  0.14109296279E+03  0.00000000000E+00 0. -1.
         11    1    4    4    0    0 -0.16075564946E+03  0.91196336224E+02 -0.38584528001E+03  0.42782675312E+03  0.00000000000E+00 0.  1.
        -13    1    3    3    0    0 -0.12670025137E+02 -0.42945059010E+02 -0.32590991383E+02  0.55380324572E+02  0.00000000000E+00 0.  1.
         13    1    3    3    0    0  0.81221388962E+02 -0.11093781369E+02 -0.11581086941E+03  0.14188778483E+03  0.00000000000E+00 0. -1.
         21    1    1    2  502  501  0.13762697902E+03 -0.11702545260E+03  0.13630617988E+03  0.22630845451E+03  0.00000000000E+00 0. -1.
<scales pt_clust_5="13000.00000" pt_clust_6="13000.00000" pt_clust_7="13000.00000" pt_clust_8="13000.00000" pt_clust_9="187.47084"></scales>
<clustering>
<clus scale="   94.480">  5  6 -1 -1</clus>
<clus scale="   96.292">  7  8 -1 -1</clus>
<clus scale="  129.968">  2  7  1 -1</clus>
<clus scale="  187.471">  1  9  2 -1</clus>
<clus scale="  187.471">  1  5  2 -1</clus>
</clustering>
</event>
<event>
 9    1  0.1782981E-005  0.2198977E+03  0.7546771E-02  0.1134154E+00
          1   -1    0    0  502    0  0.00000000000E+00  0.00000000000E+00  0.81543862501E+03  0.81543862501E+03  0.00000000000E+00 0. -1.
         -1   -1    0    0    0  501 -0.00000000000E+00 -0.00000000000E+00 -0.94873709022E+02  0.94873709022E+02  0.00000000000E+00 0.  1.
         23    2    1    2    0    0  0.17959932953E+03 -0.92544782689E+02  0.92099778081E+02  0.24089978269E+03  0.93433827956E+02 0.  0.
         23    2    1    2    0    0 -0.17445678051E+03  0.73156792708E+02  0.55905804040E+03  0.59716516280E+03  0.90957432614E+02 0.  0.
        -11    1    4    4    0    0 -0.46278691248E+02  0.67192059048E+02  0.21622404852E+03  0.23110458503E+03  0.00000000000E+00 0.  1.
         11    1    4    4    0    0 -0.12817808926E+03  0.59647336601E+01  0.34283399188E+03  0.36606057777E+03  0.00000000000E+00 0. -1.
        -13    1    3    3    0    0  0.10380029394E+03 -0.10275653061E+03  0.57881692087E+02  0.15711045759E+03  0.00000000000E+00 0.  1.
         13    1    3    3    0    0  0.75799035593E+02  0.10211747918E+02  0.34218085993E+02  0.83789325104E+02  0.00000000000E+00 0. -1.
         21    1    1    2  502  501 -0.51425490228E+01  0.19387989981E+02  0.69407097507E+02  0.72247388536E+02  0.00000000000E+00 0. -1.
<scales pt_clust_5="13000.00000" pt_clust_6="13000.00000" pt_clust_7="13000.00000" pt_clust_8="13000.00000" pt_clust_9="20.05841"></scales>
<clustering>
<clus scale="   20.058">  1  9  2 -1</clus>
<clus scale="   90.957">  5  6 -1 -1</clus>
<clus scale="   93.434">  7  8 -1 -1</clus>
<clus scale="  218.857">  1  5  2 -1</clus>
<clus scale="   20.058">  1  5  2 -1</clus>
</clustering>
</event>
<event>
 9    1  0.1782981E-005  0.1034839E+03  0.7546771E-02  0.1276913E+00
          1   -1    0    0  502    0  0.00000000000E+00  0.00000000000E+00  0.27793182734E+03  0.27793182734E+03  0.00000000000E+00 0. -1.
         -1   -1    0    0    0  501 -0.00000000000E+00 -0.00000000000E+00 -0.57505907865E+02  0.57505907865E+02  0.00000000000E+00 0.  1.
         23    2    1    2    0    0 -0.29042769680E+02 -0.64606762305E+01  0.29749145641E+02  0.10694842976E+03  0.98324626385E+02 0.  0.
         23    2    1    2    0    0  0.39953005382E+02 -0.16364894039E+02  0.14751204707E+03  0.17845698052E+03  0.90680965304E+02 0.  0.
        -11    1    3    3    0    0 -0.65775887484E+02 -0.49521946235E+01  0.19374796406E+02  0.68748631562E+02  0.00000000000E+00 0.  1.
         11    1    3    3    0    0  0.36733117803E+02 -0.15084816070E+01  0.10374349234E+02  0.38199798198E+02  0.00000000000E+00 0. -1.
        -13    1    4    4    0    0 -0.10455338615E+02 -0.33388253356E+02  0.10399235011E+03  0.10972009137E+03  0.00000000000E+00 0. -1.
         13    1    4    4    0    0  0.50408343997E+02  0.17023359316E+02  0.43519696964E+02  0.68736889155E+02  0.00000000000E+00 0.  1.
         21    1    1    2  502  501 -0.10910235702E+02  0.22825570270E+02  0.43164726762E+02  0.50032324928E+02  0.00000000000E+00 0.  1.
<scales pt_clust_5="13000.00000" pt_clust_6="13000.00000" pt_clust_7="13000.00000" pt_clust_8="13000.00000" pt_clust_9="25.29901"></scales>
<clustering>
<clus scale="   25.299">  1  9  2 -1</clus>
<clus scale="   90.681">  7  8 -1 -1</clus>
<clus scale="   96.251">  1  7  2 -1</clus>
<clus scale="   98.325">  5  6 -1 -1</clus>
<clus scale="   25.299">  1  5  2 -1</clus>
</clustering>
</event>
<event>
 9    1  0.1782981E-005  0.1150019E+03  0.7546771E-02  0.1255639E+00
          2   -1    0    0  502    0  0.00000000000E+00  0.00000000000E+00  0.10662732242E+03  0.10662732242E+03  0.00000000000E+00 0. -1.
         -2   -1    0    0    0  501 -0.00000000000E+00 -0.00000000000E+00 -0.22613977174E+03  0.22613977174E+03  0.00000000000E+00 0.  1.
         23    2    1    2    0    0  0.49630189869E+02  0.49571513013E+02 -0.13179517957E+03  0.17997152283E+03  0.10049521891E+03 0.  0.
         23    2    1    2    0    0 -0.35491418469E+02  0.39043379682E+01  0.88442716677E+01  0.97375408099E+02  0.90160214735E+02 0.  0.
        -13    1    4    4    0    0  0.14852765965E+02  0.29316075987E+02 -0.15027720687E+02  0.36136814430E+02  0.00000000000E+00 0.  1.
         13    1    4    4    0    0 -0.50344184435E+02 -0.25411738019E+02  0.23871992355E+02  0.61238593669E+02  0.00000000000E+00 0. -1.
        -13    1    3    3    0    0  0.35015442105E+02 -0.16453059944E+02 -0.88979345837E+01  0.39698332549E+02  0.00000000000E+00 0. -1.
         13    1    3    3    0    0  0.14614747764E+02  0.66024572957E+02 -0.12289724499E+03  0.14027319028E+03  0.00000000000E+00 0.  1.
         21    1    1    2  502  501 -0.14138771400E+02 -0.53475850981E+02  0.34384585852E+01  0.55420163229E+02  0.00000000000E+00 0. -1.
<scales pt_clust_5="13000.00000" pt_clust_6="13000.00000" pt_clust_7="13000.00000" pt_clust_8="13000.00000" pt_clust_9="55.31339"></scales>
<clustering>
<clus scale="   55.313">  1  9  2 -1</clus>
<clus scale="   90.160">  5  6 -1 -1</clus>
<clus scale="  100.495">  7  8 -1 -1</clus>
<clus scale="  106.090">  1  5  2 -1</clus>
<clus scale="   55.313">  1  5  2 -1</clus>
</clustering>
</event>
<event>
 9    1  0.1782981E-005  0.1183747E+03  0.7546771E-02  0.1246115E+00
         -2   -1    0    0    0  501 -0.00000000000E+00  0.00000000000E+00  0.13262068763E+03  0.13262068763E+03  0.00000000000E+00 0.  1.
          2   -1    0    0  502    0  0.00000000000E+00 -0.00000000000E+00 -0.39348027637E+03  0.39348027637E+03  0.00000000000E+00 0. -1.
         23    2    1    2    0    0 -0.52414774890E+02  0.46197368149E+02  0.65121872508E+02  0.13253662521E+03  0.91889027046E+02 0.  0.
         23    2    1    2    0    0  0.83332009252E+02 -0.45601216863E+02 -0.99295624794E+02  0.16477906998E+03  0.90933085593E+02 0.  0.
        -11    1    4    4    0    0  0.21272915738E+02 -0.51476480762E+02 -0.11126652054E+02  0.56799360926E+02  0.00000000000E+00 0. -1.
         11    1    4    4    0    0  0.62059093514E+02  0.58752638993E+01 -0.88168972741E+02  0.10797970906E+03  0.00000000000E+00 0.  1.
        -11    1    3    3    0    0  0.20833062183E+02  0.26715611119E+02  0.40591313415E+02  0.52871495932E+02  0.00000000000E+00 0.  1.
         11    1    3    3    0    0 -0.73247837073E+02  0.19481757030E+02  0.24530559094E+02  0.79665129274E+02  0.00000000000E+00 0. -1.
         21    1    1    2  502  501 -0.30917234362E+02 -0.59615128607E+00 -0.22668583645E+03  0.22878526881E+03  0.00000000000E+00 0. -1.
<scales pt_clust_5="13000.00000" pt_clust_6="13000.00000" pt_clust_7="13000.00000" pt_clust_8="13000.00000" pt_clust_9="30.92298"></scales>
<clustering>
<clus scale="   30.923">  2  9  1 -1</clus>
<clus scale="   90.933">  5  6 -1 -1</clus>
<clus scale="   91.889">  7  8 -1 -1</clus>
<clus scale="  117.634">  2  5  1 -1</clus>
<clus scale="   30.923">  2  5  1 -1</clus>
</clustering>
</event>
<event>
 9    1  0.1782981E-005  0.9432599E+02  0.7546771E-02  0.1293268E+00
          2   -1    0    0  502    0  0.00000000000E+00  0.00000000000E+00  0.21456889846E+03  0.21456889846E+03  0.00000000000E+00 0. -1.
         -2   -1    0    0    0  501 -0.00000000000E+00 -0.00000000000E+00 -0.15330540808E+03  0.15330540808E+03  0.00000000000E+00 0.  1.
         23    2    1    2    0    0 -0.21514890502E+02 -0.13473550667E+02 -0.10432105660E+03  0.13908408057E+03  0.88414204390E+02 0.  0.
         23    2    1    2    0    0  0.37017499872E+02  0.44378216780E+02  0.70778893842E+02  0.12787669293E+03  0.89459909236E+02 0.  0.
        -11    1    3    3    0    0 -0.47213801109E+02  0.11798668572E+01 -0.98067251571E+02  0.10884723667E+03  0.00000000000E+00 0. -1.
         11    1    3    3    0    0  0.25698910607E+02 -0.14653417524E+02 -0.62538050256E+01  0.30236843896E+02  0.00000000000E+00 0.  1.
        -13    1    4    4    0    0  0.62852120110E+02  0.11241198455E+02  0.35774958902E+02  0.73188805356E+02  0.00000000000E+00 0.  1.
         13    1    4    4    0    0 -0.25834620237E+02  0.33137018325E+02  0.35003934941E+02  0.54687887577E+02  0.00000000000E+00 0. -1.
         21    1    1    2  502  501 -0.15502609370E+02 -0.30904666113E+02  0.94805653134E+02  0.10091353304E+03  0.00000000000E+00 0. -1.
<scales pt_clust_5="13000.00000" pt_clust_6="13000.00000" pt_clust_7="13000.00000" pt_clust_8="13000.00000" pt_clust_9="34.57498"></scales>
<clustering>
<clus scale="   34.575">  1  9  2 -1</clus>
<clus scale="   88.414">  5  6 -1 -1</clus>
<clus scale="   89.460">  7  8 -1 -1</clus>
<clus scale="   93.335">  2  5  1 -1</clus>
<clus scale="   34.575">  1  5  2 -1</clus>
</clustering>
</event>
<event>
 9    1  0.1782981E-005  0.1566137E+03  0.7546771E-02  0.1194758E+00
          1   -1    0    0  502    0  0.00000000000E+00  0.00000000000E+00  0.28379624204E+03  0.28379624204E+03  0.00000000000E+00 0. -1.
         -1   -1    0    0    0  501 -0.00000000000E+00 -0.00000000000E+00 -0.38516989715E+03  0.38516989715E+03  0.00000000000E+00 0.  1.
         23    2    1    2    0    0 -0.86552272608E+02 -0.62240599139E+02 -0.27826275682E+03  0.31336617129E+03  0.96969105416E+02 0.  0.
         23    2    1    2    0    0  0.14262660681E+03  0.12909452361E+03  0.13698151135E+03  0.25965001249E+03  0.10791871727E+03 0.  0.
        -13    1    4    4    0    0  0.35107877315E+02  0.28413231465E+02 -0.15395316584E+02  0.47716774247E+02  0.00000000000E+00 0.  1.
         13    1    4    4    0    0  0.10751872950E+03  0.10068129215E+03  0.15237682793E+03  0.21193323824E+03  0.00000000000E+00 0. -1.
        -13    1    3    3    0    0 -0.54386981683E+02 -0.75792491030E+02 -0.25471949474E+03  0.27126456915E+03  0.00000000000E+00 0.  1.
         13    1    3    3    0    0 -0.32165290925E+02  0.13551891891E+02 -0.23543262074E+02  0.42101602145E+02  0.00000000000E+00 0. -1.
         21    1    1    2  502  501 -0.56074334206E+02 -0.66853924475E+02  0.39907590354E+02  0.95949955405E+02  0.00000000000E+00 0. -1.
<scales pt_clust_5="13000.00000" pt_clust_6="13000.00000" pt_clust_7="13000.00000" pt_clust_8="13000.00000" pt_clust_9="87.25697"></scales>
<clustering>
<clus scale="   87.257">  1  9  2 -1</clus>
<clus scale="   96.969">  7  8 -1 -1</clus>
<clus scale="  107.919">  5  6 -1 -1</clus>
<clus scale="  149.280">  2  7  1 -1</clus>
<clus scale="   87.257">  1  5  2 -1</clus>
</clustering>
</event>
<event>
 9    1  0.1782981E-005  0.1427866E+03  0.7546771E-02  0.1210407E+00
          1   -1    0    0  502    0  0.00000000000E+00  0.00000000000E+00  0.41335897349E+03  0.41335897349E+03  0.00000000000E+00 0. -1.
         -1   -1    0    0    0  501 -0.00000000000E+00 -0.00000000000E+00 -0.11473854612E+03  0.11473854612E+03  0.00000000000E+00 0.  1.
         23    2    1    2    0    0 -0.92537815989E+02 -0.31610265415E+02  0.30930326850E+02  0.13429141536E+03  0.86689346825E+02 0.  0.
         23    2    1    2    0    0  0.11265838269E+03  0.56228198611E+02  0.34977889093E+02  0.15893198226E+03  0.90456623573E+02 0.  0.
        -13    1    3    3    0    0 -0.72456039973E+02 -0.19288582638E+02 -0.20491335666E+02  0.77729157889E+02  0.00000000000E+00 0.  1.
         13    1    3    3    0    0 -0.20081776016E+02 -0.12321682776E+02  0.51421662516E+02  0.56562257472E+02  0.00000000000E+00 0. -1.
        -13    1    4    4    0    0  0.69889765291E+02  0.61926458749E+02  0.58102790138E+02  0.10997908805E+03  0.00000000000E+00 0.  1.
         13    1    4    4    0    0  0.42768617402E+02 -0.56982601383E+01 -0.23124901045E+02  0.48952894209E+02  0.00000000000E+00 0. -1.
         21    1    1    2  502  501 -0.20120566704E+02 -0.24617933196E+02  0.23271221142E+03  0.23487412199E+03  0.00000000000E+00 0. -1.
<scales pt_clust_5="13000.00000" pt_clust_6="13000.00000" pt_clust_7="13000.00000" pt_clust_8="13000.00000" pt_clust_9="31.79434"></scales>
<clustering>
<clus scale="   31.794">  1  9  2 -1</clus>
<clus scale="   86.689">  5  6 -1 -1</clus>
<clus scale="   90.457">  7  8 -1 -1</clus>
<clus scale="  140.430">  2  5  1 -1</clus>
<clus scale="   31.794">  1  5  2 -1</clus>
</clustering>
</event>
<event>
 9    1  0.1782981E-005  0.1097382E+03  0.7546771E-02  0.1261073E+00
          1   -1    0    0  502    0  0.00000000000E+00  0.00000000000E+00  0.52150917481E+02  0.52150917481E+02  0.00000000000E+00 0. -1.
         -1   -1    0    0    0  501 -0.00000000000E+00 -0.00000000000E+00 -0.35346494228E+03  0.35346494228E+03  0.00000000000E+00 0.  1.
         23    2    1    2    0    0 -0.47433435279E+02  0.50460939103E+02 -0.23722461238E+03  0.26296064120E+03  0.89869599690E+02 0.  0.
         23    2    1    2    0    0  0.25873250205E+02 -0.38928070463E+02 -0.41978272894E+02  0.10968930994E+03  0.89915235497E+02 0.  0.
        -11    1    4    4    0    0  0.80841575806E+01  0.29004598562E+02 -0.19840854148E+02  0.36059393157E+02  0.00000000000E+00 0.  1.
         11    1    4    4    0    0  0.17789092624E+02 -0.67932669025E+02 -0.22137418746E+02  0.73629916786E+02  0.00000000000E+00 0. -1.
        -13    1    3    3    0    0 -0.73450608217E+02  0.39214440106E+02 -0.19578768568E+03  0.21275709630E+03  0.00000000000E+00 0.  1.
         13    1    3    3    0    0  0.26017172938E+02  0.11246498997E+02 -0.41436926694E+02  0.50203544908E+02  0.00000000000E+00 0. -1.
         21    1    1    2  502  501  0.21560185074E+02 -0.11532868640E+02 -0.22111139531E+02  0.32965908616E+02  0.00000000000E+00 0. -1.
<scales pt_clust_5="13000.00000" pt_clust_6="13000.00000" pt_clust_7="13000.00000" pt_clust_8="13000.00000" pt_clust_9="24.45094"></scales>
<clustering>
<clus scale="   24.451">  1  9  2 -1</clus>
<clus scale="   89.870">  7  8 -1 -1</clus>
<clus scale="   89.915">  5  6 -1 -1</clus>
<clus scale="  109.701">  2  7  1 -1</clus>
<clus scale="   24.451">  1  5  2 -1</clus>
</clustering>
</event>
<event>
 9    1  0.1782981E-005  0.1100715E+03  0.7546771E-02  0.1260938E+00
          1   -1    0    0  502    0  0.00000000000E+00  0.00000000000E+00  0.46661455346E+02  0.46661455346E+02  0.00000000000E+00 0. -1.
         -1   -1    0    0    0  501 -0.00000000000E+00 -0.00000000000E+00 -0.81369140684E+03  0.81369140684E+03  0.00000000000E+00 0.  1.
         23    2    1    2    0    0 -0.43841270360E+02  0.37162214155E+02 -0.45792270683E+03  0.47006770271E+03  0.89260027721E+02 0.  0.
         23    2    1    2    0    0 -0.51599971744E+01 -0.10166467508E+03 -0.26518002831E+03  0.29813695265E+03  0.90569660437E+02 0.  0.
        -11    1    3    3    0    0  0.37620965552E+01  0.53899765404E+02 -0.19502444033E+03  0.20237062635E+03  0.00000000000E+00 0.  1.
         11    1    3    3    0    0 -0.47603366916E+02 -0.16737551249E+02 -0.26289826650E+03  0.26769707636E+03  0.00000000000E+00 0. -1.
        -13    1    4    4    0    0  0.40076023243E+02 -0.26395427125E+02 -0.82383770584E+02  0.95340924412E+02  0.00000000000E+00 0.  1.
         13    1    4    4    0    0 -0.45236020418E+02 -0.75269247952E+02 -0.18279625773E+03  0.20279602824E+03  0.00000000000E+00 0. -1.
         21    1    1    2  502  501  0.49001267535E+02  0.64502460922E+02 -0.43927216349E+02  0.92148206826E+02  0.00000000000E+00 0.  1.
<scales pt_clust_5="13000.00000" pt_clust_6="13000.00000" pt_clust_7="13000.00000" pt_clust_8="13000.00000" pt_clust_9="81.00427"></scales>
<clustering>
<clus scale="   81.004">  1  9  2 -1</clus>
<clus scale="   89.260">  5  6 -1 -1</clus>
<clus scale="   90.570">  7  8 -1 -1</clus>
<clus scale="  108.996">  2  5  1 -1</clus>
<clus scale="   81.004">  1  5  2 -1</clus>
</clustering>
</event>
<event>
 9    1  0.1782981E-005  0.8639045E+02  0.7546771E-02  0.1312494E+00
          2   -1    0    0  502    0  0.00000000000E+00  0.00000000000E+00  0.65126356433E+03  0.65126356433E+03  0.00000000000E+00 0. -1.
         -2   -1    0    0    0  501 -0.00000000000E+00 -0.00000000000E+00 -0.17262710592E+02  0.17262710592E+02  0.00000000000E+00 0.  1.
         23    2    1    2    0    0  0.11129761971E+02 -0.66148162402E+01  0.20287134481E+03  0.22086338762E+03  0.86349441527E+02 0.  0.
         23    2    1    2    0    0  0.15728996214E+02 -0.25619646304E+01  0.25770089820E+03  0.27192703661E+03  0.85326404598E+02 0.  0.
        -13    1    4    4    0    0  0.59362590328E+01 -0.43432095462E+02  0.15144687712E+03  0.15766338407E+03  0.00000000000E+00 0. -1.
         13    1    4    4    0    0  0.97927371814E+01  0.40870130832E+02  0.10625402108E+03  0.11426365254E+03  0.00000000000E+00 0.  1.
        -13    1    3    3    0    0 -0.33148516251E+02  0.59807984779E+01  0.43737633893E+02  0.55204843072E+02  0.00000000000E+00 0.  1.
         13    1    3    3    0    0  0.44278278222E+02 -0.12595614718E+02  0.15913371092E+03  0.16565854455E+03  0.00000000000E+00 0. -1.
         21    1    1    2  502  501 -0.26858758185E+02  0.91767808706E+01  0.17342861073E+03  0.17573585069E+03  0.00000000000E+00 0.  1.
<scales pt_clust_5="13000.00000" pt_clust_6="13000.00000" pt_clust_7="13000.00000" pt_clust_8="13000.00000" pt_clust_9="28.38320"></scales>
<clustering>
<clus scale="   28.383">  1  9  2 -1</clus>
<clus scale="   85.326">  5  6 -1 -1</clus>
<clus scale="   85.368">  1  5  2 -1</clus>
<clus scale="   86.349">  7  8 -1 -1</clus>
<clus scale="   28.383">  1  5  2 -1</clus>
</clustering>
</event>
<event>
 9    1  0.1782981E-005  0.1329242E+03  0.7546771E-02  0.1229249E+00
         -4   -1    0    0    0  501 -0.00000000000E+00  0.00000000000E+00  0.62188788493E+03  0.62188788493E+03  0.00000000000E+00 0.  1.
          4   -1    0    0  502    0  0.00000000000E+00 -0.00000000000E+00 -0.63800934663E+02  0.63800934663E+02  0.00000000000E+00 0. -1.
         23    2    1    2    0    0  0.55123984672E+02 -0.80425716421E+02  0.44498198257E+03  0.46390948111E+03  0.87727374861E+02 0.  0.
         23    2    1    2    0    0 -0.10168440081E+03  0.57159920134E+02  0.10626393009E+03  0.16928201071E+03  0.61297654737E+02 0.  0.
        -11    1    3    3    0    0 -0.99845093744E+01 -0.40150929871E+02  0.71031132337E+02  0.82202246672E+02  0.00000000000E+00 0.  1.
         11    1    3    3    0    0  0.65108494046E+02 -0.40274786551E+02  0.37395085023E+03  0.38170723443E+03  0.00000000000E+00 0. -1.
        -11    1    4    4    0    0 -0.56450192851E+02  0.31087276416E+02  0.18302754184E+02  0.66992789452E+02  0.00000000000E+00 0.  1.
         11    1    4    4    0    0 -0.45234207956E+02  0.26072643718E+02  0.87961175903E+02  0.10228922126E+03  0.00000000000E+00 0. -1.
         21    1    1    2  502  501  0.46560416135E+02  0.23265796288E+02  0.68410376076E+01  0.52497327771E+02  0.00000000000E+00 0. -1.
<scales pt_clust_5="13000.00000" pt_clust_6="13000.00000" pt_clust_7="13000.00000" pt_clust_8="13000.00000" pt_clust_9="52.04968"></scales>
<clustering>
<clus scale="   52.050">  2  9  1 -1</clus>
<clus scale="   61.298">  7  8 -1 -1</clus>
<clus scale="   87.727">  5  6 -1 -1</clus>
<clus scale="  117.176">  2  7  1 -1</clus>
<clus scale="   52.050">  2  5  1 -1</clus>
</clustering>
</event>
<event>
 9    1  0.1782981E-005  0.2407685E+03  0.7546771E-02  0.1149745E+00
         -1   -1    0    0    0  501 -0.00000000000E+00  0.00000000000E+00  0.17721019300E+03  0.17721019300E+03  0.00000000000E+00 0.  1.
          1   -1    0    0  502    0  0.00000000000E+00 -0.00000000000E+00 -0.68069241057E+03  0.68069241057E+03  0.00000000000E+00 0. -1.
         23    2    1    2    0    0 -0.10506193226E+03  0.20658115982E+03  0.13057749400E+02  0.25135258083E+03  0.96404511646E+02 0.  0.
         23    2    1    2    0    0 -0.14817255298E+02 -0.66327487805E+02 -0.10458125212E+03  0.15516095015E+03  0.92297320988E+02 0.  0.
        -11    1    4    4    0    0  0.23515116718E+02 -0.97430518270E+00 -0.66137315873E+02  0.70200103531E+02  0.00000000000E+00 0.  1.
         11    1    4    4    0    0 -0.38332372016E+02 -0.65353182622E+02 -0.38443936251E+02  0.84960846616E+02  0.00000000000E+00 0. -1.
        -13    1    3    3    0    0 -0.22929191398E+02 -0.50495060440E+01  0.60010199816E+01  0.24233397828E+02  0.00000000000E+00 0. -1.
         13    1    3    3    0    0 -0.82132740858E+02  0.21163066587E+03  0.70567294181E+01  0.22711918300E+03  0.00000000000E+00 0.  1.
         21    1    1    2  502  501  0.11987918755E+03 -0.14025367202E+03 -0.41195871485E+03  0.45138907260E+03  0.00000000000E+00 0. -1.
<scales pt_clust_5="13000.00000" pt_clust_6="13000.00000" pt_clust_7="13000.00000" pt_clust_8="13000.00000" pt_clust_9="220.62557"></scales>
<clustering>
<clus scale="   92.297">  5  6 -1 -1</clus>
<clus scale="   96.405">  7  8 -1 -1</clus>
<clus scale="  114.620">  2  5  1 -1</clus>
<clus scale="  220.626">  2  9  1 -1</clus>
<clus scale="  114.620">  2  5  1 -1</clus>
</clustering>
</event>
<event>
 9    1  0.1782981E-005  0.2957533E+03  0.7546771E-02  0.1087422E+00
          1   -1    0    0  502    0  0.00000000000E+00  0.00000000000E+00  0.54106268732E+03  0.54106268732E+03  0.00000000000E+00 0. -1.
         -1   -1    0    0    0  501 -0.00000000000E+00 -0.00000000000E+00 -0.21994324716E+03  0.21994324716E+03  0.00000000000E+00 0.  1.
         23    2    1    2    0    0  0.24630593569E+03 -0.13571136173E+03  0.13846499423E+02  0.29593093656E+03  0.91099978094E+02 0.  0.
         23    2    1    2    0    0 -0.26749841790E+03  0.91626366067E+02  0.28454527326E+03  0.41113841466E+03  0.90099883100E+02 0.  0.
        -13    1    4    4    0    0 -0.23154213674E+03  0.43237485556E+02  0.23917979319E+03  0.33569065330E+03  0.00000000000E+00 0. -1.
         13    1    4    4    0    0 -0.35956281166E+02  0.48388880511E+02  0.45365480077E+02  0.75447761365E+02  0.00000000000E+00 0.  1.
        -13    1    3    3    0    0  0.40243672041E+02 -0.25099527889E+02 -0.32518186242E+02  0.57506276841E+02  0.00000000000E+00 0. -1.
         13    1    3    3    0    0  0.20606226365E+03 -0.11061183384E+03  0.46364685665E+02  0.23842465972E+03  0.00000000000E+00 0.  1.
         21    1    1    2  502  501  0.21192482208E+02  0.44084995659E+02  0.22727667480E+02  0.53936583258E+02  0.00000000000E+00 0. -1.
<scales pt_clust_5="13000.00000" pt_clust_6="13000.00000" pt_clust_7="13000.00000" pt_clust_8="13000.00000" pt_clust_9="48.91429"></scales>
<clustering>
<clus scale="   48.914">  2  9  1 -1</clus>
<clus scale="   90.100">  5  6 -1 -1</clus>
<clus scale="   91.100">  7  8 -1 -1</clus>
<clus scale="  295.447">  1  5  2 -1</clus>
<clus scale="  295.447">  1  5  2 -1</clus>
</clustering>
</event>
<event>
 9    1  0.1782981E-005  0.1219251E+03  0.7546771E-02  0.1240498E+00
         -1   -1    0    0    0  501 -0.00000000000E+00  0.00000000000E+00  0.13817830053E+03  0.13817830053E+03  0.00000000000E+00 0.  1.
          1   -1    0    0  502    0  0.00000000000E+00 -0.00000000000E+00 -0.44416591403E+03  0.44416591403E+03  0.00000000000E+00 0. -1.
         23    2    1    2    0    0 -0.98437453167E+02  0.69446667671E+02  0.31727463482E+02  0.15518450534E+03  0.92535544096E+02 0.  0.
         23    2    1    2    0    0  0.39088538488E+02 -0.82532817060E+01 -0.23949367079E+02  0.10201997792E+03  0.90766035557E+02 0.  0.
        -11    1    4    4    0    0  0.25469333737E+02 -0.37031562083E+02 -0.45199270885E+02  0.63741647608E+02  0.00000000000E+00 0. -1.
         11    1    4    4    0    0  0.13619204751E+02  0.28778280377E+02  0.21249903806E+02  0.38278330309E+02  0.00000000000E+00 0.  1.
        -11    1    3    3    0    0 -0.10104147166E+03  0.24447612473E+02  0.35746758890E+02  0.10993132184E+03  0.00000000000E+00 0.  1.
         11    1    3    3    0    0  0.26040184915E+01  0.44999055198E+02 -0.40192954081E+01  0.45253183496E+02  0.00000000000E+00 0. -1.
         21    1    1    2  502  501  0.59348914679E+02 -0.61193385965E+02 -0.31376570990E+03  0.32513973130E+03  0.00000000000E+00 0. -1.
<scales pt_clust_5="13000.00000" pt_clust_6="13000.00000" pt_clust_7="13000.00000" pt_clust_8="13000.00000" pt_clust_9="85.24626"></scales>
<clustering>
<clus scale="   85.246">  2  9  1 -1</clus>
<clus scale="   90.766">  5  6 -1 -1</clus>
<clus scale="   92.536">  7  8 -1 -1</clus>
<clus scale="  120.588">  2  5  1 -1</clus>
<clus scale="   85.246">  2  5  1 -1</clus>
</clustering>
</event>
<event>
 9    1  0.1782981E-005  0.9922370E+02  0.7546771E-02  0.1285153E+00
         -1   -1    0    0    0  501 -0.00000000000E+00  0.00000000000E+00  0.38147878818E+03  0.38147878818E+03  0.00000000000E+00 0.  1.
          1   -1    0    0  502    0  0.00000000000E+00 -0.00000000000E+00 -0.41497266534E+02  0.41497266534E+02  0.00000000000E+00 0. -1.
         23    2    1    2    0    0  0.82985505464E+01  0.33726185976E+02  0.21095727252E+03  0.23144688797E+03  0.88647445306E+02 0.  0.
         23    2    1    2    0    0  0.18965623733E+02 -0.21801490604E+02  0.12782967126E+03  0.16174728341E+03  0.94798517710E+02 0.  0.
        -11    1    3    3    0    0 -0.40042507741E+02  0.96391539739E+01  0.89403984130E+02  0.98434689484E+02  0.00000000000E+00 0. -1.
         11    1    3    3    0    0  0.48341058287E+02  0.24087032002E+02  0.12155328839E+03  0.13301219848E+03  0.00000000000E+00 0.  1.
        -11    1    4    4    0    0  0.42773369063E+02 -0.28742759344E+02  0.12686196602E+03  0.13692941882E+03  0.00000000000E+00 0.  1.
         11    1    4    4    0    0 -0.23807745331E+02  0.69412687395E+01  0.96770524128E+00  0.24817864592E+02  0.00000000000E+00 0. -1.
         21    1    1    2  502  501 -0.27264174279E+02 -0.11924695372E+02  0.11945778666E+01  0.29781883337E+02  0.00000000000E+00 0. -1.
<scales pt_clust_5="13000.00000" pt_clust_6="13000.00000" pt_clust_7="13000.00000" pt_clust_8="13000.00000" pt_clust_9="29.75792"></scales>
<clustering>
<clus scale="   29.758">  2  9  1 -1</clus>
<clus scale="   88.647">  5  6 -1 -1</clus>
<clus scale="   93.365">  1  5  2 -1</clus>
<clus scale="   94.799">  7  8 -1 -1</clus>
<clus scale="   29.758">  2  5  1 -1</clus>
</clustering>
</event>
<event>
 9    1  0.1782981E-005  0.4241132E+03  0.7546771E-02  0.1035789E+00
          1   -1    0    0  502    0  0.00000000000E+00  0.00000000000E+00  0.10196617996E+04  0.10196617996E+04  0.00000000000E+00 0. -1.
         -1   -1    0    0    0  501 -0.00000000000E+00 -0.00000000000E+00 -0.30774088540E+03  0.30774088540E+03  0.00000000000E+00 0.  1.
         23    2    1    2    0    0 -0.26918778742E+03  0.30942662634E+03 -0.21919346294E+02  0.42116956390E+03  0.93254714817E+02 0.  0.
         23    2    1    2    0    0  0.30101811892E+03 -0.29934348191E+03  0.46784058427E+03  0.63814606890E+03  0.90206235243E+02 0.  0.
        -11    1    3    3    0    0 -0.25478464120E+03  0.24249781297E+03 -0.25109516844E+02  0.35263421632E+03  0.00000000000E+00 0.  1.
         11    1    3    3    0    0 -0.14403146219E+02  0.66928813369E+02  0.31901705501E+01  0.68535347582E+02  0.00000000000E+00 0. -1.
        -13    1    4    4    0    0  0.14388480509E+03 -0.20062500899E+03  0.29345953740E+03  0.38349932394E+03  0.00000000000E+00 0.  1.
         13    1    4    4    0    0  0.15713331383E+03 -0.98718472922E+02  0.17438104687E+03  0.25464674496E+03  0.00000000000E+00 0. -1.
         21    1    1    2  502  501 -0.31830331506E+02 -0.10083144421E+02  0.26599967620E+03  0.26808705218E+03  0.00000000000E+00 0.  1.
<scales pt_clust_5="13000.00000" pt_clust_6="13000.00000" pt_clust_7="13000.00000" pt_clust_8="13000.00000" pt_clust_9="33.38922"></scales>
<clustering>
<clus scale="   33.389">  1  9  2 -1</clus>
<clus scale="   90.206">  7  8 -1 -1</clus>
<clus scale="   93.255">  5  6 -1 -1</clus>
<clus scale="  423.453">  1  7  2 -1</clus>
<clus scale="   33.389">  1  5  2 -1</clus>
</clustering>
</event>
<event>
 9    1  0.1782981E-005  0.1327202E+03  0.7546771E-02  0.1223949E+00
         -1   -1    0    0    0  501 -0.00000000000E+00  0.00000000000E+00  0.15265265832E+03  0.15265265832E+03  0.00000000000E+00 0.  1.
          1   -1    0    0  502    0  0.00000000000E+00 -0.00000000000E+00 -0.20082102493E+03  0.20082102493E+03  0.00000000000E+00 0. -1.
         23    2    1    2    0    0  0.10750446423E+03 -0.11812956592E+02  0.48961809554E+02  0.15051435421E+03  0.92523274131E+02 0.  0.
         23    2    1    2    0    0 -0.76688402973E+02  0.69120173505E+01 -0.21115421820E+02  0.12078943360E+03  0.90638507801E+02 0.  0.
        -11    1    4    4    0    0 -0.97561990884E+02  0.85778049372E+01 -0.16039685931E+02  0.99243097128E+02  0.00000000000E+00 0. -1.
         11    1    4    4    0    0  0.20873587911E+02 -0.16657875868E+01 -0.50757358890E+01  0.21546336472E+02  0.00000000000E+00 0.  1.
        -13    1    3    3    0    0  0.10207063041E+03  0.21220953360E+02  0.19800888292E+02  0.10611699972E+03  0.00000000000E+00 0.  1.
         13    1    3    3    0    0  0.54338338244E+01 -0.33033909952E+02  0.29160921262E+02  0.44397354489E+02  0.00000000000E+00 0. -1.
         21    1    1    2  502  501 -0.30816061257E+02  0.49009392413E+01 -0.76014754353E+02  0.82169895437E+02  0.00000000000E+00 0. -1.
<scales pt_clust_5="13000.00000" pt_clust_6="13000.00000" pt_clust_7="13000.00000" pt_clust_8="13000.00000" pt_clust_9="31.20335"></scales>
<clustering>
<clus scale="   31.203">  2  9  1 -1</clus>
<clus scale="   90.639">  5  6 -1 -1</clus>
<clus scale="   92.523">  7  8 -1 -1</clus>
<clus scale="  131.413">  2  5  1 -1</clus>
<clus scale="   31.203">  2  5  1 -1</clus>
</clustering>
</event>
<event>
 9    1  0.1782981E-005  0.9177754E+02  0.7546771E-02  0.1299298E+00
          1   -1    0    0  502    0  0.00000000000E+00  0.00000000000E+00  0.11171050471E+04  0.11171050471E+04  0.00000000000E+00 0. -1.
         -1   -1    0    0    0  501 -0.00000000000E+00 -0.00000000000E+00 -0.40999689718E+02  0.40999689718E+02  0.00000000000E+00 0.  1.
         23    2    1    2    0    0  0.90540968682E+01  0.14016996090E+02  0.41410309247E+02  0.10165406835E+03  0.91325150157E+02 0.  0.
         23    2    1    2    0    0  0.67671670819E+02  0.21020047380E+02  0.39785603122E+03  0.41405019267E+03  0.90149004681E+02 0.  0.
        -11    1    4    4    0    0  0.36563140496E+02  0.52417775881E+02  0.16319502398E+03  0.17526295194E+03  0.00000000000E+00 0.  1.
         11    1    4    4    0    0  0.31108530323E+02 -0.31397728501E+02  0.23466100724E+03  0.23878724073E+03  0.00000000000E+00 0. -1.
        -13    1    3    3    0    0 -0.54027327828E+01  0.47818064325E+02  0.25946100978E+01  0.48192206827E+02  0.00000000000E+00 0.  1.
         13    1    3    3    0    0  0.14456829651E+02 -0.33801068234E+02  0.38815699150E+02  0.53461861526E+02  0.00000000000E+00 0. -1.
         21    1    1    2  502  501 -0.76725767687E+02 -0.35037043470E+02  0.63683901696E+03  0.64240047584E+03  0.00000000000E+00 0. -1.
<scales pt_clust_5="13000.00000" pt_clust_6="13000.00000" pt_clust_7="13000.00000" pt_clust_8="13000.00000" pt_clust_9="84.34713"></scales>
<clustering>
<clus scale="   84.347">  1  9  2 -1</clus>
<clus scale="   90.149">  5  6 -1 -1</clus>
<clus scale="   90.607">  1  5  2 -1</clus>
<clus scale="   91.325">  7  8 -1 -1</clus>
<clus scale="   84.347">  1  5  2 -1</clus>
</clustering>
</event>
<event>
 9    1  0.1782981E-005  0.1551707E+03  0.7546771E-02  0.1194837E+00
          1   -1    0    0  502    0  0.00000000000E+00  0.00000000000E+00  0.10764904373E+03  0.10764904373E+03  0.00000000000E+00 0. -1.
         -1   -1    0    0    0  501 -0.00000000000E+00 -0.00000000000E+00 -0.32152074098E+03  0.32152074098E+03  0.00000000000E+00 0.  1.
         23    2    1    2    0    0  0.28600937063E+02  0.14335181234E+03 -0.17547636452E+03  0.24420254484E+03  0.86459081077E+02 0.  0.
         23    2    1    2    0    0 -0.21517527832E+01 -0.10198549887E+03 -0.22520079836E+02  0.13336535140E+03  0.82906519280E+02 0.  0.
        -11    1    4    4    0    0  0.36959428108E+02 -0.57300240277E+02  0.40546660033E+01  0.68306348009E+02  0.00000000000E+00 0. -1.
         11    1    4    4    0    0 -0.39111180891E+02 -0.44685258589E+02 -0.26574745840E+02  0.65059003392E+02  0.00000000000E+00 0.  1.
        -13    1    3    3    0    0 -0.20720199091E+02  0.50169965740E+02 -0.10248347978E+03  0.11597075382E+03  0.00000000000E+00 0.  1.
         13    1    3    3    0    0  0.49321136153E+02  0.93181846599E+02 -0.72992884734E+02  0.12823179102E+03  0.00000000000E+00 0. -1.
         21    1    1    2  502  501 -0.26449184279E+02 -0.41366313473E+02 -0.15875252890E+02  0.51601888471E+02  0.00000000000E+00 0. -1.
<scales pt_clust_5="13000.00000" pt_clust_6="13000.00000" pt_clust_7="13000.00000" pt_clust_8="13000.00000" pt_clust_9="49.09920"></scales>
<clustering>
<clus scale="   49.099">  1  9  2 -1</clus>
<clus scale="   82.907">  5  6 -1 -1</clus>
<clus scale="   86.459">  7  8 -1 -1</clus>
<clus scale="  153.220">  1  5  2 -1</clus>
<clus scale="   49.099">  1  5  2 -1</clus>
</clustering>
</event>
<event>
 9    1  0.1782981E-005  0.1599529E+03  0.7546771E-02  0.1207422E+00
         -2   -1    0    0    0  501 -0.00000000000E+00  0.00000000000E+00  0.11914006982E+03  0.11914006982E+03  0.00000000000E+00 0.  1.
          2   -1    0    0  502    0  0.00000000000E+00 -0.00000000000E+00 -0.92586386315E+03  0.92586386315E+03  0.00000000000E+00 0. -1.
         23    2    1    2    0    0 -0.98065173227E+02  0.93007118989E+02  0.41359897767E+02  0.16764240130E+03  0.90145611036E+02 0.  0.
         23    2    1    2    0    0 -0.11547537710E+02 -0.52740251218E+02 -0.35417525786E+03  0.36983625401E+03  0.91781598229E+02 0.  0.
        -11    1    4    4    0    0  0.18343007271E+02  0.20289625041E+02 -0.81095148026E+02  0.85583630639E+02  0.00000000000E+00 0.  1.
         11    1    4    4    0    0 -0.29890544981E+02 -0.73029876259E+02 -0.27308010983E+03  0.28425262337E+03  0.00000000000E+00 0. -1.
        -11    1    3    3    0    0 -0.63245156158E+02  0.17980854433E+01  0.27674429150E+02  0.69058358781E+02  0.00000000000E+00 0.  1.
         11    1    3    3    0    0 -0.34820017069E+02  0.91209033545E+02  0.13685468617E+02  0.98584042523E+02  0.00000000000E+00 0. -1.
         21    1    1    2  502  501  0.10961271094E+03 -0.40266867770E+02 -0.49390843324E+03  0.50752527766E+03  0.00000000000E+00 0. -1.
<scales pt_clust_5="13000.00000" pt_clust_6="13000.00000" pt_clust_7="13000.00000" pt_clust_8="13000.00000" pt_clust_9="132.13134"></scales>
<clustering>
<clus scale="   90.146">  7  8 -1 -1</clus>
<clus scale="   91.782">  5  6 -1 -1</clus>
<clus scale="  106.484">  2  5  1 -1</clus>
<clus scale="  132.131">  2  9  1 -1</clus>
<clus scale="  106.484">  2  5  1 -1</clus>
</clustering>
</event>
<event>
 9    1  0.1782981E-005  0.9729338E+02  0.7546771E-02  0.1287607E+00
         -3   -1    0    0    0  501 -0.00000000000E+00  0.00000000000E+00  0.20259454739E+03  0.20259454739E+03  0.00000000000E+00 0.  1.
          3   -1    0    0  502    0  0.00000000000E+00 -0.00000000000E+00 -0.99882045464E+02  0.99882045464E+02  0.00000000000E+00 0. -1.
         23    2    1    2    0    0 -0.13413960825E+02 -0.35191946199E+02  0.13379058639E+03  0.16654229349E+03  0.91749698040E+02 0.  0.
         23    2    1    2    0    0  0.20327589604E+02  0.10822699760E+02  0.49253034713E+01  0.91912686746E+02  0.88844480084E+02 0.  0.
        -11    1    3    3    0    0  0.11574437185E+02 -0.57992384381E+02  0.11095039856E+03  0.12572619131E+03  0.00000000000E+00 0.  1.
         11    1    3    3    0    0 -0.24988398010E+02  0.22800438181E+02  0.22840187840E+02  0.40816102177E+02  0.00000000000E+00 0. -1.
        -13    1    4    4    0    0 -0.33264407666E+02  0.15543189806E+02 -0.54588161768E+01  0.37120213371E+02  0.00000000000E+00 0.  1.
         13    1    4    4    0    0  0.53591997270E+02 -0.47204900454E+01  0.10384119648E+02  0.54792473375E+02  0.00000000000E+00 0. -1.
         21    1    1    2  502  501 -0.69136287790E+01  0.24369246439E+02 -0.36003387937E+02  0.44021612622E+02  0.00000000000E+00 0. -1.
<scales pt_clust_5="13000.00000" pt_clust_6="13000.00000" pt_clust_7="13000.00000" pt_clust_8="13000.00000" pt_clust_9="25.33098"></scales>
<clustering>
<clus scale="   25.331">  2  9  1 -1</clus>
<clus scale="   88.844">  7  8 -1 -1</clus>
<clus scale="   91.750">  5  6 -1 -1</clus>
<clus scale="   94.559">  2  7  1 -1</clus>
<clus scale="   25.331">  2  5  1 -1</clus>
</clustering>
</event>
<event>
 9    1  0.1782981E-005  0.1019787E+03  0.7546771E-02  0.1276999E+00
          1   -1    0    0  502    0  0.00000000000E+00  0.00000000000E+00  0.43973536924E+03  0.43973536924E+03  0.00000000000E+00 0. -1.
         -1   -1    0    0    0  501 -0.00000000000E+00 -0.00000000000E+00 -0.32976099846E+02  0.32976099846E+02  0.00000000000E+00 0.  1.
         23    2    1    2    0    0  0.19241122217E+02  0.42760229794E+02  0.98124621943E+02  0.14181529966E+03  0.91019117491E+02 0.  0.
         23    2    1    2    0    0 -0.25471344910E+02 -0.23657229108E+02  0.24949673065E+03  0.26843791526E+03  0.92746114984E+02 0.  0.
        -11    1    4    4    0    0 -0.57266385310E+02 -0.11779403323E+02  0.20037797610E+03  0.20873314671E+03  0.00000000000E+00 0. -1.
         11    1    4    4    0    0  0.31795040400E+02 -0.11877825785E+02  0.49118754549E+02  0.59704768552E+02  0.00000000000E+00 0.  1.
        -13    1    3    3    0    0 -0.14972291212E+02 -0.21822051592E+02  0.42101256722E+02  0.49728133460E+02  0.00000000000E+00 0. -1.
         13    1    3    3    0    0  0.34213413429E+02  0.64582281385E+02  0.56023365221E+02  0.92087166196E+02  0.00000000000E+00 0.  1.
         21    1    1    2  502  501  0.62302226934E+01 -0.19103000686E+02  0.59137916797E+02  0.62458254163E+02  0.00000000000E+00 0. -1.
<scales pt_clust_5="13000.00000" pt_clust_6="13000.00000" pt_clust_7="13000.00000" pt_clust_8="13000.00000" pt_clust_9="20.09329"></scales>
<clustering>
<clus scale="   20.093">  1  9  2 -1</clus>
<clus scale="   91.019">  7  8 -1 -1</clus>
<clus scale="   92.746">  5  6 -1 -1</clus>
<clus scale="  100.411">  2  7  1 -1</clus>
<clus scale="   20.093">  1  5  2 -1</clus>
</clustering>
</event>
<event>
 9    1  0.1782981E-005  0.1012436E+03  0.7546771E-02  0.1277921E+00
          1   -1    0    0  502    0  0.00000000000E+00  0.00000000000E+00  0.22963557377E+03  0.22963557377E+03  0.00000000000E+00 0. -1.
         -1   -1    0    0    0  501 -0.00000000000E+00 -0.00000000000E+00 -0.11760405040E+03  0.11760405040E+03  0.00000000000E+00 0.  1.
         23    2    1    2    0    0 -0.42632598446E+02 -0.26762420612E+02 -0.45647029774E+02  0.11337888733E+03  0.90759876367E+02 0.  0.
         23    2    1    2    0    0  0.31303890012E+02  0.96985526388E+01  0.25674887327E+02  0.10027749307E+03  0.91227081085E+02 0.  0.
        -11    1    4    4    0    0 -0.16081967666E+02  0.38014088866E+02  0.61861185326E+01  0.41736898529E+02  0.00000000000E+00 0.  1.
         11    1    4    4    0    0  0.47385857678E+02 -0.28315536227E+02  0.19488768794E+02  0.58540594538E+02  0.00000000000E+00 0. -1.
        -13    1    3    3    0    0 -0.37269797152E+02  0.20300773220E+01 -0.67299088456E+02  0.76956652088E+02  0.00000000000E+00 0.  1.
         13    1    3    3    0    0 -0.53628012939E+01 -0.28792497934E+02  0.21652058682E+02  0.36422235244E+02  0.00000000000E+00 0. -1.
         21    1    1    2  502  501  0.11328708433E+02  0.17063867973E+02  0.13200366582E+03  0.13358324376E+03  0.00000000000E+00 0. -1.
<scales pt_clust_5="13000.00000" pt_clust_6="13000.00000" pt_clust_7="13000.00000" pt_clust_8="13000.00000" pt_clust_9="20.48207"></scales>
<clustering>
<clus scale="   20.482">  1  9  2 -1</clus>
<clus scale="   90.760">  7  8 -1 -1</clus>
<clus scale="   91.227">  5  6 -1 -1</clus>
<clus scale="  100.823">  2  7  1 -1</clus>
<clus scale="   20.482">  1  5  2 -1</clus>
</clustering>
</event>
<event>
 9    1  0.3606176E-005  0.9635270E+02  0.7546771E-02  0.1289311E+00
          2   -1    0    0  502    0  0.00000000000E+00  0.00000000000E+00  0.46677804605E+03  0.46677804605E+03  0.00000000000E+00 0. -1.
         -2   -1    0    0    0  501 -0.00000000000E+00 -0.00000000000E+00 -0.14223418495E+03  0.14223418495E+03  0.00000000000E+00 0.  1.
         23    2    1    2    0    0  0.13729976155E+02 -0.19184960349E+02 -0.11058152275E+03  0.14639944668E+03  0.92994353933E+02 0.  0.
         23    2    1    2    0    0 -0.58755635723E+02  0.25074806470E+02  0.32666447992E+03  0.34502975840E+03  0.90856376152E+02 0.  0.
        -11    1    4    4    0    0 -0.18979516301E+02 -0.17949695761E+02  0.20221180955E+02  0.33034978070E+02  0.00000000000E+00 0.  1.
         11    1    4    4    0    0 -0.39776119422E+02  0.43024502231E+02  0.30644329897E+03  0.31199478033E+03  0.00000000000E+00 0. -1.
        -11    1    3    3    0    0 -0.14140182476E+02 -0.47968804297E+02 -0.85736506058E+02  0.99255727378E+02  0.00000000000E+00 0.  1.
         11    1    3    3    0    0  0.27870158631E+02  0.28783843949E+02 -0.24845016696E+02  0.47143719297E+02  0.00000000000E+00 0. -1.
         21    1    1    2  502  501  0.45025659568E+02 -0.58898461211E+01  0.10846090392E+03  0.11758302593E+03  0.00000000000E+00 0. -1.
<scales pt_clust_5="13000.00000" pt_clust_6="13000.00000" pt_clust_7="13000.00000" pt_clust_8="13000.00000" pt_clust_9="45.40925"></scales>
<clustering>
<clus scale="   45.409">  1  9  2 -1</clus>
<clus scale="   90.856">  5  6 -1 -1</clus>
<clus scale="   92.994">  7  8 -1 -1</clus>
<clus scale="   94.291">  1  5  2 -1</clus>
<clus scale="   45.409">  1  5  2 -1</clus>
</clustering>
</event>
<event>
 9    1  0.1782981E-005  0.9438901E+02  0.7546771E-02  0.1298157E+00
         -1   -1    0    0    0  501 -0.00000000000E+00  0.00000000000E+00  0.30677487431E+03  0.30677487431E+03  0.00000000000E+00 0.  1.
          1   -1    0    0  502    0  0.00000000000E+00 -0.00000000000E+00 -0.10693839345E+03  0.10693839345E+03  0.00000000000E+00 0. -1.
         23    2    1    2    0    0  0.18916329715E+02  0.26148589310E+02  0.20539414987E+03  0.22314548804E+03  0.81028240614E+02 0.  0.
         23    2    1    2    0    0 -0.18935523941E+02  0.53524717664E+01  0.64958079693E+02  0.11333573952E+03  0.90764721750E+02 0.  0.
        -13    1    4    4    0    0  0.28274194762E+02  0.22769662918E+02  0.48110204260E+02  0.60270053864E+02  0.00000000000E+00 0.  1.
         13    1    4    4    0    0 -0.47209718703E+02 -0.17417191151E+02  0.16847875433E+02  0.53065685656E+02  0.00000000000E+00 0. -1.
        -13    1    3    3    0    0  0.31127407985E+02 -0.96767287428E+01  0.16336634957E+03  0.16658667048E+03  0.00000000000E+00 0.  1.
         13    1    3    3    0    0 -0.12211078270E+02  0.35825318052E+02  0.42027800298E+02  0.56558817561E+02  0.00000000000E+00 0. -1.
         21    1    1    2  502  501  0.19194225223E-01 -0.31501061076E+02 -0.70515748707E+02  0.77232040197E+02  0.00000000000E+00 0. -1.
<scales pt_clust_5="13000.00000" pt_clust_6="13000.00000" pt_clust_7="13000.00000" pt_clust_8="13000.00000" pt_clust_9="31.50107"></scales>
<clustering>
<clus scale="   31.501">  2  9  1 -1</clus>
<clus scale="   81.028">  7  8 -1 -1</clus>
<clus scale="   85.068">  1  7  2 -1</clus>
<clus scale="   90.765">  5  6 -1 -1</clus>
<clus scale="   31.501">  2  5  1 -1</clus>
</clustering>
</event>
<event>
 9    1  0.1782981E-005  0.1285701E+03  0.7546771E-02  0.1241119E+00
         -1   -1    0    0    0  501 -0.00000000000E+00  0.00000000000E+00  0.35978690958E+03  0.35978690958E+03  0.00000000000E+00 0.  1.
          1   -1    0    0  502    0  0.00000000000E+00 -0.00000000000E+00 -0.10125651172E+03  0.10125651172E+03  0.00000000000E+00 0. -1.
         23    2    1    2    0    0  0.50152121071E+02 -0.91286250113E+01  0.20258900011E+03  0.22661723391E+03  0.87832230392E+02 0.  0.
         23    2    1    2    0    0  0.42489154796E+02  0.61286422608E+02  0.53429671987E+02  0.12808169712E+03  0.89380296582E+02 0.  0.
        -11    1    3    3    0    0  0.74152510925E+02 -0.17374105128E+02  0.15023908186E+03  0.16844060118E+03  0.00000000000E+00 0.  1.
         11    1    3    3    0    0 -0.24000389853E+02  0.82454801169E+01  0.52349918249E+02  0.58176632733E+02  0.00000000000E+00 0. -1.
        -13    1    4    4    0    0  0.67288355505E+02  0.26029705075E+02  0.42020248023E+02  0.83492332443E+02  0.00000000000E+00 0.  1.
         13    1    4    4    0    0 -0.24799200710E+02  0.35256717533E+02  0.11409423964E+02  0.44589364676E+02  0.00000000000E+00 0. -1.
         21    1    1    2  502  501 -0.92641275867E+02 -0.52157797596E+02  0.25117257519E+01  0.10634449027E+03  0.00000000000E+00 0. -1.
<scales pt_clust_5="13000.00000" pt_clust_6="13000.00000" pt_clust_7="13000.00000" pt_clust_8="13000.00000" pt_clust_9="92.41992"></scales>
<clustering>
<clus scale="   87.832">  5  6 -1 -1</clus>
<clus scale="   89.380">  7  8 -1 -1</clus>
<clus scale="  101.553">  1  5  2 -1</clus>
<clus scale="   92.420">  2  9  1 -1</clus>
<clus scale="   92.420">  2  5  1 -1</clus>
</clustering>
</event>
<event>
 9    1  0.1782981E-005  0.1406643E+03  0.7546771E-02  0.1221732E+00
          1   -1    0    0  502    0  0.00000000000E+00  0.00000000000E+00  0.43692216208E+03  0.43692216208E+03  0.00000000000E+00 0. -1.
         -1   -1    0    0    0  501 -0.00000000000E+00 -0.00000000000E+00 -0.57192939542E+02  0.57192939542E+02  0.00000000000E+00 0.  1.
         23    2    1    2    0    0  0.41525139470E+02 -0.30050728002E+02  0.12233156384E+03  0.17978573322E+03  0.12136933260E+03 0.  0.
         23    2    1    2    0    0 -0.72980017545E+02  0.62316223629E+02  0.16501091217E+03  0.21153937620E+03  0.91164202737E+02 0.  0.
        -11    1    3    3    0    0  0.66181172325E+02 -0.55260115356E+02  0.11506390708E+03  0.14378223337E+03  0.00000000000E+00 0. -1.
         11    1    3    3    0    0 -0.24656032855E+02  0.25209387353E+02  0.72676567622E+01  0.36003499853E+02  0.00000000000E+00 0.  1.
        -13    1    4    4    0    0 -0.40498133352E+02 -0.74570595309E+01  0.16677306081E+02  0.44427908796E+02  0.00000000000E+00 0. -1.
         13    1    4    4    0    0 -0.32481884193E+02  0.69773283160E+02  0.14833360608E+03  0.16711146740E+03  0.00000000000E+00 0.  1.
         21    1    1    2  502  501  0.31454878075E+02 -0.32265495627E+02  0.92386746532E+02  0.10278999221E+03  0.00000000000E+00 0. -1.
<scales pt_clust_5="13000.00000" pt_clust_6="13000.00000" pt_clust_7="13000.00000" pt_clust_8="13000.00000" pt_clust_9="45.06075"></scales>
<clustering>
<clus scale="   45.061">  1  9  2 -1</clus>
<clus scale="   91.164">  7  8 -1 -1</clus>
<clus scale="  115.615">  1  7  2 -1</clus>
<clus scale="  121.369">  5  6 -1 -1</clus>
<clus scale="   45.061">  1  5  2 -1</clus>
</clustering>
</event>
<event>
 9    1  0.1782981E-005  0.1754854E+03  0.7546771E-02  0.1172449E+00
          2   -1    0    0  502    0  0.00000000000E+00  0.00000000000E+00  0.41213314712E+03  0.41213314712E+03  0.00000000000E+00 0. -1.
         -2   -1    0    0    0  501 -0.00000000000E+00 -0.00000000000E+00 -0.23183985725E+03  0.23183985725E+03  0.00000000000E+00 0.  1.
         23    2    1    2    0    0 -0.12064621626E+03 -0.80676774968E+02 -0.12854121830E+03  0.21463265094E+03  0.92087341866E+02 0.  0.
         23    2    1    2    0    0  0.14733301978E+03  0.74327404288E+02  0.89709108445E+02  0.20850457554E+03  0.90525422595E+02 0.  0.
        -11    1    3    3    0    0 -0.96004539241E+02 -0.20024558306E+02 -0.43432978457E+02  0.10725799787E+03  0.00000000000E+00 0.  1.
         11    1    3    3    0    0 -0.24641677015E+02 -0.60652216663E+02 -0.85108239845E+02  0.10737465307E+03  0.00000000000E+00 0. -1.
        -13    1    4    4    0    0  0.87720150406E+02 -0.43681004593E+01  0.56093731899E+02  0.10421329976E+03  0.00000000000E+00 0.  1.
         13    1    4    4    0    0  0.59612869374E+02  0.78695504747E+02  0.33615376546E+02  0.10429127577E+03  0.00000000000E+00 0. -1.
         21    1    1    2  502  501 -0.26686803524E+02  0.63493706808E+01  0.21912539973E+03  0.22083577789E+03  0.00000000000E+00 0.  1.
<scales pt_clust_5="13000.00000" pt_clust_6="13000.00000" pt_clust_7="13000.00000" pt_clust_8="13000.00000" pt_clust_9="27.43173"></scales>
<clustering>
<clus scale="   27.432">  1  9  2 -1</clus>
<clus scale="   90.525">  7  8 -1 -1</clus>
<clus scale="   92.087">  5  6 -1 -1</clus>
<clus scale="  174.671">  1  7  2 -1</clus>
<clus scale="   27.432">  1  5  2 -1</clus>
</clustering>
</event>
<event>
 9    1  0.1782981E-005  0.1198765E+03  0.7546771E-02  0.1245065E+00
         -1   -1    0    0    0  501 -0.00000000000E+00  0.00000000000E+00  0.10246763291E+03  0.10246763291E+03  0.00000000000E+00 0.  1.
          1   -1    0    0  502    0  0.00000000000E+00 -0.00000000000E+00 -0.28743898447E+03  0.28743898447E+03  0.00000000000E+00 0. -1.
         23    2    1    2    0    0 -0.80794489622E+02  0.13894685223E+02  0.28553148503E+02  0.12410164449E+03  0.88685534593E+02 0.  0.
         23    2    1    2    0    0  0.38958482203E+02 -0.39183468930E+02 -0.15492255602E+03  0.18949008611E+03  0.94087123424E+02 0.  0.
        -11    1    4    4    0    0  0.62835964571E+01  0.21806600944E+02 -0.95887442068E+02  0.98536353573E+02  0.00000000000E+00 0.  1.
         11    1    4    4    0    0  0.32674885745E+02 -0.60990069873E+02 -0.59035113956E+02  0.90953732532E+02  0.00000000000E+00 0. -1.
        -11    1    3    3    0    0 -0.52049613938E+02 -0.74129826337E+01  0.57620707940E+02  0.78001670534E+02  0.00000000000E+00 0.  1.
         11    1    3    3    0    0 -0.28744875684E+02  0.21307667856E+02 -0.29067559436E+02  0.46099973960E+02  0.00000000000E+00 0. -1.
         21    1    1    2  502  501  0.41836007420E+02  0.25288783707E+02 -0.58601944037E+02  0.76314886773E+02  0.00000000000E+00 0.  1.
<scales pt_clust_5="13000.00000" pt_clust_6="13000.00000" pt_clust_7="13000.00000" pt_clust_8="13000.00000" pt_clust_9="48.88532"></scales>
<clustering>
<clus scale="   48.885">  2  9  1 -1</clus>
<clus scale="   88.686">  7  8 -1 -1</clus>
<clus scale="   94.087">  5  6 -1 -1</clus>
<clus scale="  115.685">  1  7  2 -1</clus>
<clus scale="   48.885">  2  5  1 -1</clus>
</clustering>
</event>
<event>
 9    1  0.1782981E-005  0.9414440E+02  0.7546771E-02  0.1294722E+00
         -1   -1    0    0    0  501 -0.00000000000E+00  0.00000000000E+00  0.30850077468E+02  0.30850077468E+02  0.00000000000E+00 0.  1.
          1   -1    0    0  502    0  0.00000000000E+00 -0.00000000000E+00 -0.54254364207E+03  0.54254364207E+03  0.00000000000E+00 0. -1.
         23    2    1    2    0    0  0.15247557188E+02  0.78834738130E-02 -0.84407940072E+02  0.12665655398E+03  0.93191707020E+02 0.  0.
         23    2    1    2    0    0  0.18408757400E+01  0.30438723879E+02 -0.30571844207E+03  0.32025558472E+03  0.90387880754E+02 0.  0.
        -13    1    4    4    0    0 -0.31828092886E+02  0.47516474111E+02 -0.19906229104E+03  0.20711503693E+03  0.00000000000E+00 0.  1.
         13    1    4    4    0    0  0.33668968626E+02 -0.17077750232E+02 -0.10665615103E+03  0.11314054779E+03  0.00000000000E+00 0. -1.
        -13    1    3    3    0    0  0.34361519726E+02  0.37815521503E+02 -0.37046667072E+02  0.63112465057E+02  0.00000000000E+00 0.  1.
         13    1    3    3    0    0 -0.19113962538E+02 -0.37807638029E+02 -0.47361273000E+02  0.63544088926E+02  0.00000000000E+00 0. -1.
         21    1    1    2  502  501 -0.17088432928E+02 -0.30446607353E+02 -0.12156718246E+03  0.12648158083E+03  0.00000000000E+00 0. -1.
<scales pt_clust_5="13000.00000" pt_clust_6="13000.00000" pt_clust_7="13000.00000" pt_clust_8="13000.00000" pt_clust_9="34.91433"></scales>
<clustering>
<clus scale="   34.914">  2  9  1 -1</clus>
<clus scale="   90.388">  5  6 -1 -1</clus>
<clus scale="   91.370">  2  5  1 -1</clus>
<clus scale="   93.192">  7  8 -1 -1</clus>
<clus scale="   34.914">  2  5  1 -1</clus>
</clustering>
</event>
<event>
 9    1  0.1782981E-005  0.1429823E+03  0.7546771E-02  0.1209951E+00
          1   -1    0    0  502    0  0.00000000000E+00  0.00000000000E+00  0.32320204331E+03  0.32320204331E+03  0.00000000000E+00 0. -1.
         -1   -1    0    0    0  501 -0.00000000000E+00 -0.00000000000E+00 -0.10447901395E+03  0.10447901395E+03  0.00000000000E+00 0.  1.
         23    2    1    2    0    0 -0.10420836091E+03  0.31103674432E+02  0.21035019979E+02  0.14470893894E+03  0.93120265762E+02 0.  0.
         23    2    1    2    0    0  0.79545430846E+02 -0.79462093269E+02  0.16673069349E+03  0.22048090135E+03  0.90393605247E+02 0.  0.
        -11    1    3    3    0    0 -0.86240420561E+02  0.50226645091E+02 -0.14169357704E+02  0.10080127337E+03  0.00000000000E+00 0.  1.
         11    1    3    3    0    0 -0.17967940352E+02 -0.19122970659E+02  0.35204377684E+02  0.43907665566E+02  0.00000000000E+00 0. -1.
        -13    1    4    4    0    0  0.33611391410E+02 -0.29167618391E+01  0.10916563829E+03  0.11426009677E+03  0.00000000000E+00 0. -1.
         13    1    4    4    0    0  0.45934039436E+02 -0.76545331430E+02  0.57565055207E+02  0.10622080457E+03  0.00000000000E+00 0.  1.
         21    1    1    2  502  501  0.24662930067E+02  0.48358418837E+02  0.30957315883E+02  0.62491216972E+02  0.00000000000E+00 0. -1.
<scales pt_clust_5="13000.00000" pt_clust_6="13000.00000" pt_clust_7="13000.00000" pt_clust_8="13000.00000" pt_clust_9="54.28441"></scales>
<clustering>
<clus scale="   54.284">  2  9  1 -1</clus>
<clus scale="   90.394">  7  8 -1 -1</clus>
<clus scale="   93.120">  5  6 -1 -1</clus>
<clus scale="  141.222">  1  7  2 -1</clus>
<clus scale="  141.222">  1  5  2 -1</clus>
</clustering>
</event>
<event>
 9    1  0.1782981E-005  0.1370137E+03  0.7546771E-02  0.1218492E+00
          4   -1    0    0  502    0  0.00000000000E+00  0.00000000000E+00  0.55015840591E+02  0.55015840591E+02  0.00000000000E+00 0. -1.
         -4   -1    0    0    0  501 -0.00000000000E+00 -0.00000000000E+00 -0.43914861067E+03  0.43914861067E+03  0.00000000000E+00 0.  1.
         23    2    1    2    0    0  0.89652288254E+02  0.63528234448E+01 -0.19378946018E+03  0.23268634249E+03  0.92253389896E+02 0.  0.
         23    2    1    2    0    0 -0.11534359532E+03 -0.19136520082E+02 -0.17792178062E+03  0.23020894588E+03  0.87576522904E+02 0.  0.
        -11    1    4    4    0    0 -0.11187489647E+03  0.13074483961E+02 -0.14897831526E+03  0.18676582398E+03  0.00000000000E+00 0.  1.
         11    1    4    4    0    0 -0.34686988455E+01 -0.32211004043E+02 -0.28943465359E+02  0.43443121896E+02  0.00000000000E+00 0. -1.
        -13    1    3    3    0    0  0.28175201021E+02 -0.28760671759E+02 -0.13432353059E+03  0.14022777564E+03  0.00000000000E+00 0.  1.
         13    1    3    3    0    0  0.61477087233E+02  0.35113495204E+02 -0.59465929595E+02  0.92458566843E+02  0.00000000000E+00 0. -1.
         21    1    1    2  502  501  0.25691307063E+02  0.12783696637E+02 -0.12421529277E+02  0.31269162891E+02  0.00000000000E+00 0. -1.
<scales pt_clust_5="13000.00000" pt_clust_6="13000.00000" pt_clust_7="13000.00000" pt_clust_8="13000.00000" pt_clust_9="28.69610"></scales>
<clustering>
<clus scale="   28.696">  1  9  2 -1</clus>
<clus scale="   87.577">  5  6 -1 -1</clus>
<clus scale="   92.253">  7  8 -1 -1</clus>
<clus scale="  133.909">  1  5  2 -1</clus>
<clus scale="   28.696">  1  5  2 -1</clus>
</clustering>
</event>
<event>
 9    1  0.1782981E-005  0.1039602E+03  0.7546771E-02  0.1273998E+00
         -1   -1    0    0    0  501 -0.00000000000E+00  0.00000000000E+00  0.92653999192E+02  0.92653999192E+02  0.00000000000E+00 0.  1.
          1   -1    0    0  502    0  0.00000000000E+00 -0.00000000000E+00 -0.31995551788E+03  0.31995551788E+03  0.00000000000E+00 0. -1.
         23    2    1    2    0    0 -0.80001938151E+01  0.19774142605E+02  0.91535990237E+01  0.10281818292E+03  0.10016371871E+03 0.  0.
         23    2    1    2    0    0 -0.42115931404E+01  0.18285400139E+02 -0.45717942049E+02  0.11491104599E+03  0.10374162564E+03 0.  0.
        -11    1    3    3    0    0 -0.23057687293E+02 -0.35754360441E+02  0.14712208830E+02  0.45016445023E+02  0.00000000000E+00 0.  1.
         11    1    3    3    0    0  0.15057493478E+02  0.55528503046E+02 -0.55586098065E+01  0.57801737892E+02  0.00000000000E+00 0. -1.
        -13    1    4    4    0    0 -0.41206339972E+02  0.81259614937E+01 -0.60625063944E+02  0.73752234423E+02  0.00000000000E+00 0. -1.
         13    1    4    4    0    0  0.36994746832E+02  0.10159438645E+02  0.14907121896E+02  0.41158811571E+02  0.00000000000E+00 0.  1.
         21    1    1    2  502  501  0.12211786955E+02 -0.38059542744E+02 -0.19073717566E+03  0.19488028816E+03  0.00000000000E+00 0. -1.
<scales pt_clust_5="13000.00000" pt_clust_6="13000.00000" pt_clust_7="13000.00000" pt_clust_8="13000.00000" pt_clust_9="39.97070"></scales>
<clustering>
<clus scale="   39.971">  2  9  1 -1</clus>
<clus scale="  100.164">  5  6 -1 -1</clus>
<clus scale="  100.390">  1  5  2 -1</clus>
<clus scale="  103.742">  7  8 -1 -1</clus>
<clus scale="   39.971">  2  5  1 -1</clus>
</clustering>
</event>
<event>
 9    1  0.1782981E-005  0.2238734E+03  0.7546771E-02  0.1131141E+00
          1   -1    0    0  502    0  0.00000000000E+00  0.00000000000E+00  0.35289285432E+03  0.35289285432E+03  0.00000000000E+00 0. -1.
         -1   -1    0    0    0  501 -0.00000000000E+00 -0.00000000000E+00 -0.19788614514E+03  0.19788614514E+03  0.00000000000E+00 0.  1.
         23    2    1    2    0    0  0.18470016953E+02 -0.19959751391E+03 -0.29443892831E+02  0.22206718770E+03  0.90920756389E+02 0.  0.
         23    2    1    2    0    0  0.71011069461E+01  0.21398111991E+03  0.12770811125E+03  0.26483317092E+03  0.89380654176E+02 0.  0.
        -13    1    4    4    0    0  0.37508694390E+02  0.17721844301E+03  0.82278816477E+02  0.19895497566E+03  0.00000000000E+00 0. -1.
         13    1    4    4    0    0 -0.30407587444E+02  0.36762676896E+02  0.45429294774E+02  0.65878195257E+02  0.00000000000E+00 0.  1.
        -13    1    3    3    0    0 -0.32141814336E+02 -0.12338274232E+03 -0.60974498454E+01  0.12764629343E+03  0.00000000000E+00 0.  1.
         13    1    3    3    0    0  0.50611831290E+02 -0.76214771592E+02 -0.23346442986E+02  0.94420894273E+02  0.00000000000E+00 0. -1.
         21    1    1    2  502  501 -0.25571123899E+02 -0.14383605998E+02  0.56742490756E+02  0.63878640845E+02  0.00000000000E+00 0. -1.
<scales pt_clust_5="13000.00000" pt_clust_6="13000.00000" pt_clust_7="13000.00000" pt_clust_8="13000.00000" pt_clust_9="29.33889"></scales>
<clustering>
<clus scale="   29.339">  1  9  2 -1</clus>
<clus scale="   89.381">  5  6 -1 -1</clus>
<clus scale="   90.921">  7  8 -1 -1</clus>
<clus scale="  223.252">  1  5  2 -1</clus>
<clus scale="   29.339">  1  5  2 -1</clus>
</clustering>
</event>
<event>
 9    1  0.1782981E-005  0.1203753E+03  0.7546771E-02  0.1243095E+00
         -1   -1    0    0    0  501 -0.00000000000E+00  0.00000000000E+00  0.34571375645E+03  0.34571375645E+03  0.00000000000E+00 0.  1.
          1   -1    0    0  502    0  0.00000000000E+00 -0.00000000000E+00 -0.35815967264E+03  0.35815967264E+03  0.00000000000E+00 0. -1.
         23    2    1    2    0    0 -0.45949758887E+02  0.63232420365E+02  0.30426381605E+03  0.32699151681E+03  0.90759368544E+02 0.  0.
         23    2    1    2    0    0  0.97074614575E+02 -0.44871472722E+02 -0.16498780582E+03  0.21572851261E+03  0.88774350045E+02 0.  0.
        -11    1    3    3    0    0  0.22186092971E+02  0.69475530918E+01  0.25283037829E+02  0.34347099108E+02  0.00000000000E+00 0.  1.
         11    1    3    3    0    0 -0.68135851859E+02  0.56284867273E+02  0.27898077823E+03  0.29264441770E+03  0.00000000000E+00 0. -1.
        -13    1    4    4    0    0  0.36557728392E+02  0.26571801334E+02 -0.58704854982E+02  0.74086355895E+02  0.00000000000E+00 0.  1.
         13    1    4    4    0    0  0.60516886183E+02 -0.71443274055E+02 -0.10628295084E+03  0.14164215672E+03  0.00000000000E+00 0. -1.
         21    1    1    2  502  501 -0.51124855687E+02 -0.18360947644E+02 -0.15172192642E+03  0.16115339967E+03  0.00000000000E+00 0. -1.
<scales pt_clust_5="13000.00000" pt_clust_6="13000.00000" pt_clust_7="13000.00000" pt_clust_8="13000.00000" pt_clust_9="54.32196"></scales>
<clustering>
<clus scale="   54.322">  2  9  1 -1</clus>
<clus scale="   88.774">  7  8 -1 -1</clus>
<clus scale="   90.759">  5  6 -1 -1</clus>
<clus scale="  118.886">  2  7  1 -1</clus>
<clus scale="   54.322">  2  5  1 -1</clus>
</clustering>
</event>
<event>
 9    1  0.1782981E-005  0.9086470E+02  0.7546771E-02  0.1304994E+00
         -1   -1    0    0    0  501 -0.00000000000E+00  0.00000000000E+00  0.26465448806E+03  0.26465448806E+03  0.00000000000E+00 0.  1.
          1   -1    0    0  502    0  0.00000000000E+00 -0.00000000000E+00 -0.64882794755E+02  0.64882794755E+02  0.00000000000E+00 0. -1.
         23    2    1    2    0    0  0.31708619454E+01  0.13082147773E+02  0.13461953055E+03  0.15915437481E+03  0.83824221201E+02 0.  0.
         23    2    1    2    0    0  0.28695281071E+02  0.29183682719E+02  0.62372292787E+02  0.11737744437E+03  0.90620389799E+02 0.  0.
        -11    1    3    3    0    0 -0.37574356905E+02  0.17417585229E+02  0.48449402858E+02  0.63738129949E+02  0.00000000000E+00 0.  1.
         11    1    3    3    0    0  0.40745218850E+02 -0.43354374558E+01  0.86170127694E+02  0.95416244863E+02  0.00000000000E+00 0. -1.
        -11    1    4    4    0    0  0.53370334095E+02  0.24285077789E+02  0.10281773800E+02  0.59530432866E+02  0.00000000000E+00 0. -1.
         11    1    4    4    0    0 -0.24675053025E+02  0.48986049299E+01  0.52090518988E+02  0.57847011508E+02  0.00000000000E+00 0.  1.
         21    1    1    2  502  501 -0.31866143016E+02 -0.42265830492E+02  0.27798699697E+01  0.53005463633E+02  0.00000000000E+00 0.  1.
<scales pt_clust_5="13000.00000" pt_clust_6="13000.00000" pt_clust_7="13000.00000" pt_clust_8="13000.00000" pt_clust_9="52.93252"></scales>
<clustering>
<clus scale="   52.933">  2  9  1 -1</clus>
<clus scale="   83.824">  5  6 -1 -1</clus>
<clus scale="   84.088">  1  5  2 -1</clus>
<clus scale="   90.620">  7  8 -1 -1</clus>
<clus scale="   52.933">  2  5  1 -1</clus>
</clustering>
</event>
<event>
 9    1  0.1782981E-005  0.1116977E+03  0.7546771E-02  0.1257668E+00
         -1   -1    0    0    0  501 -0.00000000000E+00  0.00000000000E+00  0.48871767887E+02  0.48871767887E+02  0.00000000000E+00 0.  1.
          1   -1    0    0  502    0  0.00000000000E+00 -0.00000000000E+00 -0.47806523681E+03  0.47806523681E+03  0.00000000000E+00 0. -1.
         23    2    1    2    0    0 -0.15338595350E+02 -0.60868212158E+02 -0.48676123917E+02  0.11989928576E+03  0.89812370683E+02 0.  0.
         23    2    1    2    0    0  0.38642353100E+02  0.68240534959E+02 -0.30364793582E+03  0.32637594151E+03  0.90383539461E+02 0.  0.
        -11    1    3    3    0    0 -0.76920098496E+01 -0.23588614463E+02  0.26090850932E+02  0.36004475419E+02  0.00000000000E+00 0.  1.
         11    1    3    3    0    0 -0.76465855002E+01 -0.37279597695E+02 -0.74766974849E+02  0.83894810342E+02  0.00000000000E+00 0. -1.
        -13    1    4    4    0    0 -0.21590698537E+02  0.53220238731E+02 -0.15415949593E+03  0.16451049285E+03  0.00000000000E+00 0.  1.
         13    1    4    4    0    0  0.60233051637E+02  0.15020296229E+02 -0.14948843989E+03  0.16186544866E+03  0.00000000000E+00 0. -1.
         21    1    1    2  502  501 -0.23303757750E+02 -0.73723228010E+01 -0.76869409190E+02  0.80661777429E+02  0.00000000000E+00 0.  1.
<scales pt_clust_5="13000.00000" pt_clust_6="13000.00000" pt_clust_7="13000.00000" pt_clust_8="13000.00000" pt_clust_9="24.44210"></scales>
<clustering>
<clus scale="   24.442">  2  9  1 -1</clus>
<clus scale="   89.812">  5  6 -1 -1</clus>
<clus scale="   90.384">  7  8 -1 -1</clus>
<clus scale="  111.236">  1  5  2 -1</clus>
<clus scale="   24.442">  2  5  1 -1</clus>
</clustering>
</event>
<event>
 9    1  0.1782981E-005  0.1555193E+03  0.7546771E-02  0.1194303E+00
         -2   -1    0    0    0  501 -0.00000000000E+00  0.00000000000E+00  0.57422901152E+03  0.57422901152E+03  0.00000000000E+00 0.  1.
          2   -1    0    0  502    0  0.00000000000E+00 -0.00000000000E+00 -0.73477850022E+02  0.73477850022E+02  0.00000000000E+00 0. -1.
         23    2    1    2    0    0  0.21000032249E+02  0.12846263486E+03  0.41071670766E+03  0.44019892612E+03  0.90239850943E+02 0.  0.
         23    2    1    2    0    0  0.15106954764E+02 -0.11777335965E+03  0.59708391323E+02  0.15915873498E+03  0.87564985020E+02 0.  0.
        -11    1    4    4    0    0 -0.20091108713E+02 -0.10202593744E+03  0.24253799421E+02  0.10677636136E+03  0.00000000000E+00 0. -1.
         11    1    4    4    0    0  0.35198063477E+02 -0.15747422207E+02  0.35454591903E+02  0.52382373617E+02  0.00000000000E+00 0.  1.
        -13    1    3    3    0    0 -0.27022848943E+02  0.14197848915E+02  0.47947572396E+02  0.56839976930E+02  0.00000000000E+00 0. -1.
         13    1    3    3    0    0  0.48022881192E+02  0.11426478594E+03  0.36276913526E+03  0.38335894919E+03  0.00000000000E+00 0.  1.
         21    1    1    2  502  501 -0.36106987013E+02 -0.10689275210E+02  0.30326062523E+02  0.48349200447E+02  0.00000000000E+00 0.  1.
<scales pt_clust_5="13000.00000" pt_clust_6="13000.00000" pt_clust_7="13000.00000" pt_clust_8="13000.00000" pt_clust_9="37.65601"></scales>
<clustering>
<clus scale="   37.656">  2  9  1 -1</clus>
<clus scale="   87.565">  5  6 -1 -1</clus>
<clus scale="   90.240">  7  8 -1 -1</clus>
<clus scale="  153.983">  2  5  1 -1</clus>
<clus scale="   37.656">  2  5  1 -1</clus>
</clustering>
</event>
<event>
 9    1  0.1782981E-005  0.1052821E+03  0.7546771E-02  0.1269617E+00
         -1   -1    0    0    0  501 -0.00000000000E+00  0.00000000000E+00  0.67176027622E+02  0.67176027622E+02  0.00000000000E+00 0.  1.
          1   -1    0    0  502    0  0.00000000000E+00 -0.00000000000E+00 -0.27596286389E+03  0.27596286389E+03  0.00000000000E+00 0. -1.
         23    2    1    2    0    0  0.64467091067E+02  0.18222348870E+02 -0.45284343500E+02  0.12172408046E+03  0.90983625824E+02 0.  0.
         23    2    1    2    0    0 -0.22552645872E+02 -0.35300126210E+02 -0.87300834997E+02  0.13278544887E+03  0.90861536928E+02 0.  0.
        -11    1    3    3    0    0  0.60506505861E+00 -0.30666884558E+02 -0.22783498912E+02  0.38208791329E+02  0.00000000000E+00 0. -1.
         11    1    3    3    0    0  0.63862026008E+02  0.48889233428E+02 -0.22500844588E+02  0.83515289128E+02  0.00000000000E+00 0.  1.
        -13    1    4    4    0    0  0.12555930610E+02  0.24990142849E+02 -0.38745186433E+02  0.47784391853E+02  0.00000000000E+00 0.  1.
         13    1    4    4    0    0 -0.35108576481E+02 -0.60290269059E+02 -0.48555648564E+02  0.85001057012E+02  0.00000000000E+00 0. -1.
         21    1    1    2  502  501 -0.41914445195E+02  0.17077777340E+02 -0.76201657773E+02  0.88629362190E+02  0.00000000000E+00 0.  1.
<scales pt_clust_5="13000.00000" pt_clust_6="13000.00000" pt_clust_7="13000.00000" pt_clust_8="13000.00000" pt_clust_9="45.26004"></scales>
<clustering>
<clus scale="   45.260">  2  9  1 -1</clus>
<clus scale="   90.862">  7  8 -1 -1</clus>
<clus scale="   90.984">  5  6 -1 -1</clus>
<clus scale="  105.177">  2  7  1 -1</clus>
<clus scale="   45.260">  2  5  1 -1</clus>
</clustering>
</event>
<event>
 9    1  0.1782981E-005  0.1434140E+03  0.7546771E-02  0.1208822E+00
         -1   -1    0    0    0  501 -0.00000000000E+00  0.00000000000E+00  0.51333763931E+02  0.51333763931E+02  0.00000000000E+00 0.  1.
          1   -1    0    0  502    0  0.00000000000E+00 -0.00000000000E+00 -0.68393490973E+03  0.68393490973E+03  0.00000000000E+00 0. -1.
         23    2    1    2    0    0  0.12813649347E+03 -0.19431887254E+02 -0.18347416759E+03  0.24236044028E+03  0.90990404099E+02 0.  0.
         23    2    1    2    0    0 -0.92002724408E+02 -0.22484831136E+02 -0.21201430722E+03  0.24942295808E+03  0.91058643852E+02 0.  0.
        -11    1    4    4    0    0 -0.80358629744E+02  0.15614486410E+02 -0.18193628888E+03  0.19950472368E+03  0.00000000000E+00 0. -1.
         11    1    4    4    0    0 -0.11644094664E+02 -0.38099317546E+02 -0.30078018346E+02  0.49918234400E+02  0.00000000000E+00 0.  1.
        -11    1    3    3    0    0  0.97932917216E+02 -0.41552760158E+02 -0.82361894203E+02  0.13453984454E+03  0.00000000000E+00 0.  1.
         11    1    3    3    0    0  0.30203576252E+02  0.22120872904E+02 -0.10111227338E+03  0.10782059574E+03  0.00000000000E+00 0. -1.
         21    1    1    2  502  501 -0.36133769060E+02  0.41916718390E+02 -0.23711267099E+03  0.24348527531E+03  0.00000000000E+00 0. -1.
<scales pt_clust_5="13000.00000" pt_clust_6="13000.00000" pt_clust_7="13000.00000" pt_clust_8="13000.00000" pt_clust_9="55.34131"></scales>
<clustering>
<clus scale="   55.341">  2  9  1 -1</clus>
<clus scale="   90.990">  7  8 -1 -1</clus>
<clus scale="   91.059">  5  6 -1 -1</clus>
<clus scale="  143.371">  1  7  2 -1</clus>
<clus scale="   55.341">  2  5  1 -1</clus>
</clustering>
</event>
<event>
 9    1  0.1782981E-005  0.9937332E+02  0.7546771E-02  0.1281924E+00
          2   -1    0    0  502    0  0.00000000000E+00  0.00000000000E+00  0.81605121906E+02  0.81605121906E+02  0.00000000000E+00 0. -1.
         -2   -1    0    0    0  501 -0.00000000000E+00 -0.00000000000E+00 -0.15728626335E+03  0.15728626335E+03  0.00000000000E+00 0.  1.
         23    2    1    2    0    0 -0.33152873642E+01 -0.29562733201E+02 -0.35338418872E+02  0.10169688695E+03  0.90600809277E+02 0.  0.
         23    2    1    2    0    0 -0.12436710400E+02  0.49790506351E+02 -0.38370631920E+02  0.11148112860E+03  0.91224834071E+02 0.  0.
        -11    1    3    3    0    0 -0.35189349899E+02 -0.35073861159E+02  0.50637924188E+01  0.49941046010E+02  0.00000000000E+00 0.  1.
         11    1    3    3    0    0  0.31874062535E+02  0.55111279581E+01 -0.40402211291E+02  0.51755840937E+02  0.00000000000E+00 0. -1.
        -13    1    4    4    0    0  0.22348764616E+02  0.31770289627E+02  0.18018307083E+02  0.42819130923E+02  0.00000000000E+00 0. -1.
         13    1    4    4    0    0 -0.34785475016E+02  0.18020216724E+02 -0.56388939003E+02  0.68661997675E+02  0.00000000000E+00 0.  1.
         21    1    1    2  502  501  0.15751997764E+02 -0.20227773150E+02 -0.19720906465E+01  0.25713369707E+02  0.00000000000E+00 0. -1.
<scales pt_clust_5="13000.00000" pt_clust_6="13000.00000" pt_clust_7="13000.00000" pt_clust_8="13000.00000" pt_clust_9="25.63763"></scales>
<clustering>
<clus scale="   25.638">  1  9  2 -1</clus>
<clus scale="   90.601">  5  6 -1 -1</clus>
<clus scale="   91.225">  7  8 -1 -1</clus>
<clus scale="   98.801">  2  5  1 -1</clus>
<clus scale="   25.638">  1  5  2 -1</clus>
</clustering>
</event>
<event>
 9    1  0.1782981E-005  0.9481071E+02  0.7546771E-02  0.1293260E+00
         -1   -1    0    0    0  501 -0.00000000000E+00  0.00000000000E+00  0.19659078098E+03  0.19659078098E+03  0.00000000000E+00 0.  1.
          1   -1    0    0  502    0  0.00000000000E+00 -0.00000000000E+00 -0.59936151936E+02  0.59936151936E+02  0.00000000000E+00 0. -1.
         23    2    1    2    0    0 -0.31310390956E+02  0.27645369453E+02  0.66190281871E+02  0.11193171719E+03  0.80018428280E+02 0.  0.
         23    2    1    2    0    0  0.58053797567E+02 -0.18915865144E+02  0.51352659515E+02  0.11058535469E+03  0.76576573877E+02 0.  0.
        -11    1    3    3    0    0 -0.86142203262E+01  0.28993283805E+02  0.79864717110E+02  0.85400165905E+02  0.00000000000E+00 0.  1.
         11    1    3    3    0    0 -0.22696170630E+02 -0.13479143519E+01 -0.13674435239E+02  0.26531551282E+02  0.00000000000E+00 0. -1.
        -13    1    4    4    0    0  0.28888835922E+02 -0.40578640054E+02  0.27262433240E+01  0.49886102997E+02  0.00000000000E+00 0. -1.
         13    1    4    4    0    0  0.29164961645E+02  0.21662774910E+02  0.48626416191E+02  0.60699251694E+02  0.00000000000E+00 0.  1.
         21    1    1    2  502  501 -0.26743406611E+02 -0.87295043090E+01  0.19111687656E+02  0.34009861036E+02  0.00000000000E+00 0. -1.
<scales pt_clust_5="13000.00000" pt_clust_6="13000.00000" pt_clust_7="13000.00000" pt_clust_8="13000.00000" pt_clust_9="28.13208"></scales>
<clustering>
<clus scale="   28.132">  1  9  2 -1</clus>
<clus scale="   76.577">  7  8 -1 -1</clus>
<clus scale="   80.018">  5  6 -1 -1</clus>
<clus scale="   91.924">  2  7  1 -1</clus>
<clus scale="   91.924">  2  5  1 -1</clus>
</clustering>
</event>
<event>
 9    1  0.1782981E-005  0.1210421E+03  0.7546771E-02  0.1243206E+00
          3   -1    0    0  502    0  0.00000000000E+00  0.00000000000E+00  0.33425113380E+03  0.33425113380E+03  0.00000000000E+00 0. -1.
         -3   -1    0    0    0  501 -0.00000000000E+00 -0.00000000000E+00 -0.15822082034E+03  0.15822082034E+03  0.00000000000E+00 0.  1.
         23    2    1    2    0    0  0.64198210190E+02  0.55637465309E+02 -0.85649602290E+02  0.15527743046E+03  0.97766498860E+02 0.  0.
         23    2    1    2    0    0  0.58234750311E+01 -0.55248610811E+02  0.59143607556E+02  0.12289533155E+03  0.92298290036E+02 0.  0.
        -11    1    4    4    0    0  0.16105719322E+02 -0.32211520864E+02 -0.19043832193E+02  0.40738726242E+02  0.00000000000E+00 0.  1.
         11    1    4    4    0    0 -0.10282244291E+02 -0.23037089947E+02  0.78187439749E+02  0.82156605306E+02  0.00000000000E+00 0. -1.
        -13    1    3    3    0    0  0.82627781724E+02  0.15029252023E+02 -0.64653852868E+02  0.10598749653E+03  0.00000000000E+00 0.  1.
         13    1    3    3    0    0 -0.18429571534E+02  0.40608213287E+02 -0.20995749421E+02  0.49289933932E+02  0.00000000000E+00 0. -1.
         21    1    1    2  502  501 -0.70021685221E+02 -0.38885449810E+00  0.20253630820E+03  0.21429919213E+03  0.00000000000E+00 0. -1.
<scales pt_clust_5="13000.00000" pt_clust_6="13000.00000" pt_clust_7="13000.00000" pt_clust_8="13000.00000" pt_clust_9="70.02276"></scales>
<clustering>
<clus scale="   70.023">  1  9  2 -1</clus>
<clus scale="   92.298">  5  6 -1 -1</clus>
<clus scale="   97.766">  7  8 -1 -1</clus>
<clus scale="  116.670">  1  5  2 -1</clus>
<clus scale="   70.023">  1  5  2 -1</clus>
</clustering>
</event>
<event>
 9    1  0.1782981E-005  0.1386430E+03  0.7546771E-02  0.1236223E+00
         -2   -1    0    0    0  501 -0.00000000000E+00  0.00000000000E+00  0.31074583488E+03  0.31074583488E+03  0.00000000000E+00 0.  1.
          2   -1    0    0  502    0  0.00000000000E+00 -0.00000000000E+00 -0.12752287198E+03  0.12752287198E+03  0.00000000000E+00 0. -1.
         23    2    1    2    0    0 -0.99838640074E+01 -0.23799741292E+02  0.71572924736E+02  0.11457912923E+03  0.85671395896E+02 0.  0.
         23    2    1    2    0    0 -0.19771705855E+02  0.12063147850E+03  0.15139505976E+03  0.21487116921E+03  0.91138802274E+02 0.  0.
        -11    1    4    4    0    0  0.26849619529E+02  0.66106070637E+02  0.38403581684E+02  0.81029314017E+02  0.00000000000E+00 0. -1.
         11    1    4    4    0    0 -0.46621325384E+02  0.54525407862E+02  0.11299147808E+03  0.13384185519E+03  0.00000000000E+00 0.  1.
        -13    1    3    3    0    0 -0.41294202416E+02  0.10816068477E+02  0.37055287256E+02  0.56526921056E+02  0.00000000000E+00 0.  1.
         13    1    3    3    0    0  0.31310338408E+02 -0.34615809769E+02  0.34517637481E+02  0.58052208179E+02  0.00000000000E+00 0. -1.
         21    1    1    2  502  501  0.29755569862E+02 -0.96831737208E+02 -0.39745021600E+02  0.10881840842E+03  0.00000000000E+00 0. -1.
<scales pt_clust_5="13000.00000" pt_clust_6="13000.00000" pt_clust_7="13000.00000" pt_clust_8="13000.00000" pt_clust_9="104.47769"></scales>
<clustering>
<clus scale="   85.671">  7  8 -1 -1</clus>
<clus scale="   89.475">  1  7  2 -1</clus>
<clus scale="   91.139">  5  6 -1 -1</clus>
<clus scale="  104.478">  2  9  1 -1</clus>
<clus scale="  104.478">  2  5  1 -1</clus>
</clustering>
</event>
<event>
 9    1  0.1782981E-005  0.1029367E+03  0.7546771E-02  0.1274901E+00
          1   -1    0    0  502    0  0.00000000000E+00  0.00000000000E+00  0.39236975274E+03  0.39236975274E+03  0.00000000000E+00 0. -1.
         -1   -1    0    0    0  501 -0.00000000000E+00 -0.00000000000E+00 -0.22952446412E+03  0.22952446412E+03  0.00000000000E+00 0.  1.
         23    2    1    2    0    0 -0.59702657578E+01 -0.44563888931E+02 -0.20246811802E+03  0.22747545740E+03  0.93435328631E+02 0.  0.
         23    2    1    2    0    0  0.27967511792E+02 -0.49079367595E+00  0.27186292633E+03  0.28836784937E+03  0.92000778494E+02 0.  0.
        -13    1    3    3    0    0 -0.86119002173E+01 -0.69740952421E+02 -0.10197028024E+03  0.12383821431E+03  0.00000000000E+00 0. -1.
         13    1    3    3    0    0  0.26416344594E+01  0.25177063490E+02 -0.10049783778E+03  0.10363724310E+03  0.00000000000E+00 0.  1.
        -13    1    4    4    0    0 -0.32061416531E+02 -0.13363149859E+02  0.10175720692E+03  0.10752226450E+03  0.00000000000E+00 0.  1.
         13    1    4    4    0    0  0.60028928323E+02  0.12872356183E+02  0.17010571941E+03  0.18084558487E+03  0.00000000000E+00 0. -1.
         21    1    1    2  502  501 -0.21997246034E+02  0.45054682607E+02  0.93450480307E+02  0.10605091007E+03  0.00000000000E+00 0. -1.
<scales pt_clust_5="13000.00000" pt_clust_6="13000.00000" pt_clust_7="13000.00000" pt_clust_8="13000.00000" pt_clust_9="50.13784"></scales>
<clustering>
<clus scale="   50.138">  1  9  2 -1</clus>
<clus scale="   92.001">  7  8 -1 -1</clus>
<clus scale="   93.435">  5  6 -1 -1</clus>
<clus scale="  101.636">  1  7  2 -1</clus>
<clus scale="   50.138">  1  5  2 -1</clus>
</clustering>
</event>
<event>
 9    1  0.1782981E-005  0.2246185E+03  0.7546771E-02  0.1131252E+00
         -2   -1    0    0    0  501 -0.00000000000E+00  0.00000000000E+00  0.40092116423E+03  0.40092116423E+03  0.00000000000E+00 0.  1.
          2   -1    0    0  502    0  0.00000000000E+00 -0.00000000000E+00 -0.23829484737E+03  0.23829484737E+03  0.00000000000E+00 0. -1.
         23    2    1    2    0    0 -0.71962225107E+02  0.18254460652E+03  0.20827574102E+03  0.29825314723E+03  0.84113377786E+02 0.  0.
         23    2    1    2    0    0  0.16401747482E+02 -0.23099807042E+03  0.72352673504E+01  0.25023527522E+03  0.94531571514E+02 0.  0.
        -11    1    4    4    0    0 -0.22323689224E+02 -0.11450584312E+02  0.10690638684E+02  0.27271830469E+02  0.00000000000E+00 0.  1.
         11    1    4    4    0    0  0.38725436706E+02 -0.21954748611E+03 -0.34553713335E+01  0.22296344475E+03  0.00000000000E+00 0. -1.
        -13    1    3    3    0    0  0.50439971360E+00  0.27390190842E+02 -0.15263246491E+01  0.27437322034E+02  0.00000000000E+00 0. -1.
         13    1    3    3    0    0 -0.72466624820E+02  0.15515441568E+03  0.20980206567E+03  0.27081582519E+03  0.00000000000E+00 0.  1.
         21    1    1    2  502  501  0.55560477625E+02  0.48453463902E+02 -0.52884691506E+02  0.90727589154E+02  0.00000000000E+00 0. -1.
<scales pt_clust_5="13000.00000" pt_clust_6="13000.00000" pt_clust_7="13000.00000" pt_clust_8="13000.00000" pt_clust_9="73.72045"></scales>
<clustering>
<clus scale="   73.720">  2  9  1 -1</clus>
<clus scale="   84.113">  7  8 -1 -1</clus>
<clus scale="   94.532">  5  6 -1 -1</clus>
<clus scale="  220.437">  1  7  2 -1</clus>
<clus scale="   73.720">  2  5  1 -1</clus>
</clustering>
</event>
<event>
 9    1  0.1782981E-005  0.1193599E+03  0.7546771E-02  0.1244390E+00
          1   -1    0    0  502    0  0.00000000000E+00  0.00000000000E+00  0.19863600429E+03  0.19863600429E+03  0.00000000000E+00 0. -1.
         -1   -1    0    0    0  501 -0.00000000000E+00 -0.00000000000E+00 -0.10609670395E+03  0.10609670395E+03  0.00000000000E+00 0.  1.
         23    2    1    2    0    0  0.66271829224E+02 -0.51266150183E+01  0.83246581192E+01  0.11323009497E+03  0.91288098584E+02 0.  0.
         23    2    1    2    0    0 -0.88976250778E+02  0.23675007263E+02  0.34306625020E+02  0.13362045890E+03  0.90554974166E+02 0.  0.
        -13    1    4    4    0    0 -0.76754403465E+02  0.43544108485E+02  0.53686272193E+02  0.10329348313E+03  0.00000000000E+00 0. -1.
         13    1    4    4    0    0 -0.12221847313E+02 -0.19869101222E+02 -0.19379647173E+02  0.30326975775E+02  0.00000000000E+00 0.  1.
        -13    1    3    3    0    0  0.11670535693E+02  0.39568995207E+02  0.10731190303E+02  0.42627048107E+02  0.00000000000E+00 0.  1.
         13    1    3    3    0    0  0.54601293531E+02 -0.44695610225E+02 -0.24065321842E+01  0.70603046859E+02  0.00000000000E+00 0. -1.
         21    1    1    2  502  501  0.22704421555E+02 -0.18548392245E+02  0.49908017199E+02  0.57882154363E+02  0.00000000000E+00 0.  1.
<scales pt_clust_5="13000.00000" pt_clust_6="13000.00000" pt_clust_7="13000.00000" pt_clust_8="13000.00000" pt_clust_9="29.31780"></scales>
<clustering>
<clus scale="   29.318">  1  9  2 -1</clus>
<clus scale="   90.555">  5  6 -1 -1</clus>
<clus scale="   91.288">  7  8 -1 -1</clus>
<clus scale="  118.800">  1  5  2 -1</clus>
<clus scale="   29.318">  1  5  2 -1</clus>
</clustering>
</event>
<event>
 9    1  0.1782981E-005  0.9926069E+02  0.7546771E-02  0.1285361E+00
          2   -1    0    0  502    0  0.00000000000E+00  0.00000000000E+00  0.33904742351E+03  0.33904742351E+03  0.00000000000E+00 0.  1.
         -2   -1    0    0    0  501 -0.00000000000E+00 -0.00000000000E+00 -0.37260677885E+02  0.37260677885E+02  0.00000000000E+00 0. -1.
         23    2    1    2    0    0 -0.21258153102E+02 -0.56321747628E+01  0.11609596137E+03  0.15396191132E+03  0.98703431679E+02 0.  0.
         23    2    1    2    0    0 -0.36391772430E+00  0.29408613731E-02  0.11087673662E+03  0.14426710232E+03  0.92299586367E+02 0.  0.
        -13    1    3    3    0    0 -0.13071944513E+02  0.33756613424E+02  0.59321360016E+01  0.36682079014E+02  0.00000000000E+00 0. -1.
         13    1    3    3    0    0 -0.81862085894E+01 -0.39388788187E+02  0.11016382537E+03  0.11727983231E+03  0.00000000000E+00 0.  1.
        -13    1    4    4    0    0  0.20130493836E+02 -0.41405426068E+02  0.52780266725E+02  0.70038579694E+02  0.00000000000E+00 0.  1.
         13    1    4    4    0    0 -0.20494411561E+02  0.41408366929E+02  0.58096469896E+02  0.74228522627E+02  0.00000000000E+00 0. -1.
         21    1    1    2  502  501  0.21622070826E+02  0.56292339014E+01  0.74814047629E+02  0.78079087749E+02  0.00000000000E+00 0. -1.
<scales pt_clust_5="13000.00000" pt_clust_6="13000.00000" pt_clust_7="13000.00000" pt_clust_8="13000.00000" pt_clust_9="22.34283"></scales>
<clustering>
<clus scale="   22.343">  1  9  2 -1</clus>
<clus scale="   92.300">  7  8 -1 -1</clus>
<clus scale="   92.895">  1  7  2 -1</clus>
<clus scale="   98.703">  5  6 -1 -1</clus>
<clus scale="   22.343">  1  5  2 -1</clus>
</clustering>
</event>
<event>
 9    1  0.1782981E-005  0.1048291E+03  0.7546771E-02  0.1270517E+00
         -2   -1    0    0    0  501 -0.00000000000E+00  0.00000000000E+00  0.52230720375E+02  0.52230720375E+02  0.00000000000E+00 0.  1.
          2   -1    0    0  502    0  0.00000000000E+00 -0.00000000000E+00 -0.30145590902E+03  0.30145590902E+03  0.00000000000E+00 0. -1.
         23    2    1    2    0    0 -0.50259386669E+02 -0.79903969509E+01 -0.56000416423E+02  0.11878245428E+03  0.91560758044E+02 0.  0.
         23    2    1    2    0    0  0.43544090366E+02  0.33463940965E+02 -0.14792174146E+03  0.18249843835E+03  0.91700137703E+02 0.  0.
        -11    1    4    4    0    0  0.10934522327E+02 -0.23479436993E+02 -0.66655843816E+01  0.26744677137E+02  0.00000000000E+00 0. -1.
         11    1    4    4    0    0  0.32609568039E+02  0.56943377958E+02 -0.14125615708E+03  0.15575376122E+03  0.00000000000E+00 0.  1.
        -13    1    3    3    0    0 -0.44617147455E+02 -0.47309672124E+02 -0.34492504376E+02  0.73611329166E+02  0.00000000000E+00 0. -1.
         13    1    3    3    0    0 -0.56422392143E+01  0.39319275173E+02 -0.21507912047E+02  0.45171125115E+02  0.00000000000E+00 0.  1.
         21    1    1    2  502  501  0.67152963028E+01 -0.25473544015E+02 -0.45303030764E+02  0.52405736761E+02  0.00000000000E+00 0.  1.
<scales pt_clust_5="13000.00000" pt_clust_6="13000.00000" pt_clust_7="13000.00000" pt_clust_8="13000.00000" pt_clust_9="26.34382"></scales>
<clustering>
<clus scale="   26.344">  2  9  1 -1</clus>
<clus scale="   91.561">  7  8 -1 -1</clus>
<clus scale="   91.700">  5  6 -1 -1</clus>
<clus scale="  104.707">  1  7  2 -1</clus>
<clus scale="   26.344">  2  5  1 -1</clus>
</clustering>
</event>
<event>
 9    1  0.1782981E-005  0.3296575E+03  0.7546771E-02  0.1071304E+00
          1   -1    0    0  502    0  0.00000000000E+00  0.00000000000E+00  0.60031681966E+03  0.60031681966E+03  0.00000000000E+00 0. -1.
         -1   -1    0    0    0  501 -0.00000000000E+00 -0.00000000000E+00 -0.22629565971E+03  0.22629565971E+03  0.00000000000E+00 0.  1.
         23    2    1    2    0    0 -0.28487419484E+03 -0.14955371443E+03  0.45330932338E+02  0.33695407668E+03  0.89238646195E+02 0.  0.
         23    2    1    2    0    0  0.26310484170E+03  0.16362615120E+03  0.25392697830E+03  0.41052887812E+03  0.89762878620E+02 0.  0.
        -13    1    4    4    0    0  0.17432064730E+02  0.44390964443E+02  0.54264459601E+02  0.72243104728E+02  0.00000000000E+00 0.  1.
         13    1    4    4    0    0  0.24567277697E+03  0.11923518676E+03  0.19966251870E+03  0.33828577339E+03  0.00000000000E+00 0. -1.
        -13    1    3    3    0    0 -0.91084940972E+02 -0.90697899161E+02 -0.36258380312E+01  0.12859129864E+03  0.00000000000E+00 0. -1.
         13    1    3    3    0    0 -0.19378925387E+03 -0.58855815271E+02  0.48956770369E+02  0.20836277804E+03  0.00000000000E+00 0.  1.
         21    1    1    2  502  501  0.21769353138E+02 -0.14072436769E+02  0.74763249313E+02  0.79129524581E+02  0.00000000000E+00 0. -1.
<scales pt_clust_5="13000.00000" pt_clust_6="13000.00000" pt_clust_7="13000.00000" pt_clust_8="13000.00000" pt_clust_9="25.92177"></scales>
<clustering>
<clus scale="   25.922">  1  9  2 -1</clus>
<clus scale="   89.239">  7  8 -1 -1</clus>
<clus scale="   89.763">  5  6 -1 -1</clus>
<clus scale="  329.515">  2  7  1 -1</clus>
<clus scale="   25.922">  1  5  2 -1</clus>
</clustering>
</event>
<event>
 9    1  0.1782981E-005  0.9306606E+02  0.7546771E-02  0.1297528E+00
          1   -1    0    0  502    0  0.00000000000E+00  0.00000000000E+00  0.41970753278E+02  0.41970753278E+02  0.00000000000E+00 0. -1.
         -1   -1    0    0    0  501 -0.00000000000E+00 -0.00000000000E+00 -0.43981317113E+03  0.43981317113E+03  0.00000000000E+00 0.  1.
         23    2    1    2    0    0  0.83274640684E+01  0.15194766041E+02 -0.32828292084E+03  0.34140937497E+03  0.92143679280E+02 0.  0.
         23    2    1    2    0    0  0.12330872649E+02 -0.43022493352E+01 -0.74303605868E+02  0.11654346963E+03  0.88830145209E+02 0.  0.
        -13    1    4    4    0    0  0.25099743793E+02 -0.26696941166E+02  0.12993554071E+01  0.36666226020E+02  0.00000000000E+00 0.  1.
         13    1    4    4    0    0 -0.12768871144E+02  0.22394691831E+02 -0.75602961275E+02  0.79877243606E+02  0.00000000000E+00 0. -1.
        -13    1    3    3    0    0  0.49326250530E+02  0.27017146409E+01 -0.14508461275E+03  0.15326422645E+03  0.00000000000E+00 0.  1.
         13    1    3    3    0    0 -0.40998786461E+02  0.12493051400E+02 -0.18319830809E+03  0.18814514852E+03  0.00000000000E+00 0. -1.
         21    1    1    2  502  501 -0.20658336718E+02 -0.10892516706E+02  0.47441088534E+01  0.23831079811E+02  0.00000000000E+00 0. -1.
<scales pt_clust_5="13000.00000" pt_clust_6="13000.00000" pt_clust_7="13000.00000" pt_clust_8="13000.00000" pt_clust_9="23.35410"></scales>
<clustering>
<clus scale="   23.354">  1  9  2 -1</clus>
<clus scale="   88.830">  5  6 -1 -1</clus>
<clus scale="   89.787">  1  5  2 -1</clus>
<clus scale="   92.144">  7  8 -1 -1</clus>
<clus scale="   23.354">  1  5  2 -1</clus>
</clustering>
</event>
<event>
 9    1  0.1782981E-005  0.9081597E+02  0.7546771E-02  0.1300900E+00
         -2   -1    0    0    0  501 -0.00000000000E+00  0.00000000000E+00  0.23429007970E+02  0.23429007970E+02  0.00000000000E+00 0.  1.
          2   -1    0    0  502    0  0.00000000000E+00 -0.00000000000E+00 -0.52658015293E+03  0.52658015293E+03  0.00000000000E+00 0. -1.
         23    2    1    2    0    0 -0.10081681075E+02 -0.14325657695E+02 -0.16917292652E+03  0.19272919146E+03  0.90654274091E+02 0.  0.
         23    2    1    2    0    0 -0.10525248356E+02 -0.46047667810E+01 -0.19273598917E+03  0.21329256082E+03  0.90634266429E+02 0.  0.
        -11    1    3    3    0    0  0.24105467226E+02 -0.15112467709E+02 -0.10363443253E+02  0.30279715760E+02  0.00000000000E+00 0.  1.
         11    1    3    3    0    0 -0.34187148301E+02  0.78681001355E+00 -0.15880948327E+03  0.16244947570E+03  0.00000000000E+00 0. -1.
        -13    1    4    4    0    0  0.32318870153E+02  0.22856666656E+02 -0.69861458150E+02  0.80296699269E+02  0.00000000000E+00 0.  1.
         13    1    4    4    0    0 -0.42844118509E+02 -0.27461433437E+02 -0.12287453102E+03  0.13299586156E+03  0.00000000000E+00 0. -1.
         21    1    1    2  502  501  0.20606929431E+02  0.18930424476E+02 -0.14124222927E+03  0.14398740861E+03  0.00000000000E+00 0. -1.
<scales pt_clust_5="13000.00000" pt_clust_6="13000.00000" pt_clust_7="13000.00000" pt_clust_8="13000.00000" pt_clust_9="27.98225"></scales>
<clustering>
<clus scale="   27.982">  2  9  1 -1</clus>
<clus scale="   90.634">  7  8 -1 -1</clus>
<clus scale="   90.654">  5  6 -1 -1</clus>
<clus scale="   90.796">  2  7  1 -1</clus>
<clus scale="   27.982">  2  5  1 -1</clus>
</clustering>
</event>
<event>
 9    1  0.1922714E-005  0.9363560E+02  0.7546771E-02  0.1297458E+00
          2   -1    0    0  502    0  0.00000000000E+00  0.00000000000E+00  0.11308670900E+03  0.11308670900E+03  0.00000000000E+00 0. -1.
         -2   -1    0    0    0  501 -0.00000000000E+00 -0.00000000000E+00 -0.35836125633E+03  0.35836125633E+03  0.00000000000E+00 0.  1.
         23    2    1    2    0    0 -0.35599798086E+02 -0.23166021525E+01 -0.28592630541E+03  0.30262079331E+03  0.92481242151E+02 0.  0.
         23    2    1    2    0    0 -0.87700086077E+01  0.14275159338E+02  0.71156605271E+02  0.11367073506E+03  0.87046426182E+02 0.  0.
        -11    1    3    3    0    0  0.13552426411E+02 -0.29938922308E+02 -0.17638969053E+03  0.17942499897E+03  0.00000000000E+00 0.  1.
         11    1    3    3    0    0 -0.49152224497E+02  0.27622320156E+02 -0.10953661488E+03  0.12319579434E+03  0.00000000000E+00 0. -1.
        -13    1    4    4    0    0  0.25568519257E+02  0.13110545432E+02 -0.58711749471E+01  0.29327568495E+02  0.00000000000E+00 0.  1.
         13    1    4    4    0    0 -0.34338527865E+02  0.11646139062E+01  0.77027780218E+02  0.84343166568E+02  0.00000000000E+00 0. -1.
         21    1    1    2  502  501  0.44369806694E+02 -0.11958557186E+02 -0.30504847186E+02  0.55156436958E+02  0.00000000000E+00 0.  1.
<scales pt_clust_5="13000.00000" pt_clust_6="13000.00000" pt_clust_7="13000.00000" pt_clust_8="13000.00000" pt_clust_9="45.95309"></scales>
<clustering>
<clus scale="   45.953">  2  9  1 -1</clus>
<clus scale="   87.046">  7  8 -1 -1</clus>
<clus scale="   88.272">  1  7  2 -1</clus>
<clus scale="   92.481">  5  6 -1 -1</clus>
<clus scale="   88.272">  1  5  2 -1</clus>
</clustering>
</event>
<event>
 9    1  0.1782981E-005  0.9728799E+02  0.7546771E-02  0.1287215E+00
         -1   -1    0    0    0  501 -0.00000000000E+00  0.00000000000E+00  0.17463866339E+02  0.17463866339E+02  0.00000000000E+00 0.  1.
          1   -1    0    0  502    0  0.00000000000E+00 -0.00000000000E+00 -0.70957634869E+03  0.70957634869E+03  0.00000000000E+00 0. -1.
         23    2    1    2    0    0 -0.46186259817E+00 -0.39673555899E+02 -0.26150987960E+03  0.28041743845E+03  0.93125282838E+02 0.  0.
         23    2    1    2    0    0 -0.22954305751E+01  0.14653460786E+02 -0.31024653060E+03  0.32366265325E+03  0.91019835454E+02 0.  0.
        -11    1    4    4    0    0 -0.22254779034E+02 -0.26240883608E+02 -0.58762030097E+02  0.68094312123E+02  0.00000000000E+00 0.  1.
         11    1    4    4    0    0  0.19959348459E+02  0.40894344393E+02 -0.25148450050E+03  0.25556834112E+03  0.00000000000E+00 0. -1.
        -13    1    3    3    0    0 -0.28944684750E+01 -0.60215298983E+02 -0.24910904683E+03  0.25629978032E+03  0.00000000000E+00 0.  1.
         13    1    3    3    0    0  0.24326058768E+01  0.20541743084E+02 -0.12400832769E+02  0.24117658130E+02  0.00000000000E+00 0. -1.
         21    1    1    2  502  501  0.27572931733E+01  0.25020095113E+02 -0.12035607216E+03  0.12296012333E+03  0.00000000000E+00 0. -1.
<scales pt_clust_5="13000.00000" pt_clust_6="13000.00000" pt_clust_7="13000.00000" pt_clust_8="13000.00000" pt_clust_9="25.17157"></scales>
<clustering>
<clus scale="   25.172">  2  9  1 -1</clus>
<clus scale="   91.020">  5  6 -1 -1</clus>
<clus scale="   93.125">  7  8 -1 -1</clus>
<clus scale="   95.275">  2  5  1 -1</clus>
<clus scale="   25.172">  2  5  1 -1</clus>
</clustering>
</event>
<event>
 9    1  0.1782981E-005  0.9206983E+02  0.7546771E-02  0.1305469E+00
          1   -1    0    0  502    0  0.00000000000E+00  0.00000000000E+00  0.40577457864E+02  0.40577457864E+02  0.00000000000E+00 0. -1.
         -1   -1    0    0    0  501 -0.00000000000E+00 -0.00000000000E+00 -0.47351444408E+03  0.47351444408E+03  0.00000000000E+00 0.  1.
         23    2    1    2    0    0  0.11727155910E+02 -0.15695684814E+01 -0.31944342074E+03  0.33208403597E+03  0.89976208866E+02 0.  0.
         23    2    1    2    0    0 -0.34671020324E+02  0.60706652846E+01 -0.12848708441E+03  0.15423222203E+03  0.77715602195E+02 0.  0.
        -11    1    4    4    0    0  0.20280538778E+02 -0.15145864396E+02 -0.50608250978E+02  0.56585267769E+02  0.00000000000E+00 0.  1.
         11    1    4    4    0    0 -0.54951559102E+02  0.21216529681E+02 -0.77878833427E+02  0.97646954256E+02  0.00000000000E+00 0. -1.
        -13    1    3    3    0    0 -0.61733472996E+01 -0.41298966252E+02 -0.21321015133E+03  0.21726086500E+03  0.00000000000E+00 0. -1.
         13    1    3    3    0    0  0.17900503210E+02  0.39729397771E+02 -0.10623326941E+03  0.11482317098E+03  0.00000000000E+00 0.  1.
         21    1    1    2  502  501  0.22943864414E+02 -0.45010968032E+01  0.14993518931E+02  0.27775643946E+02  0.00000000000E+00 0.  1.
<scales pt_clust_5="13000.00000" pt_clust_6="13000.00000" pt_clust_7="13000.00000" pt_clust_8="13000.00000" pt_clust_9="23.38121"></scales>
<clustering>
<clus scale="   23.381">  1  9  2 -1</clus>
<clus scale="   77.716">  5  6 -1 -1</clus>
<clus scale="   80.130">  1  5  2 -1</clus>
<clus scale="   89.976">  7  8 -1 -1</clus>
<clus scale="   23.381">  1  5  2 -1</clus>
</clustering>
</event>
<event>
 9    1  0.1782981E-005  0.9124107E+02  0.7546771E-02  0.1300882E+00
         -2   -1    0    0    0  501 -0.00000000000E+00  0.00000000000E+00  0.17783415457E+02  0.17783415457E+02  0.00000000000E+00 0.  1.
          2   -1    0    0  502    0  0.00000000000E+00 -0.00000000000E+00 -0.72216945443E+03  0.72216945443E+03  0.00000000000E+00 0. -1.
         23    2    1    2    0    0 -0.90077171404E+01  0.76827107184E+00 -0.17362309006E+03  0.19630612105E+03  0.91155836625E+02 0.  0.
         23    2    1    2    0    0 -0.15496854940E+02 -0.10166107112E+02 -0.40673873216E+03  0.41687609089E+03  0.89475005840E+02 0.  0.
        -11    1    3    3    0    0  0.32002615094E+02  0.23078741846E+02 -0.47090390488E+02  0.61435336529E+02  0.00000000000E+00 0. -1.
         11    1    3    3    0    0 -0.41010332235E+02 -0.22310470775E+02 -0.12653269957E+03  0.13487078452E+03  0.00000000000E+00 0.  1.
        -13    1    4    4    0    0  0.34170101891E+02  0.60166675096E+01 -0.10322346582E+03  0.10889848506E+03  0.00000000000E+00 0. -1.
         13    1    4    4    0    0 -0.49666956831E+02 -0.16182774622E+02 -0.30351526633E+03  0.30797760583E+03  0.00000000000E+00 0.  1.
         21    1    1    2  502  501  0.24504572080E+02  0.93978360406E+01 -0.12402421676E+03  0.12677065795E+03  0.00000000000E+00 0.  1.
<scales pt_clust_5="13000.00000" pt_clust_6="13000.00000" pt_clust_7="13000.00000" pt_clust_8="13000.00000" pt_clust_9="26.24487"></scales>
<clustering>
<clus scale="   26.245">  2  9  1 -1</clus>
<clus scale="   89.475">  7  8 -1 -1</clus>
<clus scale="   89.562">  2  7  1 -1</clus>
<clus scale="   91.156">  5  6 -1 -1</clus>
<clus scale="   26.245">  2  5  1 -1</clus>
</clustering>
</event>
<event>
 9    1  0.1782981E-005  0.1074088E+03  0.7546771E-02  0.1266421E+00
          1   -1    0    0  502    0  0.00000000000E+00  0.00000000000E+00  0.82617138384E+02  0.82617138384E+02  0.00000000000E+00 0. -1.
         -1   -1    0    0    0  501 -0.00000000000E+00 -0.00000000000E+00 -0.20530838403E+03  0.20530838403E+03  0.00000000000E+00 0.  1.
         23    2    1    2    0    0 -0.48789072401E+02  0.32518552707E+02 -0.10339829740E+03  0.14958569970E+03  0.90812134616E+02 0.  0.
         23    2    1    2    0    0  0.47771360704E+02 -0.61191739249E+01 -0.31135311045E+02  0.10938806122E+03  0.93149305693E+02 0.  0.
        -11    1    3    3    0    0 -0.22575557174E+02  0.22377503467E+02 -0.11490060656E+03  0.11921643273E+03  0.00000000000E+00 0.  1.
         11    1    3    3    0    0 -0.26213515227E+02  0.10141049240E+02  0.11502309167E+02  0.30369266972E+02  0.00000000000E+00 0. -1.
        -13    1    4    4    0    0  0.17499626304E+02  0.12407419525E+02 -0.59950113983E+02  0.63672577666E+02  0.00000000000E+00 0.  1.
         13    1    4    4    0    0  0.30271734399E+02 -0.18526593450E+02  0.28814802938E+02  0.45715483556E+02  0.00000000000E+00 0. -1.
         21    1    1    2  502  501  0.10177116969E+01 -0.26399378782E+02  0.11842362795E+02  0.28951761496E+02  0.00000000000E+00 0.  1.
<scales pt_clust_5="13000.00000" pt_clust_6="13000.00000" pt_clust_7="13000.00000" pt_clust_8="13000.00000" pt_clust_9="26.41899"></scales>
<clustering>
<clus scale="   26.419">  1  9  2 -1</clus>
<clus scale="   90.812">  5  6 -1 -1</clus>
<clus scale="   93.149">  7  8 -1 -1</clus>
<clus scale="  105.388">  2  5  1 -1</clus>
<clus scale="   26.419">  1  5  2 -1</clus>
</clustering>
</event>
<event>
 9    1  0.1782981E-005  0.1118482E+03  0.7546771E-02  0.1257185E+00
         -2   -1    0    0    0  501 -0.00000000000E+00  0.00000000000E+00  0.12288168622E+03  0.12288168622E+03  0.00000000000E+00 0.  1.
          2   -1    0    0  502    0  0.00000000000E+00 -0.00000000000E+00 -0.31114949299E+03  0.31114949299E+03  0.00000000000E+00 0. -1.
         23    2    1    2    0    0  0.65142192389E+02 -0.35302012745E+02  0.61793622104E+02  0.13295112047E+03  0.91475741968E+02 0.  0.
         23    2    1    2    0    0 -0.18075657497E+01  0.15709514568E+02 -0.19068608227E+03  0.21208245934E+03  0.91475305107E+02 0.  0.
        -11    1    4    4    0    0 -0.43761720680E+02 -0.53658570602E+01 -0.11318887419E+03  0.12147263831E+03  0.00000000000E+00 0. -1.
         11    1    4    4    0    0  0.41954154930E+02  0.21075371629E+02 -0.77497208083E+02  0.90609821024E+02  0.00000000000E+00 0.  1.
        -11    1    3    3    0    0  0.29031067732E+02  0.22773702679E+02  0.52156120556E+02  0.63888225353E+02  0.00000000000E+00 0.  1.
         11    1    3    3    0    0  0.36111124657E+02 -0.58075715423E+02  0.96375015477E+01  0.69062895117E+02  0.00000000000E+00 0. -1.
         21    1    1    2  502  501 -0.63334626639E+02  0.19592498176E+02 -0.59375346603E+02  0.88997599409E+02  0.00000000000E+00 0. -1.
<scales pt_clust_5="13000.00000" pt_clust_6="13000.00000" pt_clust_7="13000.00000" pt_clust_8="13000.00000" pt_clust_9="66.29586"></scales>
<clustering>
<clus scale="   66.296">  2  9  1 -1</clus>
<clus scale="   91.475">  5  6 -1 -1</clus>
<clus scale="   91.476">  7  8 -1 -1</clus>
<clus scale="  111.848">  2  5  1 -1</clus>
<clus scale="   66.296">  2  5  1 -1</clus>
</clustering>
</event>
<event>
 9    1  0.1782981E-005  0.2935267E+03  0.7546771E-02  0.1088526E+00
          2   -1    0    0  502    0  0.00000000000E+00  0.00000000000E+00  0.10377903860E+04  0.10377903860E+04  0.00000000000E+00 0. -1.
         -2   -1    0    0    0  501 -0.00000000000E+00 -0.00000000000E+00 -0.14410303395E+03  0.14410303395E+03  0.00000000000E+00 0.  1.
         23    2    1    2    0    0  0.73605806313E+02 -0.28819931550E+03  0.10017017602E+03  0.32649108012E+03  0.89920526342E+02 0.  0.
         23    2    1    2    0    0 -0.63445559450E+02  0.22132981062E+03  0.55626445054E+03  0.60869681282E+03  0.89830100329E+02 0.  0.
        -11    1    3    3    0    0  0.71471671709E+02 -0.25048267078E+03  0.52586624869E+02  0.26573505853E+03  0.00000000000E+00 0.  1.
         11    1    3    3    0    0  0.21341346039E+01 -0.37716644719E+02  0.47583551148E+02  0.60756021588E+02  0.00000000000E+00 0. -1.
        -13    1    4    4    0    0 -0.68177407304E+02  0.78149749882E+02  0.22219613146E+03  0.24520738796E+03  0.00000000000E+00 0.  1.
         13    1    4    4    0    0  0.47318478541E+01  0.14318006074E+03  0.33406831907E+03  0.36348942486E+03  0.00000000000E+00 0. -1.
         21    1    1    2  502  501 -0.10160246864E+02  0.66869504875E+02  0.23725272546E+03  0.24670552697E+03  0.00000000000E+00 0. -1.
<scales pt_clust_5="13000.00000" pt_clust_6="13000.00000" pt_clust_7="13000.00000" pt_clust_8="13000.00000" pt_clust_9="67.63698"></scales>
<clustering>
<clus scale="   67.637">  1  9  2 -1</clus>
<clus scale="   89.830">  7  8 -1 -1</clus>
<clus scale="   89.921">  5  6 -1 -1</clus>
<clus scale="  293.499">  1  7  2 -1</clus>
<clus scale="   67.637">  1  5  2 -1</clus>
</clustering>
</event>
<event>
 9    1  0.1782981E-005  0.1897945E+03  0.7546771E-02  0.1159091E+00
         -2   -1    0    0    0  501 -0.00000000000E+00  0.00000000000E+00  0.28960075684E+03  0.28960075684E+03  0.00000000000E+00 0.  1.
          2   -1    0    0  502    0  0.00000000000E+00 -0.00000000000E+00 -0.52103083674E+03  0.52103083674E+03  0.00000000000E+00 0. -1.
         23    2    1    2    0    0 -0.67501425705E+02 -0.15541406993E+03  0.21642389817E+03  0.28949900500E+03  0.90886712948E+02 0.  0.
         23    2    1    2    0    0  0.12058904806E+03  0.80439077210E+02 -0.26689209067E+03  0.31818739925E+03  0.94866586980E+02 0.  0.
        -11    1    4    4    0    0 -0.93146002448E+01  0.31366086037E+02 -0.69806653244E+02  0.77094500245E+02  0.00000000000E+00 0.  1.
         11    1    4    4    0    0  0.12990364830E+03  0.49072991173E+02 -0.19708543743E+03  0.24109289901E+03  0.00000000000E+00 0. -1.
        -13    1    3    3    0    0 -0.39210561945E+02 -0.31539241100E+02  0.11957960608E+03  0.12973617108E+03  0.00000000000E+00 0.  1.
         13    1    3    3    0    0 -0.28290863760E+02 -0.12387482883E+03  0.96844292094E+02  0.15976283392E+03  0.00000000000E+00 0. -1.
         21    1    1    2  502  501 -0.53087622352E+02  0.74974992718E+02 -0.18096188740E+03  0.20294518933E+03  0.00000000000E+00 0. -1.
<scales pt_clust_5="13000.00000" pt_clust_6="13000.00000" pt_clust_7="13000.00000" pt_clust_8="13000.00000" pt_clust_9="91.86700"></scales>
<clustering>
<clus scale="   90.887">  7  8 -1 -1</clus>
<clus scale="   91.867">  2  9  1 -1</clus>
<clus scale="   94.867">  5  6 -1 -1</clus>
<clus scale="  187.837">  1  7  2 -1</clus>
<clus scale="   91.867">  2  5  1 -1</clus>
</clustering>
</event>
<event>
 9    1  0.1782981E-005  0.1082766E+03  0.7546771E-02  0.1265869E+00
          1   -1    0    0  502    0  0.00000000000E+00  0.00000000000E+00  0.39478324386E+03  0.39478324386E+03  0.00000000000E+00 0. -1.
         -1   -1    0    0    0  501 -0.00000000000E+00 -0.00000000000E+00 -0.46877795371E+02  0.46877795371E+02  0.00000000000E+00 0.  1.
         23    2    1    2    0    0 -0.18608805316E+02  0.37316500388E+02  0.71216749366E+02  0.12850428857E+03  0.98502375379E+02 0.  0.
         23    2    1    2    0    0  0.52634221048E+02 -0.26940051661E+02  0.20153648566E+03  0.23001076583E+03  0.93764970740E+02 0.  0.
        -11    1    3    3    0    0  0.39049234637E+02  0.18717399592E+02  0.45123214884E+02  0.62540293369E+02  0.00000000000E+00 0. -1.
         11    1    3    3    0    0 -0.57658039953E+02  0.18599100796E+02  0.26093534482E+02  0.65963995205E+02  0.00000000000E+00 0.  1.
        -11    1    4    4    0    0  0.32242610731E+01  0.23438085117E+02  0.96325558701E+01  0.25544585062E+02  0.00000000000E+00 0.  1.
         11    1    4    4    0    0  0.49409959975E+02 -0.50378136778E+02  0.19190392979E+03  0.20446618077E+03  0.00000000000E+00 0. -1.
         21    1    1    2  502  501 -0.34025415733E+02 -0.10376448727E+02  0.75152213464E+02  0.83145984825E+02  0.00000000000E+00 0.  1.
<scales pt_clust_5="13000.00000" pt_clust_6="13000.00000" pt_clust_7="13000.00000" pt_clust_8="13000.00000" pt_clust_9="35.57246"></scales>
<clustering>
<clus scale="   35.572">  1  9  2 -1</clus>
<clus scale="   93.765">  7  8 -1 -1</clus>
<clus scale="   98.502">  5  6 -1 -1</clus>
<clus scale="  103.985">  1  7  2 -1</clus>
<clus scale="   35.572">  1  5  2 -1</clus>
</clustering>
</event>
<event>
 9    1  0.1782981E-005  0.1418721E+03  0.7546771E-02  0.1210941E+00
         -3   -1    0    0    0  501 -0.00000000000E+00  0.00000000000E+00  0.23022225224E+03  0.23022225224E+03  0.00000000000E+00 0.  1.
          3   -1    0    0  502    0  0.00000000000E+00 -0.00000000000E+00 -0.10968950108E+03  0.10968950108E+03  0.00000000000E+00 0. -1.
         23    2    1    2    0    0  0.68060924473E+02  0.72518050344E+02  0.51302556015E+02  0.14309509524E+03  0.89180137713E+02 0.  0.
         23    2    1    2    0    0 -0.70491520302E+02 -0.99357725828E+02  0.76398023111E+02  0.16893021453E+03  0.88655216039E+02 0.  0.
        -11    1    3    3    0    0  0.17252969177E+02  0.78476743519E+02  0.43429384451E+02  0.91336606312E+02  0.00000000000E+00 0. -1.
         11    1    3    3    0    0  0.50807955296E+02 -0.59586931749E+01  0.78731715635E+01  0.51758488929E+02  0.00000000000E+00 0.  1.
        -13    1    4    4    0    0 -0.28951964212E+02 -0.53347685560E+01 -0.13488108744E+02  0.32382172021E+02  0.00000000000E+00 0. -1.
         13    1    4    4    0    0 -0.41539556090E+02 -0.94022957272E+02  0.89886131855E+02  0.13654804251E+03  0.00000000000E+00 0.  1.
         21    1    1    2  502  501  0.24305958297E+01  0.26839675484E+02 -0.71678279654E+01  0.27886443551E+02  0.00000000000E+00 0. -1.
<scales pt_clust_5="13000.00000" pt_clust_6="13000.00000" pt_clust_7="13000.00000" pt_clust_8="13000.00000" pt_clust_9="26.94951"></scales>
<clustering>
<clus scale="   26.950">  2  9  1 -1</clus>
<clus scale="   88.655">  7  8 -1 -1</clus>
<clus scale="   89.180">  5  6 -1 -1</clus>
<clus scale="  141.543">  2  7  1 -1</clus>
<clus scale="   26.950">  2  5  1 -1</clus>
</clustering>
</event>
<event>
 9    1  0.1868967E-005  0.9087769E+02  0.7546771E-02  0.1300786E+00
         -2   -1    0    0    0  501 -0.00000000000E+00  0.00000000000E+00  0.47837268922E+02  0.47837268922E+02  0.00000000000E+00 0.  1.
          2   -1    0    0  502    0  0.00000000000E+00 -0.00000000000E+00 -0.49717452865E+03  0.49717452865E+03  0.00000000000E+00 0. -1.
         23    2    1    2    0    0 -0.76439259865E+01  0.62307219373E+01 -0.13022039753E+02  0.92005796622E+02  0.90544141679E+02 0.  0.
         23    2    1    2    0    0 -0.17057137608E+02  0.39094393675E+01 -0.37382621173E+03  0.38505129864E+03  0.90621390146E+02 0.  0.
        -13    1    3    3    0    0  0.26703620947E+02  0.35692643597E+02  0.11351482530E+01  0.44590769674E+02  0.00000000000E+00 0.  1.
         13    1    3    3    0    0 -0.34347546933E+02 -0.29461921659E+02 -0.14157188006E+02  0.47415026948E+02  0.00000000000E+00 0. -1.
        -13    1    4    4    0    0 -0.10266955450E+01  0.45163407646E+02 -0.23627574025E+03  0.24055563374E+03  0.00000000000E+00 0.  1.
         13    1    4    4    0    0 -0.16030442063E+02 -0.41253968279E+02 -0.13755047147E+03  0.14449566490E+03  0.00000000000E+00 0. -1.
         21    1    1    2  502  501  0.24701063595E+02 -0.10140161305E+02 -0.62489008253E+02  0.67954702313E+02  0.00000000000E+00 0.  1.
<scales pt_clust_5="13000.00000" pt_clust_6="13000.00000" pt_clust_7="13000.00000" pt_clust_8="13000.00000" pt_clust_9="26.70141"></scales>
<clustering>
<clus scale="   26.701">  2  9  1 -1</clus>
<clus scale="   90.544">  5  6 -1 -1</clus>
<clus scale="   90.621">  7  8 -1 -1</clus>
<clus scale="   90.801">  1  5  2 -1</clus>
<clus scale="   26.701">  2  5  1 -1</clus>
</clustering>
</event>
<event>
 9    1  0.1782981E-005  0.9432139E+02  0.7546771E-02  0.1293534E+00
         -1   -1    0    0    0  501 -0.00000000000E+00  0.00000000000E+00  0.45157296373E+03  0.45157296373E+03  0.00000000000E+00 0.  1.
          1   -1    0    0  502    0  0.00000000000E+00 -0.00000000000E+00 -0.50656480838E+02  0.50656480838E+02  0.00000000000E+00 0. -1.
         23    2    1    2    0    0  0.84187442033E+01  0.12482559769E+02  0.29815729962E+03  0.31193103043E+03  0.90424017150E+02 0.  0.
         23    2    1    2    0    0  0.13269743003E+01 -0.42013759780E+02  0.11825741457E+03  0.15555268092E+03  0.91896156444E+02 0.  0.
        -13    1    3    3    0    0  0.42958491584E+02  0.12537949749E+02  0.24122313468E+03  0.24533901624E+03  0.00000000000E+00 0.  1.
         13    1    3    3    0    0 -0.34539747380E+02 -0.55389979948E-01  0.56934164933E+02  0.66592014189E+02  0.00000000000E+00 0. -1.
        -13    1    4    4    0    0 -0.19801510682E+01  0.23296537351E+02  0.37379756021E+01  0.23677460007E+02  0.00000000000E+00 0. -1.
         13    1    4    4    0    0  0.33071253685E+01 -0.65310297130E+02  0.11451943897E+03  0.13187522092E+03  0.00000000000E+00 0.  1.
         21    1    1    2  502  501 -0.97457185035E+01  0.29531200010E+02 -0.15498231299E+02  0.34745733214E+02  0.00000000000E+00 0. -1.
<scales pt_clust_5="13000.00000" pt_clust_6="13000.00000" pt_clust_7="13000.00000" pt_clust_8="13000.00000" pt_clust_9="31.09776"></scales>
<clustering>
<clus scale="   31.098">  2  9  1 -1</clus>
<clus scale="   90.424">  5  6 -1 -1</clus>
<clus scale="   91.896">  7  8 -1 -1</clus>
<clus scale="   92.888">  1  5  2 -1</clus>
<clus scale="   31.098">  2  5  1 -1</clus>
</clustering>
</event>
<event>
 9    1  0.1782981E-005  0.9829219E+02  0.7546771E-02  0.1284707E+00
          4   -1    0    0  502    0  0.00000000000E+00  0.00000000000E+00  0.19923935855E+03  0.19923935855E+03  0.00000000000E+00 0. -1.
         -4   -1    0    0    0  501 -0.00000000000E+00 -0.00000000000E+00 -0.18687244453E+03  0.18687244453E+03  0.00000000000E+00 0.  1.
         23    2    1    2    0    0 -0.58105536971E+01 -0.32524990899E+02 -0.14818036938E+03  0.17752102177E+03  0.92003552839E+02 0.  0.
         23    2    1    2    0    0  0.18676925033E+02  0.49926123575E+02  0.15320944632E+03  0.18573937473E+03  0.90468422879E+02 0.  0.
        -11    1    3    3    0    0 -0.27804622147E+02 -0.26803896740E+02 -0.14983752448E+03  0.15473470728E+03  0.00000000000E+00 0.  1.
         11    1    3    3    0    0  0.21994068450E+02 -0.57210941594E+01  0.16571551023E+01  0.22786314497E+02  0.00000000000E+00 0. -1.
        -13    1    4    4    0    0 -0.32778878679E+01 -0.24491795792E+02  0.57117862501E+02  0.62233775610E+02  0.00000000000E+00 0.  1.
         13    1    4    4    0    0  0.21954812901E+02  0.74417919367E+02  0.96091583822E+02  0.12350559912E+03  0.00000000000E+00 0. -1.
         21    1    1    2  502  501 -0.12866371336E+02 -0.17401132676E+02  0.73378370690E+01  0.22851406579E+02  0.00000000000E+00 0. -1.
<scales pt_clust_5="13000.00000" pt_clust_6="13000.00000" pt_clust_7="13000.00000" pt_clust_8="13000.00000" pt_clust_9="21.64123"></scales>
<clustering>
<clus scale="   21.641">  1  9  2 -1</clus>
<clus scale="   90.468">  7  8 -1 -1</clus>
<clus scale="   92.004">  5  6 -1 -1</clus>
<clus scale="   96.857">  1  7  2 -1</clus>
<clus scale="   21.641">  1  5  2 -1</clus>
</clustering>
</event>
<event>
 9    1  0.1782981E-005  0.1307134E+03  0.7546771E-02  0.1226641E+00
         -1   -1    0    0    0  501 -0.00000000000E+00  0.00000000000E+00  0.18674846597E+03  0.18674846597E+03  0.00000000000E+00 0.  1.
          1   -1    0    0  502    0  0.00000000000E+00 -0.00000000000E+00 -0.21225144206E+03  0.21225144206E+03  0.00000000000E+00 0. -1.
         23    2    1    2    0    0  0.19042356050E+02  0.98646352087E+02  0.12407566535E+03  0.18483279029E+03  0.93137938183E+02 0.  0.
         23    2    1    2    0    0 -0.13977860856E+02 -0.52913449096E+02 -0.10639079947E+03  0.15106135555E+03  0.92224276838E+02 0.  0.
        -11    1    3    3    0    0 -0.34154688945E+02  0.63302743112E+02  0.53467266398E+02  0.89624375248E+02  0.00000000000E+00 0. -1.
         11    1    3    3    0    0  0.53197044995E+02  0.35343608975E+02  0.70608398957E+02  0.95208415042E+02  0.00000000000E+00 0.  1.
        -13    1    4    4    0    0 -0.26369686087E+02  0.18567901138E+02 -0.18809647795E+02  0.37335373939E+02  0.00000000000E+00 0.  1.
         13    1    4    4    0    0  0.12391825230E+02 -0.71481350234E+02 -0.87581151676E+02  0.11372598161E+03  0.00000000000E+00 0. -1.
         21    1    1    2  502  501 -0.50644951932E+01 -0.45732902992E+02 -0.43187841976E+02  0.63105762195E+02  0.00000000000E+00 0. -1.
<scales pt_clust_5="13000.00000" pt_clust_6="13000.00000" pt_clust_7="13000.00000" pt_clust_8="13000.00000" pt_clust_9="46.01247"></scales>
<clustering>
<clus scale="   46.012">  2  9  1 -1</clus>
<clus scale="   92.224">  7  8 -1 -1</clus>
<clus scale="   93.138">  5  6 -1 -1</clus>
<clus scale="  130.064">  2  7  1 -1</clus>
<clus scale="   46.012">  2  5  1 -1</clus>
</clustering>
</event>
<event>
 9    1  0.1782981E-005  0.1448548E+03  0.7546771E-02  0.1207309E+00
          2   -1    0    0  502    0  0.00000000000E+00  0.00000000000E+00  0.41289698826E+03  0.41289698826E+03  0.00000000000E+00 0. -1.
         -2   -1    0    0    0  501 -0.00000000000E+00 -0.00000000000E+00 -0.15917825560E+03  0.15917825560E+03  0.00000000000E+00 0.  1.
         23    2    1    2    0    0 -0.11717207364E+01 -0.11773483637E+03 -0.93037751048E+02  0.17539960968E+03  0.90808233826E+02 0.  0.
         23    2    1    2    0    0 -0.24881591282E+02  0.74092562095E+02  0.31552141291E+03  0.33701783654E+03  0.88985722429E+02 0.  0.
        -13    1    4    4    0    0 -0.17550976518E+02  0.93973937216E+02  0.23370136425E+03  0.25249844614E+03  0.00000000000E+00 0. -1.
         13    1    4    4    0    0 -0.73306147646E+01 -0.19881375122E+02  0.81820048661E+02  0.84519390393E+02  0.00000000000E+00 0.  1.
        -13    1    3    3    0    0 -0.28881655370E+00 -0.28217359690E+02  0.17463963145E+02  0.33185732049E+02  0.00000000000E+00 0. -1.
         13    1    3    3    0    0 -0.88290418268E+00 -0.89517476682E+02 -0.11050171419E+03  0.14221387763E+03  0.00000000000E+00 0.  1.
         21    1    1    2  502  501  0.26053312018E+02  0.43642274278E+02  0.31235070807E+02  0.59657797643E+02  0.00000000000E+00 0. -1.
<scales pt_clust_5="13000.00000" pt_clust_6="13000.00000" pt_clust_7="13000.00000" pt_clust_8="13000.00000" pt_clust_9="50.82739"></scales>
<clustering>
<clus scale="   50.827">  1  9  2 -1</clus>
<clus scale="   88.986">  5  6 -1 -1</clus>
<clus scale="   90.808">  7  8 -1 -1</clus>
<clus scale="  143.719">  1  5  2 -1</clus>
<clus scale="   50.827">  1  5  2 -1</clus>
</clustering>
</event>
<event>
 9    1  0.1782981E-005  0.1022587E+03  0.7546771E-02  0.1276639E+00
          1   -1    0    0  502    0  0.00000000000E+00  0.00000000000E+00  0.37049226497E+03  0.37049226497E+03  0.00000000000E+00 0. -1.
         -1   -1    0    0    0  501 -0.00000000000E+00 -0.00000000000E+00 -0.88472303028E+02  0.88472303028E+02  0.00000000000E+00 0.  1.
         23    2    1    2    0    0 -0.53234406195E+02  0.98524756540E+01 -0.38914758694E+02  0.11221788734E+03  0.90263627868E+02 0.  0.
         23    2    1    2    0    0  0.14356554424E+02 -0.61371194744E+01  0.18753600935E+03  0.20774845260E+03  0.88010737212E+02 0.  0.
        -11    1    4    4    0    0 -0.27649612428E+02 -0.87846178525E+01  0.14512765891E+03  0.14799901337E+03  0.00000000000E+00 0.  1.
         11    1    4    4    0    0  0.42006166852E+02  0.26474983781E+01  0.42408350445E+02  0.59749439234E+02  0.00000000000E+00 0. -1.
        -13    1    3    3    0    0 -0.40066169411E+02 -0.27397702942E+02 -0.51484609127E+02  0.70757310822E+02  0.00000000000E+00 0.  1.
         13    1    3    3    0    0 -0.13168236784E+02  0.37250178597E+02  0.12569850433E+02  0.41460576520E+02  0.00000000000E+00 0. -1.
         21    1    1    2  502  501  0.38877851771E+02 -0.37153561796E+01  0.13339871128E+03  0.13899822805E+03  0.00000000000E+00 0. -1.
<scales pt_clust_5="13000.00000" pt_clust_6="13000.00000" pt_clust_7="13000.00000" pt_clust_8="13000.00000" pt_clust_9="39.05498"></scales>
<clustering>
<clus scale="   39.055">  1  9  2 -1</clus>
<clus scale="   88.011">  5  6 -1 -1</clus>
<clus scale="   90.264">  7  8 -1 -1</clus>
<clus scale="  100.276">  1  5  2 -1</clus>
<clus scale="   39.055">  1  5  2 -1</clus>
</clustering>
</event>
<event>
 9    1  0.1782981E-005  0.1017191E+03  0.7546771E-02  0.1277489E+00
          2   -1    0    0  502    0  0.00000000000E+00  0.00000000000E+00  0.13343806424E+03  0.13343806424E+03  0.00000000000E+00 0. -1.
         -2   -1    0    0    0  501 -0.00000000000E+00 -0.00000000000E+00 -0.34663205475E+03  0.34663205475E+03  0.00000000000E+00 0.  1.
         23    2    1    2    0    0  0.41873896269E+02 -0.69902132876E+01 -0.29911596812E+03  0.31565460711E+03  0.91461370731E+02 0.  0.
         23    2    1    2    0    0 -0.68451284638E+02  0.86490363964E+01  0.65266479512E+02  0.13071449012E+03  0.89811916687E+02 0.  0.
        -13    1    3    3    0    0 -0.28795036498E+02  0.47853832655E+01 -0.86097242851E+02  0.90910886292E+02  0.00000000000E+00 0. -1.
         13    1    3    3    0    0  0.70668932767E+02 -0.11775596553E+02 -0.21301872527E+03  0.22474372082E+03  0.00000000000E+00 0.  1.
        -13    1    4    4    0    0 -0.24649449014E+02  0.16725002751E+02  0.78735860781E+02  0.84182283330E+02  0.00000000000E+00 0. -1.
         13    1    4    4    0    0 -0.43801835623E+02 -0.80759663546E+01 -0.13469381268E+02  0.46532206785E+02  0.00000000000E+00 0.  1.
         21    1    1    2  502  501  0.26577388369E+02 -0.16588231089E+01  0.20655498089E+02  0.33701021764E+02  0.00000000000E+00 0.  1.
<scales pt_clust_5="13000.00000" pt_clust_6="13000.00000" pt_clust_7="13000.00000" pt_clust_8="13000.00000" pt_clust_9="26.62911"></scales>
<clustering>
<clus scale="   26.629">  1  9  2 -1</clus>
<clus scale="   89.812">  7  8 -1 -1</clus>
<clus scale="   91.461">  5  6 -1 -1</clus>
<clus scale="  100.239">  1  7  2 -1</clus>
<clus scale="   26.629">  1  5  2 -1</clus>
</clustering>
</event>
<event>
 9    1  0.1782981E-005  0.1245373E+03  0.7546771E-02  0.1236381E+00
         -4   -1    0    0    0  501 -0.00000000000E+00  0.00000000000E+00  0.75488907264E+02  0.75488907264E+02  0.00000000000E+00 0.  1.
          4   -1    0    0  502    0  0.00000000000E+00 -0.00000000000E+00 -0.69444840203E+03  0.69444840203E+03  0.00000000000E+00 0. -1.
         23    2    1    2    0    0  0.49791779406E+02  0.63876153060E+02  0.14770641522E+01  0.12093940120E+03  0.89804080191E+02 0.  0.
         23    2    1    2    0    0 -0.44820275746E+02 -0.10572162409E+03 -0.51085070655E+03  0.53158914209E+03  0.91829476139E+02 0.  0.
        -13    1    4    4    0    0  0.11379928999E+02 -0.50910451277E+02 -0.94879394554E+02  0.10827500332E+03  0.00000000000E+00 0.  1.
         13    1    4    4    0    0 -0.56200204745E+02 -0.54811172810E+02 -0.41597131199E+03  0.42331413877E+03  0.00000000000E+00 0. -1.
        -13    1    3    3    0    0  0.28322931166E+02  0.85284435709E+02  0.69414685797E+01  0.90132166234E+02  0.00000000000E+00 0.  1.
         13    1    3    3    0    0  0.21468848240E+02 -0.21408282649E+02 -0.54644044276E+01  0.30807234970E+02  0.00000000000E+00 0. -1.
         21    1    1    2  502  501 -0.49715036602E+01  0.41845471028E+02 -0.10958585237E+03  0.11740876600E+03  0.00000000000E+00 0.  1.
<scales pt_clust_5="13000.00000" pt_clust_6="13000.00000" pt_clust_7="13000.00000" pt_clust_8="13000.00000" pt_clust_9="42.13976"></scales>
<clustering>
<clus scale="   42.140">  2  9  1 -1</clus>
<clus scale="   89.804">  7  8 -1 -1</clus>
<clus scale="   91.829">  5  6 -1 -1</clus>
<clus scale="  123.051">  1  7  2 -1</clus>
<clus scale="   42.140">  2  5  1 -1</clus>
</clustering>
</event>
<event>
 9    1  0.1782981E-005  0.1086902E+03  0.7546771E-02  0.1263715E+00
          2   -1    0    0  502    0  0.00000000000E+00  0.00000000000E+00  0.11642658972E+03  0.11642658972E+03  0.00000000000E+00 0. -1.
         -2   -1    0    0    0  501 -0.00000000000E+00 -0.00000000000E+00 -0.24602100223E+03  0.24602100223E+03  0.00000000000E+00 0.  1.
         23    2    1    2    0    0 -0.98313180144E+01  0.57820884624E+02 -0.15490972622E+03  0.18968636543E+03  0.92433675896E+02 0.  0.
         23    2    1    2    0    0  0.44449312047E+02 -0.43253097507E+02 -0.22305752695E+02  0.11211147879E+03  0.90691043046E+02 0.  0.
        -11    1    4    4    0    0  0.10597381731E+02 -0.37677207578E+02 -0.53130129147E+02  0.65990052990E+02  0.00000000000E+00 0.  1.
         11    1    4    4    0    0  0.33851930316E+02 -0.55758899284E+01  0.30824376452E+02  0.46121425805E+02  0.00000000000E+00 0. -1.
        -13    1    3    3    0    0  0.37457713660E+02  0.22246913441E+02 -0.34684257754E+02  0.55686651958E+02  0.00000000000E+00 0.  1.
         13    1    3    3    0    0 -0.47289031675E+02  0.35573971183E+02 -0.12022546847E+03  0.13399971347E+03  0.00000000000E+00 0. -1.
         21    1    1    2  502  501 -0.34617994033E+02 -0.14567787118E+02  0.47621066411E+02  0.60649747720E+02  0.00000000000E+00 0. -1.
<scales pt_clust_5="13000.00000" pt_clust_6="13000.00000" pt_clust_7="13000.00000" pt_clust_8="13000.00000" pt_clust_9="37.55830"></scales>
<clustering>
<clus scale="   37.558">  1  9  2 -1</clus>
<clus scale="   90.691">  5  6 -1 -1</clus>
<clus scale="   92.434">  7  8 -1 -1</clus>
<clus scale="  107.212">  1  5  2 -1</clus>
<clus scale="   37.558">  1  5  2 -1</clus>
</clustering>
</event>
<event>
 9    1  0.1782981E-005  0.2071835E+03  0.7546771E-02  0.1143859E+00
         -1   -1    0    0    0  501 -0.00000000000E+00  0.00000000000E+00  0.26742266421E+03  0.26742266421E+03  0.00000000000E+00 0.  1.
          1   -1    0    0  502    0  0.00000000000E+00 -0.00000000000E+00 -0.50664488121E+03  0.50664488121E+03  0.00000000000E+00 0. -1.
         23    2    1    2    0    0 -0.95460905695E+02 -0.15678613040E+03  0.18385456798E+03  0.27531836521E+03  0.91120935295E+02 0.  0.
         23    2    1    2    0    0  0.12428025153E+03  0.16197187319E+03 -0.31245799733E+03  0.38432032544E+03  0.91605915900E+02 0.  0.
        -11    1    3    3    0    0 -0.95498275186E+02 -0.10476530175E+03  0.89719085531E+02  0.16776532217E+03  0.00000000000E+00 0.  1.
         11    1    3    3    0    0  0.37369490858E-01 -0.52020828655E+02  0.94135482449E+02  0.10755304304E+03  0.00000000000E+00 0. -1.
        -13    1    4    4    0    0  0.92718411163E+02  0.99238655205E+02 -0.27006442277E+03  0.30229093089E+03  0.00000000000E+00 0. -1.
         13    1    4    4    0    0  0.31561840368E+02  0.62733217983E+02 -0.42393574562E+02  0.82029394549E+02  0.00000000000E+00 0.  1.
         21    1    1    2  502  501 -0.28819345836E+02 -0.51857427846E+01 -0.11061878765E+03  0.11442885477E+03  0.00000000000E+00 0. -1.
<scales pt_clust_5="13000.00000" pt_clust_6="13000.00000" pt_clust_7="13000.00000" pt_clust_8="13000.00000" pt_clust_9="29.28219"></scales>
<clustering>
<clus scale="   29.282">  2  9  1 -1</clus>
<clus scale="   91.121">  5  6 -1 -1</clus>
<clus scale="   91.606">  7  8 -1 -1</clus>
<clus scale="  206.970">  1  5  2 -1</clus>
<clus scale="   29.282">  2  5  1 -1</clus>
</clustering>
</event>
<event>
 9    1  0.1782981E-005  0.1082983E+03  0.7546771E-02  0.1264197E+00
         -2   -1    0    0    0  501 -0.00000000000E+00  0.00000000000E+00  0.49549389441E+02  0.49549389441E+02  0.00000000000E+00 0.  1.
          2   -1    0    0  502    0  0.00000000000E+00 -0.00000000000E+00 -0.37460174648E+03  0.37460174648E+03  0.00000000000E+00 0. -1.
         23    2    1    2    0    0 -0.36938177157E+02  0.29338820354E+02 -0.72046310714E+02  0.12577611350E+03  0.91672048783E+02 0.  0.
         23    2    1    2    0    0  0.68034220612E+02 -0.35839148384E+02 -0.15466640296E+03  0.19503140317E+03  0.90567390859E+02 0.  0.
        -11    1    4    4    0    0  0.46308999497E+02 -0.58137870091E+01 -0.12788430844E+02  0.48392845724E+02  0.00000000000E+00 0.  1.
         11    1    4    4    0    0  0.21725221115E+02 -0.30025361375E+02 -0.14187797212E+03  0.14663855745E+03  0.00000000000E+00 0. -1.
        -11    1    3    3    0    0 -0.39585356025E+02 -0.98667767557E+01 -0.76025839347E+02  0.86280252339E+02  0.00000000000E+00 0. -1.
         11    1    3    3    0    0  0.26471788682E+01  0.39205597110E+02  0.39795286334E+01  0.39495861161E+02  0.00000000000E+00 0.  1.
         21    1    1    2  502  501 -0.31096043454E+02  0.65003280301E+01 -0.98339643359E+02  0.10334361925E+03  0.00000000000E+00 0. -1.
<scales pt_clust_5="13000.00000" pt_clust_6="13000.00000" pt_clust_7="13000.00000" pt_clust_8="13000.00000" pt_clust_9="31.76819"></scales>
<clustering>
<clus scale="   31.768">  2  9  1 -1</clus>
<clus scale="   90.567">  5  6 -1 -1</clus>
<clus scale="   91.672">  7  8 -1 -1</clus>
<clus scale="  107.365">  2  5  1 -1</clus>
<clus scale="   31.768">  2  5  1 -1</clus>
</clustering>
</event>
<event>
 9    1  0.1782981E-005  0.9399546E+02  0.7546771E-02  0.1293752E+00
         -2   -1    0    0    0  501 -0.00000000000E+00  0.00000000000E+00  0.69370753522E+02  0.69370753522E+02  0.00000000000E+00 0.  1.
          2   -1    0    0  502    0  0.00000000000E+00 -0.00000000000E+00 -0.63146626471E+03  0.63146626471E+03  0.00000000000E+00 0. -1.
         23    2    1    2    0    0  0.44280382093E+01  0.24193181764E+02  0.22529435605E+02  0.97265031867E+02  0.91367354067E+02 0.  0.
         23    2    1    2    0    0 -0.37470150035E+02  0.14305589467E+02 -0.38301838978E+03  0.39567984998E+03  0.90833885393E+02 0.  0.
        -13    1    3    3    0    0 -0.26650064146E+02  0.55121392171E+01  0.46443000138E+02  0.53829005745E+02  0.00000000000E+00 0.  1.
         13    1    3    3    0    0  0.31078102355E+02  0.18681042547E+02 -0.23913564532E+02  0.43436026122E+02  0.00000000000E+00 0. -1.
        -13    1    4    4    0    0  0.27432452480E+02 -0.10956813251E+02 -0.12273326544E+03  0.12623805152E+03  0.00000000000E+00 0.  1.
         13    1    4    4    0    0 -0.64902602516E+02  0.25262402718E+02 -0.26028512434E+03  0.26944179846E+03  0.00000000000E+00 0. -1.
         21    1    1    2  502  501  0.33042111826E+02 -0.38498771231E+02 -0.20160655701E+03  0.20789213639E+03  0.00000000000E+00 0. -1.
<scales pt_clust_5="13000.00000" pt_clust_6="13000.00000" pt_clust_7="13000.00000" pt_clust_8="13000.00000" pt_clust_9="50.73398"></scales>
<clustering>
<clus scale="   50.734">  2  9  1 -1</clus>
<clus scale="   90.834">  7  8 -1 -1</clus>
<clus scale="   91.367">  5  6 -1 -1</clus>
<clus scale="   93.477">  2  7  1 -1</clus>
<clus scale="   50.734">  2  5  1 -1</clus>
</clustering>
</event>
<event>
 9    1  0.1782981E-005  0.1040744E+03  0.7546771E-02  0.1275485E+00
          1   -1    0    0  502    0  0.00000000000E+00  0.00000000000E+00  0.77342477130E+03  0.77342477130E+03  0.00000000000E+00 0. -1.
         -1   -1    0    0    0  501 -0.00000000000E+00 -0.00000000000E+00 -0.31901468667E+02  0.31901468667E+02  0.00000000000E+00 0.  1.
         23    2    1    2    0    0 -0.58257090751E+01  0.17854351546E+02  0.14649753590E+03  0.17657521907E+03  0.96770673298E+02 0.  0.
         23    2    1    2    0    0 -0.20322379414E+02 -0.88606840141E+02  0.38830728421E+03  0.40870064441E+03  0.89383994913E+02 0.  0.
        -11    1    4    4    0    0  0.18763275826E+02 -0.18569805206E+02  0.24028926309E+02  0.35697163539E+02  0.00000000000E+00 0.  1.
         11    1    4    4    0    0 -0.39085655241E+02 -0.70037034934E+02  0.36427835790E+03  0.37300348087E+03  0.00000000000E+00 0. -1.
        -11    1    3    3    0    0 -0.46190052469E+02 -0.10433729040E+02  0.89231122377E+02  0.10101770562E+03  0.00000000000E+00 0. -1.
         11    1    3    3    0    0  0.40364343394E+02  0.28288080586E+02  0.57266413522E+02  0.75557513449E+02  0.00000000000E+00 0.  1.
         21    1    1    2  502  501  0.26148088489E+02  0.70752488594E+02  0.20671848253E+03  0.22005037649E+03  0.00000000000E+00 0.  1.
<scales pt_clust_5="13000.00000" pt_clust_6="13000.00000" pt_clust_7="13000.00000" pt_clust_8="13000.00000" pt_clust_9="75.42968"></scales>
<clustering>
<clus scale="   75.430">  1  9  2 -1</clus>
<clus scale="   89.384">  5  6 -1 -1</clus>
<clus scale="   96.771">  7  8 -1 -1</clus>
<clus scale="   97.244">  1  5  2 -1</clus>
<clus scale="   75.430">  1  5  2 -1</clus>
</clustering>
</event>
<event>
 9    1  0.1782981E-005  0.3169520E+03  0.7546771E-02  0.1077134E+00
          1   -1    0    0  502    0  0.00000000000E+00  0.00000000000E+00  0.40177254374E+03  0.40177254374E+03  0.00000000000E+00 0. -1.
         -1   -1    0    0    0  501 -0.00000000000E+00 -0.00000000000E+00 -0.40572637422E+03  0.40572637422E+03  0.00000000000E+00 0.  1.
         23    2    1    2    0    0  0.29823857548E+03 -0.80016911005E+02 -0.23555846063E+03  0.39867697112E+03  0.90036575774E+02 0.  0.
         23    2    1    2    0    0 -0.27217894586E+03  0.86339165998E+02  0.17801625501E+03  0.34889875305E+03  0.92221053333E+02 0.  0.
        -11    1    3    3    0    0  0.23750384621E+03 -0.90032116111E+02 -0.21785674109E+03  0.33462728301E+03  0.00000000000E+00 0.  1.
         11    1    3    3    0    0  0.60734729266E+02  0.10015205106E+02 -0.17701719543E+02  0.64049688111E+02  0.00000000000E+00 0. -1.
        -13    1    4    4    0    0 -0.10239276902E+03  0.16922547195E+01  0.25645347740E+02  0.10556906144E+03  0.00000000000E+00 0.  1.
         13    1    4    4    0    0 -0.16978617684E+03  0.84646911278E+02  0.15237090727E+03  0.24332969161E+03  0.00000000000E+00 0. -1.
         21    1    1    2  502  501 -0.26059629613E+02 -0.63222549930E+01  0.53588375135E+02  0.59923193785E+02  0.00000000000E+00 0. -1.
<scales pt_clust_5="13000.00000" pt_clust_6="13000.00000" pt_clust_7="13000.00000" pt_clust_8="13000.00000" pt_clust_9="26.81558"></scales>
<clustering>
<clus scale="   26.816">  1  9  2 -1</clus>
<clus scale="   90.037">  5  6 -1 -1</clus>
<clus scale="   92.221">  7  8 -1 -1</clus>
<clus scale="  316.323">  2  5  1 -1</clus>
<clus scale="   26.816">  1  5  2 -1</clus>
</clustering>
</event>
<event>
 9    1  0.1782981E-005  0.9523142E+02  0.7546771E-02  0.1290740E+00
         -1   -1    0    0    0  501 -0.00000000000E+00  0.00000000000E+00  0.45635539601E+02  0.45635539601E+02  0.00000000000E+00 0.  1.
          1   -1    0    0  502    0  0.00000000000E+00 -0.00000000000E+00 -0.46189857330E+03  0.46189857330E+03  0.00000000000E+00 0. -1.
         23    2    1    2    0    0 -0.20168784344E+02  0.23672886566E+02 -0.40161335351E+02  0.10370247057E+03  0.90410641656E+02 0.  0.
         23    2    1    2    0    0  0.35058273287E+02  0.17198123983E+01 -0.17127073363E+03  0.19689636224E+03  0.90567505114E+02 0.  0.
        -11    1    3    3    0    0  0.33933446646E+02  0.22849901097E+02 -0.23031130731E+02  0.46947095375E+02  0.00000000000E+00 0. -1.
         11    1    3    3    0    0 -0.54102230989E+02  0.82298546863E+00 -0.17130204619E+02  0.56755375194E+02  0.00000000000E+00 0.  1.
        -13    1    4    4    0    0  0.35499517906E+02  0.37091805739E+02 -0.54456534152E+02  0.74843382716E+02  0.00000000000E+00 0.  1.
         13    1    4    4    0    0 -0.44124461923E+00 -0.35371993340E+02 -0.11681419948E+03  0.12205297952E+03  0.00000000000E+00 0. -1.
         21    1    1    2  502  501 -0.14889488943E+02 -0.25392698964E+02 -0.20483096471E+03  0.20693528009E+03  0.00000000000E+00 0. -1.
<scales pt_clust_5="13000.00000" pt_clust_6="13000.00000" pt_clust_7="13000.00000" pt_clust_8="13000.00000" pt_clust_9="29.43613"></scales>
<clustering>
<clus scale="   29.436">  2  9  1 -1</clus>
<clus scale="   90.411">  5  6 -1 -1</clus>
<clus scale="   90.568">  7  8 -1 -1</clus>
<clus scale="   95.082">  1  5  2 -1</clus>
<clus scale="   29.436">  2  5  1 -1</clus>
</clustering>
</event>
<event>
 9    1  0.1782981E-005  0.9944106E+02  0.7546771E-02  0.1281646E+00
          1   -1    0    0  502    0  0.00000000000E+00  0.00000000000E+00  0.10756103573E+03  0.10756103573E+03  0.00000000000E+00 0. -1.
         -1   -1    0    0    0  501 -0.00000000000E+00 -0.00000000000E+00 -0.14987015371E+03  0.14987015371E+03  0.00000000000E+00 0.  1.
         23    2    1    2    0    0  0.12416509749E+02  0.32265340678E+02 -0.78629430080E+02  0.12507801814E+03  0.90921402456E+02 0.  0.
         23    2    1    2    0    0 -0.11860553693E+02 -0.52538354211E+02  0.24127081831E+02  0.10868929526E+03  0.91270452115E+02 0.  0.
        -11    1    4    4    0    0  0.21220254856E+02  0.28328252415E+01 -0.20985121172E+02  0.29978315924E+02  0.00000000000E+00 0.  1.
         11    1    4    4    0    0 -0.33080808549E+02 -0.55371179452E+02  0.45112203003E+02  0.78710979336E+02  0.00000000000E+00 0. -1.
        -13    1    3    3    0    0 -0.26274469583E+02 -0.19381826782E+02 -0.28987136290E+02  0.43660703517E+02  0.00000000000E+00 0. -1.
         13    1    3    3    0    0  0.38690979332E+02  0.51647167461E+02 -0.49642293790E+02  0.81417314627E+02  0.00000000000E+00 0.  1.
         21    1    1    2  502  501 -0.55595605574E+00  0.20273013532E+02  0.12193230262E+02  0.23663876036E+02  0.00000000000E+00 0.  1.
<scales pt_clust_5="13000.00000" pt_clust_6="13000.00000" pt_clust_7="13000.00000" pt_clust_8="13000.00000" pt_clust_9="20.28064"></scales>
<clustering>
<clus scale="   20.281">  1  9  2 -1</clus>
<clus scale="   90.921">  7  8 -1 -1</clus>
<clus scale="   91.270">  5  6 -1 -1</clus>
<clus scale="   99.121">  2  7  1 -1</clus>
<clus scale="   20.281">  1  5  2 -1</clus>
</clustering>
</event>
<event>
 9    1  0.1782981E-005  0.1068354E+03  0.7546771E-02  0.1267400E+00
          1   -1    0    0  502    0  0.00000000000E+00  0.00000000000E+00  0.34610695860E+03  0.34610695860E+03  0.00000000000E+00 0. -1.
         -1   -1    0    0    0  501 -0.00000000000E+00 -0.00000000000E+00 -0.17110745474E+03  0.17110745474E+03  0.00000000000E+00 0.  1.
         23    2    1    2    0    0 -0.54932210512E+01  0.52876562876E+02 -0.13750765054E+03  0.17316243353E+03  0.90833738514E+02 0.  0.
         23    2    1    2    0    0 -0.20599217215E+02 -0.49158247647E+02  0.29087230683E+03  0.30995347790E+03  0.92863332483E+02 0.  0.
        -11    1    4    4    0    0 -0.43128993791E+02 -0.25767876883E+02  0.26111966171E+03  0.26590895306E+03  0.00000000000E+00 0. -1.
         11    1    4    4    0    0  0.22529776575E+02 -0.23390370764E+02  0.29752645123E+02  0.44044524845E+02  0.00000000000E+00 0.  1.
        -13    1    3    3    0    0  0.20571015561E+02  0.19369528028E+02  0.10229682162E+01  0.28273516959E+02  0.00000000000E+00 0. -1.
         13    1    3    3    0    0 -0.26064236612E+02  0.33507034848E+02 -0.13853061875E+03  0.14488891658E+03  0.00000000000E+00 0.  1.
         21    1    1    2  502  501  0.26092438266E+02 -0.37183152284E+01  0.21634847565E+02  0.34098501902E+02  0.00000000000E+00 0.  1.
<scales pt_clust_5="13000.00000" pt_clust_6="13000.00000" pt_clust_7="13000.00000" pt_clust_8="13000.00000" pt_clust_9="26.35605"></scales>
<clustering>
<clus scale="   26.356">  1  9  2 -1</clus>
<clus scale="   90.834">  7  8 -1 -1</clus>
<clus scale="   92.863">  5  6 -1 -1</clus>
<clus scale="  105.076">  2  7  1 -1</clus>
<clus scale="   26.356">  1  5  2 -1</clus>
</clustering>
</event>
<event>
 9    1  0.1782981E-005  0.1052606E+03  0.7546771E-02  0.1269716E+00
         -1   -1    0    0    0  501 -0.00000000000E+00  0.00000000000E+00  0.16639849319E+03  0.16639849319E+03  0.00000000000E+00 0.  1.
          1   -1    0    0  502    0  0.00000000000E+00 -0.00000000000E+00 -0.11731722173E+03  0.11731722173E+03  0.00000000000E+00 0. -1.
         23    2    1    2    0    0 -0.40693025198E+02 -0.16125214518E+02  0.55174204583E+02  0.11477653804E+03  0.90628450221E+02 0.  0.
         23    2    1    2    0    0  0.56303181548E+02  0.34909268481E+02  0.37850219597E+02  0.11866474665E+03  0.90884419431E+02 0.  0.
        -11    1    3    3    0    0 -0.40389798351E+02 -0.36263204716E+02  0.70851328219E+02  0.89253944101E+02  0.00000000000E+00 0.  1.
         11    1    3    3    0    0 -0.30322684696E+00  0.20137990198E+02 -0.15677123636E+02  0.25522593937E+02  0.00000000000E+00 0. -1.
        -13    1    4    4    0    0  0.16052817282E+02 -0.22757075075E+02 -0.14116958002E+02  0.31222842790E+02  0.00000000000E+00 0.  1.
         13    1    4    4    0    0  0.40250364266E+02  0.57666343557E+02  0.51967177599E+02  0.87441903858E+02  0.00000000000E+00 0. -1.
         21    1    1    2  502  501 -0.15610156350E+02 -0.18784053963E+02 -0.43943152715E+02  0.50274430231E+02  0.00000000000E+00 0. -1.
<scales pt_clust_5="13000.00000" pt_clust_6="13000.00000" pt_clust_7="13000.00000" pt_clust_8="13000.00000" pt_clust_9="24.42371"></scales>
<clustering>
<clus scale="   24.424">  2  9  1 -1</clus>
<clus scale="   90.628">  5  6 -1 -1</clus>
<clus scale="   90.884">  7  8 -1 -1</clus>
<clus scale="  105.040">  1  5  2 -1</clus>
<clus scale="   24.424">  2  5  1 -1</clus>
</clustering>
</event>
<event>
 9    1  0.1782981E-005  0.1283382E+03  0.7546771E-02  0.1230257E+00
         -2   -1    0    0    0  501 -0.00000000000E+00  0.00000000000E+00  0.74696541324E+03  0.74696541324E+03  0.00000000000E+00 0.  1.
          2   -1    0    0  502    0  0.00000000000E+00 -0.00000000000E+00 -0.79634478717E+02  0.79634478717E+02  0.00000000000E+00 0. -1.
         23    2    1    2    0    0 -0.92691861034E+02  0.17566249490E+02  0.59352373018E+03  0.60773383877E+03  0.90386095610E+02 0.  0.
         23    2    1    2    0    0  0.65101791040E+02 -0.44883224222E+02  0.11166975576E+03  0.16463504849E+03  0.91552268285E+02 0.  0.
        -11    1    4    4    0    0  0.71828402776E+02 -0.65856860558E+02  0.80119250676E+02  0.12615680662E+03  0.00000000000E+00 0.  1.
         11    1    4    4    0    0 -0.67266117367E+01  0.20973636336E+02  0.31550505083E+02  0.38478241872E+02  0.00000000000E+00 0. -1.
        -13    1    3    3    0    0 -0.22198929281E+02 -0.35235383611E+02  0.15819410345E+03  0.16358392063E+03  0.00000000000E+00 0.  1.
         13    1    3    3    0    0 -0.70492931754E+02  0.52801633101E+02  0.43532962672E+03  0.44414991815E+03  0.00000000000E+00 0. -1.
         21    1    1    2  502  501  0.27590069994E+02  0.27316974731E+02 -0.37862551412E+02  0.54231004694E+02  0.00000000000E+00 0. -1.
<scales pt_clust_5="13000.00000" pt_clust_6="13000.00000" pt_clust_7="13000.00000" pt_clust_8="13000.00000" pt_clust_9="38.82562"></scales>
<clustering>
<clus scale="   38.826">  2  9  1 -1</clus>
<clus scale="   90.386">  7  8 -1 -1</clus>
<clus scale="   91.552">  5  6 -1 -1</clus>
<clus scale="  127.509">  1  7  2 -1</clus>
<clus scale="   38.826">  2  5  1 -1</clus>
</clustering>
</event>
<event>
 9    1  0.1782981E-005  0.1273169E+03  0.7546771E-02  0.1231666E+00
         -1   -1    0    0    0  501 -0.00000000000E+00  0.00000000000E+00  0.44929780380E+03  0.44929780380E+03  0.00000000000E+00 0.  1.
          1   -1    0    0  502    0  0.00000000000E+00 -0.00000000000E+00 -0.73674940249E+02  0.73674940249E+02  0.00000000000E+00 0. -1.
         23    2    1    2    0    0  0.83682003145E+02 -0.61392517051E+02  0.33425611342E+03  0.36167538363E+03  0.91160380468E+02 0.  0.
         23    2    1    2    0    0 -0.75651386873E+02  0.41026823389E+02  0.13163469768E+02  0.12559473727E+03  0.90523082810E+02 0.  0.
        -11    1    4    4    0    0  0.82948736961E+01  0.39938997379E+02  0.72772353817E+01  0.41435330288E+02  0.00000000000E+00 0. -1.
         11    1    4    4    0    0 -0.83946260570E+02  0.10878260101E+01  0.58862343862E+01  0.84159406986E+02  0.00000000000E+00 0.  1.
        -13    1    3    3    0    0  0.32797507996E+01  0.20228597771E+02  0.83615636166E+02  0.86090229089E+02  0.00000000000E+00 0. -1.
         13    1    3    3    0    0  0.80402252345E+02 -0.81621114822E+02  0.25064047725E+03  0.27558515454E+03  0.00000000000E+00 0.  1.
         21    1    1    2  502  501 -0.80306162714E+01  0.20365693662E+02  0.28203280365E+02  0.35702623144E+02  0.00000000000E+00 0. -1.
<scales pt_clust_5="13000.00000" pt_clust_6="13000.00000" pt_clust_7="13000.00000" pt_clust_8="13000.00000" pt_clust_9="21.89183"></scales>
<clustering>
<clus scale="   21.892">  1  9  2 -1</clus>
<clus scale="   90.523">  5  6 -1 -1</clus>
<clus scale="   91.160">  7  8 -1 -1</clus>
<clus scale="  126.861">  2  5  1 -1</clus>
<clus scale="  126.861">  2  5  1 -1</clus>
</clustering>
</event>
<event>
 9    1  0.1782981E-005  0.1339521E+03  0.7546771E-02  0.1222315E+00
         -2   -1    0    0    0  501 -0.00000000000E+00  0.00000000000E+00  0.79509757361E+02  0.79509757361E+02  0.00000000000E+00 0.  1.
          2   -1    0    0  502    0  0.00000000000E+00 -0.00000000000E+00 -0.51961421167E+03  0.51961421167E+03  0.00000000000E+00 0. -1.
         23    2    1    2    0    0  0.54963689794E+02 -0.11049662242E+03 -0.76934684145E+02  0.17128385369E+03  0.90491447929E+02 0.  0.
         23    2    1    2    0    0 -0.84498067641E+02  0.41403292487E+02 -0.30619662263E+03  0.33354214476E+03  0.92950710370E+02 0.  0.
        -13    1    4    4    0    0 -0.58335369880E+01  0.20906226243E+02 -0.59788155536E+01  0.22513255761E+02  0.00000000000E+00 0.  1.
         13    1    4    4    0    0 -0.78664530653E+02  0.20497066244E+02 -0.30021780707E+03  0.31102888900E+03  0.00000000000E+00 0. -1.
        -13    1    3    3    0    0  0.67903149843E+02 -0.93474380886E+02 -0.89800257506E+02  0.14632970952E+03  0.00000000000E+00 0. -1.
         13    1    3    3    0    0 -0.12939460049E+02 -0.17022241533E+02  0.12865573361E+02  0.24954144167E+02  0.00000000000E+00 0.  1.
         21    1    1    2  502  501  0.29534377847E+02  0.69093329931E+02 -0.56973147537E+02  0.94297970583E+02  0.00000000000E+00 0. -1.
<scales pt_clust_5="13000.00000" pt_clust_6="13000.00000" pt_clust_7="13000.00000" pt_clust_8="13000.00000" pt_clust_9="75.14099"></scales>
<clustering>
<clus scale="   75.141">  1  9  2 -1</clus>
<clus scale="   90.491">  7  8 -1 -1</clus>
<clus scale="   92.951">  5  6 -1 -1</clus>
<clus scale="  132.257">  1  7  2 -1</clus>
<clus scale="  133.952">  2  5  1 -1</clus>
</clustering>
</event>
<event>
 9    1  0.1782981E-005  0.1670638E+03  0.7546771E-02  0.1194923E+00
          1   -1    0    0  502    0  0.00000000000E+00  0.00000000000E+00  0.24215744267E+03  0.24215744267E+03  0.00000000000E+00 0. -1.
         -1   -1    0    0    0  501 -0.00000000000E+00 -0.00000000000E+00 -0.28429538256E+03  0.28429538256E+03  0.00000000000E+00 0.  1.
         23    2    1    2    0    0  0.41814487102E+02  0.69832895429E+02 -0.99150503834E+02  0.15762758819E+03  0.91599942861E+02 0.  0.
         23    2    1    2    0    0 -0.16210785512E+03 -0.10697653851E+03 -0.28186653980E+02  0.21680862167E+03  0.92133351650E+02 0.  0.
        -11    1    4    4    0    0 -0.36471996178E+02 -0.67822105266E+02 -0.35948142831E+02  0.84984195242E+02  0.00000000000E+00 0. -1.
         11    1    4    4    0    0 -0.12563585894E+03 -0.39154433243E+02  0.77614888511E+01  0.13182442643E+03  0.00000000000E+00 0.  1.
        -13    1    3    3    0    0  0.69171759317E+02  0.34012207805E+02 -0.68503639588E+02  0.10312279672E+03  0.00000000000E+00 0. -1.
         13    1    3    3    0    0 -0.27357272215E+02  0.35820687623E+02 -0.30646864245E+02  0.54504791467E+02  0.00000000000E+00 0.  1.
         21    1    1    2  502  501  0.12029336802E+03  0.37143643081E+02  0.85199217925E+02  0.15201661536E+03  0.00000000000E+00 0. -1.
<scales pt_clust_5="13000.00000" pt_clust_6="13000.00000" pt_clust_7="13000.00000" pt_clust_8="13000.00000" pt_clust_9="139.36193"></scales>
<clustering>
<clus scale="   91.600">  7  8 -1 -1</clus>
<clus scale="   92.133">  5  6 -1 -1</clus>
<clus scale="  122.538">  2  7  1 -1</clus>
<clus scale="  139.362">  1  9  2 -1</clus>
<clus scale="  139.362">  1  5  2 -1</clus>
</clustering>
</event>
<event>
 9    1  0.1782981E-005  0.1390701E+03  0.7546771E-02  0.1214649E+00
         -1   -1    0    0    0  501 -0.00000000000E+00  0.00000000000E+00  0.45760841577E+03  0.45760841577E+03  0.00000000000E+00 0.  1.
          1   -1    0    0  502    0  0.00000000000E+00 -0.00000000000E+00 -0.22929649696E+03  0.22929649696E+03  0.00000000000E+00 0. -1.
         23    2    1    2    0    0  0.75445116893E+01  0.11370026916E+03  0.33800495986E+03  0.36835244470E+03  0.91932038832E+02 0.  0.
         23    2    1    2    0    0 -0.24578435304E+01 -0.80458875659E+02  0.66414625472E+02  0.13926282906E+03  0.92214757022E+02 0.  0.
        -13    1    4    4    0    0  0.38522464834E+02 -0.20840280133E+02  0.47240628051E+02  0.64420295805E+02  0.00000000000E+00 0. -1.
         13    1    4    4    0    0 -0.40980308365E+02 -0.59618595527E+02  0.19173997421E+02  0.74842533251E+02  0.00000000000E+00 0.  1.
        -13    1    3    3    0    0  0.27068008279E+02  0.64292233783E+01  0.13583635135E+03  0.13865614423E+03  0.00000000000E+00 0. -1.
         13    1    3    3    0    0 -0.19523496590E+02  0.10727104578E+03  0.20216860852E+03  0.22969630047E+03  0.00000000000E+00 0.  1.
         21    1    1    2  502  501 -0.50866681590E+01 -0.33241393501E+02 -0.17610766652E+03  0.17928963897E+03  0.00000000000E+00 0. -1.
<scales pt_clust_5="13000.00000" pt_clust_6="13000.00000" pt_clust_7="13000.00000" pt_clust_8="13000.00000" pt_clust_9="33.62833"></scales>
<clustering>
<clus scale="   33.628">  2  9  1 -1</clus>
<clus scale="   91.932">  7  8 -1 -1</clus>
<clus scale="   92.215">  5  6 -1 -1</clus>
<clus scale="  138.883">  1  7  2 -1</clus>
<clus scale="   33.628">  2  5  1 -1</clus>
</clustering>
</event>
<event>
 9    1  0.1782981E-005  0.9795211E+02  0.7546771E-02  0.1287233E+00
          2   -1    0    0  502    0  0.00000000000E+00  0.00000000000E+00  0.33266913015E+03  0.33266913015E+03  0.00000000000E+00 0. -1.
         -2   -1    0    0    0  501 -0.00000000000E+00 -0.00000000000E+00 -0.10840694885E+03  0.10840694885E+03  0.00000000000E+00 0.  1.
         23    2    1    2    0    0  0.10865115582E+02  0.29229642595E+02 -0.67811422474E+02  0.11922432440E+03  0.92971112542E+02 0.  0.
         23    2    1    2    0    0  0.12019305628E+02 -0.33782785998E+02  0.14811890392E+03  0.17601834465E+03  0.88076714380E+02 0.  0.
        -11    1    3    3    0    0 -0.27481045820E+02 -0.11714892873E+01  0.83070233409E+01  0.28733028091E+02  0.00000000000E+00 0. -1.
         11    1    3    3    0    0  0.38346161402E+02  0.30401131882E+02 -0.76118445815E+02  0.90491296306E+02  0.00000000000E+00 0.  1.
        -11    1    4    4    0    0 -0.31841164257E+02 -0.10335429865E+02  0.10495697872E+03  0.11016645693E+03  0.00000000000E+00 0.  1.
         11    1    4    4    0    0  0.43860469885E+02 -0.23447356133E+02  0.43161925206E+02  0.65851887715E+02  0.00000000000E+00 0. -1.
         21    1    1    2  502  501 -0.22884421210E+02  0.45531434033E+01  0.14395469985E+03  0.14583340995E+03  0.00000000000E+00 0.  1.
<scales pt_clust_5="13000.00000" pt_clust_6="13000.00000" pt_clust_7="13000.00000" pt_clust_8="13000.00000" pt_clust_9="23.33298"></scales>
<clustering>
<clus scale="   23.333">  1  9  2 -1</clus>
<clus scale="   88.077">  7  8 -1 -1</clus>
<clus scale="   92.971">  5  6 -1 -1</clus>
<clus scale="   93.319">  1  7  2 -1</clus>
<clus scale="   23.333">  1  5  2 -1</clus>
</clustering>
</event>
<event>
 9    1  0.1782981E-005  0.1165592E+03  0.7546771E-02  0.1249258E+00
         -1   -1    0    0    0  501 -0.00000000000E+00  0.00000000000E+00  0.17714222080E+03  0.17714222080E+03  0.00000000000E+00 0.  1.
          1   -1    0    0  502    0  0.00000000000E+00 -0.00000000000E+00 -0.25604035849E+03  0.25604035849E+03  0.00000000000E+00 0. -1.
         23    2    1    2    0    0  0.55108970704E+02 -0.32957415073E+02  0.69031089075E+02  0.12983001366E+03  0.89260020887E+02 0.  0.
         23    2    1    2    0    0 -0.68825636019E+02  0.59486699172E+02  0.22611349480E+02  0.13021667112E+03  0.90385135720E+02 0.  0.
        -11    1    3    3    0    0  0.31500504183E+02 -0.42671396873E+02 -0.32845559665E+01  0.53140551209E+02  0.00000000000E+00 0. -1.
         11    1    3    3    0    0  0.23608466521E+02  0.97139818005E+01  0.72315645041E+02  0.76689462455E+02  0.00000000000E+00 0.  1.
        -11    1    4    4    0    0  0.22193468088E+02  0.13478046175E+02  0.11164907990E+01  0.25989503770E+02  0.00000000000E+00 0. -1.
         11    1    4    4    0    0 -0.91019104108E+02  0.46008652997E+02  0.21494858681E+02  0.10422716735E+03  0.00000000000E+00 0.  1.
         21    1    1    2  502  501  0.13716665315E+02 -0.26529284100E+02 -0.17054057624E+03  0.17313589451E+03  0.00000000000E+00 0. -1.
<scales pt_clust_5="13000.00000" pt_clust_6="13000.00000" pt_clust_7="13000.00000" pt_clust_8="13000.00000" pt_clust_9="29.86553"></scales>
<clustering>
<clus scale="   29.866">  2  9  1 -1</clus>
<clus scale="   89.260">  5  6 -1 -1</clus>
<clus scale="   90.385">  7  8 -1 -1</clus>
<clus scale="  115.689">  1  5  2 -1</clus>
<clus scale="   29.866">  2  5  1 -1</clus>
</clustering>
</event>
<event>
 9    1  0.1782981E-005  0.1008761E+03  0.7546771E-02  0.1279148E+00
         -1   -1    0    0    0  501 -0.00000000000E+00  0.00000000000E+00  0.19785493852E+03  0.19785493852E+03  0.00000000000E+00 0.  1.
          1   -1    0    0  502    0  0.00000000000E+00 -0.00000000000E+00 -0.22399171564E+03  0.22399171564E+03  0.00000000000E+00 0. -1.
         23    2    1    2    0    0 -0.19691148713E+02 -0.22308879832E+02  0.97434253826E+02  0.13619138982E+03  0.90383811524E+02 0.  0.
         23    2    1    2    0    0 -0.96708226375E+01  0.10172724394E+03 -0.18633162586E+01  0.13739141260E+03  0.91820320950E+02 0.  0.
        -11    1    3    3    0    0 -0.21200149662E+02 -0.44019143333E+02  0.10276243939E+03  0.11378598452E+03  0.00000000000E+00 0.  1.
         11    1    3    3    0    0  0.15090009492E+01  0.21710263501E+02 -0.53281855601E+01  0.22405405297E+02  0.00000000000E+00 0. -1.
        -13    1    4    4    0    0  0.40719626038E+02  0.56546309256E+02  0.14604039685E+00  0.69682094995E+02  0.00000000000E+00 0. -1.
         13    1    4    4    0    0 -0.50390448676E+02  0.45180934682E+02 -0.20093566555E+01  0.67709317606E+02  0.00000000000E+00 0.  1.
         21    1    1    2  502  501  0.29361971351E+02 -0.79418364106E+02 -0.12170771469E+03  0.14826385174E+03  0.00000000000E+00 0. -1.
<scales pt_clust_5="13000.00000" pt_clust_6="13000.00000" pt_clust_7="13000.00000" pt_clust_8="13000.00000" pt_clust_9="84.67232"></scales>
<clustering>
<clus scale="   84.672">  2  9  1 -1</clus>
<clus scale="   90.384">  5  6 -1 -1</clus>
<clus scale="   91.820">  7  8 -1 -1</clus>
<clus scale="   99.570">  1  5  2 -1</clus>
<clus scale="   84.672">  2  5  1 -1</clus>
</clustering>
</event>
<event>
 9    1  0.1782981E-005  0.2705519E+03  0.7546771E-02  0.1100986E+00
          1   -1    0    0  502    0  0.00000000000E+00  0.00000000000E+00  0.82518814514E+02  0.82518814514E+02  0.00000000000E+00 0. -1.
         -1   -1    0    0    0  501 -0.00000000000E+00 -0.00000000000E+00 -0.12832762907E+04  0.12832762907E+04  0.00000000000E+00 0.  1.
         23    2    1    2    0    0  0.16596837633E+03  0.19381068354E+03 -0.77990735594E+03  0.82550624213E+03  0.89983270325E+02 0.  0.
         23    2    1    2    0    0 -0.14564841942E+03 -0.20995607941E+03 -0.43361526819E+03  0.51136614788E+03  0.90432953212E+02 0.  0.
        -11    1    3    3    0    0  0.76061614993E+02  0.14686184997E+03 -0.41434353350E+03  0.44613264395E+03  0.00000000000E+00 0. -1.
         11    1    3    3    0    0  0.89906761338E+02  0.46948833576E+02 -0.36556382245E+03  0.37937359817E+03  0.00000000000E+00 0.  1.
        -11    1    4    4    0    0  0.10088438050E+02 -0.29853802069E+02 -0.69543285537E+02  0.76349817573E+02  0.00000000000E+00 0.  1.
         11    1    4    4    0    0 -0.15573685747E+03 -0.18010227734E+03 -0.36407198266E+03  0.43501633031E+03  0.00000000000E+00 0. -1.
         21    1    1    2  502  501 -0.20319956912E+02  0.16145395865E+02  0.12765147905E+02  0.28922715252E+02  0.00000000000E+00 0. -1.
<scales pt_clust_5="13000.00000" pt_clust_6="13000.00000" pt_clust_7="13000.00000" pt_clust_8="13000.00000" pt_clust_9="25.95331"></scales>
<clustering>
<clus scale="   25.953">  1  9  2 -1</clus>
<clus scale="   89.983">  5  6 -1 -1</clus>
<clus scale="   90.433">  7  8 -1 -1</clus>
<clus scale="  270.402">  2  5  1 -1</clus>
<clus scale="   25.953">  1  5  2 -1</clus>
</clustering>
</event>
<event>
 9    1  0.1782981E-005  0.1160818E+03  0.7546771E-02  0.1256407E+00
          2   -1    0    0  502    0  0.00000000000E+00  0.00000000000E+00  0.42582550069E+03  0.42582550069E+03  0.00000000000E+00 0. -1.
         -2   -1    0    0    0  501 -0.00000000000E+00 -0.00000000000E+00 -0.55769051895E+02  0.55769051895E+02  0.00000000000E+00 0.  1.
         23    2    1    2    0    0 -0.57842017541E+01  0.39089292634E+02  0.46874452288E+02  0.11162590024E+03  0.93282889853E+02 0.  0.
         23    2    1    2    0    0 -0.45144108127E+02 -0.40187188988E+02  0.18793854399E+03  0.22544983152E+03  0.10887483436E+03 0.  0.
        -11    1    4    4    0    0  0.17135365877E+02  0.27590586103E+02  0.48645091288E+02  0.58491077197E+02  0.00000000000E+00 0.  1.
         11    1    4    4    0    0 -0.62279474004E+02 -0.67777775091E+02  0.13929345270E+03  0.16695875432E+03  0.00000000000E+00 0. -1.
        -11    1    3    3    0    0 -0.30549276990E+02  0.43971074781E+02  0.62220053606E+02  0.82085618793E+02  0.00000000000E+00 0.  1.
         11    1    3    3    0    0  0.24765075236E+02 -0.48817821467E+01 -0.15345601318E+02  0.29540281450E+02  0.00000000000E+00 0. -1.
         21    1    1    2  502  501  0.50928309881E+02  0.10978963537E+01  0.13524345251E+03  0.14451882082E+03  0.00000000000E+00 0. -1.
<scales pt_clust_5="13000.00000" pt_clust_6="13000.00000" pt_clust_7="13000.00000" pt_clust_8="13000.00000" pt_clust_9="50.94014"></scales>
<clustering>
<clus scale="   50.940">  1  9  2 -1</clus>
<clus scale="   93.283">  7  8 -1 -1</clus>
<clus scale="  101.602">  2  7  1 -1</clus>
<clus scale="  108.875">  5  6 -1 -1</clus>
<clus scale="   50.940">  1  5  2 -1</clus>
</clustering>
</event>
<event>
 9    1  0.1782981E-005  0.1094494E+03  0.7546771E-02  0.1264407E+00
         -1   -1    0    0    0  501 -0.00000000000E+00  0.00000000000E+00  0.44581402545E+02  0.44581402545E+02  0.00000000000E+00 0.  1.
          1   -1    0    0  502    0  0.00000000000E+00 -0.00000000000E+00 -0.32559149747E+03  0.32559149747E+03  0.00000000000E+00 0. -1.
         23    2    1    2    0    0 -0.65725161156E+01  0.47258046049E+02 -0.11919040640E+03  0.15363790826E+03  0.84390360779E+02 0.  0.
         23    2    1    2    0    0  0.12459262070E+02 -0.72241459909E+02 -0.12233813133E+03  0.16944339904E+03  0.91489810135E+02 0.  0.
        -11    1    4    4    0    0  0.22837332563E+02 -0.45129575014E+02 -0.76694626004E+01  0.51157042096E+02  0.00000000000E+00 0.  1.
         11    1    4    4    0    0 -0.10378070492E+02 -0.27111884896E+02 -0.11466866873E+03  0.11828635694E+03  0.00000000000E+00 0. -1.
        -13    1    3    3    0    0 -0.26093849716E+02  0.65236133365E+02 -0.90178998278E+02  0.11431926268E+03  0.00000000000E+00 0. -1.
         13    1    3    3    0    0  0.19521333600E+02 -0.17978087315E+02 -0.29011408118E+02  0.39318645577E+02  0.00000000000E+00 0.  1.
         21    1    1    2  502  501 -0.58867459547E+01  0.24983413860E+02 -0.39481557193E+02  0.47091592714E+02  0.00000000000E+00 0. -1.
<scales pt_clust_5="13000.00000" pt_clust_6="13000.00000" pt_clust_7="13000.00000" pt_clust_8="13000.00000" pt_clust_9="25.66758"></scales>
<clustering>
<clus scale="   25.668">  2  9  1 -1</clus>
<clus scale="   84.390">  7  8 -1 -1</clus>
<clus scale="   91.490">  5  6 -1 -1</clus>
<clus scale="  103.588">  1  7  2 -1</clus>
<clus scale="   25.668">  2  5  1 -1</clus>
</clustering>
</event>
<event>
 9    1  0.1782981E-005  0.1217786E+03  0.7546771E-02  0.1240532E+00
         -2   -1    0    0    0  501 -0.00000000000E+00  0.00000000000E+00  0.84963611298E+02  0.84963611298E+02  0.00000000000E+00 0.  1.
          2   -1    0    0  502    0  0.00000000000E+00 -0.00000000000E+00 -0.43046789351E+03  0.43046789351E+03  0.00000000000E+00 0. -1.
         23    2    1    2    0    0  0.18460343239E+02  0.54826351669E+02  0.25462039727E+02  0.11213444187E+03  0.92623455326E+02 0.  0.
         23    2    1    2    0    0 -0.21592796208E+02 -0.79440390923E+02 -0.34930339061E+03  0.37035854773E+03  0.91518143731E+02 0.  0.
        -13    1    4    4    0    0 -0.57514055090E+02 -0.46987714908E+02 -0.22612603586E+03  0.23800986530E+03  0.00000000000E+00 0. -1.
         13    1    4    4    0    0  0.35921258882E+02 -0.32452676016E+02 -0.12317735475E+03  0.13234868244E+03  0.00000000000E+00 0.  1.
        -13    1    3    3    0    0 -0.33649849159E+02  0.17579463121E+02 -0.95348488205E+01  0.39144133840E+02  0.00000000000E+00 0. -1.
         13    1    3    3    0    0  0.52110192398E+02  0.37246888549E+02  0.34996888547E+02  0.72990308030E+02  0.00000000000E+00 0.  1.
         21    1    1    2  502  501  0.31324529690E+01  0.24614039254E+02 -0.21662931336E+02  0.32938515207E+02  0.00000000000E+00 0.  1.
<scales pt_clust_5="13000.00000" pt_clust_6="13000.00000" pt_clust_7="13000.00000" pt_clust_8="13000.00000" pt_clust_9="24.81256"></scales>
<clustering>
<clus scale="   24.813">  1  9  2 -1</clus>
<clus scale="   91.518">  5  6 -1 -1</clus>
<clus scale="   92.623">  7  8 -1 -1</clus>
<clus scale="  120.940">  2  5  1 -1</clus>
<clus scale="  120.940">  2  5  1 -1</clus>
</clustering>
</event>
<event>
 9    1  0.1782981E-005  0.1230565E+03  0.7546771E-02  0.1238244E+00
         -1   -1    0    0    0  501 -0.00000000000E+00  0.00000000000E+00  0.97185888733E+02  0.97185888733E+02  0.00000000000E+00 0.  1.
          1   -1    0    0  502    0  0.00000000000E+00 -0.00000000000E+00 -0.22172965363E+03  0.22172965363E+03  0.00000000000E+00 0. -1.
         23    2    1    2    0    0  0.89523463807E+02  0.19597458128E+02 -0.43923245202E+01  0.12909586986E+03  0.90818170881E+02 0.  0.
         23    2    1    2    0    0 -0.69460831891E+02  0.62609363340E+01 -0.93777838645E+02  0.14778715376E+03  0.90458572319E+02 0.  0.
        -11    1    4    4    0    0 -0.50186614217E+02  0.12822457907E+02 -0.11011019735E+03  0.12168552598E+03  0.00000000000E+00 0. -1.
         11    1    4    4    0    0 -0.19274217674E+02 -0.65615215731E+01  0.16332358700E+02  0.26101627785E+02  0.00000000000E+00 0.  1.
        -13    1    3    3    0    0  0.86620139435E+02 -0.18784576959E+02  0.71210418051E+01  0.88919166234E+02  0.00000000000E+00 0.  1.
         13    1    3    3    0    0  0.29033243721E+01  0.38382035088E+02 -0.11513366325E+02  0.40176703623E+02  0.00000000000E+00 0. -1.
         21    1    1    2  502  501 -0.20062631917E+02 -0.25858394462E+02 -0.26373601733E+02  0.42032518744E+02  0.00000000000E+00 0.  1.
<scales pt_clust_5="13000.00000" pt_clust_6="13000.00000" pt_clust_7="13000.00000" pt_clust_8="13000.00000" pt_clust_9="32.72867"></scales>
<clustering>
<clus scale="   32.729">  2  9  1 -1</clus>
<clus scale="   90.459">  5  6 -1 -1</clus>
<clus scale="   90.818">  7  8 -1 -1</clus>
<clus scale="  122.791">  2  5  1 -1</clus>
<clus scale="   32.729">  2  5  1 -1</clus>
</clustering>
</event>
<event>
 9    1  0.1782981E-005  0.1363533E+03  0.7546771E-02  0.1227570E+00
         -1   -1    0    0    0  501 -0.00000000000E+00  0.00000000000E+00  0.35568147682E+02  0.35568147682E+02  0.00000000000E+00 0.  1.
          1   -1    0    0  502    0  0.00000000000E+00 -0.00000000000E+00 -0.68306609898E+03  0.68306609898E+03  0.00000000000E+00 0. -1.
         23    2    1    2    0    0 -0.70876693703E+02 -0.46360876157E+02 -0.22822287085E+03  0.27071806955E+03  0.11844727879E+03 0.  0.
         23    2    1    2    0    0  0.41263459024E+02  0.34028094011E+02 -0.19409447645E+03  0.22046212549E+03  0.89834841535E+02 0.  0.
        -11    1    4    4    0    0  0.17640002275E+02 -0.22594168742E+02 -0.17668090808E+02  0.33672356232E+02  0.00000000000E+00 0.  1.
         11    1    4    4    0    0  0.23623456749E+02  0.56622262753E+02 -0.17642638564E+03  0.18678976926E+03  0.00000000000E+00 0. -1.
        -11    1    3    3    0    0 -0.98955098722E+02 -0.11397257634E+02 -0.14089402432E+03  0.17254893548E+03  0.00000000000E+00 0. -1.
         11    1    3    3    0    0  0.28078405019E+02 -0.34963618523E+02 -0.87328846530E+02  0.98169134074E+02  0.00000000000E+00 0.  1.
         21    1    1    2  502  501  0.29613234678E+02  0.12332782146E+02 -0.22518060400E+03  0.22745405163E+03  0.00000000000E+00 0. -1.
<scales pt_clust_5="13000.00000" pt_clust_6="13000.00000" pt_clust_7="13000.00000" pt_clust_8="13000.00000" pt_clust_9="32.07867"></scales>
<clustering>
<clus scale="   32.079">  2  9  1 -1</clus>
<clus scale="   89.835">  5  6 -1 -1</clus>
<clus scale="  112.396">  2  5  1 -1</clus>
<clus scale="  118.447">  7  8 -1 -1</clus>
<clus scale="   32.079">  2  5  1 -1</clus>
</clustering>
</event>
<event>
 9    1  0.1782981E-005  0.1141989E+03  0.7546771E-02  0.1256017E+00
          1   -1    0    0  502    0  0.00000000000E+00  0.00000000000E+00  0.22764255097E+03  0.22764255097E+03  0.00000000000E+00 0. -1.
         -1   -1    0    0    0  501 -0.00000000000E+00 -0.00000000000E+00 -0.11049567490E+03  0.11049567490E+03  0.00000000000E+00 0.  1.
         23    2    1    2    0    0 -0.53546172662E+01 -0.28475618515E+02  0.24199435319E+02  0.10531559324E+03  0.98316980905E+02 0.  0.
         23    2    1    2    0    0  0.41292517116E+02  0.94787278465E+02  0.51297762915E+02  0.14666310294E+03  0.90492569620E+02 0.  0.
        -11    1    3    3    0    0 -0.38273534688E+02 -0.42121432395E+02  0.36506488573E+02  0.67615103583E+02  0.00000000000E+00 0. -1.
         11    1    3    3    0    0  0.32918917422E+02  0.13645813881E+02 -0.12307053254E+02  0.37700489659E+02  0.00000000000E+00 0.  1.
        -11    1    4    4    0    0  0.33598875463E+02  0.43045034544E+01  0.44045702250E+02  0.55564710645E+02  0.00000000000E+00 0. -1.
         11    1    4    4    0    0  0.76936416527E+01  0.90482775010E+02  0.72520606644E+01  0.91098392298E+02  0.00000000000E+00 0.  1.
         21    1    1    2  502  501 -0.35937899849E+02 -0.66311659950E+02  0.41649677836E+02  0.86159529681E+02  0.00000000000E+00 0. -1.
<scales pt_clust_5="13000.00000" pt_clust_6="13000.00000" pt_clust_7="13000.00000" pt_clust_8="13000.00000" pt_clust_9="75.42393"></scales>
<clustering>
<clus scale="   75.424">  1  9  2 -1</clus>
<clus scale="   90.493">  7  8 -1 -1</clus>
<clus scale="   98.317">  5  6 -1 -1</clus>
<clus scale="  107.536">  1  7  2 -1</clus>
<clus scale="   75.424">  1  5  2 -1</clus>
</clustering>
</event>
<event>
 9    1  0.1782981E-005  0.1082998E+03  0.7546771E-02  0.1264123E+00
          2   -1    0    0  502    0  0.00000000000E+00  0.00000000000E+00  0.22600940398E+03  0.22600940398E+03  0.00000000000E+00 0. -1.
         -2   -1    0    0    0  501 -0.00000000000E+00 -0.00000000000E+00 -0.13305268682E+03  0.13305268682E+03  0.00000000000E+00 0.  1.
         23    2    1    2    0    0 -0.62436254704E+02 -0.14759510489E+02 -0.77318297824E+02  0.13642618301E+03  0.92292227086E+02 0.  0.
         23    2    1    2    0    0  0.15614648273E+02  0.19454799394E+02  0.12903508696E+03  0.16006562547E+03  0.91370916223E+02 0.  0.
        -11    1    3    3    0    0 -0.60233066045E+02 -0.40766635892E+02 -0.23199562102E+02  0.76342390118E+02  0.00000000000E+00 0. -1.
         11    1    3    3    0    0 -0.22031886584E+01  0.26007125403E+02 -0.54118735722E+02  0.60083792890E+02  0.00000000000E+00 0.  1.
        -13    1    4    4    0    0 -0.37086963285E+02  0.74385836307E+01  0.72942453073E+02  0.82166762334E+02  0.00000000000E+00 0.  1.
         13    1    4    4    0    0  0.52701611558E+02  0.12016215763E+02  0.56092633888E+02  0.77898863141E+02  0.00000000000E+00 0. -1.
         21    1    1    2  502  501  0.46821606431E+02 -0.46952889047E+01  0.41239928023E+02  0.62570282323E+02  0.00000000000E+00 0. -1.
<scales pt_clust_5="13000.00000" pt_clust_6="13000.00000" pt_clust_7="13000.00000" pt_clust_8="13000.00000" pt_clust_9="47.05644"></scales>
<clustering>
<clus scale="   47.056">  1  9  2 -1</clus>
<clus scale="   91.371">  7  8 -1 -1</clus>
<clus scale="   92.292">  5  6 -1 -1</clus>
<clus scale="  107.516">  1  7  2 -1</clus>
<clus scale="   47.056">  1  5  2 -1</clus>
</clustering>
</event>
<event>
 9    1  0.1782981E-005  0.1709522E+03  0.7546771E-02  0.1178974E+00
         -2   -1    0    0    0  501 -0.00000000000E+00  0.00000000000E+00  0.98239703572E+02  0.98239703572E+02  0.00000000000E+00 0.  1.
          2   -1    0    0  502    0  0.00000000000E+00 -0.00000000000E+00 -0.33851392666E+03  0.33851392666E+03  0.00000000000E+00 0. -1.
         23    2    1    2    0    0  0.13602005037E+03  0.37157432454E+02 -0.79066848528E+02  0.19231601367E+03  0.10417175092E+03 0.  0.
         23    2    1    2    0    0 -0.12907267039E+03 -0.13423865009E+02 -0.13106609633E+03  0.20544986252E+03  0.90506187676E+02 0.  0.
        -11    1    4    4    0    0 -0.98329675655E+02 -0.43745098987E+02 -0.11935316869E+03  0.16070948222E+03  0.00000000000E+00 0. -1.
         11    1    4    4    0    0 -0.30742994734E+02  0.30321233977E+02 -0.11712927644E+02  0.44740380297E+02  0.00000000000E+00 0.  1.
        -11    1    3    3    0    0  0.13450021126E+03  0.69431975883E+01 -0.35506706124E+02  0.13928115810E+03  0.00000000000E+00 0.  1.
         11    1    3    3    0    0  0.15198391109E+01  0.30214234866E+02 -0.43560142404E+02  0.53034855574E+02  0.00000000000E+00 0. -1.
         21    1    1    2  502  501 -0.69473799779E+01 -0.23733567445E+02 -0.30141278229E+02  0.38987754045E+02  0.00000000000E+00 0. -1.
<scales pt_clust_5="13000.00000" pt_clust_6="13000.00000" pt_clust_7="13000.00000" pt_clust_8="13000.00000" pt_clust_9="24.72950"></scales>
<clustering>
<clus scale="   24.730">  2  9  1 -1</clus>
<clus scale="   90.506">  5  6 -1 -1</clus>
<clus scale="  104.172">  7  8 -1 -1</clus>
<clus scale="  162.985">  2  5  1 -1</clus>
<clus scale="   24.730">  2  5  1 -1</clus>
</clustering>
</event>
<event>
 9    1  0.1782981E-005  0.1407349E+03  0.7546771E-02  0.1213124E+00
         -3   -1    0    0    0  501 -0.00000000000E+00  0.00000000000E+00  0.25085342788E+03  0.25085342788E+03  0.00000000000E+00 0.  1.
          3   -1    0    0  502    0  0.00000000000E+00 -0.00000000000E+00 -0.11481288799E+03  0.11481288799E+03  0.00000000000E+00 0. -1.
         23    2    1    2    0    0 -0.10102780256E+03 -0.45074363756E+02  0.15313495697E+03  0.21096332509E+03  0.93898319101E+02 0.  0.
         23    2    1    2    0    0  0.88021654357E+02  0.26561729921E+02 -0.49569447923E+01  0.12902818336E+03  0.90390063985E+02 0.  0.
        -11    1    4    4    0    0 -0.39562735949E+01  0.33015969002E+02  0.11858279025E+02  0.35303329748E+02  0.00000000000E+00 0.  1.
         11    1    4    4    0    0  0.91977927952E+02 -0.64542390805E+01 -0.16815223818E+02  0.93724853611E+02  0.00000000000E+00 0. -1.
        -13    1    3    3    0    0 -0.71162761447E+02  0.18589784062E+02  0.64542625771E+02  0.97854326576E+02  0.00000000000E+00 0.  1.
         13    1    3    3    0    0 -0.29865041110E+02 -0.63664147818E+02  0.88592331196E+02  0.11310899851E+03  0.00000000000E+00 0. -1.
         21    1    1    2  502  501  0.13006148200E+02  0.18512633835E+02 -0.12137472284E+02  0.25674807418E+02  0.00000000000E+00 0.  1.
<scales pt_clust_5="13000.00000" pt_clust_6="13000.00000" pt_clust_7="13000.00000" pt_clust_8="13000.00000" pt_clust_9="22.62471"></scales>
<clustering>
<clus scale="   22.625">  2  9  1 -1</clus>
<clus scale="   90.390">  5  6 -1 -1</clus>
<clus scale="   93.898">  7  8 -1 -1</clus>
<clus scale="  138.419">  2  5  1 -1</clus>
<clus scale="   22.625">  2  5  1 -1</clus>
</clustering>
</event>
<event>
 9    1  0.1782981E-005  0.9799784E+02  0.7546771E-02  0.1284716E+00
         -1   -1    0    0    0  501 -0.00000000000E+00  0.00000000000E+00  0.38163580794E+02  0.38163580794E+02  0.00000000000E+00 0.  1.
          1   -1    0    0  502    0  0.00000000000E+00 -0.00000000000E+00 -0.60695631932E+03  0.60695631932E+03  0.00000000000E+00 0. -1.
         23    2    1    2    0    0 -0.33500538165E+02 -0.11512565152E+01 -0.56762119959E+02  0.11263258527E+03  0.91326609233E+02 0.  0.
         23    2    1    2    0    0  0.40121019884E+02  0.39407361845E+02 -0.39155718924E+03  0.40591240601E+03  0.91023142655E+02 0.  0.
        -11    1    3    3    0    0 -0.39197186723E+02  0.24528201470E+02  0.40095906169E+01  0.46412594533E+02  0.00000000000E+00 0.  1.
         11    1    3    3    0    0  0.56966485578E+01 -0.25679457986E+02 -0.60771710576E+02  0.66219990740E+02  0.00000000000E+00 0. -1.
        -13    1    4    4    0    0 -0.21171624408E+02  0.40200297366E+02 -0.15277864681E+03  0.15939139409E+03  0.00000000000E+00 0.  1.
         13    1    4    4    0    0  0.61292644293E+02 -0.79293552102E+00 -0.23877854243E+03  0.24652101191E+03  0.00000000000E+00 0. -1.
         21    1    1    2  502  501 -0.66204817191E+01 -0.38256105330E+02 -0.12047342933E+03  0.12657490884E+03  0.00000000000E+00 0. -1.
<scales pt_clust_5="13000.00000" pt_clust_6="13000.00000" pt_clust_7="13000.00000" pt_clust_8="13000.00000" pt_clust_9="38.82474"></scales>
<clustering>
<clus scale="   38.825">  2  9  1 -1</clus>
<clus scale="   91.023">  7  8 -1 -1</clus>
<clus scale="   91.327">  5  6 -1 -1</clus>
<clus scale="   97.715">  2  7  1 -1</clus>
<clus scale="   38.825">  2  5  1 -1</clus>
</clustering>
</event>
<event>
 9    1  0.1782981E-005  0.1107389E+03  0.7546771E-02  0.1266264E+00
         -1   -1    0    0    0  501 -0.00000000000E+00  0.00000000000E+00  0.41821965105E+03  0.41821965105E+03  0.00000000000E+00 0.  1.
          1   -1    0    0  502    0  0.00000000000E+00 -0.00000000000E+00 -0.63016488007E+02  0.63016488007E+02  0.00000000000E+00 0. -1.
         23    2    1    2    0    0 -0.26773374271E+02 -0.21752862690E+02  0.27578846046E+03  0.29300404472E+03  0.92747478120E+02 0.  0.
         23    2    1    2    0    0 -0.83529352602E-01 -0.23763456854E+02  0.26114520868E+02  0.11317253140E+03  0.10752369415E+03 0.  0.
        -11    1    3    3    0    0 -0.61403695177E+02 -0.11467050709E+02  0.18656818525E+03  0.19674754072E+03  0.00000000000E+00 0.  1.
         11    1    3    3    0    0  0.34630320905E+02 -0.10285811981E+02  0.89220275208E+02  0.96256504000E+02  0.00000000000E+00 0. -1.
        -11    1    4    4    0    0  0.12253892730E+01 -0.59275322377E+02 -0.12609869585E+02  0.60614142184E+02  0.00000000000E+00 0.  1.
         11    1    4    4    0    0 -0.13089186256E+01  0.35511865522E+02  0.38724390453E+02  0.52558389214E+02  0.00000000000E+00 0. -1.
         21    1    1    2  502  501  0.26856903624E+02  0.45516319544E+02  0.53300181716E+02  0.75059562935E+02  0.00000000000E+00 0. -1.
<scales pt_clust_5="13000.00000" pt_clust_6="13000.00000" pt_clust_7="13000.00000" pt_clust_8="13000.00000" pt_clust_9="52.84911"></scales>
<clustering>
<clus scale="   52.849">  2  9  1 -1</clus>
<clus scale="   92.747">  5  6 -1 -1</clus>
<clus scale="   96.457">  1  5  2 -1</clus>
<clus scale="  107.524">  7  8 -1 -1</clus>
<clus scale="   52.849">  2  5  1 -1</clus>
</clustering>
</event>
<event>
 9    1  0.1782981E-005  0.1008353E+03  0.7546771E-02  0.1280966E+00
          1   -1    0    0  502    0  0.00000000000E+00  0.00000000000E+00  0.45227415974E+02  0.45227415974E+02  0.00000000000E+00 0. -1.
         -1   -1    0    0    0  501 -0.00000000000E+00 -0.00000000000E+00 -0.35263428723E+03  0.35263428723E+03  0.00000000000E+00 0.  1.
         23    2    1    2    0    0 -0.14028035614E+02 -0.26469535174E+02 -0.19313585756E+03  0.21647551585E+03  0.93073988903E+02 0.  0.
         23    2    1    2    0    0  0.77748720117E+01  0.59870864447E+02 -0.84657249302E+02  0.13631151715E+03  0.88141992290E+02 0.  0.
        -11    1    3    3    0    0 -0.29226441042E+02  0.26670725246E+02 -0.10751889246E+03  0.11456799150E+03  0.00000000000E+00 0.  1.
         11    1    3    3    0    0  0.15198405429E+02 -0.53140260420E+02 -0.85616965102E+02  0.10190752435E+03  0.00000000000E+00 0. -1.
        -13    1    4    4    0    0  0.32454715321E+02  0.36490024314E+02 -0.89515321710E+02  0.10196971728E+03  0.00000000000E+00 0. -1.
         13    1    4    4    0    0 -0.24679843309E+02  0.23380840134E+02  0.48580724086E+01  0.34341799875E+02  0.00000000000E+00 0.  1.
         21    1    1    2  502  501  0.62531636018E+01 -0.33401329273E+02 -0.29613764394E+02  0.45074670202E+02  0.00000000000E+00 0.  1.
<scales pt_clust_5="13000.00000" pt_clust_6="13000.00000" pt_clust_7="13000.00000" pt_clust_8="13000.00000" pt_clust_9="33.98163"></scales>
<clustering>
<clus scale="   33.982">  1  9  2 -1</clus>
<clus scale="   88.142">  7  8 -1 -1</clus>
<clus scale="   93.074">  5  6 -1 -1</clus>
<clus scale="   96.302">  1  7  2 -1</clus>
<clus scale="   33.982">  1  5  2 -1</clus>
</clustering>
</event>
<event>
 9    1  0.1782981E-005  0.9505504E+02  0.7546771E-02  0.1291080E+00
          1   -1    0    0  502    0  0.00000000000E+00  0.00000000000E+00  0.19480507395E+03  0.19480507395E+03  0.00000000000E+00 0. -1.
         -1   -1    0    0    0  501 -0.00000000000E+00 -0.00000000000E+00 -0.16882374871E+03  0.16882374871E+03  0.00000000000E+00 0.  1.
         23    2    1    2    0    0 -0.13091398730E+00  0.27584379979E+02 -0.13384991026E+03  0.16441860059E+03  0.91415330146E+02 0.  0.
         23    2    1    2    0    0 -0.17647772615E+02 -0.96839134422E+01  0.12432628603E+03  0.15565439771E+03  0.91466081528E+02 0.  0.
        -13    1    4    4    0    0  0.21993465010E+02  0.30240995728E+02  0.49632893620E+02  0.62142211538E+02  0.00000000000E+00 0.  1.
         13    1    4    4    0    0 -0.39641237625E+02 -0.39924909170E+02  0.74693392411E+02  0.93512186172E+02  0.00000000000E+00 0. -1.
        -13    1    3    3    0    0 -0.16389685289E+02 -0.20750746364E+02 -0.99447805871E+02  0.10290326210E+03  0.00000000000E+00 0. -1.
         13    1    3    3    0    0  0.16258771302E+02  0.48335126343E+02 -0.34402104389E+02  0.61515338488E+02  0.00000000000E+00 0.  1.
         21    1    1    2  502  501  0.17778686603E+02 -0.17900466537E+02  0.35504949464E+02  0.43555824364E+02  0.00000000000E+00 0. -1.
<scales pt_clust_5="13000.00000" pt_clust_6="13000.00000" pt_clust_7="13000.00000" pt_clust_8="13000.00000" pt_clust_9="25.22912"></scales>
<clustering>
<clus scale="   25.229">  1  9  2 -1</clus>
<clus scale="   91.415">  7  8 -1 -1</clus>
<clus scale="   91.466">  5  6 -1 -1</clus>
<clus scale="   95.006">  2  7  1 -1</clus>
<clus scale="   25.229">  1  5  2 -1</clus>
</clustering>
</event>
<event>
 9    1  0.1782981E-005  0.2764373E+03  0.7546771E-02  0.1142902E+00
         -2   -1    0    0    0  501 -0.00000000000E+00  0.00000000000E+00  0.89083815603E+02  0.89083815603E+02  0.00000000000E+00 0.  1.
          2   -1    0    0  502    0  0.00000000000E+00 -0.00000000000E+00 -0.16280503335E+04  0.16280503335E+04  0.00000000000E+00 0. -1.
         23    2    1    2    0    0 -0.40767295224E+01  0.36721837406E+01 -0.67361413730E+02  0.11174162279E+03  0.88986097492E+02 0.  0.
         23    2    1    2    0    0 -0.25420160519E+03 -0.45109799413E+02 -0.30556417640E+03  0.41037109580E+03  0.91551189385E+02 0.  0.
        -11    1    3    3    0    0  0.22513104534E+02 -0.91144597854E+01 -0.76970587806E+02  0.80711737932E+02  0.00000000000E+00 0.  1.
         11    1    3    3    0    0 -0.26589834056E+02  0.12786643526E+02  0.96091740756E+01  0.31029884857E+02  0.00000000000E+00 0. -1.
        -13    1    4    4    0    0 -0.23118984930E+03 -0.67692047799E+02 -0.27889947793E+03  0.36853205905E+03  0.00000000000E+00 0.  1.
         13    1    4    4    0    0 -0.23011755889E+02  0.22582248386E+02 -0.26664698468E+02  0.41839036744E+02  0.00000000000E+00 0. -1.
         21    1    1    2  502  501  0.25827833472E+03  0.41437615672E+02 -0.11660409278E+04  0.11950214305E+04  0.00000000000E+00 0. -1.
<scales pt_clust_5="13000.00000" pt_clust_6="13000.00000" pt_clust_7="13000.00000" pt_clust_8="13000.00000" pt_clust_9="260.83701"></scales>
<clustering>
<clus scale="   88.986">  5  6 -1 -1</clus>
<clus scale="   89.155">  1  5  2 -1</clus>
<clus scale="   91.551">  7  8 -1 -1</clus>
<clus scale="  260.837">  2  9  1 -1</clus>
<clus scale="  260.837">  2  5  1 -1</clus>
</clustering>
</event>
<event>
 9    1  0.1782981E-005  0.1242369E+03  0.7546771E-02  0.1236499E+00
         -1   -1    0    0    0  501 -0.00000000000E+00  0.00000000000E+00  0.11459536132E+03  0.11459536132E+03  0.00000000000E+00 0.  1.
          1   -1    0    0  502    0  0.00000000000E+00 -0.00000000000E+00 -0.21744071395E+03  0.21744071395E+03  0.00000000000E+00 0. -1.
         23    2    1    2    0    0 -0.48390681956E+02  0.75303058524E+02  0.20417994747E+02  0.13002641320E+03  0.92074778830E+02 0.  0.
         23    2    1    2    0    0  0.50128168891E+02 -0.54424481633E+02 -0.53388984601E+02  0.12906200682E+03  0.91278477263E+02 0.  0.
        -11    1    3    3    0    0 -0.41780769787E+02  0.95409421843E+02  0.58271962152E+01  0.10431944553E+03  0.00000000000E+00 0. -1.
         11    1    3    3    0    0 -0.66099121695E+01 -0.20106363319E+02  0.14590798532E+02  0.25706967666E+02  0.00000000000E+00 0.  1.
        -13    1    4    4    0    0  0.54589034445E+02 -0.29528796571E+02  0.80851783416E+01  0.62588198707E+02  0.00000000000E+00 0.  1.
         13    1    4    4    0    0 -0.44608655539E+01 -0.24895685062E+02 -0.61474162943E+02  0.66473808118E+02  0.00000000000E+00 0. -1.
         21    1    1    2  502  501 -0.17374869347E+01 -0.20878576891E+02 -0.69874362776E+02  0.72947655255E+02  0.00000000000E+00 0.  1.
<scales pt_clust_5="13000.00000" pt_clust_6="13000.00000" pt_clust_7="13000.00000" pt_clust_8="13000.00000" pt_clust_9="20.95075"></scales>
<clustering>
<clus scale="   20.951">  2  9  1 -1</clus>
<clus scale="   91.278">  7  8 -1 -1</clus>
<clus scale="   92.075">  5  6 -1 -1</clus>
<clus scale="  123.648">  2  7  1 -1</clus>
<clus scale="   20.951">  2  5  1 -1</clus>
</clustering>
</event>
<event>
 9    1  0.1782981E-005  0.4038941E+03  0.7546771E-02  0.1042460E+00
         -1   -1    0    0    0  501 -0.00000000000E+00  0.00000000000E+00  0.51564456140E+03  0.51564456140E+03  0.00000000000E+00 0.  1.
          1   -1    0    0  502    0  0.00000000000E+00 -0.00000000000E+00 -0.43253535140E+03  0.43253535140E+03  0.00000000000E+00 0. -1.
         23    2    1    2    0    0  0.36306861355E+03  0.12189561818E+03  0.21180756907E+03  0.44691920685E+03  0.90537126442E+02 0.  0.
         23    2    1    2    0    0 -0.38164433300E+03 -0.17102367603E+03 -0.94046389426E+02  0.43833708223E+03  0.91614298118E+02 0.  0.
        -11    1    4    4    0    0 -0.35229090783E+03 -0.15410999020E+03 -0.58007233040E+02  0.38887480235E+03  0.00000000000E+00 0. -1.
         11    1    4    4    0    0 -0.29353425164E+02 -0.16913685836E+02 -0.36039156386E+02  0.49462279875E+02  0.00000000000E+00 0.  1.
        -13    1    3    3    0    0  0.31958689235E+03  0.12949399261E+03  0.16396056773E+03  0.38182135044E+03  0.00000000000E+00 0.  1.
         13    1    3    3    0    0  0.43481721204E+02 -0.75983744280E+01  0.47847001338E+02  0.65097856415E+02  0.00000000000E+00 0. -1.
         21    1    1    2  502  501  0.18575719449E+02  0.49128057853E+02 -0.34651969648E+02  0.62923623719E+02  0.00000000000E+00 0. -1.
<scales pt_clust_5="13000.00000" pt_clust_6="13000.00000" pt_clust_7="13000.00000" pt_clust_8="13000.00000" pt_clust_9="52.52260"></scales>
<clustering>
<clus scale="   52.523">  2  9  1 -1</clus>
<clus scale="   90.537">  7  8 -1 -1</clus>
<clus scale="   91.614">  5  6 -1 -1</clus>
<clus scale="  403.651">  1  7  2 -1</clus>
<clus scale="   52.523">  2  5  1 -1</clus>
</clustering>
</event>
<event>
 9    1  0.1782981E-005  0.1059012E+03  0.7546771E-02  0.1268554E+00
          3   -1    0    0  502    0  0.00000000000E+00  0.00000000000E+00  0.39446081316E+03  0.39446081316E+03  0.00000000000E+00 0. -1.
         -3   -1    0    0    0  501 -0.00000000000E+00 -0.00000000000E+00 -0.55526908330E+02  0.55526908330E+02  0.00000000000E+00 0.  1.
         23    2    1    2    0    0  0.71436816615E+02  0.39587461357E+02  0.84463204854E+02  0.14870283809E+03  0.91148862949E+02 0.  0.
         23    2    1    2    0    0 -0.25187449508E+02 -0.42771648435E+01  0.10595112876E+03  0.14177349186E+03  0.90671823391E+02 0.  0.
        -11    1    4    4    0    0 -0.17614916512E+02 -0.47322408623E+02  0.56383241687E+02  0.75688609347E+02  0.00000000000E+00 0. -1.
         11    1    4    4    0    0 -0.75725329967E+01  0.43045243780E+02  0.49567887078E+02  0.66084882518E+02  0.00000000000E+00 0.  1.
        -13    1    3    3    0    0 -0.16534448134E+02  0.21053890136E+02  0.22287488468E+01  0.26863015213E+02  0.00000000000E+00 0. -1.
         13    1    3    3    0    0  0.87971264748E+02  0.18533571221E+02  0.82234456007E+02  0.12183982288E+03  0.00000000000E+00 0.  1.
         21    1    1    2  502  501 -0.46249367106E+02 -0.35310296513E+02  0.14851957121E+03  0.15951139154E+03  0.00000000000E+00 0. -1.
<scales pt_clust_5="13000.00000" pt_clust_6="13000.00000" pt_clust_7="13000.00000" pt_clust_8="13000.00000" pt_clust_9="58.18781"></scales>
<clustering>
<clus scale="   58.188">  1  9  2 -1</clus>
<clus scale="   90.672">  5  6 -1 -1</clus>
<clus scale="   91.149">  7  8 -1 -1</clus>
<clus scale="  105.491">  1  5  2 -1</clus>
<clus scale="   58.188">  1  5  2 -1</clus>
</clustering>
</event>
<event>
 9    1  0.1782981E-005  0.1054951E+03  0.7546771E-02  0.1269385E+00
          1   -1    0    0  502    0  0.00000000000E+00  0.00000000000E+00  0.52002833210E+03  0.52002833210E+03  0.00000000000E+00 0. -1.
         -1   -1    0    0    0  501 -0.00000000000E+00 -0.00000000000E+00 -0.37254394266E+02  0.37254394266E+02  0.00000000000E+00 0.  1.
         23    2    1    2    0    0  0.21775246087E+02  0.54799235734E+02  0.12891932093E+03  0.16835710582E+03  0.90811927590E+02 0.  0.
         23    2    1    2    0    0 -0.46542327339E+02 -0.27433460698E+02  0.15924355881E+03  0.19084544008E+03  0.90247925069E+02 0.  0.
        -13    1    4    4    0    0 -0.55485020151E+02 -0.53803839224E+02  0.11961645741E+03  0.14241326293E+03  0.00000000000E+00 0.  1.
         13    1    4    4    0    0  0.89426928113E+01  0.26370378526E+02  0.39627101396E+02  0.48432177148E+02  0.00000000000E+00 0. -1.
        -13    1    3    3    0    0  0.30296977001E+02 -0.28766786908E+01  0.42497862271E+01  0.30728533624E+02  0.00000000000E+00 0.  1.
         13    1    3    3    0    0 -0.85217309141E+01  0.57675914425E+02  0.12466953470E+03  0.13762857220E+03  0.00000000000E+00 0. -1.
         21    1    1    2  502  501  0.24767081253E+02 -0.27365775036E+02  0.19461105810E+03  0.19808018046E+03  0.00000000000E+00 0.  1.
<scales pt_clust_5="13000.00000" pt_clust_6="13000.00000" pt_clust_7="13000.00000" pt_clust_8="13000.00000" pt_clust_9="36.90927"></scales>
<clustering>
<clus scale="   36.909">  1  9  2 -1</clus>
<clus scale="   90.248">  5  6 -1 -1</clus>
<clus scale="   90.812">  7  8 -1 -1</clus>
<clus scale="  105.010">  1  5  2 -1</clus>
<clus scale="   36.909">  1  5  2 -1</clus>
</clustering>
</event>
<event>
 9    1  0.1782981E-005  0.1347697E+03  0.7546771E-02  0.1220720E+00
          1   -1    0    0  502    0  0.00000000000E+00  0.00000000000E+00  0.36655107110E+03  0.36655107110E+03  0.00000000000E+00 0. -1.
         -1   -1    0    0    0  501 -0.00000000000E+00 -0.00000000000E+00 -0.68543208796E+02  0.68543208796E+02  0.00000000000E+00 0.  1.
         23    2    1    2    0    0  0.10108636104E+03 -0.11078270356E+02  0.56498509181E+02  0.14752229328E+03  0.90716949969E+02 0.  0.
         23    2    1    2    0    0 -0.89362788284E+02  0.32265785619E+02  0.20202208327E+03  0.24125139247E+03  0.91446833680E+02 0.  0.
        -11    1    3    3    0    0  0.88358772946E+02 -0.30338461671E+02  0.73485431007E+02  0.11886043742E+03  0.00000000000E+00 0. -1.
         11    1    3    3    0    0  0.12727588098E+02  0.19260191314E+02 -0.16986921826E+02  0.28661855861E+02  0.00000000000E+00 0.  1.
        -13    1    4    4    0    0 -0.41076205153E+02  0.50724278496E+02  0.54824732118E+02  0.85240590745E+02  0.00000000000E+00 0.  1.
         13    1    4    4    0    0 -0.48286583131E+02 -0.18458492877E+02  0.14719735115E+03  0.15601080173E+03  0.00000000000E+00 0. -1.
         21    1    1    2  502  501 -0.11723572760E+02 -0.21187515263E+02  0.39487269858E+02  0.46320594146E+02  0.00000000000E+00 0.  1.
<scales pt_clust_5="13000.00000" pt_clust_6="13000.00000" pt_clust_7="13000.00000" pt_clust_8="13000.00000" pt_clust_9="24.21473"></scales>
<clustering>
<clus scale="   24.215">  1  9  2 -1</clus>
<clus scale="   90.717">  5  6 -1 -1</clus>
<clus scale="   91.447">  7  8 -1 -1</clus>
<clus scale="  134.275">  2  5  1 -1</clus>
<clus scale="   24.215">  1  5  2 -1</clus>
</clustering>
</event>
<event>
 9    1  0.1782981E-005  0.9670546E+02  0.7546771E-02  0.1287425E+00
          1   -1    0    0  502    0  0.00000000000E+00  0.00000000000E+00  0.57874656557E+03  0.57874656557E+03  0.00000000000E+00 0. -1.
         -1   -1    0    0    0  501 -0.00000000000E+00 -0.00000000000E+00 -0.34179259044E+02  0.34179259044E+02  0.00000000000E+00 0.  1.
         23    2    1    2    0    0  0.17918405072E+02  0.17901133384E+02  0.86259854481E+02  0.12849039616E+03  0.91801413894E+02 0.  0.
         23    2    1    2    0    0 -0.56921373397E+02  0.80494377304E+01  0.28357521979E+03  0.30353209330E+03  0.91716902428E+02 0.  0.
        -11    1    4    4    0    0 -0.37979983236E+02  0.43441501800E+02  0.22662898514E+03  0.23385965901E+03  0.00000000000E+00 0. -1.
         11    1    4    4    0    0 -0.18941390161E+02 -0.35392064069E+02  0.56946234642E+02  0.69672434292E+02  0.00000000000E+00 0.  1.
        -11    1    3    3    0    0 -0.36591348594E+02  0.12771639335E+02  0.48015823604E+02  0.61705436386E+02  0.00000000000E+00 0. -1.
         11    1    3    3    0    0  0.54509753666E+02  0.51294940495E+01  0.38244030877E+02  0.66784959772E+02  0.00000000000E+00 0.  1.
         21    1    1    2  502  501  0.39002968325E+02 -0.25950571115E+02  0.17473223226E+03  0.18090333515E+03  0.00000000000E+00 0.  1.
<scales pt_clust_5="13000.00000" pt_clust_6="13000.00000" pt_clust_7="13000.00000" pt_clust_8="13000.00000" pt_clust_9="46.84724"></scales>
<clustering>
<clus scale="   46.847">  1  9  2 -1</clus>
<clus scale="   91.717">  5  6 -1 -1</clus>
<clus scale="   91.801">  7  8 -1 -1</clus>
<clus scale="   96.625">  1  5  2 -1</clus>
<clus scale="   46.847">  1  5  2 -1</clus>
</clustering>
</event>
<event>
 9    1  0.1782981E-005  0.1108988E+03  0.7546771E-02  0.1259649E+00
          1   -1    0    0  502    0  0.00000000000E+00  0.00000000000E+00  0.24710161426E+03  0.24710161426E+03  0.00000000000E+00 0. -1.
         -1   -1    0    0    0  501 -0.00000000000E+00 -0.00000000000E+00 -0.12732102791E+03  0.12732102791E+03  0.00000000000E+00 0.  1.
         23    2    1    2    0    0 -0.12908151505E+02 -0.58347059522E+02 -0.70487101239E+02  0.12873534629E+03  0.89629003193E+02 0.  0.
         23    2    1    2    0    0  0.34521571244E+02  0.69779063391E+02  0.11421520612E+03  0.16580106075E+03  0.91564304539E+02 0.  0.
        -11    1    4    4    0    0  0.45281556220E+02  0.32726567495E+02  0.11429309646E+03  0.12721776390E+03  0.00000000000E+00 0. -1.
         11    1    4    4    0    0 -0.10759984976E+02  0.37052495896E+02 -0.77890331600E-01  0.38583296848E+02  0.00000000000E+00 0.  1.
        -13    1    3    3    0    0  0.32774159087E+02 -0.32511313765E+02 -0.75333875529E+01  0.46774811112E+02  0.00000000000E+00 0. -1.
         13    1    3    3    0    0 -0.45682310592E+02 -0.25835745758E+02 -0.62953713687E+02  0.81960535179E+02  0.00000000000E+00 0.  1.
         21    1    1    2  502  501 -0.21613419738E+02 -0.11432003868E+02  0.76052481469E+02  0.79886235127E+02  0.00000000000E+00 0.  1.
<scales pt_clust_5="13000.00000" pt_clust_6="13000.00000" pt_clust_7="13000.00000" pt_clust_8="13000.00000" pt_clust_9="24.45058"></scales>
<clustering>
<clus scale="   24.451">  1  9  2 -1</clus>
<clus scale="   89.629">  7  8 -1 -1</clus>
<clus scale="   91.564">  5  6 -1 -1</clus>
<clus scale="  109.306">  2  7  1 -1</clus>
<clus scale="   24.451">  1  5  2 -1</clus>
</clustering>
</event>
<event>
 9    1  0.1782981E-005  0.9917254E+02  0.7546771E-02  0.1282853E+00
         -3   -1    0    0    0  501 -0.00000000000E+00  0.00000000000E+00  0.51479552755E+03  0.51479552755E+03  0.00000000000E+00 0.  1.
          3   -1    0    0  502    0  0.00000000000E+00 -0.00000000000E+00 -0.88276690423E+02  0.88276690423E+02  0.00000000000E+00 0. -1.
         23    2    1    2    0    0  0.28251572572E+02  0.19944789875E+02  0.45223266144E+03  0.46267094593E+03  0.91400646251E+02 0.  0.
         23    2    1    2    0    0 -0.84345646904E+01 -0.42811001406E+02 -0.33750353582E+01  0.10279011782E+03  0.93008030481E+02 0.  0.
        -11    1    4    4    0    0 -0.46836112114E+02 -0.69738187697E+01  0.10414485247E+02  0.48484193807E+02  0.00000000000E+00 0.  1.
         11    1    4    4    0    0  0.38401547424E+02 -0.35837182636E+02 -0.13789520605E+02  0.54305924008E+02  0.00000000000E+00 0. -1.
        -11    1    3    3    0    0  0.56702551743E+02  0.29692500255E+02  0.36038557352E+03  0.36602538921E+03  0.00000000000E+00 0.  1.
         11    1    3    3    0    0 -0.28450979171E+02 -0.97477103803E+01  0.91847087925E+02  0.96645556720E+02  0.00000000000E+00 0. -1.
         21    1    1    2  502  501 -0.19817007882E+02  0.22866211531E+02 -0.22338788951E+02  0.37611154236E+02  0.00000000000E+00 0.  1.
<scales pt_clust_5="13000.00000" pt_clust_6="13000.00000" pt_clust_7="13000.00000" pt_clust_8="13000.00000" pt_clust_9="30.25851"></scales>
<clustering>
<clus scale="   30.259">  2  9  1 -1</clus>
<clus scale="   91.401">  7  8 -1 -1</clus>
<clus scale="   93.008">  5  6 -1 -1</clus>
<clus scale="   97.667">  1  7  2 -1</clus>
<clus scale="   30.259">  2  5  1 -1</clus>
</clustering>
</event>
<event>
 9    1  0.1782981E-005  0.1600452E+03  0.7546771E-02  0.1188859E+00
         -2   -1    0    0    0  501 -0.00000000000E+00  0.00000000000E+00  0.15062679608E+03  0.15062679608E+03  0.00000000000E+00 0.  1.
          2   -1    0    0  502    0  0.00000000000E+00 -0.00000000000E+00 -0.26372710704E+03  0.26372710704E+03  0.00000000000E+00 0. -1.
         23    2    1    2    0    0 -0.10761185888E+03  0.81455052063E+02  0.56928890971E+02  0.17302602858E+03  0.92097069780E+02 0.  0.
         23    2    1    2    0    0  0.86127502998E+02 -0.82144021630E+02 -0.14624879755E+03  0.20927230000E+03  0.90777737927E+02 0.  0.
        -11    1    4    4    0    0  0.24226821742E+02 -0.82625553792E+02 -0.10024291657E+03  0.13214599258E+03  0.00000000000E+00 0.  1.
         11    1    4    4    0    0  0.61900681256E+02  0.48153216274E+00 -0.46005880973E+02  0.77126307427E+02  0.00000000000E+00 0. -1.
        -13    1    3    3    0    0 -0.30330985038E+02  0.70424932277E+02  0.46189473890E+00  0.76680200093E+02  0.00000000000E+00 0. -1.
         13    1    3    3    0    0 -0.77280873837E+02  0.11030119787E+02  0.56466996232E+02  0.96345828488E+02  0.00000000000E+00 0.  1.
         21    1    1    2  502  501  0.21484355877E+02  0.68896956658E+00 -0.23780404379E+02  0.32055574538E+02  0.00000000000E+00 0. -1.
<scales pt_clust_5="13000.00000" pt_clust_6="13000.00000" pt_clust_7="13000.00000" pt_clust_8="13000.00000" pt_clust_9="21.49540"></scales>
<clustering>
<clus scale="   21.495">  2  9  1 -1</clus>
<clus scale="   90.778">  5  6 -1 -1</clus>
<clus scale="   92.097">  7  8 -1 -1</clus>
<clus scale="  159.290">  2  5  1 -1</clus>
<clus scale="   21.495">  2  5  1 -1</clus>
</clustering>
</event>
<event>
 9    1  0.1782981E-005  0.1487117E+03  0.7546771E-02  0.1202749E+00
         -2   -1    0    0    0  501 -0.00000000000E+00  0.00000000000E+00  0.30871539169E+02  0.30871539169E+02  0.00000000000E+00 0.  1.
          2   -1    0    0  502    0  0.00000000000E+00 -0.00000000000E+00 -0.13828289460E+04  0.13828289460E+04  0.00000000000E+00 0. -1.
         23    2    1    2    0    0 -0.83006649871E+02 -0.57798007177E+02 -0.28113297187E+03  0.31118520685E+03  0.87004433978E+02 0.  0.
         23    2    1    2    0    0  0.10018685327E+03  0.12980059049E+03 -0.72087581538E+03  0.74482327710E+03  0.90632080665E+02 0.  0.
        -11    1    4    4    0    0  0.10248860687E+03  0.76406585160E+02 -0.41262079213E+03  0.43196967358E+03  0.00000000000E+00 0.  1.
         11    1    4    4    0    0 -0.23017536003E+01  0.53394005333E+02 -0.30825502325E+03  0.31285360352E+03  0.00000000000E+00 0. -1.
        -13    1    3    3    0    0 -0.40278586960E+02 -0.72671333787E+02 -0.13810506876E+03  0.16117225983E+03  0.00000000000E+00 0. -1.
         13    1    3    3    0    0 -0.42728062911E+02  0.14873326610E+02 -0.14302790311E+03  0.15001294701E+03  0.00000000000E+00 0.  1.
         21    1    1    2  502  501 -0.17180203403E+02 -0.72002583316E+02 -0.34994861962E+03  0.35769200126E+03  0.00000000000E+00 0. -1.
<scales pt_clust_5="13000.00000" pt_clust_6="13000.00000" pt_clust_7="13000.00000" pt_clust_8="13000.00000" pt_clust_9="74.02386"></scales>
<clustering>
<clus scale="   74.024">  2  9  1 -1</clus>
<clus scale="   87.004">  7  8 -1 -1</clus>
<clus scale="   90.632">  5  6 -1 -1</clus>
<clus scale="  146.529">  1  7  2 -1</clus>
<clus scale="   74.024">  2  5  1 -1</clus>
</clustering>
</event>
<event>
 9    1  0.1782981E-005  0.9723799E+02  0.7546771E-02  0.1286437E+00
          2   -1    0    0  502    0  0.00000000000E+00  0.00000000000E+00  0.25999999390E+03  0.25999999390E+03  0.00000000000E+00 0.  1.
         -2   -1    0    0    0  501 -0.00000000000E+00 -0.00000000000E+00 -0.60296486733E+02  0.60296486733E+02  0.00000000000E+00 0. -1.
         23    2    1    2    0    0  0.92824481545E+01  0.25636432944E+02  0.29429417722E+02  0.99825213292E+02  0.91408927592E+02 0.  0.
         23    2    1    2    0    0  0.10549389392E+01 -0.44538160548E+02  0.84139886642E+02  0.13168366815E+03  0.90974212231E+02 0.  0.
        -11    1    4    4    0    0  0.40579423479E+02 -0.42323066149E+02  0.33923789810E+02  0.67740350259E+02  0.00000000000E+00 0.  1.
         11    1    4    4    0    0 -0.39524484540E+02 -0.22150943994E+01  0.50216096832E+02  0.63943317887E+02  0.00000000000E+00 0. -1.
        -11    1    3    3    0    0 -0.78240952443E+01 -0.23955302895E+02  0.39065227463E+02  0.46488331869E+02  0.00000000000E+00 0.  1.
         11    1    3    3    0    0  0.17106543399E+02  0.49591735839E+02 -0.96358097416E+01  0.53336881423E+02  0.00000000000E+00 0. -1.
         21    1    1    2  502  501 -0.10337387094E+02  0.18901727604E+02  0.86134202807E+02  0.88787599199E+02  0.00000000000E+00 0. -1.
<scales pt_clust_5="13000.00000" pt_clust_6="13000.00000" pt_clust_7="13000.00000" pt_clust_8="13000.00000" pt_clust_9="21.54384"></scales>
<clustering>
<clus scale="   21.544">  1  9  2 -1</clus>
<clus scale="   90.974">  5  6 -1 -1</clus>
<clus scale="   91.409">  7  8 -1 -1</clus>
<clus scale="   96.829">  1  5  2 -1</clus>
<clus scale="   21.544">  1  5  2 -1</clus>
</clustering>
</event>
<event>
 9    1  0.1782981E-005  0.2725544E+03  0.7546771E-02  0.1099889E+00
         -1   -1    0    0    0  501 -0.00000000000E+00  0.00000000000E+00  0.53069363767E+03  0.53069363767E+03  0.00000000000E+00 0.  1.
          1   -1    0    0  502    0  0.00000000000E+00 -0.00000000000E+00 -0.40329981005E+03  0.40329981005E+03  0.00000000000E+00 0. -1.
         23    2    1    2    0    0  0.25186679020E+03  0.57985094512E+02  0.42663541548E+03  0.50684787660E+03  0.89876810588E+02 0.  0.
         23    2    1    2    0    0 -0.24724010630E+03 -0.36739293456E+02 -0.21869597911E+03  0.34371664716E+03  0.88519808005E+02 0.  0.
        -11    1    4    4    0    0 -0.13684629385E+03 -0.64268685542E+02 -0.11807145735E+03  0.19182867649E+03  0.00000000000E+00 0. -1.
         11    1    4    4    0    0 -0.11039381245E+03  0.27529392087E+02 -0.10062452176E+03  0.15188797068E+03  0.00000000000E+00 0.  1.
        -13    1    3    3    0    0  0.10796825944E+03  0.58048254311E+02  0.25453212105E+03  0.28251255817E+03  0.00000000000E+00 0. -1.
         13    1    3    3    0    0  0.14389853075E+03 -0.63159799251E-01  0.17210329443E+03  0.22433531843E+03  0.00000000000E+00 0.  1.
         21    1    1    2  502  501 -0.46266838940E+01 -0.21245801056E+02 -0.80545608741E+02  0.83428923964E+02  0.00000000000E+00 0. -1.
<scales pt_clust_5="13000.00000" pt_clust_6="13000.00000" pt_clust_7="13000.00000" pt_clust_8="13000.00000" pt_clust_9="21.74374"></scales>
<clustering>
<clus scale="   21.744">  2  9  1 -1</clus>
<clus scale="   88.520">  5  6 -1 -1</clus>
<clus scale="   89.877">  7  8 -1 -1</clus>
<clus scale="  272.110">  2  5  1 -1</clus>
<clus scale="   21.744">  2  5  1 -1</clus>
</clustering>
</event>
<event>
 9    1  0.1782981E-005  0.1713075E+03  0.7546771E-02  0.1176907E+00
         -1   -1    0    0    0  501 -0.00000000000E+00  0.00000000000E+00  0.75869413169E+03  0.75869413169E+03  0.00000000000E+00 0.  1.
          1   -1    0    0  502    0  0.00000000000E+00 -0.00000000000E+00 -0.60529265262E+02  0.60529265262E+02  0.00000000000E+00 0. -1.
         23    2    1    2    0    0 -0.12407544480E+03  0.79685858003E+02  0.55376471470E+03  0.58027595984E+03  0.91215559811E+02 0.  0.
         23    2    1    2    0    0  0.12686521134E+03 -0.55322655989E+02  0.11363453691E+03  0.19960443946E+03  0.88168850276E+02 0.  0.
        -13    1    4    4    0    0  0.10324698686E+03 -0.62160925864E+02  0.12400425208E+03  0.17291898546E+03  0.00000000000E+00 0.  1.
         13    1    4    4    0    0  0.23618224479E+02  0.68382698751E+01 -0.10369715166E+02  0.26685453997E+02  0.00000000000E+00 0. -1.
        -13    1    3    3    0    0 -0.33029786122E+02  0.36253294104E+02  0.66212460179E+02  0.82397560569E+02  0.00000000000E+00 0. -1.
         13    1    3    3    0    0 -0.91045658674E+02  0.43432563898E+02  0.48755225452E+03  0.49787839927E+03  0.00000000000E+00 0.  1.
         21    1    1    2  502  501 -0.27897665389E+01 -0.24363202014E+02  0.30765614815E+02  0.39342997657E+02  0.00000000000E+00 0.  1.
<scales pt_clust_5="13000.00000" pt_clust_6="13000.00000" pt_clust_7="13000.00000" pt_clust_8="13000.00000" pt_clust_9="24.52241"></scales>
<clustering>
<clus scale="   24.522">  2  9  1 -1</clus>
<clus scale="   88.169">  5  6 -1 -1</clus>
<clus scale="   91.216">  7  8 -1 -1</clus>
<clus scale="  169.705">  2  5  1 -1</clus>
<clus scale="   24.522">  2  5  1 -1</clus>
</clustering>
</event>
<event>
 9    1  0.1782981E-005  0.9991287E+02  0.7546771E-02  0.1281479E+00
         -1   -1    0    0    0  501 -0.00000000000E+00  0.00000000000E+00  0.43949125033E+03  0.43949125033E+03  0.00000000000E+00 0.  1.
          1   -1    0    0  502    0  0.00000000000E+00 -0.00000000000E+00 -0.10715311607E+03  0.10715311607E+03  0.00000000000E+00 0. -1.
         23    2    1    2    0    0  0.29958854175E+02 -0.20968358651E+02  0.26182564739E+03  0.27873774291E+03  0.88345088611E+02 0.  0.
         23    2    1    2    0    0  0.12782776939E+02  0.95973570639E+02  0.11073616189E+03  0.17266706821E+03  0.90427281540E+02 0.  0.
        -11    1    3    3    0    0  0.37182637230E+02  0.16056969690E+02  0.21413225335E+03  0.21792887994E+03  0.00000000000E+00 0.  1.
         11    1    3    3    0    0 -0.72237830558E+01 -0.37025328341E+02  0.47693394046E+02  0.60808862973E+02  0.00000000000E+00 0. -1.
        -13    1    4    4    0    0 -0.89348948151E+01  0.77329719861E+02  0.11960123101E+03  0.14270309169E+03  0.00000000000E+00 0.  1.
         13    1    4    4    0    0  0.21717671754E+02  0.18643850778E+02 -0.88650691205E+01  0.29963976518E+02  0.00000000000E+00 0. -1.
         21    1    1    2  502  501 -0.42741631114E+02 -0.75005211988E+02 -0.40223675026E+02  0.95239555271E+02  0.00000000000E+00 0. -1.
<scales pt_clust_5="13000.00000" pt_clust_6="13000.00000" pt_clust_7="13000.00000" pt_clust_8="13000.00000" pt_clust_9="86.32861"></scales>
<clustering>
<clus scale="   86.329">  2  9  1 -1</clus>
<clus scale="   88.345">  5  6 -1 -1</clus>
<clus scale="   90.427">  7  8 -1 -1</clus>
<clus scale="   98.032">  1  5  2 -1</clus>
<clus scale="   86.329">  2  5  1 -1</clus>
</clustering>
</event>
<event>
 9    1  0.1782981E-005  0.9700277E+02  0.7546771E-02  0.1287410E+00
         -2   -1    0    0    0  501 -0.00000000000E+00  0.00000000000E+00  0.15353336222E+03  0.15353336222E+03  0.00000000000E+00 0.  1.
          2   -1    0    0  502    0  0.00000000000E+00 -0.00000000000E+00 -0.30547435807E+03  0.30547435807E+03  0.00000000000E+00 0. -1.
         23    2    1    2    0    0 -0.40562776106E+02 -0.13955372108E+02  0.12023307317E+03  0.15428138532E+03  0.86640999279E+02 0.  0.
         23    2    1    2    0    0  0.35592072465E+01  0.34481813003E+02 -0.19420103051E+03  0.21601109605E+03  0.88006192859E+02 0.  0.
        -11    1    4    4    0    0 -0.35940246419E+02 -0.68463405934E+01 -0.90112256962E+02  0.97256323943E+02  0.00000000000E+00 0.  1.
         11    1    4    4    0    0  0.39499453665E+02  0.41328153596E+02 -0.10408877355E+03  0.11875477211E+03  0.00000000000E+00 0. -1.
        -13    1    3    3    0    0 -0.50707841471E+02  0.10565074506E+02  0.11648461814E+03  0.12748165456E+03  0.00000000000E+00 0.  1.
         13    1    3    3    0    0  0.10145065365E+02 -0.24520446614E+02  0.37484550211E+01  0.26799730753E+02  0.00000000000E+00 0. -1.
         21    1    1    2  502  501  0.37003568859E+02 -0.20526440895E+02 -0.77973038500E+02  0.88715238922E+02  0.00000000000E+00 0. -1.
<scales pt_clust_5="13000.00000" pt_clust_6="13000.00000" pt_clust_7="13000.00000" pt_clust_8="13000.00000" pt_clust_9="42.31547"></scales>
<clustering>
<clus scale="   42.315">  2  9  1 -1</clus>
<clus scale="   86.641">  7  8 -1 -1</clus>
<clus scale="   88.006">  5  6 -1 -1</clus>
<clus scale="   95.766">  1  7  2 -1</clus>
<clus scale="   42.315">  2  5  1 -1</clus>
</clustering>
</event>
<event>
 9    1  0.1782981E-005  0.1251945E+03  0.7546771E-02  0.1235102E+00
          1   -1    0    0  502    0  0.00000000000E+00  0.00000000000E+00  0.11357115598E+03  0.11357115598E+03  0.00000000000E+00 0. -1.
         -1   -1    0    0    0  501 -0.00000000000E+00 -0.00000000000E+00 -0.31506782069E+03  0.31506782069E+03  0.00000000000E+00 0.  1.
         23    2    1    2    0    0  0.66490376470E+02 -0.26853814036E+02 -0.14970511351E+03  0.18899783774E+03  0.90368491013E+02 0.  0.
         23    2    1    2    0    0 -0.12372208620E+03  0.74719097001E+00 -0.76725423280E+02  0.17197488188E+03  0.91547018038E+02 0.  0.
        -11    1    4    4    0    0 -0.12450385641E+03  0.27200208072E+02 -0.64099608275E+02  0.14265280005E+03  0.00000000000E+00 0. -1.
         11    1    4    4    0    0  0.78177020996E+00 -0.26453017102E+02 -0.12625815006E+02  0.29322081833E+02  0.00000000000E+00 0.  1.
        -11    1    3    3    0    0 -0.21744747280E+02 -0.11279559813E+02 -0.21542357661E+02  0.32621092524E+02  0.00000000000E+00 0. -1.
         11    1    3    3    0    0  0.88235123750E+02 -0.15574254223E+02 -0.12816275585E+03  0.15637674522E+03  0.00000000000E+00 0.  1.
         21    1    1    2  502  501  0.57231709731E+02  0.26106623066E+02  0.24933872083E+02  0.67666257054E+02  0.00000000000E+00 0.  1.
<scales pt_clust_5="13000.00000" pt_clust_6="13000.00000" pt_clust_7="13000.00000" pt_clust_8="13000.00000" pt_clust_9="62.90488"></scales>
<clustering>
<clus scale="   62.905">  1  9  2 -1</clus>
<clus scale="   90.368">  7  8 -1 -1</clus>
<clus scale="   91.547">  5  6 -1 -1</clus>
<clus scale="  124.335">  2  7  1 -1</clus>
<clus scale="   62.905">  1  5  2 -1</clus>
</clustering>
</event>
<event>
 9    1  0.1782981E-005  0.1076636E+03  0.7546771E-02  0.1266657E+00
         -1   -1    0    0    0  501 -0.00000000000E+00  0.00000000000E+00  0.71217755608E+02  0.71217755608E+02  0.00000000000E+00 0.  1.
          1   -1    0    0  502    0  0.00000000000E+00 -0.00000000000E+00 -0.55396355829E+03  0.55396355829E+03  0.00000000000E+00 0. -1.
         23    2    1    2    0    0  0.45987977215E+02  0.61612862001E+02 -0.42647355702E+02  0.12385636482E+03  0.87238542771E+02 0.  0.
         23    2    1    2    0    0 -0.66586890879E+01 -0.54728745879E+02 -0.44807229054E+03  0.46060927470E+03  0.91392300640E+02 0.  0.
        -11    1    4    4    0    0  0.13506873463E+02  0.22854206311E+02 -0.11591453082E+03  0.11891563746E+03  0.00000000000E+00 0.  1.
         11    1    4    4    0    0 -0.20165562551E+02 -0.77582952190E+02 -0.33215775973E+03  0.34169363724E+03  0.00000000000E+00 0. -1.
        -13    1    3    3    0    0  0.44647220571E+02 -0.90927164289E+01 -0.16547738918E+02  0.48475555284E+02  0.00000000000E+00 0.  1.
         13    1    3    3    0    0  0.13407566441E+01  0.70705578430E+02 -0.26099616784E+02  0.75380809533E+02  0.00000000000E+00 0. -1.
         21    1    1    2  502  501 -0.39329288127E+02 -0.68841161226E+01  0.79738435658E+01  0.40715674385E+02  0.00000000000E+00 0. -1.
<scales pt_clust_5="13000.00000" pt_clust_6="13000.00000" pt_clust_7="13000.00000" pt_clust_8="13000.00000" pt_clust_9="39.92723"></scales>
<clustering>
<clus scale="   39.927">  1  9  2 -1</clus>
<clus scale="   87.239">  7  8 -1 -1</clus>
<clus scale="   91.392">  5  6 -1 -1</clus>
<clus scale="  104.161">  1  7  2 -1</clus>
<clus scale="  107.664">  2  5  1 -1</clus>
</clustering>
</event>
<event>
 9    1  0.1782981E-005  0.9934592E+02  0.7546771E-02  0.1282161E+00
         -2   -1    0    0    0  501 -0.00000000000E+00  0.00000000000E+00  0.20082022399E+03  0.20082022399E+03  0.00000000000E+00 0.  1.
          2   -1    0    0  502    0  0.00000000000E+00 -0.00000000000E+00 -0.83065108610E+02  0.83065108610E+02  0.00000000000E+00 0. -1.
         23    2    1    2    0    0 -0.32599504200E+02 -0.68749830755E+01  0.89088214703E+02  0.13616303362E+03  0.97435458947E+02 0.  0.
         23    2    1    2    0    0 -0.12115321591E+02  0.17721099978E+02  0.21033367867E+02  0.10108192247E+03  0.96510797766E+02 0.  0.
        -11    1    4    4    0    0  0.28211767796E+02 -0.23872147528E+02 -0.54964037426E+01  0.37362999396E+02  0.00000000000E+00 0.  1.
         11    1    4    4    0    0 -0.40327089386E+02  0.41593247506E+02  0.26529771610E+02  0.63718923077E+02  0.00000000000E+00 0. -1.
        -13    1    3    3    0    0 -0.24236961125E+02 -0.45616788918E+02  0.80437981533E+02  0.95595975799E+02  0.00000000000E+00 0.  1.
         13    1    3    3    0    0 -0.83625430751E+01  0.38741805843E+02  0.86502331700E+01  0.40567057825E+02  0.00000000000E+00 0. -1.
         21    1    1    2  502  501  0.44714825791E+02 -0.10846116903E+02  0.76335328106E+01  0.46640376505E+02  0.00000000000E+00 0.  1.
<scales pt_clust_5="13000.00000" pt_clust_6="13000.00000" pt_clust_7="13000.00000" pt_clust_8="13000.00000" pt_clust_9="46.01145"></scales>
<clustering>
<clus scale="   46.011">  2  9  1 -1</clus>
<clus scale="   96.511">  5  6 -1 -1</clus>
<clus scale="   97.435">  7  8 -1 -1</clus>
<clus scale="   98.439">  2  5  1 -1</clus>
<clus scale="   46.011">  2  5  1 -1</clus>
</clustering>
</event>
<event>
 9    1  0.1782981E-005  0.9087469E+02  0.7546771E-02  0.1300950E+00
          3   -1    0    0  502    0  0.00000000000E+00  0.00000000000E+00  0.22215981290E+02  0.22215981290E+02  0.00000000000E+00 0. -1.
         -3   -1    0    0    0  501 -0.00000000000E+00 -0.00000000000E+00 -0.56572768530E+03  0.56572768530E+03  0.00000000000E+00 0.  1.
         23    2    1    2    0    0  0.14072866512E+02  0.72799584107E+01 -0.33227027078E+03  0.34469062895E+03  0.90316407566E+02 0.  0.
         23    2    1    2    0    0  0.93976172539E+01  0.96807621453E+01 -0.16166429763E+03  0.18583856190E+03  0.90656459206E+02 0.  0.
        -13    1    3    3    0    0 -0.37974141311E+02  0.31048908441E+01 -0.17038890843E+03  0.17459683809E+03  0.00000000000E+00 0.  1.
         13    1    3    3    0    0  0.52047007823E+02  0.41750675666E+01 -0.16188136235E+03  0.17009379086E+03  0.00000000000E+00 0. -1.
        -13    1    4    4    0    0  0.18510942021E+02  0.29431772566E+02 -0.16031784812E+03  0.16404480070E+03  0.00000000000E+00 0.  1.
         13    1    4    4    0    0 -0.91133247675E+01 -0.19751010421E+02 -0.13464495077E+01  0.21793761200E+02  0.00000000000E+00 0. -1.
         21    1    1    2  502  501 -0.23470483766E+02 -0.16960720556E+02 -0.49577135609E+02  0.57414475745E+02  0.00000000000E+00 0.  1.
<scales pt_clust_5="13000.00000" pt_clust_6="13000.00000" pt_clust_7="13000.00000" pt_clust_8="13000.00000" pt_clust_9="28.95738"></scales>
<clustering>
<clus scale="   28.957">  1  9  2 -1</clus>
<clus scale="   90.316">  5  6 -1 -1</clus>
<clus scale="   90.535">  2  5  1 -1</clus>
<clus scale="   90.656">  7  8 -1 -1</clus>
<clus scale="   28.957">  1  5  2 -1</clus>
</clustering>
</event>
<event>
 9    1  0.1782981E-005  0.1151155E+03  0.7546771E-02  0.1252468E+00
          1   -1    0    0  502    0  0.00000000000E+00  0.00000000000E+00  0.10104169708E+04  0.10104169708E+04  0.00000000000E+00 0. -1.
         -1   -1    0    0    0  501 -0.00000000000E+00 -0.00000000000E+00 -0.54257859856E+02  0.54257859856E+02  0.00000000000E+00 0.  1.
         23    2    1    2    0    0  0.70413717051E+02 -0.76194351208E+02  0.11106105778E+03  0.17848444238E+03  0.93586681280E+02 0.  0.
         23    2    1    2    0    0 -0.47748453368E+02 -0.18627529860E+02  0.14020078903E+03  0.17458301318E+03  0.90532135603E+02 0.  0.
        -11    1    3    3    0    0  0.35178763896E+02 -0.47499575658E+02  0.11851410760E+03  0.13243620659E+03  0.00000000000E+00 0. -1.
         11    1    3    3    0    0  0.35234953154E+02 -0.28694775550E+02 -0.74530498214E+01  0.46048235789E+02  0.00000000000E+00 0.  1.
        -13    1    4    4    0    0 -0.62148670793E+02  0.60839606800E+00  0.45885264634E+02  0.77254675830E+02  0.00000000000E+00 0. -1.
         13    1    4    4    0    0  0.14400217424E+02 -0.19235925928E+02  0.94315524398E+02  0.97328337347E+02  0.00000000000E+00 0.  1.
         21    1    1    2  502  501 -0.22665263682E+02  0.94821881069E+02  0.70489726414E+03  0.71160737510E+03  0.00000000000E+00 0. -1.
<scales pt_clust_5="13000.00000" pt_clust_6="13000.00000" pt_clust_7="13000.00000" pt_clust_8="13000.00000" pt_clust_9="97.49309"></scales>
<clustering>
<clus scale="   90.532">  7  8 -1 -1</clus>
<clus scale="   93.587">  5  6 -1 -1</clus>
<clus scale="   97.493">  1  9  2 -1</clus>
<clus scale="  112.646">  1  7  2 -1</clus>
<clus scale="   97.493">  1  5  2 -1</clus>
</clustering>
</event>
<event>
 9    1  0.1782981E-005  0.9477576E+02  0.7546771E-02  0.1292667E+00
         -2   -1    0    0    0  501 -0.00000000000E+00  0.00000000000E+00  0.45971060114E+02  0.45971060114E+02  0.00000000000E+00 0. -1.
          2   -1    0    0  502    0  0.00000000000E+00 -0.00000000000E+00 -0.33530245876E+03  0.33530245876E+03  0.00000000000E+00 0.  1.
         23    2    1    2    0    0  0.11108981998E+00 -0.60324924607E+01 -0.63005695737E+02  0.11270966744E+03  0.93259573945E+02 0.  0.
         23    2    1    2    0    0 -0.37488595299E+02  0.12666774658E+02 -0.12204308885E+03  0.15758657804E+03  0.91505038569E+02 0.  0.
        -11    1    3    3    0    0 -0.38946986790E+02 -0.28608220642E+02 -0.31528160352E+02  0.57700285645E+02  0.00000000000E+00 0.  1.
         11    1    3    3    0    0  0.39058076610E+02  0.22575728181E+02 -0.31477535385E+02  0.55009381793E+02  0.00000000000E+00 0. -1.
        -11    1    4    4    0    0  0.27256792332E+02 -0.10844759176E+02 -0.49579868902E+02  0.57608201935E+02  0.00000000000E+00 0. -1.
         11    1    4    4    0    0 -0.64745387631E+02  0.23511533834E+02 -0.72463219948E+02  0.99978376102E+02  0.00000000000E+00 0.  1.
         21    1    1    2  502  501  0.37377505479E+02 -0.66342821970E+01 -0.10428261406E+03  0.11097727340E+03  0.00000000000E+00 0. -1.
<scales pt_clust_5="13000.00000" pt_clust_6="13000.00000" pt_clust_7="13000.00000" pt_clust_8="13000.00000" pt_clust_9="37.96171"></scales>
<clustering>
<clus scale="   37.962">  2  9  1 -1</clus>
<clus scale="   91.505">  7  8 -1 -1</clus>
<clus scale="   93.050">  2  7  1 -1</clus>
<clus scale="   93.260">  5  6 -1 -1</clus>
<clus scale="   37.962">  2  5  1 -1</clus>
</clustering>
</event>
<event>
 9    1  0.1782981E-005  0.9439903E+02  0.7546771E-02  0.1294424E+00
          3   -1    0    0  502    0  0.00000000000E+00  0.00000000000E+00  0.34758413363E+02  0.34758413363E+02  0.00000000000E+00 0. -1.
         -3   -1    0    0    0  501 -0.00000000000E+00 -0.00000000000E+00 -0.35895989696E+03  0.35895989696E+03  0.00000000000E+00 0.  1.
         23    2    1    2    0    0 -0.21980933639E+02 -0.17590350099E+02 -0.16887271132E+03  0.19332250027E+03  0.89794290595E+02 0.  0.
         23    2    1    2    0    0  0.41837236880E+01 -0.44439211314E+01 -0.13985039913E+03  0.16811842128E+03  0.93104336404E+02 0.  0.
        -11    1    3    3    0    0 -0.54592862849E+02  0.43915295794E+01 -0.99396746711E+02  0.11348735376E+03  0.00000000000E+00 0.  1.
         11    1    3    3    0    0  0.32611929210E+02 -0.21981879679E+02 -0.69475964609E+02  0.79835146517E+02  0.00000000000E+00 0. -1.
        -13    1    4    4    0    0  0.27144727835E+02  0.34114534136E+02 -0.95709218222E+02  0.10517077608E+03  0.00000000000E+00 0. -1.
         13    1    4    4    0    0 -0.22961004147E+02 -0.38558455268E+02 -0.44141180908E+02  0.62947645199E+02  0.00000000000E+00 0.  1.
         21    1    1    2  502  501  0.17797209951E+02  0.22034271231E+02 -0.15478373151E+02  0.32277388774E+02  0.00000000000E+00 0.  1.
<scales pt_clust_5="13000.00000" pt_clust_6="13000.00000" pt_clust_7="13000.00000" pt_clust_8="13000.00000" pt_clust_9="28.32401"></scales>
<clustering>
<clus scale="   28.324">  1  9  2 -1</clus>
<clus scale="   89.794">  5  6 -1 -1</clus>
<clus scale="   91.136">  2  5  1 -1</clus>
<clus scale="   93.104">  7  8 -1 -1</clus>
<clus scale="   28.324">  1  5  2 -1</clus>
</clustering>
</event>
<event>
 9    1  0.1782981E-005  0.2961776E+03  0.7546771E-02  0.1087167E+00
         -1   -1    0    0    0  501 -0.00000000000E+00  0.00000000000E+00  0.21290351077E+03  0.21290351077E+03  0.00000000000E+00 0.  1.
          1   -1    0    0  502    0  0.00000000000E+00 -0.00000000000E+00 -0.47399344907E+03  0.47399344907E+03  0.00000000000E+00 0. -1.
         23    2    1    2    0    0  0.27172300827E+03 -0.13110949014E+03 -0.12827977450E+03  0.34057200961E+03  0.92252379672E+02 0.  0.
         23    2    1    2    0    0 -0.23384588066E+03  0.12310457430E+03 -0.12623370076E+03  0.30705657441E+03  0.92250531513E+02 0.  0.
        -11    1    4    4    0    0 -0.20574041768E+03  0.76690857566E+02 -0.12526416085E+03  0.25278788954E+03  0.00000000000E+00 0.  1.
         11    1    4    4    0    0 -0.28105462981E+02  0.46413716730E+02 -0.96953990573E+00  0.54268684872E+02  0.00000000000E+00 0. -1.
        -11    1    3    3    0    0  0.18900238604E+03 -0.10560223091E+03 -0.13263050991E+03  0.25389876971E+03  0.00000000000E+00 0. -1.
         11    1    3    3    0    0  0.82720622232E+02 -0.25507259232E+02  0.43507354129E+01  0.86673239899E+02  0.00000000000E+00 0.  1.
         21    1    1    2  502  501 -0.37877127611E+02  0.80049158452E+01 -0.65764630428E+01  0.39268375824E+02  0.00000000000E+00 0.  1.
<scales pt_clust_5="13000.00000" pt_clust_6="13000.00000" pt_clust_7="13000.00000" pt_clust_8="13000.00000" pt_clust_9="38.71376"></scales>
<clustering>
<clus scale="   38.714">  1  9  2 -1</clus>
<clus scale="   92.251">  5  6 -1 -1</clus>
<clus scale="   92.252">  7  8 -1 -1</clus>
<clus scale="  296.177">  2  5  1 -1</clus>
<clus scale="  296.177">  2  5  1 -1</clus>
</clustering>
</event>
<event>
 9    1  0.1782981E-005  0.1637003E+03  0.7546771E-02  0.1184992E+00
         -2   -1    0    0    0  501 -0.00000000000E+00  0.00000000000E+00  0.47494229490E+02  0.47494229490E+02  0.00000000000E+00 0.  1.
          2   -1    0    0  502    0  0.00000000000E+00 -0.00000000000E+00 -0.10237330341E+04  0.10237330341E+04  0.00000000000E+00 0. -1.
         23    2    1    2    0    0 -0.55466046574E+02 -0.12373042652E+03 -0.15026974151E+03  0.22378626269E+03  0.95465152725E+02 0.  0.
         23    2    1    2    0    0  0.26048165520E+02  0.12363588818E+03 -0.62723972110E+03  0.64654607306E+03  0.92886043543E+02 0.  0.
        -11    1    4    4    0    0  0.80464848430E+01  0.25682253580E+02 -0.27081186398E+02  0.38180030435E+02  0.00000000000E+00 0.  1.
         11    1    4    4    0    0  0.18001680677E+02  0.97953634604E+02 -0.60015853471E+03  0.60836604262E+03  0.00000000000E+00 0. -1.
        -13    1    3    3    0    0  0.19065349509E+02 -0.58245877176E+02 -0.85897355400E+02  0.10551978689E+03  0.00000000000E+00 0. -1.
         13    1    3    3    0    0 -0.74531396083E+02 -0.65484549340E+02 -0.64372386111E+02  0.11826647580E+03  0.00000000000E+00 0.  1.
         21    1    1    2  502  501  0.29417881054E+02  0.94538332204E-01 -0.19872934198E+03  0.20089492783E+03  0.00000000000E+00 0.  1.
<scales pt_clust_5="13000.00000" pt_clust_6="13000.00000" pt_clust_7="13000.00000" pt_clust_8="13000.00000" pt_clust_9="29.41803"></scales>
<clustering>
<clus scale="   29.418">  2  9  1 -1</clus>
<clus scale="   92.886">  5  6 -1 -1</clus>
<clus scale="   95.465">  7  8 -1 -1</clus>
<clus scale="  162.210">  2  5  1 -1</clus>
<clus scale="   29.418">  2  5  1 -1</clus>
</clustering>
</event>
<event>
 9    1  0.1782981E-005  0.2871343E+03  0.7546771E-02  0.1116964E+00
          2   -1    0    0  502    0  0.00000000000E+00  0.00000000000E+00  0.11650806618E+04  0.11650806618E+04  0.00000000000E+00 0. -1.
         -2   -1    0    0    0  501 -0.00000000000E+00 -0.00000000000E+00 -0.23299399563E+03  0.23299399563E+03  0.00000000000E+00 0.  1.
         23    2    1    2    0    0 -0.12400542345E+03  0.26386581490E+03 -0.95247306084E+02  0.32057998341E+03  0.93257509765E+02 0.  0.
         23    2    1    2    0    0  0.64091896364E+02 -0.10011520671E+03  0.48968001520E+03  0.51227288574E+03  0.92228880474E+02 0.  0.
        -11    1    4    4    0    0  0.42311461425E+02 -0.15742888734E+02  0.67578614254E+02  0.81270950641E+02  0.00000000000E+00 0.  1.
         11    1    4    4    0    0  0.21780434940E+02 -0.84372317976E+02  0.42210140094E+03  0.43100193510E+03  0.00000000000E+00 0. -1.
        -11    1    3    3    0    0 -0.11723828214E+03  0.24021966905E+03 -0.11304238479E+03  0.29022213037E+03  0.00000000000E+00 0.  1.
         11    1    3    3    0    0 -0.67671413187E+01  0.23646145849E+02  0.17795078704E+02  0.30357853041E+02  0.00000000000E+00 0. -1.
         21    1    1    2  502  501  0.59913527090E+02 -0.16375060819E+03  0.53765395708E+03  0.56522178831E+03  0.00000000000E+00 0. -1.
<scales pt_clust_5="13000.00000" pt_clust_6="13000.00000" pt_clust_7="13000.00000" pt_clust_8="13000.00000" pt_clust_9="271.56797"></scales>
<clustering>
<clus scale="   92.229">  5  6 -1 -1</clus>
<clus scale="   93.258">  7  8 -1 -1</clus>
<clus scale="  150.456">  1  5  2 -1</clus>
<clus scale="  271.568">  1  9  2 -1</clus>
<clus scale="  150.456">  1  5  2 -1</clus>
</clustering>
</event>
<event>
 9    1  0.1782981E-005  0.2117656E+03  0.7546771E-02  0.1140190E+00
          1   -1    0    0  502    0  0.00000000000E+00  0.00000000000E+00  0.14295799103E+03  0.14295799103E+03  0.00000000000E+00 0. -1.
         -1   -1    0    0    0  501 -0.00000000000E+00 -0.00000000000E+00 -0.51017268142E+03  0.51017268142E+03  0.00000000000E+00 0.  1.
         23    2    1    2    0    0 -0.18209366968E+03  0.43181956171E+02 -0.34681335281E+03  0.40441780510E+03  0.90837621716E+02 0.  0.
         23    2    1    2    0    0  0.20223966026E+03 -0.43590924523E+02 -0.10152996110E+02  0.22610630426E+03  0.90663821963E+02 0.  0.
        -11    1    4    4    0    0  0.23843675194E+02 -0.34294707716E+02  0.17599468320E+02  0.45325369378E+02  0.00000000000E+00 0.  1.
         11    1    4    4    0    0  0.17839598507E+03 -0.92962168068E+01 -0.27752464430E+02  0.18078093488E+03  0.00000000000E+00 0. -1.
        -11    1    3    3    0    0 -0.37803858329E+02 -0.28069639029E+02 -0.76430908845E+02  0.89770374660E+02  0.00000000000E+00 0. -1.
         11    1    3    3    0    0 -0.14428981135E+03  0.71251595200E+02 -0.27038244397E+03  0.31464743044E+03  0.00000000000E+00 0.  1.
         21    1    1    2  502  501 -0.20145990583E+02  0.40896835207E+00 -0.10248341473E+02  0.22606563088E+02  0.00000000000E+00 0.  1.
<scales pt_clust_5="13000.00000" pt_clust_6="13000.00000" pt_clust_7="13000.00000" pt_clust_8="13000.00000" pt_clust_9="20.15014"></scales>
<clustering>
<clus scale="   20.150">  1  9  2 -1</clus>
<clus scale="   90.664">  5  6 -1 -1</clus>
<clus scale="   90.838">  7  8 -1 -1</clus>
<clus scale="  211.691">  1  5  2 -1</clus>
<clus scale="   20.150">  1  5  2 -1</clus>
</clustering>
</event>
<event>
 9    1  0.1782981E-005  0.1225261E+03  0.7546771E-02  0.1241894E+00
         -1   -1    0    0    0  501 -0.00000000000E+00  0.00000000000E+00  0.12176483081E+03  0.12176483081E+03  0.00000000000E+00 0.  1.
          1   -1    0    0  502    0  0.00000000000E+00 -0.00000000000E+00 -0.18104928488E+03  0.18104928488E+03  0.00000000000E+00 0. -1.
         23    2    1    2    0    0 -0.78745136242E+02 -0.19594129507E+02  0.12743509310E+02  0.12837066972E+03  0.98650420278E+02 0.  0.
         23    2    1    2    0    0  0.57851732016E+02  0.28240409919E+02 -0.13008250392E+02  0.11124044743E+03  0.89782397582E+02 0.  0.
        -11    1    4    4    0    0  0.38642980948E+02  0.52855530002E+02  0.17304586105E+02  0.67723228870E+02  0.00000000000E+00 0.  1.
         11    1    4    4    0    0  0.19208751068E+02 -0.24615120083E+02 -0.30312836498E+02  0.43517218556E+02  0.00000000000E+00 0. -1.
        -13    1    3    3    0    0  0.50180896079E+01  0.21180775324E+02  0.26397935628E+02  0.34214872089E+02  0.00000000000E+00 0.  1.
         13    1    3    3    0    0 -0.83763225850E+02 -0.40774904831E+02 -0.13654426318E+02  0.94155797627E+02  0.00000000000E+00 0. -1.
         21    1    1    2  502  501  0.20893404226E+02 -0.86462804118E+01 -0.59019712984E+02  0.63202998551E+02  0.00000000000E+00 0. -1.
<scales pt_clust_5="13000.00000" pt_clust_6="13000.00000" pt_clust_7="13000.00000" pt_clust_8="13000.00000" pt_clust_9="22.61178"></scales>
<clustering>
<clus scale="   22.612">  2  9  1 -1</clus>
<clus scale="   89.782">  5  6 -1 -1</clus>
<clus scale="   98.650">  7  8 -1 -1</clus>
<clus scale="  115.506">  2  5  1 -1</clus>
<clus scale="   22.612">  2  5  1 -1</clus>
</clustering>
</event>
<event>
 9    1  0.1782981E-005  0.1573207E+03  0.7546771E-02  0.1193283E+00
         -1   -1    0    0    0  501 -0.00000000000E+00  0.00000000000E+00  0.15948527356E+03  0.15948527356E+03  0.00000000000E+00 0.  1.
          1   -1    0    0  502    0  0.00000000000E+00 -0.00000000000E+00 -0.25245796181E+03  0.25245796181E+03  0.00000000000E+00 0. -1.
         23    2    1    2    0    0  0.75536812314E+02  0.10292075671E+03  0.38234878427E+02  0.16701209976E+03  0.10066103199E+03 0.  0.
         23    2    1    2    0    0 -0.87396490378E+02 -0.71309115495E+02 -0.45321671023E+02  0.15264714514E+03  0.92325297570E+02 0.  0.
        -11    1    3    3    0    0  0.45939314169E+02  0.10987173753E+03  0.56215210923E+02  0.13169042954E+03  0.00000000000E+00 0.  1.
         11    1    3    3    0    0  0.29597498145E+02 -0.69509808109E+01 -0.17980332496E+02  0.35321670223E+02  0.00000000000E+00 0. -1.
        -13    1    4    4    0    0 -0.23895733396E+02  0.17568680023E+02 -0.30277941497E+02  0.42384175508E+02  0.00000000000E+00 0.  1.
         13    1    4    4    0    0 -0.63500756982E+02 -0.88877795518E+02 -0.15043729526E+02  0.11026296963E+03  0.00000000000E+00 0. -1.
         21    1    1    2  502  501  0.11859678064E+02 -0.31611641219E+02 -0.85885895655E+02  0.92283990469E+02  0.00000000000E+00 0. -1.
<scales pt_clust_5="13000.00000" pt_clust_6="13000.00000" pt_clust_7="13000.00000" pt_clust_8="13000.00000" pt_clust_9="33.76311"></scales>
<clustering>
<clus scale="   33.763">  2  9  1 -1</clus>
<clus scale="   92.325">  7  8 -1 -1</clus>
<clus scale="  100.661">  5  6 -1 -1</clus>
<clus scale="  152.122">  2  7  1 -1</clus>
<clus scale="   33.763">  2  5  1 -1</clus>
</clustering>
</event>
<event>
 9    1  0.1782981E-005  0.1142274E+03  0.7546771E-02  0.1253238E+00
         -3   -1    0    0    0  501 -0.00000000000E+00  0.00000000000E+00  0.18920938787E+03  0.18920938787E+03  0.00000000000E+00 0.  1.
          3   -1    0    0  502    0  0.00000000000E+00 -0.00000000000E+00 -0.10697114566E+03  0.10697114566E+03  0.00000000000E+00 0. -1.
         23    2    1    2    0    0  0.92519604403E+01  0.80365794093E+02  0.69773549083E+02  0.14027204487E+03  0.90904558678E+02 0.  0.
         23    2    1    2    0    0 -0.40063626237E+02 -0.45074205762E+02  0.12215779922E+02  0.10905854828E+03  0.90043120235E+02 0.  0.
        -11    1    3    3    0    0 -0.19894294520E+02  0.74858621812E+02  0.77551110275E+02  0.10960734884E+03  0.00000000000E+00 0.  1.
         11    1    3    3    0    0  0.29146254961E+02  0.55071722809E+01 -0.77775611924E+01  0.30664696034E+02  0.00000000000E+00 0. -1.
        -13    1    4    4    0    0 -0.14948205348E+01 -0.58769689516E+02  0.28096058778E+02  0.65157496983E+02  0.00000000000E+00 0. -1.
         13    1    4    4    0    0 -0.38568805702E+02  0.13695483754E+02 -0.15880278856E+02  0.43901051298E+02  0.00000000000E+00 0.  1.
         21    1    1    2  502  501  0.30811665797E+02 -0.35291588330E+02  0.24891320936E+00  0.46849940382E+02  0.00000000000E+00 0. -1.
<scales pt_clust_5="13000.00000" pt_clust_6="13000.00000" pt_clust_7="13000.00000" pt_clust_8="13000.00000" pt_clust_9="46.84928"></scales>
<clustering>
<clus scale="   46.849">  2  9  1 -1</clus>
<clus scale="   90.043">  7  8 -1 -1</clus>
<clus scale="   90.905">  5  6 -1 -1</clus>
<clus scale="  113.543">  2  7  1 -1</clus>
<clus scale="   46.849">  2  5  1 -1</clus>
</clustering>
</event>
<event>
 9    1  0.1782981E-005  0.1064469E+03  0.7546771E-02  0.1267538E+00
          1   -1    0    0  502    0  0.00000000000E+00  0.00000000000E+00  0.33928478543E+03  0.33928478543E+03  0.00000000000E+00 0. -1.
         -1   -1    0    0    0  501 -0.00000000000E+00 -0.00000000000E+00 -0.45365253976E+02  0.45365253976E+02  0.00000000000E+00 0.  1.
         23    2    1    2    0    0  0.57971171295E+02 -0.41788207409E+02  0.10976635301E+03  0.15897853623E+03  0.90103339285E+02 0.  0.
         23    2    1    2    0    0 -0.40310704577E+02  0.23263003874E+02  0.16398393973E+03  0.19308510354E+03  0.90691810360E+02 0.  0.
        -13    1    4    4    0    0 -0.50680477257E+02  0.48438634269E+02  0.88899244619E+02  0.11321611086E+03  0.00000000000E+00 0. -1.
         13    1    4    4    0    0  0.10369772680E+02 -0.25175630395E+02  0.75084695113E+02  0.79868992678E+02  0.00000000000E+00 0.  1.
        -13    1    3    3    0    0  0.29162076438E+02 -0.39539449186E+02  0.39515905729E+01  0.49289043530E+02  0.00000000000E+00 0.  1.
         13    1    3    3    0    0  0.28809094857E+02 -0.22487582235E+01  0.10581476244E+03  0.10968949270E+03  0.00000000000E+00 0. -1.
         21    1    1    2  502  501 -0.17660466718E+02  0.18525203535E+02  0.20169238709E+02  0.32586399630E+02  0.00000000000E+00 0.  1.
<scales pt_clust_5="13000.00000" pt_clust_6="13000.00000" pt_clust_7="13000.00000" pt_clust_8="13000.00000" pt_clust_9="25.59444"></scales>
<clustering>
<clus scale="   25.594">  2  9  1 -1</clus>
<clus scale="   90.103">  7  8 -1 -1</clus>
<clus scale="   90.692">  5  6 -1 -1</clus>
<clus scale="  105.946">  2  7  1 -1</clus>
<clus scale="  106.447">  1  5  2 -1</clus>
</clustering>
</event>
<event>
 9    1  0.1782981E-005  0.3070580E+03  0.7546771E-02  0.1081975E+00
          2   -1    0    0  502    0  0.00000000000E+00  0.00000000000E+00  0.91474221019E+03  0.91474221019E+03  0.00000000000E+00 0. -1.
         -2   -1    0    0    0  501 -0.00000000000E+00 -0.00000000000E+00 -0.47039907729E+03  0.47039907729E+03  0.00000000000E+00 0.  1.
         23    2    1    2    0    0  0.18527335941E+03  0.22917423075E+03 -0.37274763794E+03  0.48286816357E+03  0.85870926694E+02 0.  0.
         23    2    1    2    0    0 -0.13983891030E+03 -0.24236102501E+03  0.48931424192E+03  0.57110000662E+03  0.91831383131E+02 0.  0.
        -11    1    3    3    0    0  0.44173311048E+02  0.12195568551E+03 -0.16088513360E+03  0.20666034174E+03  0.00000000000E+00 0. -1.
         11    1    3    3    0    0  0.14110004836E+03  0.10721854524E+03 -0.21186250434E+03  0.27620782182E+03  0.00000000000E+00 0.  1.
        -13    1    4    4    0    0 -0.33118739609E+02 -0.26602204649E+02  0.28346997502E+02  0.51069369223E+02  0.00000000000E+00 0.  1.
         13    1    4    4    0    0 -0.10672017069E+03 -0.21575882037E+03  0.46096724442E+03  0.52003063739E+03  0.00000000000E+00 0. -1.
         21    1    1    2  502  501 -0.45434449104E+02  0.13186794266E+02  0.32777652892E+03  0.33117311730E+03  0.00000000000E+00 0. -1.
<scales pt_clust_5="13000.00000" pt_clust_6="13000.00000" pt_clust_7="13000.00000" pt_clust_8="13000.00000" pt_clust_9="47.30941"></scales>
<clustering>
<clus scale="   47.309">  1  9  2 -1</clus>
<clus scale="   85.871">  5  6 -1 -1</clus>
<clus scale="   91.831">  7  8 -1 -1</clus>
<clus scale="  305.328">  2  5  1 -1</clus>
<clus scale="   47.309">  1  5  2 -1</clus>
</clustering>
</event>
<event>
 9    1  0.1782981E-005  0.1583447E+03  0.7546771E-02  0.1215165E+00
         -3   -1    0    0    0  501 -0.00000000000E+00  0.00000000000E+00  0.86217135663E+02  0.86217135663E+02  0.00000000000E+00 0.  1.
          3   -1    0    0  502    0  0.00000000000E+00 -0.00000000000E+00 -0.47367013977E+03  0.47367013977E+03  0.00000000000E+00 0. -1.
         23    2    1    2    0    0  0.27296249736E+01 -0.20857255860E+02 -0.27729632174E+02  0.97110952323E+02  0.90659409804E+02 0.  0.
         23    2    1    2    0    0 -0.12840130943E+03  0.45100344712E+02 -0.21997569174E+03  0.27327562720E+03  0.88143780900E+02 0.  0.
        -13    1    3    3    0    0  0.28959022749E+01 -0.54441968028E+02 -0.15726391476E+01  0.54541610964E+02  0.00000000000E+00 0.  1.
         13    1    3    3    0    0 -0.16627730134E+00  0.33584712167E+02 -0.26156993027E+02  0.42569341358E+02  0.00000000000E+00 0. -1.
        -13    1    4    4    0    0 -0.92598048566E+02  0.27113019295E+02 -0.21128935074E+03  0.23227721402E+03  0.00000000000E+00 0. -1.
         13    1    4    4    0    0 -0.35803260859E+02  0.17987325416E+02 -0.86863409940E+01  0.40998413184E+02  0.00000000000E+00 0.  1.
         21    1    1    2  502  501  0.12567168445E+03 -0.24243088851E+02 -0.13974768019E+03  0.18950069591E+03  0.00000000000E+00 0.  1.
<scales pt_clust_5="13000.00000" pt_clust_6="13000.00000" pt_clust_7="13000.00000" pt_clust_8="13000.00000" pt_clust_9="131.54355"></scales>
<clustering>
<clus scale="   88.144">  7  8 -1 -1</clus>
<clus scale="   90.659">  5  6 -1 -1</clus>
<clus scale="   93.068">  1  5  2 -1</clus>
<clus scale="  131.544">  1  9  2 -1</clus>
<clus scale="  158.345">  2  5  1 -1</clus>
</clustering>
</event>
<event>
 9    1  0.1782981E-005  0.1013346E+03  0.7546771E-02  0.1278291E+00
         -2   -1    0    0    0  501 -0.00000000000E+00  0.00000000000E+00  0.25141030290E+02  0.25141030290E+02  0.00000000000E+00 0.  1.
          2   -1    0    0  502    0  0.00000000000E+00 -0.00000000000E+00 -0.57406927715E+03  0.57406927715E+03  0.00000000000E+00 0. -1.
         23    2    1    2    0    0  0.27841696687E+01 -0.41838246280E+02 -0.15955826322E+03  0.18749209363E+03  0.89085663056E+02 0.  0.
         23    2    1    2    0    0  0.23670131493E+02  0.49403664418E+02 -0.29786550557E+03  0.31616647332E+03  0.90754516486E+02 0.  0.
        -13    1    4    4    0    0  0.41434698734E+01 -0.26303663927E+02 -0.97982696202E+02  0.10153649508E+03  0.00000000000E+00 0. -1.
         13    1    4    4    0    0  0.19526661620E+02  0.75707328344E+02 -0.19988280937E+03  0.21462997824E+03  0.00000000000E+00 0.  1.
        -13    1    3    3    0    0 -0.41876295330E+02 -0.28316655473E+02 -0.97747546695E+02  0.11004562678E+03  0.00000000000E+00 0.  1.
         13    1    3    3    0    0  0.44660464999E+02 -0.13521590807E+02 -0.61810716523E+02  0.77446466859E+02  0.00000000000E+00 0. -1.
         21    1    1    2  502  501 -0.26454301162E+02 -0.75654181380E+01 -0.91504478075E+02  0.95551740483E+02  0.00000000000E+00 0.  1.
<scales pt_clust_5="13000.00000" pt_clust_6="13000.00000" pt_clust_7="13000.00000" pt_clust_8="13000.00000" pt_clust_9="27.51483"></scales>
<clustering>
<clus scale="   27.515">  2  9  1 -1</clus>
<clus scale="   89.086">  7  8 -1 -1</clus>
<clus scale="   90.755">  5  6 -1 -1</clus>
<clus scale="   99.843">  1  7  2 -1</clus>
<clus scale="   27.515">  2  5  1 -1</clus>
</clustering>
</event>
<event>
 9    1  0.1782981E-005  0.1177252E+03  0.7546771E-02  0.1247744E+00
          3   -1    0    0  502    0  0.00000000000E+00  0.00000000000E+00  0.30864314769E+03  0.30864314769E+03  0.00000000000E+00 0. -1.
         -3   -1    0    0    0  501 -0.00000000000E+00 -0.00000000000E+00 -0.10433291782E+03  0.10433291782E+03  0.00000000000E+00 0.  1.
         23    2    1    2    0    0 -0.30251980047E+02 -0.69301723920E+02 -0.48880275181E+02  0.12755489176E+03  0.90349642365E+02 0.  0.
         23    2    1    2    0    0  0.15364822554E+02  0.51028659978E+02  0.22043949582E+03  0.24507069755E+03  0.92876657835E+02 0.  0.
        -11    1    3    3    0    0 -0.45530426637E+02 -0.13299597369E+02 -0.50763624976E+02  0.69475496836E+02  0.00000000000E+00 0.  1.
         11    1    3    3    0    0  0.15278446590E+02 -0.56002126551E+02  0.18833497952E+01  0.58079394925E+02  0.00000000000E+00 0. -1.
        -13    1    4    4    0    0 -0.22817293861E+02  0.49664827807E+02  0.18519177063E+03  0.19308862196E+03  0.00000000000E+00 0. -1.
         13    1    4    4    0    0  0.38182116415E+02  0.13638321715E+01  0.35247725184E+02  0.51982075591E+02  0.00000000000E+00 0.  1.
         21    1    1    2  502  501  0.14887157494E+02  0.18273063942E+02  0.32751009234E+02  0.40350476204E+02  0.00000000000E+00 0. -1.
<scales pt_clust_5="13000.00000" pt_clust_6="13000.00000" pt_clust_7="13000.00000" pt_clust_8="13000.00000" pt_clust_9="23.56973"></scales>
<clustering>
<clus scale="   23.570">  1  9  2 -1</clus>
<clus scale="   90.350">  5  6 -1 -1</clus>
<clus scale="   92.877">  7  8 -1 -1</clus>
<clus scale="  115.742">  2  5  1 -1</clus>
<clus scale="   23.570">  1  5  2 -1</clus>
</clustering>
</event>
<event>
 9    1  0.1782981E-005  0.1163096E+03  0.7546771E-02  0.1249506E+00
         -2   -1    0    0    0  501 -0.00000000000E+00  0.00000000000E+00  0.66324408426E+02  0.66324408426E+02  0.00000000000E+00 0.  1.
          2   -1    0    0  502    0  0.00000000000E+00 -0.00000000000E+00 -0.85661255390E+03  0.85661255390E+03  0.00000000000E+00 0. -1.
         23    2    1    2    0    0 -0.17602301817E+02 -0.60084446685E+02 -0.38914007868E+02  0.11473922726E+03  0.87925016358E+02 0.  0.
         23    2    1    2    0    0 -0.44731732738E+02  0.14759871150E+03 -0.34855872485E+03  0.39129902414E+03  0.88517987311E+02 0.  0.
        -13    1    4    4    0    0  0.93416855966E+01  0.29664371387E+02 -0.17409942490E+02  0.35641943228E+02  0.00000000000E+00 0.  1.
         13    1    4    4    0    0 -0.54073418335E+02  0.11793434012E+03 -0.33114878236E+03  0.35565708092E+03  0.00000000000E+00 0. -1.
        -13    1    3    3    0    0  0.28674932129E+02 -0.31373979660E+02  0.75287105126E+01  0.43165493329E+02  0.00000000000E+00 0.  1.
         13    1    3    3    0    0 -0.46277233946E+02 -0.28710467025E+02 -0.46442718381E+02  0.71573733933E+02  0.00000000000E+00 0. -1.
         21    1    1    2  502  501  0.62334034555E+02 -0.87514264820E+02 -0.40281541276E+03  0.41689871092E+03  0.00000000000E+00 0. -1.
<scales pt_clust_5="13000.00000" pt_clust_6="13000.00000" pt_clust_7="13000.00000" pt_clust_8="13000.00000" pt_clust_9="107.44430"></scales>
<clustering>
<clus scale="   87.925">  7  8 -1 -1</clus>
<clus scale="   88.518">  5  6 -1 -1</clus>
<clus scale="  107.444">  2  9  1 -1</clus>
<clus scale="  115.859">  1  7  2 -1</clus>
<clus scale="  107.444">  2  5  1 -1</clus>
</clustering>
</event>
<event>
 9    1  0.1782981E-005  0.3524165E+03  0.7546771E-02  0.1061708E+00
          1   -1    0    0  502    0  0.00000000000E+00  0.00000000000E+00  0.12477008904E+04  0.12477008904E+04  0.00000000000E+00 0. -1.
         -1   -1    0    0    0  501 -0.00000000000E+00 -0.00000000000E+00 -0.18955892268E+03  0.18955892268E+03  0.00000000000E+00 0.  1.
         23    2    1    2    0    0  0.15208372854E+02 -0.35909753294E+03  0.87287374653E+02  0.38159328607E+03  0.93872346489E+02 0.  0.
         23    2    1    2    0    0 -0.31263807448E+02  0.28889617845E+03  0.54953225603E+03  0.62823405418E+03  0.90850970432E+02 0.  0.
        -11    1    4    4    0    0 -0.51277563704E+02  0.12830460942E+03  0.20038500145E+03  0.24340421144E+03  0.00000000000E+00 0. -1.
         11    1    4    4    0    0  0.20013756256E+02  0.16059156902E+03  0.34914725458E+03  0.38482984274E+03  0.00000000000E+00 0.  1.
        -11    1    3    3    0    0 -0.23358021887E+02 -0.26634242037E+03  0.86921812336E+02  0.28113926003E+03  0.00000000000E+00 0.  1.
         11    1    3    3    0    0  0.38566394741E+02 -0.92755112572E+02  0.36556231638E+00  0.10045402604E+03  0.00000000000E+00 0. -1.
         21    1    1    2  502  501  0.16055434594E+02  0.70201354493E+02  0.42132233700E+03  0.42743247280E+03  0.00000000000E+00 0.  1.
<scales pt_clust_5="13000.00000" pt_clust_6="13000.00000" pt_clust_7="13000.00000" pt_clust_8="13000.00000" pt_clust_9="72.01394"></scales>
<clustering>
<clus scale="   72.014">  1  9  2 -1</clus>
<clus scale="   90.851">  5  6 -1 -1</clus>
<clus scale="   93.872">  7  8 -1 -1</clus>
<clus scale="  351.624">  1  5  2 -1</clus>
<clus scale="   72.014">  1  5  2 -1</clus>
</clustering>
</event>
<event>
 9    1  0.1782981E-005  0.1502591E+03  0.7546771E-02  0.1200399E+00
          1   -1    0    0  502    0  0.00000000000E+00  0.00000000000E+00  0.81662077897E+03  0.81662077897E+03  0.00000000000E+00 0. -1.
         -1   -1    0    0    0  501 -0.00000000000E+00 -0.00000000000E+00 -0.88432646373E+02  0.88432646373E+02  0.00000000000E+00 0.  1.
         23    2    1    2    0    0  0.98542770710E+02 -0.45783170600E+02 -0.41684030744E+01  0.15044787256E+03  0.10397312346E+03 0.  0.
         23    2    1    2    0    0 -0.10822782528E+03  0.20265996251E+02  0.55173600193E+03  0.57193452696E+03  0.10282273353E+03 0.  0.
        -13    1    4    4    0    0  0.80549692447E+01 -0.19831494837E+02  0.37370463496E+02  0.43066486494E+02  0.00000000000E+00 0.  1.
         13    1    4    4    0    0 -0.11628279453E+03  0.40097491088E+02  0.51436553843E+03  0.52886804046E+03  0.00000000000E+00 0. -1.
        -13    1    3    3    0    0  0.10112878016E+01 -0.52517871516E+02 -0.40574633093E+01  0.52684082417E+02  0.00000000000E+00 0.  1.
         13    1    3    3    0    0  0.97531482909E+02  0.67347009158E+01 -0.11093976514E+00  0.97763790139E+02  0.00000000000E+00 0. -1.
         21    1    1    2  502  501  0.96850545715E+01  0.25517174349E+02  0.18062053374E+03  0.18267102583E+03  0.00000000000E+00 0. -1.
<scales pt_clust_5="13000.00000" pt_clust_6="13000.00000" pt_clust_7="13000.00000" pt_clust_8="13000.00000" pt_clust_9="27.29334"></scales>
<clustering>
<clus scale="   27.293">  1  9  2 -1</clus>
<clus scale="  102.823">  5  6 -1 -1</clus>
<clus scale="  103.973">  7  8 -1 -1</clus>
<clus scale="  149.465">  1  5  2 -1</clus>
<clus scale="   27.293">  1  5  2 -1</clus>
</clustering>
</event>
<event>
 9    1  0.1782981E-005  0.1154551E+03  0.7546771E-02  0.1251197E+00
          1   -1    0    0  502    0  0.00000000000E+00  0.00000000000E+00  0.37315377246E+03  0.37315377246E+03  0.00000000000E+00 0. -1.
         -1   -1    0    0    0  501 -0.00000000000E+00 -0.00000000000E+00 -0.71765469587E+02  0.71765469587E+02  0.00000000000E+00 0.  1.
         23    2    1    2    0    0  0.51355247578E+02  0.58156179453E+02  0.35555256190E+02  0.12535145293E+03  0.91811262086E+02 0.  0.
         23    2    1    2    0    0 -0.29415135368E+02 -0.52545474978E+02  0.87026190797E+02  0.13933255327E+03  0.90629605472E+02 0.  0.
        -11    1    4    4    0    0  0.10922416499E+01  0.24578193936E+02  0.11495123905E+02  0.27155450329E+02  0.00000000000E+00 0.  1.
         11    1    4    4    0    0 -0.30507377018E+02 -0.77123668915E+02  0.75531066892E+02  0.11217710295E+03  0.00000000000E+00 0. -1.
        -13    1    3    3    0    0  0.90683625523E+01  0.21539359606E+02  0.59936482840E+02  0.64331649963E+02  0.00000000000E+00 0. -1.
         13    1    3    3    0    0  0.42286885025E+02  0.36616819847E+02 -0.24381226651E+02  0.61019802964E+02  0.00000000000E+00 0.  1.
         21    1    1    2  502  501 -0.21940112209E+02 -0.56107044744E+01  0.17880685589E+03  0.18023523585E+03  0.00000000000E+00 0.  1.
<scales pt_clust_5="13000.00000" pt_clust_6="13000.00000" pt_clust_7="13000.00000" pt_clust_8="13000.00000" pt_clust_9="22.64616"></scales>
<clustering>
<clus scale="   22.646">  1  9  2 -1</clus>
<clus scale="   90.630">  5  6 -1 -1</clus>
<clus scale="   91.811">  7  8 -1 -1</clus>
<clus scale="  114.518">  1  5  2 -1</clus>
<clus scale="   22.646">  1  5  2 -1</clus>
</clustering>
</event>
<event>
 9    1  0.1782981E-005  0.2158547E+03  0.7546771E-02  0.1137133E+00
         -1   -1    0    0    0  501 -0.00000000000E+00  0.00000000000E+00  0.73810080633E+02  0.73810080633E+02  0.00000000000E+00 0.  1.
          1   -1    0    0  502    0  0.00000000000E+00 -0.00000000000E+00 -0.15586801154E+04  0.15586801154E+04  0.00000000000E+00 0. -1.
         23    2    1    2    0    0 -0.73583501827E+02 -0.17815258464E+03 -0.12859382310E+03  0.24923722747E+03  0.91814754062E+02 0.  0.
         23    2    1    2    0    0  0.11210552747E+03  0.18115060881E+03 -0.10992639820E+04  0.11233525630E+04  0.90313267707E+02 0.  0.
        -11    1    3    3    0    0 -0.80205099809E+02 -0.10861825191E+03 -0.11653112544E+03  0.17835438285E+03  0.00000000000E+00 0.  1.
         11    1    3    3    0    0  0.66215979824E+01 -0.69534332728E+02 -0.12062697663E+02  0.70882844629E+02  0.00000000000E+00 0. -1.
        -13    1    4    4    0    0 -0.18451643480E+01  0.23457234618E+02 -0.40312405279E+02  0.46676937632E+02  0.00000000000E+00 0.  1.
         13    1    4    4    0    0  0.11395069182E+03  0.15769337420E+03 -0.10589515767E+04  0.10766756253E+04  0.00000000000E+00 0. -1.
         21    1    1    2  502  501 -0.38522025645E+02 -0.29980241721E+01 -0.25701222973E+03  0.25990040561E+03  0.00000000000E+00 0.  1.
<scales pt_clust_5="13000.00000" pt_clust_6="13000.00000" pt_clust_7="13000.00000" pt_clust_8="13000.00000" pt_clust_9="38.63851"></scales>
<clustering>
<clus scale="   38.639">  2  9  1 -1</clus>
<clus scale="   90.313">  7  8 -1 -1</clus>
<clus scale="   91.815">  5  6 -1 -1</clus>
<clus scale="  215.220">  2  7  1 -1</clus>
<clus scale="   38.639">  2  5  1 -1</clus>
</clustering>
</event>
<event>
 9    1  0.1782981E-005  0.1968557E+03  0.7546771E-02  0.1152533E+00
         -2   -1    0    0    0  501 -0.00000000000E+00  0.00000000000E+00  0.80011890885E+02  0.80011890885E+02  0.00000000000E+00 0.  1.
          2   -1    0    0  502    0  0.00000000000E+00 -0.00000000000E+00 -0.81672761797E+03  0.81672761797E+03  0.00000000000E+00 0. -1.
         23    2    1    2    0    0 -0.14915876165E+03  0.12407388354E+03 -0.13190283695E+03  0.25144081832E+03  0.90451434295E+02 0.  0.
         23    2    1    2    0    0  0.13359811013E+03 -0.10363081854E+03 -0.57301014907E+03  0.60441511044E+03  0.91592539087E+02 0.  0.
        -11    1    3    3    0    0 -0.79313708724E+02  0.10270566745E+03 -0.43710600988E+02  0.13692967230E+03  0.00000000000E+00 0.  1.
         11    1    3    3    0    0 -0.69845052923E+02  0.21368216089E+02 -0.88192235965E+02  0.11451114601E+03  0.00000000000E+00 0. -1.
        -13    1    4    4    0    0  0.11639209728E+03 -0.11916118444E+03 -0.52996459888E+03  0.55552586281E+03  0.00000000000E+00 0. -1.
         13    1    4    4    0    0  0.17206012849E+02  0.15530365899E+02 -0.43045550192E+02  0.48889247636E+02  0.00000000000E+00 0.  1.
         21    1    1    2  502  501  0.15560651521E+02 -0.20443064998E+02 -0.31802741060E+02  0.40883580093E+02  0.00000000000E+00 0. -1.
<scales pt_clust_5="13000.00000" pt_clust_6="13000.00000" pt_clust_7="13000.00000" pt_clust_8="13000.00000" pt_clust_9="25.69149"></scales>
<clustering>
<clus scale="   25.691">  1  9  2 -1</clus>
<clus scale="   90.451">  5  6 -1 -1</clus>
<clus scale="   91.593">  7  8 -1 -1</clus>
<clus scale="  196.327">  1  5  2 -1</clus>
<clus scale="  196.856">  2  5  1 -1</clus>
</clustering>
</event>
<event>
 9    1  0.1782981E-005  0.1018155E+03  0.7546771E-02  0.1279145E+00
          1   -1    0    0  502    0  0.00000000000E+00  0.00000000000E+00  0.19631212969E+03  0.19631212969E+03  0.00000000000E+00 0. -1.
         -1   -1    0    0    0  501 -0.00000000000E+00 -0.00000000000E+00 -0.76386663520E+02  0.76386663520E+02  0.00000000000E+00 0.  1.
         23    2    1    2    0    0  0.41363283457E+02  0.15380320926E+01  0.30431470044E+02  0.10566784623E+03  0.92338142692E+02 0.  0.
         23    2    1    2    0    0 -0.13320846889E+02 -0.16688452080E+02  0.38743288376E+02  0.10710142328E+03  0.97538315956E+02 0.  0.
        -11    1    4    4    0    0 -0.48007104419E+02 -0.36130273410E+02  0.23549356211E+02  0.64534106559E+02  0.00000000000E+00 0.  1.
         11    1    4    4    0    0  0.34686257531E+02  0.19441821330E+02  0.15193932165E+02  0.42567316720E+02  0.00000000000E+00 0. -1.
        -11    1    3    3    0    0  0.27941568784E+01 -0.33919630442E+02 -0.14166573454E+02  0.36865165745E+02  0.00000000000E+00 0.  1.
         11    1    3    3    0    0  0.38569126579E+02  0.35457662534E+02  0.44598043498E+02  0.68802680480E+02  0.00000000000E+00 0. -1.
         21    1    1    2  502  501 -0.28042436568E+02  0.15150419988E+02  0.50750707750E+02  0.59929523706E+02  0.00000000000E+00 0. -1.
<scales pt_clust_5="13000.00000" pt_clust_6="13000.00000" pt_clust_7="13000.00000" pt_clust_8="13000.00000" pt_clust_9="31.87340"></scales>
<clustering>
<clus scale="   31.873">  1  9  2 -1</clus>
<clus scale="   92.338">  7  8 -1 -1</clus>
<clus scale="   96.845">  2  7  1 -1</clus>
<clus scale="   97.538">  5  6 -1 -1</clus>
<clus scale="   31.873">  1  5  2 -1</clus>
</clustering>
</event>
<event>
 9    1  0.1782981E-005  0.2201060E+03  0.7546771E-02  0.1133978E+00
         -3   -1    0    0    0  501 -0.00000000000E+00  0.00000000000E+00  0.12463811535E+04  0.12463811535E+04  0.00000000000E+00 0.  1.
          3   -1    0    0  502    0  0.00000000000E+00 -0.00000000000E+00 -0.43867500837E+02  0.43867500837E+02  0.00000000000E+00 0. -1.
         23    2    1    2    0    0 -0.16564028826E+03 -0.99480313954E+02  0.64255348861E+03  0.67669718028E+03  0.87812585194E+02 0.  0.
         23    2    1    2    0    0  0.16731671448E+03  0.12178479185E+03  0.47831597782E+03  0.52889881146E+03  0.90118586616E+02 0.  0.
        -11    1    4    4    0    0  0.34824566528E+00  0.20578355977E+02  0.13163869249E+02  0.24431075771E+02  0.00000000000E+00 0.  1.
         11    1    4    4    0    0  0.16696846882E+03  0.10120643587E+03  0.46515210857E+03  0.50446773569E+03  0.00000000000E+00 0. -1.
        -13    1    3    3    0    0 -0.50800747095E+02 -0.13774196949E+02  0.76988561374E+02  0.93261369224E+02  0.00000000000E+00 0. -1.
         13    1    3    3    0    0 -0.11483954117E+03 -0.85706117005E+02  0.56556492723E+03  0.58343581106E+03  0.00000000000E+00 0.  1.
         21    1    1    2  502  501 -0.16764262201E+01 -0.22304477892E+02  0.81644186262E+02  0.84652662624E+02  0.00000000000E+00 0.  1.
<scales pt_clust_5="13000.00000" pt_clust_6="13000.00000" pt_clust_7="13000.00000" pt_clust_8="13000.00000" pt_clust_9="22.36739"></scales>
<clustering>
<clus scale="   22.367">  1  9  2 -1</clus>
<clus scale="   87.813">  7  8 -1 -1</clus>
<clus scale="   90.119">  5  6 -1 -1</clus>
<clus scale="  219.172">  1  7  2 -1</clus>
<clus scale="  220.106">  2  5  1 -1</clus>
</clustering>
</event>
<event>
 9    1  0.1782981E-005  0.9939725E+02  0.7546771E-02  0.1282133E+00
          2   -1    0    0  502    0  0.00000000000E+00  0.00000000000E+00  0.44922306068E+03  0.44922306068E+03  0.00000000000E+00 0. -1.
         -2   -1    0    0    0  501 -0.00000000000E+00 -0.00000000000E+00 -0.64792667053E+02  0.64792667053E+02  0.00000000000E+00 0.  1.
         23    2    1    2    0    0  0.59503760180E+02 -0.11331711289E+02  0.39198439745E+02  0.11655516875E+03  0.91539524403E+02 0.  0.
         23    2    1    2    0    0  0.16443785184E+01 -0.33704241023E+02  0.98841954882E+02  0.13963239242E+03  0.92675741830E+02 0.  0.
        -11    1    4    4    0    0  0.27837096703E+02  0.84353677175E+01  0.57117049765E-01  0.29087155993E+02  0.00000000000E+00 0.  1.
         11    1    4    4    0    0 -0.26192718185E+02 -0.42139608740E+02  0.98784837832E+02  0.11054523642E+03  0.00000000000E+00 0. -1.
        -11    1    3    3    0    0  0.13721512480E+02 -0.48149248760E+02  0.25688721895E+02  0.56272022298E+02  0.00000000000E+00 0. -1.
         11    1    3    3    0    0  0.45782247700E+02  0.36817537471E+02  0.13509717850E+02  0.60283146453E+02  0.00000000000E+00 0.  1.
         21    1    1    2  502  501 -0.61148138698E+02  0.45035952312E+02  0.24638999900E+03  0.25782816656E+03  0.00000000000E+00 0. -1.
<scales pt_clust_5="13000.00000" pt_clust_6="13000.00000" pt_clust_7="13000.00000" pt_clust_8="13000.00000" pt_clust_9="75.94295"></scales>
<clustering>
<clus scale="   75.943">  1  9  2 -1</clus>
<clus scale="   91.540">  7  8 -1 -1</clus>
<clus scale="   92.676">  5  6 -1 -1</clus>
<clus scale="   98.339">  2  7  1 -1</clus>
<clus scale="   75.943">  1  5  2 -1</clus>
</clustering>
</event>
<event>
 9    1  0.1782981E-005  0.1565105E+03  0.7546771E-02  0.1210919E+00
          1   -1    0    0  502    0  0.00000000000E+00  0.00000000000E+00  0.84967491826E+03  0.84967491826E+03  0.00000000000E+00 0. -1.
         -1   -1    0    0    0  501 -0.00000000000E+00 -0.00000000000E+00 -0.99765571795E+02  0.99765571795E+02  0.00000000000E+00 0.  1.
         23    2    1    2    0    0 -0.12603069443E+03  0.45085652938E+02 -0.85331647794E+01  0.16116409006E+03  0.89356572137E+02 0.  0.
         23    2    1    2    0    0  0.17131546586E+02 -0.54754116104E+02  0.36852541201E+03  0.38332226944E+03  0.88506947937E+02 0.  0.
        -11    1    3    3    0    0 -0.33794036190E+02 -0.20452192769E+01 -0.40477367515E+02  0.52769660648E+02  0.00000000000E+00 0.  1.
         11    1    3    3    0    0 -0.92236658237E+02  0.47130872215E+02  0.31944202736E+02  0.10839442941E+03  0.00000000000E+00 0. -1.
        -13    1    4    4    0    0  0.18789734407E+01  0.24453646638E+02  0.74509900174E+02  0.78442568794E+02  0.00000000000E+00 0.  1.
         13    1    4    4    0    0  0.15252573146E+02 -0.79207762742E+02  0.29401551184E+03  0.30487970065E+03  0.00000000000E+00 0. -1.
         21    1    1    2  502  501  0.10889914784E+03  0.96684631656E+01  0.38991709923E+03  0.40495413055E+03  0.00000000000E+00 0. -1.
<scales pt_clust_5="13000.00000" pt_clust_6="13000.00000" pt_clust_7="13000.00000" pt_clust_8="13000.00000" pt_clust_9="128.49484"></scales>
<clustering>
<clus scale="   88.507">  7  8 -1 -1</clus>
<clus scale="   89.357">  5  6 -1 -1</clus>
<clus scale="  105.475">  1  7  2 -1</clus>
<clus scale="  128.495">  1  9  2 -1</clus>
<clus scale="  105.475">  1  5  2 -1</clus>
</clustering>
</event>
<event>
 9    1  0.1782981E-005  0.1073227E+03  0.7546771E-02  0.1266177E+00
          2   -1    0    0  502    0  0.00000000000E+00  0.00000000000E+00  0.10703038883E+04  0.10703038883E+04  0.00000000000E+00 0. -1.
         -2   -1    0    0    0  501 -0.00000000000E+00 -0.00000000000E+00 -0.30341708292E+02  0.30341708292E+02  0.00000000000E+00 0.  1.
         23    2    1    2    0    0 -0.58581807075E+02 -0.23648959421E+02  0.13964923512E+03  0.17534204708E+03  0.85157637370E+02 0.  0.
         23    2    1    2    0    0  0.73988728521E+02 -0.43436116341E+02  0.34843134864E+03  0.36914612855E+03  0.86622349049E+02 0.  0.
        -11    1    4    4    0    0  0.23850877332E+01 -0.38205292558E+02  0.54673454085E+02  0.66742187592E+02  0.00000000000E+00 0.  1.
         11    1    4    4    0    0  0.71603640787E+02 -0.52308237830E+01  0.29375789456E+03  0.30240394096E+03  0.00000000000E+00 0. -1.
        -13    1    3    3    0    0 -0.56292853101E+02 -0.51034114895E+02  0.11804860416E+03  0.14038817306E+03  0.00000000000E+00 0.  1.
         13    1    3    3    0    0 -0.22889539743E+01  0.27385155474E+02  0.21600630967E+02  0.34953874017E+02  0.00000000000E+00 0. -1.
         21    1    1    2  502  501 -0.15406921446E+02  0.67085075762E+02  0.55188159625E+03  0.55615742097E+03  0.00000000000E+00 0. -1.
<scales pt_clust_5="13000.00000" pt_clust_6="13000.00000" pt_clust_7="13000.00000" pt_clust_8="13000.00000" pt_clust_9="68.83154"></scales>
<clustering>
<clus scale="   68.832">  1  9  2 -1</clus>
<clus scale="   85.158">  7  8 -1 -1</clus>
<clus scale="   86.622">  5  6 -1 -1</clus>
<clus scale="  106.144">  2  7  1 -1</clus>
<clus scale="   68.832">  1  5  2 -1</clus>
</clustering>
</event>
<event>
 9    1  0.1782981E-005  0.9792309E+02  0.7546771E-02  0.1284910E+00
         -2   -1    0    0    0  501 -0.00000000000E+00  0.00000000000E+00  0.69565188873E+02  0.69565188873E+02  0.00000000000E+00 0.  1.
          2   -1    0    0  502    0  0.00000000000E+00 -0.00000000000E+00 -0.19878777493E+03  0.19878777493E+03  0.00000000000E+00 0. -1.
         23    2    1    2    0    0  0.32197771964E+02 -0.21088393222E+02 -0.49365892143E+02  0.11038859114E+03  0.90924325122E+02 0.  0.
         23    2    1    2    0    0 -0.40315684062E+02 -0.14053048385E+02 -0.55881156746E+02  0.11465562300E+03  0.90555870353E+02 0.  0.
        -11    1    4    4    0    0 -0.24719598851E+02  0.34320152320E+02 -0.47506783318E+01  0.42561724204E+02  0.00000000000E+00 0.  1.
         11    1    4    4    0    0 -0.15596085212E+02 -0.48373200705E+02 -0.51130478415E+02  0.72093898794E+02  0.00000000000E+00 0. -1.
        -11    1    3    3    0    0  0.58556004424E+02  0.82176684157E+01 -0.32952526679E+02  0.67691984332E+02  0.00000000000E+00 0.  1.
         11    1    3    3    0    0 -0.26358232460E+02 -0.29306061638E+02 -0.16413365465E+02  0.42696606809E+02  0.00000000000E+00 0. -1.
         21    1    1    2  502  501  0.81179120987E+01  0.35141441608E+02 -0.23975537171E+02  0.43308749667E+02  0.00000000000E+00 0. -1.
<scales pt_clust_5="13000.00000" pt_clust_6="13000.00000" pt_clust_7="13000.00000" pt_clust_8="13000.00000" pt_clust_9="36.06690"></scales>
<clustering>
<clus scale="   36.067">  2  9  1 -1</clus>
<clus scale="   90.556">  5  6 -1 -1</clus>
<clus scale="   90.924">  7  8 -1 -1</clus>
<clus scale="   97.581">  2  5  1 -1</clus>
<clus scale="   36.067">  2  5  1 -1</clus>
</clustering>
</event>
<event>
 9    1  0.1782981E-005  0.1795445E+03  0.7546771E-02  0.1168467E+00
         -2   -1    0    0    0  501 -0.00000000000E+00  0.00000000000E+00  0.38939443860E+02  0.38939443860E+02  0.00000000000E+00 0.  1.
          2   -1    0    0  502    0  0.00000000000E+00 -0.00000000000E+00 -0.96132494502E+03  0.96132494502E+03  0.00000000000E+00 0. -1.
         23    2    1    2    0    0 -0.12946109450E+03 -0.94434989798E+02 -0.36227796865E+03  0.40684421818E+03  0.92729439848E+02 0.  0.
         23    2    1    2    0    0  0.10704671656E+03  0.99417946653E+02 -0.47280711341E+03  0.50315058904E+03  0.90945154431E+02 0.  0.
        -11    1    3    3    0    0 -0.37137312724E+02  0.60549876997E+01 -0.31675041982E+02  0.49184867154E+02  0.00000000000E+00 0.  1.
         11    1    3    3    0    0 -0.92323781776E+02 -0.10048997750E+03 -0.33060292666E+03  0.35765935103E+03  0.00000000000E+00 0. -1.
        -13    1    4    4    0    0  0.40728532467E+01  0.56572208839E+02 -0.11270902110E+03  0.12617577574E+03  0.00000000000E+00 0. -1.
         13    1    4    4    0    0  0.10297386331E+03  0.42845737814E+02 -0.36009809232E+03  0.37697481330E+03  0.00000000000E+00 0.  1.
         21    1    1    2  502  501  0.22414377942E+02 -0.49829568549E+01 -0.87300419100E+02  0.90269581658E+02  0.00000000000E+00 0.  1.
<scales pt_clust_5="13000.00000" pt_clust_6="13000.00000" pt_clust_7="13000.00000" pt_clust_8="13000.00000" pt_clust_9="22.96158"></scales>
<clustering>
<clus scale="   22.962">  2  9  1 -1</clus>
<clus scale="   90.945">  7  8 -1 -1</clus>
<clus scale="   92.729">  5  6 -1 -1</clus>
<clus scale="  178.630">  2  7  1 -1</clus>
<clus scale="   22.962">  2  5  1 -1</clus>
</clustering>
</event>
<event>
 9    1  0.1782981E-005  0.9625508E+02  0.7546771E-02  0.1288598E+00
         -3   -1    0    0    0  501 -0.00000000000E+00  0.00000000000E+00  0.13465521384E+03  0.13465521384E+03  0.00000000000E+00 0.  1.
          3   -1    0    0  502    0  0.00000000000E+00 -0.00000000000E+00 -0.19981782108E+03  0.19981782108E+03  0.00000000000E+00 0. -1.
         23    2    1    2    0    0 -0.43878365724E+00  0.16703952982E+02  0.40373294205E+02  0.10108923024E+03  0.91158186738E+02 0.  0.
         23    2    1    2    0    0  0.47177215342E+01 -0.47785994553E+02  0.18841517138E+02  0.10511009393E+03  0.91582590630E+02 0.  0.
        -11    1    4    4    0    0 -0.40825456986E+02 -0.37412417803E+02  0.18503600139E+01  0.55406053606E+02  0.00000000000E+00 0. -1.
         11    1    4    4    0    0  0.45543178520E+02 -0.10373576749E+02  0.16991157124E+02  0.49704040326E+02  0.00000000000E+00 0.  1.
        -13    1    3    3    0    0  0.36673805767E+02  0.95798842169E+01  0.49370309653E+02  0.62242828392E+02  0.00000000000E+00 0.  1.
         13    1    3    3    0    0 -0.37112589425E+02  0.71240687648E+01 -0.89970154480E+01  0.38846401848E+02  0.00000000000E+00 0. -1.
         21    1    1    2  502  501 -0.42789378770E+01  0.31082041571E+02 -0.12437741858E+03  0.12827371075E+03  0.00000000000E+00 0.  1.
<scales pt_clust_5="13000.00000" pt_clust_6="13000.00000" pt_clust_7="13000.00000" pt_clust_8="13000.00000" pt_clust_9="31.37519"></scales>
<clustering>
<clus scale="   31.375">  2  9  1 -1</clus>
<clus scale="   91.158">  7  8 -1 -1</clus>
<clus scale="   91.583">  5  6 -1 -1</clus>
<clus scale="   95.851">  1  7  2 -1</clus>
<clus scale="   31.375">  2  5  1 -1</clus>
</clustering>
</event>
<event>
 9    1  0.1782981E-005  0.1731386E+03  0.7546771E-02  0.1174820E+00
          3   -1    0    0  502    0  0.00000000000E+00  0.00000000000E+00  0.20730323921E+03  0.20730323921E+03  0.00000000000E+00 0. -1.
         -3   -1    0    0    0  501 -0.00000000000E+00 -0.00000000000E+00 -0.18341811747E+03  0.18341811747E+03  0.00000000000E+00 0.  1.
         23    2    1    2    0    0  0.80697307735E+02  0.13878378558E+03 -0.22879200097E+02  0.18869812806E+03  0.96491093475E+02 0.  0.
         23    2    1    2    0    0 -0.70166713845E+02 -0.11264332931E+03  0.52853357396E+02  0.17319107269E+03  0.97927436929E+02 0.  0.
        -13    1    4    4    0    0 -0.47160937472E+02 -0.15498413717E+01 -0.18881670826E+01  0.47224159139E+02  0.00000000000E+00 0.  1.
         13    1    4    4    0    0 -0.23005776373E+02 -0.11109348793E+03  0.54741524478E+02  0.12596691355E+03  0.00000000000E+00 0. -1.
        -13    1    3    3    0    0  0.87333417204E+02  0.11583342914E+03  0.12939390638E+02  0.14564318349E+03  0.00000000000E+00 0.  1.
         13    1    3    3    0    0 -0.66361094687E+01  0.22950356438E+02 -0.35818590734E+02  0.43054944567E+02  0.00000000000E+00 0. -1.
         21    1    1    2  502  501 -0.10530593890E+02 -0.26140456271E+02 -0.60890355563E+01  0.28832155933E+02  0.00000000000E+00 0. -1.
<scales pt_clust_5="13000.00000" pt_clust_6="13000.00000" pt_clust_7="13000.00000" pt_clust_8="13000.00000" pt_clust_9="28.18185"></scales>
<clustering>
<clus scale="   28.182">  2  9  1 -1</clus>
<clus scale="   96.491">  7  8 -1 -1</clus>
<clus scale="   97.927">  5  6 -1 -1</clus>
<clus scale="  172.330">  2  7  1 -1</clus>
<clus scale="  173.139">  1  5  2 -1</clus>
</clustering>
</event>
<event>
 9    1  0.1782981E-005  0.1042478E+03  0.7546771E-02  0.1273615E+00
          4   -1    0    0  502    0  0.00000000000E+00  0.00000000000E+00  0.36991654608E+02  0.36991654608E+02  0.00000000000E+00 0. -1.
         -4   -1    0    0    0  501 -0.00000000000E+00 -0.00000000000E+00 -0.52187775086E+03  0.52187775086E+03  0.00000000000E+00 0.  1.
         23    2    1    2    0    0 -0.27484033199E+02 -0.47674283225E+02 -0.36522489290E+03  0.37993412368E+03  0.89064620258E+02 0.  0.
         23    2    1    2    0    0  0.39364666811E+01  0.19261682803E+02 -0.78470676393E+02  0.12363226864E+03  0.93492152624E+02 0.  0.
        -11    1    4    4    0    0 -0.26192016737E+02 -0.19414142075E+02 -0.18319657836E+01  0.32654046486E+02  0.00000000000E+00 0.  1.
         11    1    4    4    0    0  0.30128483419E+02  0.38675824879E+02 -0.76638710609E+02  0.90978222158E+02  0.00000000000E+00 0. -1.
        -13    1    3    3    0    0 -0.55869155148E+02 -0.39951595066E+02 -0.30829373161E+03  0.31585204985E+03  0.00000000000E+00 0.  1.
         13    1    3    3    0    0  0.28385121949E+02 -0.77226881599E+01 -0.56931161286E+02  0.64082073826E+02  0.00000000000E+00 0. -1.
         21    1    1    2  502  501  0.23547566518E+02  0.28412600422E+02 -0.41190526966E+02  0.55303013149E+02  0.00000000000E+00 0.  1.
<scales pt_clust_5="13000.00000" pt_clust_6="13000.00000" pt_clust_7="13000.00000" pt_clust_8="13000.00000" pt_clust_9="36.90208"></scales>
<clustering>
<clus scale="   36.902">  1  9  2 -1</clus>
<clus scale="   89.065">  7  8 -1 -1</clus>
<clus scale="   93.492">  5  6 -1 -1</clus>
<clus scale="  100.296">  2  7  1 -1</clus>
<clus scale="   36.902">  1  5  2 -1</clus>
</clustering>
</event>
<event>
 9    1  0.1782981E-005  0.1753491E+03  0.7546771E-02  0.1172575E+00
         -2   -1    0    0    0  501 -0.00000000000E+00  0.00000000000E+00  0.16122193286E+03  0.16122193286E+03  0.00000000000E+00 0.  1.
          2   -1    0    0  502    0  0.00000000000E+00 -0.00000000000E+00 -0.43237225147E+03  0.43237225147E+03  0.00000000000E+00 0. -1.
         23    2    1    2    0    0  0.85174212864E+02  0.12759550408E+03  0.74307879707E+02  0.19488757785E+03  0.94468237066E+02 0.  0.
         23    2    1    2    0    0 -0.52564558173E+02 -0.10481937199E+03 -0.31449984731E+03  0.34830262579E+03  0.93029197839E+02 0.  0.
        -11    1    4    4    0    0  0.13604630128E+02 -0.29904372330E+02 -0.22898261963E+02  0.40046071546E+02  0.00000000000E+00 0.  1.
         11    1    4    4    0    0 -0.66169188301E+02 -0.74914999663E+02 -0.29160158535E+03  0.30825655424E+03  0.00000000000E+00 0. -1.
        -13    1    3    3    0    0 -0.19981680774E+02  0.23506966154E+02  0.41264475769E+01  0.31126718329E+02  0.00000000000E+00 0. -1.
         13    1    3    3    0    0  0.10515589364E+03  0.10408853793E+03  0.70181432130E+02  0.16376085952E+03  0.00000000000E+00 0.  1.
         21    1    1    2  502  501 -0.32609654691E+02 -0.22776132091E+02 -0.30958351011E+02  0.50403980690E+02  0.00000000000E+00 0. -1.
<scales pt_clust_5="13000.00000" pt_clust_6="13000.00000" pt_clust_7="13000.00000" pt_clust_8="13000.00000" pt_clust_9="39.77615"></scales>
<clustering>
<clus scale="   39.776">  2  9  1 -1</clus>
<clus scale="   93.029">  5  6 -1 -1</clus>
<clus scale="   94.468">  7  8 -1 -1</clus>
<clus scale="  174.578">  2  5  1 -1</clus>
<clus scale="   39.776">  2  5  1 -1</clus>
</clustering>
</event>
<event>
 9    1  0.1782981E-005  0.1420670E+03  0.7546771E-02  0.1212077E+00
         -1   -1    0    0    0  501 -0.00000000000E+00  0.00000000000E+00  0.40717615741E+03  0.40717615741E+03  0.00000000000E+00 0.  1.
          1   -1    0    0  502    0  0.00000000000E+00 -0.00000000000E+00 -0.59093362693E+02  0.59093362693E+02  0.00000000000E+00 0. -1.
         23    2    1    2    0    0  0.99026902054E+02  0.38316325678E+01  0.18884570204E+03  0.23231571308E+03  0.92124278161E+02 0.  0.
         23    2    1    2    0    0 -0.10451827035E+03 -0.28042268377E+02  0.13915506225E+03  0.20202266301E+03  0.98684281250E+02 0.  0.
        -11    1    3    3    0    0  0.82283298748E+02 -0.31218451716E+02  0.16424412855E+03  0.18633643429E+03  0.00000000000E+00 0.  1.
         11    1    3    3    0    0  0.16743603306E+02  0.35050084284E+02  0.24601573488E+02  0.45979278790E+02  0.00000000000E+00 0. -1.
        -13    1    4    4    0    0 -0.73030946735E+02  0.80125776478E+01  0.23959570586E+02  0.77277303293E+02  0.00000000000E+00 0. -1.
         13    1    4    4    0    0 -0.31487323618E+02 -0.36054846025E+02  0.11519549167E+03  0.12474535972E+03  0.00000000000E+00 0.  1.
         21    1    1    2  502  501  0.54913682987E+01  0.24210635810E+02  0.20082030427E+02  0.31931144016E+02  0.00000000000E+00 0.  1.
<scales pt_clust_5="13000.00000" pt_clust_6="13000.00000" pt_clust_7="13000.00000" pt_clust_8="13000.00000" pt_clust_9="24.82559"></scales>
<clustering>
<clus scale="   24.826">  2  9  1 -1</clus>
<clus scale="   92.124">  5  6 -1 -1</clus>
<clus scale="   98.684">  7  8 -1 -1</clus>
<clus scale="  137.591">  1  5  2 -1</clus>
<clus scale="   24.826">  2  5  1 -1</clus>
</clustering>
</event>
<event>
 9    1  0.1782981E-005  0.9660039E+02  0.7546771E-02  0.1288660E+00
         -3   -1    0    0    0  501 -0.00000000000E+00  0.00000000000E+00  0.46978986001E+02  0.46978986001E+02  0.00000000000E+00 0.  1.
          3   -1    0    0  502    0  0.00000000000E+00 -0.00000000000E+00 -0.69192089399E+03  0.69192089399E+03  0.00000000000E+00 0. -1.
         23    2    1    2    0    0 -0.13592106126E+02  0.33746511045E+02 -0.22763446930E+02  0.97888205112E+02  0.87979280671E+02 0.  0.
         23    2    1    2    0    0  0.51695451878E+02 -0.35589317854E+01 -0.37597937991E+03  0.39005920436E+03  0.90003350219E+02 0.  0.
        -11    1    4    4    0    0 -0.88144600141E+00  0.35544128780E+02 -0.92312004056E+02  0.98922536009E+02  0.00000000000E+00 0.  1.
         11    1    4    4    0    0  0.52576897879E+02 -0.39103060565E+02 -0.28366737586E+03  0.29113666836E+03  0.00000000000E+00 0. -1.
        -13    1    3    3    0    0 -0.13449853962E+02  0.63714487350E+02 -0.17840049582E+02  0.67518159328E+02  0.00000000000E+00 0.  1.
         13    1    3    3    0    0 -0.14225216436E+00 -0.29967976305E+02 -0.49233973476E+01  0.30370045785E+02  0.00000000000E+00 0. -1.
         21    1    1    2  502  501 -0.38103345752E+02 -0.30187579260E+02 -0.24619908115E+03  0.25095247052E+03  0.00000000000E+00 0. -1.
<scales pt_clust_5="13000.00000" pt_clust_6="13000.00000" pt_clust_7="13000.00000" pt_clust_8="13000.00000" pt_clust_9="48.61229"></scales>
<clustering>
<clus scale="   48.612">  2  9  1 -1</clus>
<clus scale="   87.979">  7  8 -1 -1</clus>
<clus scale="   90.003">  5  6 -1 -1</clus>
<clus scale="   94.717">  1  7  2 -1</clus>
<clus scale="   48.612">  2  5  1 -1</clus>
</clustering>
</event>
<event>
 9    1  0.1782981E-005  0.1304166E+03  0.7546771E-02  0.1234006E+00
          1   -1    0    0  502    0  0.00000000000E+00  0.00000000000E+00  0.50223659321E+03  0.50223659321E+03  0.00000000000E+00 0. -1.
         -1   -1    0    0    0  501 -0.00000000000E+00 -0.00000000000E+00 -0.35761220914E+02  0.35761220914E+02  0.00000000000E+00 0.  1.
         23    2    1    2    0    0 -0.46842900662E+02  0.43970832544E+02  0.15876128024E+03  0.19338893785E+03  0.89813393878E+02 0.  0.
         23    2    1    2    0    0  0.65568585596E+02 -0.35462233889E+02  0.25680808987E+03  0.28970469988E+03  0.11145227078E+03 0.  0.
        -11    1    4    4    0    0 -0.24163415258E+02  0.12632946464E+02  0.92287280135E+02  0.96230993178E+02  0.00000000000E+00 0.  1.
         11    1    4    4    0    0  0.89732000854E+02 -0.48095180353E+02  0.16452080973E+03  0.19347370670E+03  0.00000000000E+00 0. -1.
        -11    1    3    3    0    0  0.21862444483E+02  0.14093493174E+02  0.12075548860E+02  0.28677724960E+02  0.00000000000E+00 0. -1.
         11    1    3    3    0    0 -0.68705345144E+02  0.29877339370E+02  0.14668573138E+03  0.16471121289E+03  0.00000000000E+00 0.  1.
         21    1    1    2  502  501 -0.18725684934E+02 -0.85085986542E+01  0.50906002184E+02  0.54904176396E+02  0.00000000000E+00 0.  1.
<scales pt_clust_5="13000.00000" pt_clust_6="13000.00000" pt_clust_7="13000.00000" pt_clust_8="13000.00000" pt_clust_9="20.56812"></scales>
<clustering>
<clus scale="   20.568">  1  9  2 -1</clus>
<clus scale="   89.813">  7  8 -1 -1</clus>
<clus scale="  111.452">  5  6 -1 -1</clus>
<clus scale="  112.487">  2  7  1 -1</clus>
<clus scale="   20.568">  1  5  2 -1</clus>
</clustering>
</event>
<event>
 9    1  0.1782981E-005  0.1001259E+03  0.7546771E-02  0.1280444E+00
          2   -1    0    0  502    0  0.00000000000E+00  0.00000000000E+00  0.93716007414E+03  0.93716007414E+03  0.00000000000E+00 0. -1.
         -2   -1    0    0    0  501 -0.00000000000E+00 -0.00000000000E+00 -0.13294797713E+02  0.13294797713E+02  0.00000000000E+00 0.  1.
         23    2    1    2    0    0 -0.14815840060E+02  0.37271551263E+02  0.39355761881E+03  0.40494031011E+03  0.86489177206E+02 0.  0.
         23    2    1    2    0    0  0.20249109403E+02 -0.57655405795E+02  0.40424278034E+03  0.41769681954E+03  0.85581746564E+02 0.  0.
        -11    1    3    3    0    0  0.35306192533E+02  0.10420587519E+02  0.11930295454E+03  0.12485315710E+03  0.00000000000E+00 0.  1.
         11    1    3    3    0    0 -0.50122032593E+02  0.26850963744E+02  0.27425466427E+03  0.28008715301E+03  0.00000000000E+00 0. -1.
        -11    1    4    4    0    0  0.50468048803E+02 -0.14620741494E+02  0.19697956158E+03  0.20386696082E+03  0.00000000000E+00 0.  1.
         11    1    4    4    0    0 -0.30218939400E+02 -0.43034664302E+02  0.20726321876E+03  0.21382985872E+03  0.00000000000E+00 0. -1.
         21    1    1    2  502  501 -0.54332693429E+01  0.20383854532E+02  0.12606487727E+03  0.12781774221E+03  0.00000000000E+00 0. -1.
<scales pt_clust_5="13000.00000" pt_clust_6="13000.00000" pt_clust_7="13000.00000" pt_clust_8="13000.00000" pt_clust_9="21.09554"></scales>
<clustering>
<clus scale="   21.096">  1  9  2 -1</clus>
<clus scale="   85.582">  7  8 -1 -1</clus>
<clus scale="   86.489">  5  6 -1 -1</clus>
<clus scale="   99.343">  1  7  2 -1</clus>
<clus scale="   21.096">  1  5  2 -1</clus>
</clustering>
</event>
<event>
 9    1  0.1782981E-005  0.1554154E+03  0.7546771E-02  0.1194598E+00
          1   -1    0    0  502    0  0.00000000000E+00  0.00000000000E+00  0.31902302972E+03  0.31902302972E+03  0.00000000000E+00 0. -1.
         -1   -1    0    0    0  501 -0.00000000000E+00 -0.00000000000E+00 -0.10381168509E+03  0.10381168509E+03  0.00000000000E+00 0.  1.
         23    2    1    2    0    0 -0.88696682139E+02 -0.77775190084E+02  0.45129499980E+02  0.15528315678E+03  0.90333301700E+02 0.  0.
         23    2    1    2    0    0  0.81618346823E+02  0.10608553627E+03  0.10003657739E+03  0.19167061182E+03  0.93886160194E+02 0.  0.
        -11    1    3    3    0    0 -0.36750044852E+01 -0.28984262567E+02 -0.21914980120E+02  0.36522041128E+02  0.00000000000E+00 0. -1.
         11    1    3    3    0    0 -0.85021677654E+02 -0.48790927517E+02  0.67044480100E+02  0.11876111565E+03  0.00000000000E+00 0.  1.
        -13    1    4    4    0    0 -0.17515601175E+02  0.34015323006E+02  0.39430666960E+02  0.54941932808E+02  0.00000000000E+00 0.  1.
         13    1    4    4    0    0  0.99133947998E+02  0.72070213259E+02  0.60605910431E+02  0.13672867901E+03  0.00000000000E+00 0. -1.
         21    1    1    2  502  501  0.70783353155E+01 -0.28310346182E+02  0.70045267261E+02  0.75880946208E+02  0.00000000000E+00 0. -1.
<scales pt_clust_5="13000.00000" pt_clust_6="13000.00000" pt_clust_7="13000.00000" pt_clust_8="13000.00000" pt_clust_9="29.18182"></scales>
<clustering>
<clus scale="   29.182">  1  9  2 -1</clus>
<clus scale="   90.333">  5  6 -1 -1</clus>
<clus scale="   93.886">  7  8 -1 -1</clus>
<clus scale="  153.295">  2  5  1 -1</clus>
<clus scale="   29.182">  1  5  2 -1</clus>
</clustering>
</event>
<event>
 9    1  0.1782981E-005  0.1461683E+03  0.7546771E-02  0.1205853E+00
         -1   -1    0    0    0  501 -0.00000000000E+00  0.00000000000E+00  0.21380701847E+03  0.21380701847E+03  0.00000000000E+00 0.  1.
          1   -1    0    0  502    0  0.00000000000E+00 -0.00000000000E+00 -0.23489498021E+03  0.23489498021E+03  0.00000000000E+00 0. -1.
         23    2    1    2    0    0  0.77702751721E+02 -0.71389613660E+01  0.26208428329E+02  0.12514096314E+03  0.94258668276E+02 0.  0.
         23    2    1    2    0    0 -0.18432244113E+03 -0.16228722771E+02 -0.47712928975E+01  0.20641928073E+03  0.91367502299E+02 0.  0.
        -11    1    4    4    0    0 -0.14120459638E+03 -0.28800916609E+02  0.32876182724E+02  0.14781432348E+03  0.00000000000E+00 0.  1.
         11    1    4    4    0    0 -0.43117844747E+02  0.12572193838E+02 -0.37647475621E+02  0.58604957249E+02  0.00000000000E+00 0. -1.
        -13    1    3    3    0    0  0.75187816985E+02 -0.39156350940E+02  0.35199475730E+02  0.91790145078E+02  0.00000000000E+00 0. -1.
         13    1    3    3    0    0  0.25149347364E+01  0.32017389574E+02 -0.89910474011E+01  0.33350818059E+02  0.00000000000E+00 0.  1.
         21    1    1    2  502  501  0.10661968941E+03  0.23367684137E+02 -0.42525097165E+02  0.11714175481E+03  0.00000000000E+00 0. -1.
<scales pt_clust_5="13000.00000" pt_clust_6="13000.00000" pt_clust_7="13000.00000" pt_clust_8="13000.00000" pt_clust_9="109.15039"></scales>
<clustering>
<clus scale="   91.368">  5  6 -1 -1</clus>
<clus scale="   94.259">  7  8 -1 -1</clus>
<clus scale="  109.150">  2  9  1 -1</clus>
<clus scale="  144.321">  2  5  1 -1</clus>
<clus scale="  109.150">  2  5  1 -1</clus>
</clustering>
</event>
<event>
 9    1  0.1782981E-005  0.2774544E+03  0.7546771E-02  0.1097088E+00
         -2   -1    0    0    0  501 -0.00000000000E+00  0.00000000000E+00  0.16491217907E+03  0.16491217907E+03  0.00000000000E+00 0.  1.
          2   -1    0    0  502    0  0.00000000000E+00 -0.00000000000E+00 -0.93782362245E+03  0.93782362245E+03  0.00000000000E+00 0. -1.
         23    2    1    2    0    0  0.23591161143E+03 -0.17336970190E+02 -0.97553227646E+01  0.25349600819E+03  0.90610158939E+02 0.  0.
         23    2    1    2    0    0 -0.26045332536E+03  0.64836612425E+02 -0.73730284229E+03  0.78985205271E+03  0.90614915584E+02 0.  0.
        -11    1    3    3    0    0  0.11900535345E+03 -0.14243460956E+02  0.40072383677E+02  0.12637620925E+03  0.00000000000E+00 0.  1.
         11    1    3    3    0    0  0.11690625797E+03 -0.30935092340E+01 -0.49827706442E+02  0.12711979894E+03  0.00000000000E+00 0. -1.
        -11    1    4    4    0    0 -0.15021657575E+02 -0.15950198400E+02 -0.32655179102E+02  0.39324543831E+02  0.00000000000E+00 0.  1.
         11    1    4    4    0    0 -0.24543166778E+03  0.80786810825E+02 -0.70464766319E+03  0.75052750888E+03  0.00000000000E+00 0. -1.
         21    1    1    2  502  501  0.24541713933E+02 -0.47499642234E+02 -0.25853278333E+02  0.59387740618E+02  0.00000000000E+00 0.  1.
<scales pt_clust_5="13000.00000" pt_clust_6="13000.00000" pt_clust_7="13000.00000" pt_clust_8="13000.00000" pt_clust_9="53.46505"></scales>
<clustering>
<clus scale="   53.465">  1  9  2 -1</clus>
<clus scale="   90.610">  5  6 -1 -1</clus>
<clus scale="   90.615">  7  8 -1 -1</clus>
<clus scale="  277.453">  1  5  2 -1</clus>
<clus scale="  277.454">  2  5  1 -1</clus>
</clustering>
</event>
<event>
 9    1  0.1782981E-005  0.3593543E+03  0.7546771E-02  0.1058909E+00
         -1   -1    0    0    0  501 -0.00000000000E+00  0.00000000000E+00  0.39590731081E+03  0.39590731081E+03  0.00000000000E+00 0.  1.
          1   -1    0    0  502    0  0.00000000000E+00 -0.00000000000E+00 -0.51189570896E+03  0.51189570896E+03  0.00000000000E+00 0. -1.
         23    2    1    2    0    0  0.31498872492E+03  0.12880665106E+03  0.17805393512E+03  0.39510004420E+03  0.92691914034E+02 0.  0.
         23    2    1    2    0    0 -0.33470013547E+03 -0.16075879731E+03 -0.27399425286E+03  0.47014237309E+03  0.89963485806E+02 0.  0.
        -11    1    4    4    0    0 -0.53793984395E+02 -0.65177728214E+02 -0.73835414403E+02  0.11222119868E+03  0.00000000000E+00 0.  1.
         11    1    4    4    0    0 -0.28090615108E+03 -0.95581069094E+02 -0.20015883846E+03  0.35792117442E+03  0.00000000000E+00 0. -1.
        -13    1    3    3    0    0  0.15089546229E+03  0.10754171445E+03  0.73327711864E+02  0.19927773135E+03  0.00000000000E+00 0. -1.
         13    1    3    3    0    0  0.16409326264E+03  0.21264936618E+02  0.10472622326E+03  0.19582231285E+03  0.00000000000E+00 0.  1.
         21    1    1    2  502  501  0.19711410551E+02  0.31952146245E+02 -0.20048080407E+02  0.42560602481E+02  0.00000000000E+00 0.  1.
<scales pt_clust_5="13000.00000" pt_clust_6="13000.00000" pt_clust_7="13000.00000" pt_clust_8="13000.00000" pt_clust_9="37.54303"></scales>
<clustering>
<clus scale="   37.543">  2  9  1 -1</clus>
<clus scale="   89.963">  5  6 -1 -1</clus>
<clus scale="   92.692">  7  8 -1 -1</clus>
<clus scale="  358.660">  2  5  1 -1</clus>
<clus scale="   37.543">  2  5  1 -1</clus>
</clustering>
</event>
<event>
 9    1  0.1782981E-005  0.1777487E+03  0.7546771E-02  0.1170239E+00
         -3   -1    0    0    0  501 -0.00000000000E+00  0.00000000000E+00  0.12686896563E+03  0.12686896563E+03  0.00000000000E+00 0.  1.
          3   -1    0    0  502    0  0.00000000000E+00 -0.00000000000E+00 -0.39914156826E+03  0.39914156826E+03  0.00000000000E+00 0. -1.
         23    2    1    2    0    0  0.45338778866E+02 -0.14438812182E+03  0.13786625574E+02  0.17767604013E+03  0.92060684338E+02 0.  0.
         23    2    1    2    0    0 -0.24651286575E+02  0.14857419800E+03 -0.25101067996E+03  0.30742121591E+03  0.93912002930E+02 0.  0.
        -11    1    3    3    0    0  0.52052668506E+02 -0.28843165052E+02  0.17004281839E+02  0.61891470088E+02  0.00000000000E+00 0. -1.
         11    1    3    3    0    0 -0.67138896398E+01 -0.11554495677E+03 -0.32176562648E+01  0.11578457004E+03  0.00000000000E+00 0.  1.
        -13    1    4    4    0    0  0.62620356772E+01  0.69298586613E+02 -0.40844269012E+02  0.80683093077E+02  0.00000000000E+00 0.  1.
         13    1    4    4    0    0 -0.30913322252E+02  0.79275611388E+02 -0.21016641095E+03  0.22673812283E+03  0.00000000000E+00 0. -1.
         21    1    1    2  502  501 -0.20687492291E+02 -0.41860761803E+01 -0.35048548236E+02  0.40913277851E+02  0.00000000000E+00 0.  1.
<scales pt_clust_5="13000.00000" pt_clust_6="13000.00000" pt_clust_7="13000.00000" pt_clust_8="13000.00000" pt_clust_9="21.10677"></scales>
<clustering>
<clus scale="   21.107">  2  9  1 -1</clus>
<clus scale="   92.061">  5  6 -1 -1</clus>
<clus scale="   93.912">  7  8 -1 -1</clus>
<clus scale="  176.778">  1  5  2 -1</clus>
<clus scale="   21.107">  2  5  1 -1</clus>
</clustering>
</event>
<event>
 9    1  0.1782981E-005  0.1146638E+03  0.7546771E-02  0.1252803E+00
          1   -1    0    0  502    0  0.00000000000E+00  0.00000000000E+00  0.55680181513E+03  0.55680181513E+03  0.00000000000E+00 0. -1.
         -1   -1    0    0    0  501 -0.00000000000E+00 -0.00000000000E+00 -0.48229942062E+02  0.48229942062E+02  0.00000000000E+00 0.  1.
         23    2    1    2    0    0 -0.41002094465E+02  0.36497746070E+02  0.80047916887E+02  0.13430253143E+03  0.92823723964E+02 0.  0.
         23    2    1    2    0    0  0.34693605240E+02 -0.86645114527E+02  0.22760234617E+03  0.26354802737E+03  0.94571204037E+02 0.  0.
        -11    1    4    4    0    0 -0.28018798115E+02 -0.55439414848E+02  0.12058941284E+03  0.13564803078E+03  0.00000000000E+00 0.  1.
         11    1    4    4    0    0  0.62712403355E+02 -0.31205699679E+02  0.10701293333E+03  0.12789999658E+03  0.00000000000E+00 0. -1.
        -11    1    3    3    0    0  0.27952059570E+02  0.11930150475E+02  0.41891470451E+02  0.51754627050E+02  0.00000000000E+00 0. -1.
         11    1    3    3    0    0 -0.68954154035E+02  0.24567595595E+02  0.38156446436E+02  0.82547904375E+02  0.00000000000E+00 0.  1.
         21    1    1    2  502  501  0.63084892257E+01  0.50147368457E+02  0.20092161001E+03  0.20718119839E+03  0.00000000000E+00 0. -1.
<scales pt_clust_5="13000.00000" pt_clust_6="13000.00000" pt_clust_7="13000.00000" pt_clust_8="13000.00000" pt_clust_9="50.54261"></scales>
<clustering>
<clus scale="   50.543">  1  9  2 -1</clus>
<clus scale="   92.824">  7  8 -1 -1</clus>
<clus scale="   94.571">  5  6 -1 -1</clus>
<clus scale="  113.227">  2  7  1 -1</clus>
<clus scale="   50.543">  1  5  2 -1</clus>
</clustering>
</event>
<event>
 9    1  0.1782981E-005  0.1179838E+03  0.7546771E-02  0.1248544E+00
          1   -1    0    0  502    0  0.00000000000E+00  0.00000000000E+00  0.26282120379E+02  0.26282120379E+02  0.00000000000E+00 0. -1.
         -1   -1    0    0    0  501 -0.00000000000E+00 -0.00000000000E+00 -0.69020363019E+03  0.69020363019E+03  0.00000000000E+00 0.  1.
         23    2    1    2    0    0  0.49001338985E+01 -0.65700328466E+02 -0.38157698914E+03  0.39850472319E+03  0.94151321240E+02 0.  0.
         23    2    1    2    0    0  0.15287753762E+02  0.79542019501E+02 -0.25235661240E+03  0.27927162463E+03  0.88023475390E+02 0.  0.
        -11    1    3    3    0    0  0.32283723439E+02  0.45213245879E+01 -0.18736818848E+03  0.19018285735E+03  0.00000000000E+00 0.  1.
         11    1    3    3    0    0 -0.27383589541E+02 -0.70221653054E+02 -0.19420880065E+03  0.20832186583E+03  0.00000000000E+00 0. -1.
        -13    1    4    4    0    0 -0.20828428343E+02  0.73007919131E+02 -0.12067521497E+03  0.14257099001E+03  0.00000000000E+00 0.  1.
         13    1    4    4    0    0  0.36116182106E+02  0.65341003699E+01 -0.13168139743E+03  0.13670063462E+03  0.00000000000E+00 0. -1.
         21    1    1    2  502  501 -0.20187887661E+02 -0.13841691034E+02 -0.29987908277E+02  0.38709402756E+02  0.00000000000E+00 0.  1.
<scales pt_clust_5="13000.00000" pt_clust_6="13000.00000" pt_clust_7="13000.00000" pt_clust_8="13000.00000" pt_clust_9="24.47740"></scales>
<clustering>
<clus scale="   24.477">  1  9  2 -1</clus>
<clus scale="   88.023">  7  8 -1 -1</clus>
<clus scale="   94.151">  5  6 -1 -1</clus>
<clus scale="  113.154">  1  7  2 -1</clus>
<clus scale="   24.477">  1  5  2 -1</clus>
</clustering>
</event>
<event>
 9    1  0.1782981E-005  0.1009023E+03  0.7546771E-02  0.1281149E+00
         -1   -1    0    0    0  501 -0.00000000000E+00  0.00000000000E+00  0.31981754401E+02  0.31981754401E+02  0.00000000000E+00 0.  1.
          1   -1    0    0  502    0  0.00000000000E+00 -0.00000000000E+00 -0.95445618678E+03  0.95445618678E+03  0.00000000000E+00 0. -1.
         23    2    1    2    0    0 -0.27432176715E+02 -0.29691357700E+02 -0.94299948963E+02  0.13859731038E+03  0.93180647280E+02 0.  0.
         23    2    1    2    0    0 -0.34944813210E+02  0.59885444147E+02 -0.47910961543E+03  0.49196304822E+03  0.87602573143E+02 0.  0.
        -13    1    3    3    0    0  0.32094343204E+02 -0.59696386893E+01 -0.13140146086E+02  0.35190153324E+02  0.00000000000E+00 0.  1.
         13    1    3    3    0    0 -0.59526519919E+02 -0.23721719011E+02 -0.81159802878E+02  0.10340715705E+03  0.00000000000E+00 0. -1.
        -13    1    4    4    0    0  0.23406000811E+02  0.26369150022E+02 -0.83004050371E+02  0.90182289419E+02  0.00000000000E+00 0.  1.
         13    1    4    4    0    0 -0.58350814021E+02  0.33516294125E+02 -0.39610556506E+03  0.40178075880E+03  0.00000000000E+00 0. -1.
         21    1    1    2  502  501  0.62376989925E+02 -0.30194086447E+02 -0.34906486799E+03  0.35587758259E+03  0.00000000000E+00 0. -1.
<scales pt_clust_5="13000.00000" pt_clust_6="13000.00000" pt_clust_7="13000.00000" pt_clust_8="13000.00000" pt_clust_9="69.30059"></scales>
<clustering>
<clus scale="   69.301">  2  9  1 -1</clus>
<clus scale="   87.603">  7  8 -1 -1</clus>
<clus scale="   93.181">  5  6 -1 -1</clus>
<clus scale="   95.775">  2  7  1 -1</clus>
<clus scale="   69.301">  2  5  1 -1</clus>
</clustering>
</event>
<event>
 9    1  0.1782981E-005  0.9597621E+02  0.7546771E-02  0.1292871E+00
         -2   -1    0    0    0  501 -0.00000000000E+00  0.00000000000E+00  0.17445283725E+03  0.17445283725E+03  0.00000000000E+00 0.  1.
          2   -1    0    0  502    0  0.00000000000E+00 -0.00000000000E+00 -0.92549305445E+02  0.92549305445E+02  0.00000000000E+00 0. -1.
         23    2    1    2    0    0  0.35469553362E+02  0.45945843670E+01  0.58205865758E+02  0.10794620953E+03  0.83577879388E+02 0.  0.
         23    2    1    2    0    0 -0.20787500431E+02  0.32739423337E+02  0.50478310166E+02  0.11082115619E+03  0.90715372721E+02 0.  0.
        -11    1    3    3    0    0 -0.24709941753E+02 -0.42337382338E+01  0.34543317567E+02  0.42681922982E+02  0.00000000000E+00 0.  1.
         11    1    3    3    0    0  0.60179495116E+02  0.88283226009E+01  0.23662548190E+02  0.65264286552E+02  0.00000000000E+00 0. -1.
        -13    1    4    4    0    0 -0.50254262491E+02  0.10327584461E+02  0.52936172652E+02  0.73718303523E+02  0.00000000000E+00 0.  1.
         13    1    4    4    0    0  0.29466762060E+02  0.22411838876E+02 -0.24578624861E+01  0.37102852668E+02  0.00000000000E+00 0. -1.
         21    1    1    2  502  501 -0.14682052931E+02 -0.37334007704E+02 -0.26780644121E+02  0.48234776967E+02  0.00000000000E+00 0. -1.
<scales pt_clust_5="13000.00000" pt_clust_6="13000.00000" pt_clust_7="13000.00000" pt_clust_8="13000.00000" pt_clust_9="40.11721"></scales>
<clustering>
<clus scale="   40.117">  2  9  1 -1</clus>
<clus scale="   83.578">  5  6 -1 -1</clus>
<clus scale="   89.260">  1  5  2 -1</clus>
<clus scale="   90.715">  7  8 -1 -1</clus>
<clus scale="   40.117">  2  5  1 -1</clus>
</clustering>
</event>
<event>
 9    1  0.1782981E-005  0.8985878E+02  0.7546771E-02  0.1314209E+00
         -1   -1    0    0    0  501 -0.00000000000E+00  0.00000000000E+00  0.48268538666E+02  0.48268538666E+02  0.00000000000E+00 0.  1.
          1   -1    0    0  502    0  0.00000000000E+00 -0.00000000000E+00 -0.38191804721E+03  0.38191804721E+03  0.00000000000E+00 0. -1.
         23    2    1    2    0    0 -0.42649715736E+01 -0.92225987520E+01 -0.91801741605E+01  0.74087363341E+02  0.72810819930E+02 0.  0.
         23    2    1    2    0    0  0.37552442529E+02 -0.23455326969E+02 -0.20784918881E+03  0.23049603425E+03  0.89256922510E+02 0.  0.
        -11    1    3    3    0    0 -0.27082543811E+02 -0.30389237658E+02  0.26484192546E+01  0.40791960841E+02  0.00000000000E+00 0.  1.
         11    1    3    3    0    0  0.22817572238E+02  0.21166638906E+02 -0.11828593415E+02  0.33295402499E+02  0.00000000000E+00 0. -1.
        -13    1    4    4    0    0 -0.23379932433E+02  0.61737291551E+01 -0.22037356191E+02  0.32716681374E+02  0.00000000000E+00 0.  1.
         13    1    4    4    0    0  0.60932374962E+02 -0.29629056124E+02 -0.18581183261E+03  0.19777935288E+03  0.00000000000E+00 0. -1.
         21    1    1    2  502  501 -0.33287470955E+02  0.32677925720E+02 -0.11662014558E+03  0.12560318828E+03  0.00000000000E+00 0.  1.
<scales pt_clust_5="13000.00000" pt_clust_6="13000.00000" pt_clust_7="13000.00000" pt_clust_8="13000.00000" pt_clust_9="46.64657"></scales>
<clustering>
<clus scale="   46.647">  2  9  1 -1</clus>
<clus scale="   72.811">  5  6 -1 -1</clus>
<clus scale="   73.547">  1  5  2 -1</clus>
<clus scale="   89.257">  7  8 -1 -1</clus>
<clus scale="   46.647">  2  5  1 -1</clus>
</clustering>
</event>
<event>
 9    1  0.1782981E-005  0.1506648E+03  0.7546771E-02  0.1203831E+00
         -1   -1    0    0    0  501 -0.00000000000E+00  0.00000000000E+00  0.11701971953E+03  0.11701971953E+03  0.00000000000E+00 0.  1.
          1   -1    0    0  502    0  0.00000000000E+00 -0.00000000000E+00 -0.26907273261E+03  0.26907273261E+03  0.00000000000E+00 0. -1.
         23    2    1    2    0    0  0.77664910693E+02 -0.48207100976E+02 -0.35507029720E+02  0.15208702491E+03  0.11624952064E+03 0.  0.
         23    2    1    2    0    0 -0.73079611550E+02  0.69605309994E+02 -0.29539425702E+02  0.14428893270E+03  0.98798732906E+02 0.  0.
        -11    1    4    4    0    0 -0.94151620491E+02  0.60656337322E+02 -0.40252832869E+02  0.11901264409E+03  0.00000000000E+00 0. -1.
         11    1    4    4    0    0  0.21072008941E+02  0.89489726722E+01  0.10713407168E+02  0.25276288609E+02  0.00000000000E+00 0.  1.
        -13    1    3    3    0    0 -0.64030031129E+01 -0.45356207666E+02 -0.48796519169E+02  0.66927455545E+02  0.00000000000E+00 0. -1.
         13    1    3    3    0    0  0.84067913806E+02 -0.28508933103E+01  0.13289489449E+02  0.85159569364E+02  0.00000000000E+00 0.  1.
         21    1    1    2  502  501 -0.45852991434E+01 -0.21398209018E+02 -0.87006557655E+02  0.89716494540E+02  0.00000000000E+00 0. -1.
<scales pt_clust_5="13000.00000" pt_clust_6="13000.00000" pt_clust_7="13000.00000" pt_clust_8="13000.00000" pt_clust_9="21.88397"></scales>
<clustering>
<clus scale="   21.884">  2  9  1 -1</clus>
<clus scale="   98.799">  5  6 -1 -1</clus>
<clus scale="  116.250">  7  8 -1 -1</clus>
<clus scale="  137.649">  2  5  1 -1</clus>
<clus scale="   21.884">  2  5  1 -1</clus>
</clustering>
</event>
<event>
 9    1  0.1782981E-005  0.1149373E+03  0.7546771E-02  0.1258844E+00
         -1   -1    0    0    0  501 -0.00000000000E+00  0.00000000000E+00  0.15328521873E+03  0.15328521873E+03  0.00000000000E+00 0.  1.
          1   -1    0    0  502    0  0.00000000000E+00 -0.00000000000E+00 -0.22370782087E+03  0.22370782087E+03  0.00000000000E+00 0. -1.
         23    2    1    2    0    0 -0.36677477631E+02 -0.25054071452E+02  0.98791407410E+02  0.14231064555E+03  0.92301862379E+02 0.  0.
         23    2    1    2    0    0 -0.12769679652E+02  0.17594146569E+02 -0.99150918279E+02  0.14860389149E+03  0.10853383462E+03 0.  0.
        -11    1    4    4    0    0  0.36165877603E+02  0.12255221266E+02 -0.91027017699E+02  0.98712102106E+02  0.00000000000E+00 0. -1.
         11    1    4    4    0    0 -0.48935557255E+02  0.53389253038E+01 -0.81239005803E+01  0.49891789383E+02  0.00000000000E+00 0.  1.
        -11    1    3    3    0    0  0.23745395799E+02 -0.25703742418E+02  0.12904517162E+02  0.37296819692E+02  0.00000000000E+00 0. -1.
         11    1    3    3    0    0 -0.60422873430E+02  0.64967096686E+00  0.85886890248E+02  0.10501382586E+03  0.00000000000E+00 0.  1.
         21    1    1    2  502  501  0.49447157283E+02  0.74599248822E+01 -0.70063091274E+02  0.86078502552E+02  0.00000000000E+00 0. -1.
<scales pt_clust_5="13000.00000" pt_clust_6="13000.00000" pt_clust_7="13000.00000" pt_clust_8="13000.00000" pt_clust_9="50.00672"></scales>
<clustering>
<clus scale="   50.007">  2  9  1 -1</clus>
<clus scale="   92.302">  7  8 -1 -1</clus>
<clus scale="   99.753">  1  7  2 -1</clus>
<clus scale="  108.534">  5  6 -1 -1</clus>
<clus scale="   50.007">  2  5  1 -1</clus>
</clustering>
</event>
<event>
 9    1  0.1782981E-005  0.9485549E+02  0.7546771E-02  0.1292265E+00
         -1   -1    0    0    0  501 -0.00000000000E+00  0.00000000000E+00  0.12415463197E+03  0.12415463197E+03  0.00000000000E+00 0.  1.
          1   -1    0    0  502    0  0.00000000000E+00 -0.00000000000E+00 -0.18513532611E+03  0.18513532611E+03  0.00000000000E+00 0. -1.
         23    2    1    2    0    0  0.13456715672E+02  0.20621122319E+02  0.75076773244E+02  0.12021854970E+03  0.90607195786E+02 0.  0.
         23    2    1    2    0    0 -0.32433663700E+02  0.69754535253E+01 -0.10059897411E+03  0.14029641172E+03  0.91990923771E+02 0.  0.
        -11    1    4    4    0    0 -0.55661891790E+02  0.24722458449E+01 -0.24976472500E+02  0.61058843550E+02  0.00000000000E+00 0. -1.
         11    1    4    4    0    0  0.23228228090E+02  0.45032076804E+01 -0.75622501607E+02  0.79237568166E+02  0.00000000000E+00 0.  1.
        -11    1    3    3    0    0  0.12173563264E+02 -0.19256386011E+02 -0.11034456259E+02  0.25313302228E+02  0.00000000000E+00 0. -1.
         11    1    3    3    0    0  0.12831524076E+01  0.39877508330E+02  0.86111229503E+02  0.94905247470E+02  0.00000000000E+00 0.  1.
         21    1    1    2  502  501  0.18976948028E+02 -0.27596575845E+02 -0.35458493270E+02  0.48774996667E+02  0.00000000000E+00 0. -1.
<scales pt_clust_5="13000.00000" pt_clust_6="13000.00000" pt_clust_7="13000.00000" pt_clust_8="13000.00000" pt_clust_9="33.49172"></scales>
<clustering>
<clus scale="   33.492">  2  9  1 -1</clus>
<clus scale="   90.607">  7  8 -1 -1</clus>
<clus scale="   91.991">  5  6 -1 -1</clus>
<clus scale="   93.514">  1  7  2 -1</clus>
<clus scale="   33.492">  2  5  1 -1</clus>
</clustering>
</event>
<event>
 9    1  0.1782981E-005  0.9341445E+02  0.7546771E-02  0.1295262E+00
          2   -1    0    0  502    0  0.00000000000E+00  0.00000000000E+00  0.40162366483E+03  0.40162366483E+03  0.00000000000E+00 0. -1.
         -2   -1    0    0    0  501 -0.00000000000E+00 -0.00000000000E+00 -0.80224706185E+02  0.80224706185E+02  0.00000000000E+00 0.  1.
         23    2    1    2    0    0 -0.21524062565E+02 -0.64782977257E+01 -0.40924821724E+02  0.10167047948E+03  0.90314958640E+02 0.  0.
         23    2    1    2    0    0 -0.95628605112E+00  0.85641488466E+01  0.26874822906E+03  0.28391730431E+03  0.91154626532E+02 0.  0.
        -11    1    4    4    0    0  0.31871500694E+02  0.25119113166E+02  0.21500781290E+03  0.21880384369E+03  0.00000000000E+00 0. -1.
         11    1    4    4    0    0 -0.32827786745E+02 -0.16554964320E+02  0.53740416154E+02  0.65113460625E+02  0.00000000000E+00 0.  1.
        -11    1    3    3    0    0 -0.55247434928E+02  0.79941757290E+01 -0.30041312677E+02  0.63392952125E+02  0.00000000000E+00 0.  1.
         11    1    3    3    0    0  0.33723372363E+02 -0.14472473455E+02 -0.10883509047E+02  0.38277527357E+02  0.00000000000E+00 0. -1.
         21    1    1    2  502  501  0.22480348616E+02 -0.20858511209E+01  0.93575551309E+02  0.96260587219E+02  0.00000000000E+00 0. -1.
<scales pt_clust_5="13000.00000" pt_clust_6="13000.00000" pt_clust_7="13000.00000" pt_clust_8="13000.00000" pt_clust_9="22.57691"></scales>
<clustering>
<clus scale="   22.577">  1  9  2 -1</clus>
<clus scale="   90.315">  7  8 -1 -1</clus>
<clus scale="   91.155">  5  6 -1 -1</clus>
<clus scale="   92.595">  2  7  1 -1</clus>
<clus scale="   22.577">  1  5  2 -1</clus>
</clustering>
</event>
<event>
 9    1  0.1782981E-005  0.1180775E+03  0.7546771E-02  0.1247031E+00
          1   -1    0    0  502    0  0.00000000000E+00  0.00000000000E+00  0.78960770298E+02  0.78960770298E+02  0.00000000000E+00 0. -1.
         -1   -1    0    0    0  501 -0.00000000000E+00 -0.00000000000E+00 -0.57883787570E+03  0.57883787570E+03  0.00000000000E+00 0.  1.
         23    2    1    2    0    0  0.70417611436E+02  0.20794594328E+02 -0.49878786264E+03  0.51266716212E+03  0.92990494363E+02 0.  0.
         23    2    1    2    0    0 -0.70719221026E+02 -0.12145853839E+00 -0.20345288534E+02  0.11687790339E+03  0.90803582315E+02 0.  0.
        -11    1    3    3    0    0  0.91248407615E+02  0.28037486862E+02 -0.37693633288E+03  0.38883591862E+03  0.00000000000E+00 0.  1.
         11    1    3    3    0    0 -0.20830796178E+02 -0.72428925348E+01 -0.12185152976E+03  0.12383124350E+03  0.00000000000E+00 0. -1.
        -13    1    4    4    0    0 -0.31507722475E+01  0.36666673005E+02 -0.15054931461E+02  0.39762082897E+02  0.00000000000E+00 0.  1.
         13    1    4    4    0    0 -0.67568448778E+02 -0.36788131543E+02 -0.52903570727E+01  0.77115820496E+02  0.00000000000E+00 0. -1.
         21    1    1    2  502  501  0.30160958942E+00 -0.20673135789E+02  0.19256045772E+02  0.28253580489E+02  0.00000000000E+00 0. -1.
<scales pt_clust_5="13000.00000" pt_clust_6="13000.00000" pt_clust_7="13000.00000" pt_clust_8="13000.00000" pt_clust_9="20.67534"></scales>
<clustering>
<clus scale="   20.675">  1  9  2 -1</clus>
<clus scale="   90.804">  7  8 -1 -1</clus>
<clus scale="   92.990">  5  6 -1 -1</clus>
<clus scale="  116.363">  1  7  2 -1</clus>
<clus scale="   20.675">  1  5  2 -1</clus>
</clustering>
</event>
<event>
 9    1  0.1782981E-005  0.1532377E+03  0.7546771E-02  0.1196703E+00
         -1   -1    0    0    0  501 -0.00000000000E+00  0.00000000000E+00  0.11881009413E+03  0.11881009413E+03  0.00000000000E+00 0.  1.
          1   -1    0    0  502    0  0.00000000000E+00 -0.00000000000E+00 -0.37330055136E+03  0.37330055136E+03  0.00000000000E+00 0. -1.
         23    2    1    2    0    0 -0.54335720944E+02 -0.11940387435E+03  0.10460062074E+02  0.15941076473E+03  0.89959564424E+02 0.  0.
         23    2    1    2    0    0  0.84686880441E+02  0.75058133807E+02 -0.16342496669E+03  0.21782962604E+03  0.89086671677E+02 0.  0.
        -11    1    3    3    0    0 -0.11170047765E+01 -0.10049238387E+03 -0.57157976035E+01  0.10066100167E+03  0.00000000000E+00 0.  1.
         11    1    3    3    0    0 -0.53218716168E+02 -0.18911490486E+02  0.16175859678E+02  0.58749763057E+02  0.00000000000E+00 0. -1.
        -13    1    4    4    0    0  0.10217806709E+03  0.58280173044E+02 -0.11962519220E+03  0.16777104212E+03  0.00000000000E+00 0.  1.
         13    1    4    4    0    0 -0.17491186654E+02  0.16777960762E+02 -0.43799774493E+02  0.50058583915E+02  0.00000000000E+00 0. -1.
         21    1    1    2  502  501 -0.30351159497E+02  0.44345740547E+02 -0.10152555261E+03  0.11487025472E+03  0.00000000000E+00 0. -1.
<scales pt_clust_5="13000.00000" pt_clust_6="13000.00000" pt_clust_7="13000.00000" pt_clust_8="13000.00000" pt_clust_9="53.73767"></scales>
<clustering>
<clus scale="   53.738">  2  9  1 -1</clus>
<clus scale="   89.087">  7  8 -1 -1</clus>
<clus scale="   89.960">  5  6 -1 -1</clus>
<clus scale="  152.727">  2  7  1 -1</clus>
<clus scale="   53.738">  2  5  1 -1</clus>
</clustering>
</event>
<event>
 9    1  0.1782981E-005  0.1088105E+03  0.7546771E-02  0.1263066E+00
         -2   -1    0    0    0  501 -0.00000000000E+00  0.00000000000E+00  0.16326921907E+03  0.16326921907E+03  0.00000000000E+00 0.  1.
          2   -1    0    0  502    0  0.00000000000E+00 -0.00000000000E+00 -0.14128085671E+03  0.14128085671E+03  0.00000000000E+00 0. -1.
         23    2    1    2    0    0  0.53513104979E+02 -0.93775015189E+01  0.94083291981E+02  0.14225083238E+03  0.91826159370E+02 0.  0.
         23    2    1    2    0    0 -0.73937583306E+02  0.19358124614E+02 -0.72994132974E+02  0.13954884299E+03  0.91127563978E+02 0.  0.
        -11    1    3    3    0    0 -0.13732529138E+02 -0.31944192801E+02  0.22142726966E+02  0.41222738479E+02  0.00000000000E+00 0. -1.
         11    1    3    3    0    0  0.67245634117E+02  0.22566691282E+02  0.71940565015E+02  0.10102809390E+03  0.00000000000E+00 0.  1.
        -13    1    4    4    0    0 -0.31699849536E+02  0.38741479140E+02 -0.78132511658E+02  0.92792629258E+02  0.00000000000E+00 0. -1.
         13    1    4    4    0    0 -0.42237733770E+02 -0.19383354526E+02  0.51383786845E+01  0.46756213728E+02  0.00000000000E+00 0.  1.
         21    1    1    2  502  501  0.20424478327E+02 -0.99806230954E+01  0.89920335502E+00  0.22750400414E+02  0.00000000000E+00 0. -1.
<scales pt_clust_5="13000.00000" pt_clust_6="13000.00000" pt_clust_7="13000.00000" pt_clust_8="13000.00000" pt_clust_9="22.73262"></scales>
<clustering>
<clus scale="   22.733">  2  9  1 -1</clus>
<clus scale="   91.128">  7  8 -1 -1</clus>
<clus scale="   91.826">  5  6 -1 -1</clus>
<clus scale="  108.222">  2  7  1 -1</clus>
<clus scale="   22.733">  2  5  1 -1</clus>
</clustering>
</event>
<event>
 9    1  0.1782981E-005  0.1754552E+03  0.7546771E-02  0.1172735E+00
         -3   -1    0    0    0  501 -0.00000000000E+00  0.00000000000E+00  0.10056883876E+03  0.10056883876E+03  0.00000000000E+00 0.  1.
          3   -1    0    0  502    0  0.00000000000E+00 -0.00000000000E+00 -0.53504677716E+03  0.53504677716E+03  0.00000000000E+00 0. -1.
         23    2    1    2    0    0  0.12692429282E+03  0.77533626893E+02 -0.26546212856E+02  0.17442514283E+03  0.87167595057E+02 0.  0.
         23    2    1    2    0    0 -0.14216840293E+03 -0.63312638533E+02 -0.28980107810E+03  0.34123435917E+03  0.90751738366E+02 0.  0.
        -11    1    4    4    0    0 -0.55658511843E+02 -0.37926924837E+01 -0.35548901855E+02  0.66151181999E+02  0.00000000000E+00 0.  1.
         11    1    4    4    0    0 -0.86509891089E+02 -0.59519946049E+02 -0.25425217625E+03  0.27508317717E+03  0.00000000000E+00 0. -1.
        -13    1    3    3    0    0  0.10506204644E+03  0.84689912124E+02  0.54053469012E+01  0.13505418392E+03  0.00000000000E+00 0.  1.
         13    1    3    3    0    0  0.21862246375E+02 -0.71562852313E+01 -0.31951559757E+02  0.39370958914E+02  0.00000000000E+00 0. -1.
         21    1    1    2  502  501  0.15244110114E+02 -0.14220988360E+02 -0.11813064744E+03  0.11995611392E+03  0.00000000000E+00 0. -1.
<scales pt_clust_5="13000.00000" pt_clust_6="13000.00000" pt_clust_7="13000.00000" pt_clust_8="13000.00000" pt_clust_9="20.84753"></scales>
<clustering>
<clus scale="   20.848">  2  9  1 -1</clus>
<clus scale="   87.168">  7  8 -1 -1</clus>
<clus scale="   90.752">  5  6 -1 -1</clus>
<clus scale="  173.628">  1  7  2 -1</clus>
<clus scale="   20.848">  2  5  1 -1</clus>
</clustering>
</event>
<event>
 9    1  0.1782981E-005  0.1345935E+03  0.7546771E-02  0.1221871E+00
          1   -1    0    0  502    0  0.00000000000E+00  0.00000000000E+00  0.32833607547E+03  0.32833607547E+03  0.00000000000E+00 0. -1.
         -1   -1    0    0    0  501 -0.00000000000E+00 -0.00000000000E+00 -0.69258920609E+02  0.69258920609E+02  0.00000000000E+00 0.  1.
         23    2    1    2    0    0 -0.12482442925E+02 -0.83093070059E+02  0.89316911750E+02  0.15448531096E+03  0.93957069470E+02 0.  0.
         23    2    1    2    0    0  0.14367120325E+02  0.11205616033E+03  0.13205442906E+03  0.19552669426E+03  0.89606465829E+02 0.  0.
        -11    1    3    3    0    0  0.21988853167E+02  0.91285202356E+01  0.34147689600E+02  0.41628166550E+02  0.00000000000E+00 0. -1.
         11    1    3    3    0    0 -0.34471296093E+02 -0.92221590295E+02  0.55169222150E+02  0.11285714441E+03  0.00000000000E+00 0.  1.
        -13    1    4    4    0    0 -0.15046599260E+02  0.32026110397E+02 -0.33183979187E+01  0.35539888311E+02  0.00000000000E+00 0.  1.
         13    1    4    4    0    0  0.29413719586E+02  0.80030049931E+02  0.13537282698E+03  0.15998680595E+03  0.00000000000E+00 0. -1.
         21    1    1    2  502  501 -0.18846773999E+01 -0.28963090269E+02  0.37705814049E+02  0.47582990867E+02  0.00000000000E+00 0. -1.
<scales pt_clust_5="13000.00000" pt_clust_6="13000.00000" pt_clust_7="13000.00000" pt_clust_8="13000.00000" pt_clust_9="29.02435"></scales>
<clustering>
<clus scale="   29.024">  1  9  2 -1</clus>
<clus scale="   89.606">  7  8 -1 -1</clus>
<clus scale="   93.957">  5  6 -1 -1</clus>
<clus scale="  131.593">  1  7  2 -1</clus>
<clus scale="   29.024">  1  5  2 -1</clus>
</clustering>
</event>
<event>
 9    1  0.1782981E-005  0.2358041E+03  0.7546771E-02  0.1122664E+00
         -1   -1    0    0    0  501 -0.00000000000E+00  0.00000000000E+00  0.10420047159E+03  0.10420047159E+03  0.00000000000E+00 0.  1.
          1   -1    0    0  502    0  0.00000000000E+00 -0.00000000000E+00 -0.96997064823E+03  0.96997064823E+03  0.00000000000E+00 0. -1.
         23    2    1    2    0    0 -0.19734905191E+03 -0.91020547461E+02 -0.15211179526E+03  0.28003535959E+03  0.89724110554E+02 0.  0.
         23    2    1    2    0    0  0.23332836236E+03  0.14841285112E+01 -0.47929916088E+03  0.54068847709E+03  0.90399205318E+02 0.  0.
        -11    1    3    3    0    0 -0.19676049852E+03 -0.64003502592E+02 -0.12489469433E+03  0.24168125040E+03  0.00000000000E+00 0.  1.
         11    1    3    3    0    0 -0.58855338209E+00 -0.27017044870E+02 -0.27217100934E+02  0.38354109191E+02  0.00000000000E+00 0. -1.
        -11    1    4    4    0    0  0.12342009074E+03 -0.64728914208E-01 -0.15420139852E+03  0.19751099790E+03  0.00000000000E+00 0.  1.
         11    1    4    4    0    0  0.10990827162E+03  0.15488574254E+01 -0.32509776236E+03  0.34317747919E+03  0.00000000000E+00 0. -1.
         21    1    1    2  502  501 -0.35979310451E+02  0.89536418950E+02 -0.23435922050E+03  0.25344728314E+03  0.00000000000E+00 0.  1.
<scales pt_clust_5="13000.00000" pt_clust_6="13000.00000" pt_clust_7="13000.00000" pt_clust_8="13000.00000" pt_clust_9="96.49498"></scales>
<clustering>
<clus scale="   89.724">  5  6 -1 -1</clus>
<clus scale="   90.399">  7  8 -1 -1</clus>
<clus scale="   96.495">  2  9  1 -1</clus>
<clus scale="  235.546">  1  5  2 -1</clus>
<clus scale="   96.495">  2  5  1 -1</clus>
</clustering>
</event>
<event>
 9    1  0.1782981E-005  0.9815952E+02  0.7546771E-02  0.1286917E+00
          2   -1    0    0  502    0  0.00000000000E+00  0.00000000000E+00  0.68800247674E+02  0.68800247674E+02  0.00000000000E+00 0. -1.
         -2   -1    0    0    0  501 -0.00000000000E+00 -0.00000000000E+00 -0.22024210720E+03  0.22024210720E+03  0.00000000000E+00 0.  1.
         23    2    1    2    0    0 -0.14424098918E+01  0.19619253294E+02 -0.11228026245E+03  0.14929657711E+03  0.96413769517E+02 0.  0.
         23    2    1    2    0    0 -0.20488291023E+02 -0.12777308961E+02 -0.57207078314E+02  0.11053264308E+03  0.91442800064E+02 0.  0.
        -11    1    3    3    0    0 -0.25790622987E+02 -0.27052803347E+02 -0.18389489399E+02  0.41655536527E+02  0.00000000000E+00 0. -1.
         11    1    3    3    0    0  0.24348213095E+02  0.46672056641E+02 -0.93890773055E+02  0.10764104058E+03  0.00000000000E+00 0.  1.
        -11    1    4    4    0    0 -0.36787842451E+01  0.37983683528E+02 -0.10616337293E+02  0.39610608243E+02  0.00000000000E+00 0.  1.
         11    1    4    4    0    0 -0.16809506778E+02 -0.50760992488E+02 -0.46590741021E+02  0.70922034837E+02  0.00000000000E+00 0. -1.
         21    1    1    2  502  501  0.21930700915E+02 -0.68419443337E+01  0.18045481244E+02  0.29213134686E+02  0.00000000000E+00 0. -1.
<scales pt_clust_5="13000.00000" pt_clust_6="13000.00000" pt_clust_7="13000.00000" pt_clust_8="13000.00000" pt_clust_9="22.97320"></scales>
<clustering>
<clus scale="   22.973">  1  9  2 -1</clus>
<clus scale="   91.443">  7  8 -1 -1</clus>
<clus scale="   93.282">  1  7  2 -1</clus>
<clus scale="   96.414">  5  6 -1 -1</clus>
<clus scale="   22.973">  1  5  2 -1</clus>
</clustering>
</event>
<event>
 9    1  0.1782981E-005  0.9641590E+02  0.7546771E-02  0.1288195E+00
          2   -1    0    0  502    0  0.00000000000E+00  0.00000000000E+00  0.43990100879E+03  0.43990100879E+03  0.00000000000E+00 0. -1.
         -2   -1    0    0    0  501 -0.00000000000E+00 -0.00000000000E+00 -0.68208386877E+02  0.68208386877E+02  0.00000000000E+00 0.  1.
         23    2    1    2    0    0 -0.31772834261E+02 -0.30440375445E+02  0.22925716411E+02  0.10444039649E+03  0.91902548883E+02 0.  0.
         23    2    1    2    0    0 -0.47528835362E+02 -0.83347859059E+01  0.25218264736E+03  0.27282257445E+03  0.92236709915E+02 0.  0.
        -11    1    4    4    0    0 -0.68059577416E+01 -0.46120695199E+02  0.89466065076E+02  0.10088417312E+03  0.00000000000E+00 0.  1.
         11    1    4    4    0    0 -0.40722877620E+02  0.37785909293E+02  0.16271658228E+03  0.17193840133E+03  0.00000000000E+00 0. -1.
        -13    1    3    3    0    0 -0.16819726350E+02  0.17525171962E+02 -0.25105389436E+02  0.34933013404E+02  0.00000000000E+00 0.  1.
         13    1    3    3    0    0 -0.14953107911E+02 -0.47965547407E+02  0.48031105846E+02  0.69507383083E+02  0.00000000000E+00 0. -1.
         21    1    1    2  502  501  0.79301669622E+02  0.38775161351E+02  0.96584258146E+02  0.13084642473E+03  0.00000000000E+00 0. -1.
<scales pt_clust_5="13000.00000" pt_clust_6="13000.00000" pt_clust_7="13000.00000" pt_clust_8="13000.00000" pt_clust_9="88.27382"></scales>
<clustering>
<clus scale="   88.274">  1  9  2 -1</clus>
<clus scale="   91.903">  7  8 -1 -1</clus>
<clus scale="   92.237">  5  6 -1 -1</clus>
<clus scale="   96.096">  2  7  1 -1</clus>
<clus scale="   88.274">  1  5  2 -1</clus>
</clustering>
</event>
<event>
 9    1  0.1782981E-005  0.1257171E+03  0.7546771E-02  0.1234318E+00
         -2   -1    0    0    0  501 -0.00000000000E+00  0.00000000000E+00  0.26331887284E+03  0.26331887284E+03  0.00000000000E+00 0.  1.
          2   -1    0    0  502    0  0.00000000000E+00 -0.00000000000E+00 -0.26136997740E+03  0.26136997740E+03  0.00000000000E+00 0. -1.
         23    2    1    2    0    0  0.28557007545E+02  0.80577668564E+02  0.22118367982E+03  0.25429011576E+03  0.91831255047E+02 0.  0.
         23    2    1    2    0    0 -0.11416532466E+02 -0.92344553226E+02 -0.21159139579E+03  0.24824750765E+03  0.90543097803E+02 0.  0.
        -11    1    4    4    0    0 -0.45898825145E+02 -0.20786254207E+02 -0.83701139815E+02  0.97696731368E+02  0.00000000000E+00 0.  1.
         11    1    4    4    0    0  0.34482292679E+02 -0.71558299019E+02 -0.12789025597E+03  0.15055077628E+03  0.00000000000E+00 0. -1.
        -13    1    3    3    0    0  0.15898786238E-01  0.87112976920E+02  0.20000748961E+03  0.21815514411E+03  0.00000000000E+00 0.  1.
         13    1    3    3    0    0  0.28541108758E+02 -0.65353083556E+01  0.21176190208E+02  0.36134971651E+02  0.00000000000E+00 0. -1.
         21    1    1    2  502  501 -0.17140475079E+02  0.11766884662E+02 -0.76433885943E+01  0.22151226823E+02  0.00000000000E+00 0.  1.
<scales pt_clust_5="13000.00000" pt_clust_6="13000.00000" pt_clust_7="13000.00000" pt_clust_8="13000.00000" pt_clust_9="20.79075"></scales>
<clustering>
<clus scale="   20.791">  2  9  1 -1</clus>
<clus scale="   90.543">  5  6 -1 -1</clus>
<clus scale="   91.831">  7  8 -1 -1</clus>
<clus scale="  124.779">  2  5  1 -1</clus>
<clus scale="   20.791">  2  5  1 -1</clus>
</clustering>
</event>
<event>
 9    1  0.1782981E-005  0.1429259E+03  0.7546771E-02  0.1211103E+00
          2   -1    0    0  502    0  0.00000000000E+00  0.00000000000E+00  0.79085827606E+02  0.79085827606E+02  0.00000000000E+00 0. -1.
         -2   -1    0    0    0  501 -0.00000000000E+00 -0.00000000000E+00 -0.43287551786E+03  0.43287551786E+03  0.00000000000E+00 0.  1.
         23    2    1    2    0    0 -0.32771842358E+02  0.92143520090E+02 -0.25622382832E+03  0.29161298930E+03  0.99111368584E+02 0.  0.
         23    2    1    2    0    0  0.18236997748E+02 -0.11302694189E+03 -0.11752672824E+03  0.18800929005E+03  0.91800237547E+02 0.  0.
        -13    1    4    4    0    0 -0.28536074792E+02 -0.88984960452E+02 -0.83910792087E+02  0.12559319958E+03  0.00000000000E+00 0. -1.
         13    1    4    4    0    0  0.46773072540E+02 -0.24041981436E+02 -0.33615936155E+02  0.62416090471E+02  0.00000000000E+00 0.  1.
        -13    1    3    3    0    0  0.23460297038E+02  0.69709596011E+02 -0.10053980328E+03  0.12457152707E+03  0.00000000000E+00 0.  1.
         13    1    3    3    0    0 -0.56232139396E+02  0.22433924079E+02 -0.15568402504E+03  0.16704146223E+03  0.00000000000E+00 0. -1.
         21    1    1    2  502  501  0.14534844610E+02  0.20883421798E+02  0.19960866306E+02  0.32339066120E+02  0.00000000000E+00 0.  1.
<scales pt_clust_5="13000.00000" pt_clust_6="13000.00000" pt_clust_7="13000.00000" pt_clust_8="13000.00000" pt_clust_9="25.44364"></scales>
<clustering>
<clus scale="   25.444">  1  9  2 -1</clus>
<clus scale="   91.800">  5  6 -1 -1</clus>
<clus scale="   99.111">  7  8 -1 -1</clus>
<clus scale="  137.957">  1  5  2 -1</clus>
<clus scale="   25.444">  1  5  2 -1</clus>
</clustering>
</event>
<event>
 9    1  0.1782981E-005  0.1239829E+03  0.7546771E-02  0.1239116E+00
         -1   -1    0    0    0  501 -0.00000000000E+00  0.00000000000E+00  0.13978263907E+03  0.13978263907E+03  0.00000000000E+00 0.  1.
          1   -1    0    0  502    0  0.00000000000E+00 -0.00000000000E+00 -0.30202269651E+03  0.30202269651E+03  0.00000000000E+00 0. -1.
         23    2    1    2    0    0  0.61850894617E+02 -0.50059729530E+02  0.87285967467E+02  0.15048055865E+03  0.93241882918E+02 0.  0.
         23    2    1    2    0    0 -0.82251747919E+02  0.52693545865E+02 -0.20907289470E+03  0.24594209799E+03  0.85053397666E+02 0.  0.
        -13    1    4    4    0    0 -0.26584452587E+02 -0.22686392901E+02 -0.44772869844E+02  0.56798022996E+02  0.00000000000E+00 0.  1.
         13    1    4    4    0    0 -0.55667295332E+02  0.75379938766E+02 -0.16430002486E+03  0.18914407500E+03  0.00000000000E+00 0. -1.
        -13    1    3    3    0    0  0.83972515152E+02 -0.24606481297E+02  0.72595444204E+02  0.11369679301E+03  0.00000000000E+00 0. -1.
         13    1    3    3    0    0 -0.22121620535E+02 -0.25453248233E+02  0.14690523263E+02  0.36783765637E+02  0.00000000000E+00 0.  1.
         21    1    1    2  502  501  0.20400853302E+02 -0.26338163351E+01 -0.40453130203E+02  0.45382678933E+02  0.00000000000E+00 0.  1.
<scales pt_clust_5="13000.00000" pt_clust_6="13000.00000" pt_clust_7="13000.00000" pt_clust_8="13000.00000" pt_clust_9="20.57017"></scales>
<clustering>
<clus scale="   20.570">  2  9  1 -1</clus>
<clus scale="   85.053">  5  6 -1 -1</clus>
<clus scale="   93.242">  7  8 -1 -1</clus>
<clus scale="  117.948">  2  5  1 -1</clus>
<clus scale="   20.570">  2  5  1 -1</clus>
</clustering>
</event>
<event>
 9    1  0.1782981E-005  0.1504950E+03  0.7546771E-02  0.1214296E+00
         -2   -1    0    0    0  501 -0.00000000000E+00  0.00000000000E+00  0.10102954589E+03  0.10102954589E+03  0.00000000000E+00 0.  1.
          2   -1    0    0  502    0  0.00000000000E+00 -0.00000000000E+00 -0.12141308613E+04  0.12141308613E+04  0.00000000000E+00 0. -1.
         23    2    1    2    0    0 -0.25808111175E+00 -0.53982755015E+02  0.40128633815E+02  0.11748275199E+03  0.96320741888E+02 0.  0.
         23    2    1    2    0    0 -0.11319445525E+03  0.73587385585E+01 -0.27949520789E+03  0.31537517016E+03  0.92069489966E+02 0.  0.
        -11    1    3    3    0    0 -0.21927883096E+02 -0.75409368745E+02  0.37109843486E+02  0.86859342820E+02  0.00000000000E+00 0.  1.
         11    1    3    3    0    0  0.21669801985E+02  0.21426613730E+02  0.30187903292E+01  0.30623409168E+02  0.00000000000E+00 0. -1.
        -13    1    4    4    0    0 -0.69610951356E+02  0.49467130491E+02 -0.15781362608E+03  0.17943751593E+03  0.00000000000E+00 0.  1.
         13    1    4    4    0    0 -0.43583503891E+02 -0.42108391932E+02 -0.12168158181E+03  0.13593765422E+03  0.00000000000E+00 0. -1.
         21    1    1    2  502  501  0.11345253636E+03  0.46624016456E+02 -0.87373474131E+03  0.88230248503E+03  0.00000000000E+00 0. -1.
<scales pt_clust_5="13000.00000" pt_clust_6="13000.00000" pt_clust_7="13000.00000" pt_clust_8="13000.00000" pt_clust_9="119.04603"></scales>
<clustering>
<clus scale="   92.069">  7  8 -1 -1</clus>
<clus scale="   96.321">  5  6 -1 -1</clus>
<clus scale="  110.417">  1  5  2 -1</clus>
<clus scale="  119.046">  2  9  1 -1</clus>
<clus scale="  119.046">  2  5  1 -1</clus>
</clustering>
</event>
<event>
 9    1  0.1782981E-005  0.9341183E+02  0.7546771E-02  0.1298757E+00
         -1   -1    0    0    0  501 -0.00000000000E+00  0.00000000000E+00  0.16804319171E+02  0.16804319171E+02  0.00000000000E+00 0.  1.
          1   -1    0    0  502    0  0.00000000000E+00 -0.00000000000E+00 -0.77677407016E+03  0.77677407016E+03  0.00000000000E+00 0. -1.
         23    2    1    2    0    0  0.15174914993E+02  0.19113504579E+01 -0.19603273794E+03  0.21339299996E+03  0.82908424093E+02 0.  0.
         23    2    1    2    0    0 -0.44736924800E+02  0.12661070352E+02 -0.37510728014E+03  0.38850091972E+03  0.89809787136E+02 0.  0.
        -11    1    4    4    0    0 -0.12157460596E+02 -0.38228255816E+02 -0.17065907671E+03  0.17531036437E+03  0.00000000000E+00 0.  1.
         11    1    4    4    0    0 -0.32579464204E+02  0.50889326168E+02 -0.20444820342E+03  0.21319055534E+03  0.00000000000E+00 0. -1.
        -11    1    3    3    0    0 -0.32773102526E+02 -0.44056104754E+00 -0.11108114651E+03  0.11581576514E+03  0.00000000000E+00 0. -1.
         11    1    3    3    0    0  0.47948017519E+02  0.23519115054E+01 -0.84951591423E+02  0.97577234829E+02  0.00000000000E+00 0.  1.
         21    1    1    2  502  501  0.29562009807E+02 -0.14572420810E+02 -0.18882973292E+03  0.19168446965E+03  0.00000000000E+00 0. -1.
<scales pt_clust_5="13000.00000" pt_clust_6="13000.00000" pt_clust_7="13000.00000" pt_clust_8="13000.00000" pt_clust_9="32.95858"></scales>
<clustering>
<clus scale="   32.959">  2  9  1 -1</clus>
<clus scale="   82.908">  7  8 -1 -1</clus>
<clus scale="   86.797">  1  7  2 -1</clus>
<clus scale="   89.810">  5  6 -1 -1</clus>
<clus scale="   32.959">  2  5  1 -1</clus>
</clustering>
</event>
<event>
 9    1  0.1782981E-005  0.1604953E+03  0.7546771E-02  0.1207967E+00
          2   -1    0    0  502    0  0.00000000000E+00  0.00000000000E+00  0.63779642965E+03  0.63779642965E+03  0.00000000000E+00 0. -1.
         -2   -1    0    0    0  501 -0.00000000000E+00 -0.00000000000E+00 -0.73276181353E+02  0.73276181353E+02  0.00000000000E+00 0.  1.
         23    2    1    2    0    0 -0.43151531719E+02 -0.25586844413E+02  0.98582784937E+02  0.14343207374E+03  0.91309654442E+02 0.  0.
         23    2    1    2    0    0 -0.95406291253E+01  0.14421766421E+03  0.15541728426E+03  0.23108071071E+03  0.91400242575E+02 0.  0.
        -13    1    3    3    0    0  0.25081186718E+02  0.61737858365E+01  0.41861372289E+02  0.49188983000E+02  0.00000000000E+00 0.  1.
         13    1    3    3    0    0 -0.68232718437E+02 -0.31760630249E+02  0.56721412649E+02  0.94243090739E+02  0.00000000000E+00 0. -1.
        -13    1    4    4    0    0 -0.22454576495E+02  0.96808270186E+02  0.15228695577E+03  0.18184434575E+03  0.00000000000E+00 0. -1.
         13    1    4    4    0    0  0.12913947369E+02  0.47409394024E+02  0.31303284843E+01  0.49236364963E+02  0.00000000000E+00 0.  1.
         21    1    1    2  502  501  0.52692160845E+02 -0.11863081980E+03  0.31052017910E+03  0.33655982656E+03  0.00000000000E+00 0. -1.
<scales pt_clust_5="13000.00000" pt_clust_6="13000.00000" pt_clust_7="13000.00000" pt_clust_8="13000.00000" pt_clust_9="131.92700"></scales>
<clustering>
<clus scale="   91.310">  5  6 -1 -1</clus>
<clus scale="   91.400">  7  8 -1 -1</clus>
<clus scale="  104.183">  2  5  1 -1</clus>
<clus scale="  131.927">  1  9  2 -1</clus>
<clus scale="  131.927">  1  5  2 -1</clus>
</clustering>
</event>
<event>
 9    1  0.1782981E-005  0.1202241E+03  0.7546771E-02  0.1244669E+00
          2   -1    0    0  502    0  0.00000000000E+00  0.00000000000E+00  0.35288599081E+03  0.35288599081E+03  0.00000000000E+00 0. -1.
         -2   -1    0    0    0  501 -0.00000000000E+00 -0.00000000000E+00 -0.28689200723E+03  0.28689200723E+03  0.00000000000E+00 0.  1.
         23    2    1    2    0    0  0.54069904509E+02  0.44879164627E+02 -0.25699815073E+03  0.28205342207E+03  0.92565595293E+02 0.  0.
         23    2    1    2    0    0 -0.51171130482E+02 -0.21950324100E+02  0.17738532660E+03  0.21029500949E+03  0.98275813906E+02 0.  0.
        -11    1    4    4    0    0 -0.41843983212E+02  0.24163177097E+02  0.33194828425E+02  0.58623158330E+02  0.00000000000E+00 0.  1.
         11    1    4    4    0    0 -0.93271472701E+01 -0.46113501197E+02  0.14419049818E+03  0.15167185116E+03  0.00000000000E+00 0. -1.
        -13    1    3    3    0    0  0.55195499375E+02  0.24205294652E+02 -0.25409666766E+03  0.26114661774E+03  0.00000000000E+00 0.  1.
         13    1    3    3    0    0 -0.11255948659E+01  0.20673869975E+02 -0.29014830752E+01  0.20906804337E+02  0.00000000000E+00 0. -1.
         21    1    1    2  502  501 -0.28987740269E+01 -0.22928840528E+02  0.14560680771E+03  0.14742956648E+03  0.00000000000E+00 0. -1.
<scales pt_clust_5="13000.00000" pt_clust_6="13000.00000" pt_clust_7="13000.00000" pt_clust_8="13000.00000" pt_clust_9="23.11135"></scales>
<clustering>
<clus scale="   23.111">  1  9  2 -1</clus>
<clus scale="   92.566">  7  8 -1 -1</clus>
<clus scale="   98.276">  5  6 -1 -1</clus>
<clus scale="  115.603">  2  7  1 -1</clus>
<clus scale="   23.111">  1  5  2 -1</clus>
</clustering>
</event>
<event>
 9    1  0.1782981E-005  0.9577466E+02  0.7546771E-02  0.1290094E+00
          1   -1    0    0  502    0  0.00000000000E+00  0.00000000000E+00  0.68525567554E+03  0.68525567554E+03  0.00000000000E+00 0. -1.
         -1   -1    0    0    0  501 -0.00000000000E+00 -0.00000000000E+00 -0.26058149455E+02  0.26058149455E+02  0.00000000000E+00 0.  1.
         23    2    1    2    0    0 -0.13850439650E+02  0.25936854619E+02  0.96802963739E+02  0.13634423775E+03  0.91402309994E+02 0.  0.
         23    2    1    2    0    0  0.11503829325E+02 -0.13025687955E+01  0.40300659690E+03  0.41367210386E+03  0.92608086002E+02 0.  0.
        -11    1    4    4    0    0 -0.39597810517E+02 -0.89373735584E+01  0.14690954205E+03  0.15241481814E+03  0.00000000000E+00 0.  1.
         11    1    4    4    0    0  0.51101639842E+02  0.76348047629E+01  0.25609705485E+03  0.26125728572E+03  0.00000000000E+00 0. -1.
        -13    1    3    3    0    0 -0.46757580112E+01 -0.19723923957E+02 -0.78957795265E+01  0.21754062232E+02  0.00000000000E+00 0.  1.
         13    1    3    3    0    0 -0.91746816390E+01  0.45660778576E+02  0.10469874327E+03  0.11459017552E+03  0.00000000000E+00 0. -1.
         21    1    1    2  502  501  0.23466103253E+01 -0.24634285824E+02  0.15938796545E+03  0.16129748339E+03  0.00000000000E+00 0. -1.
<scales pt_clust_5="13000.00000" pt_clust_6="13000.00000" pt_clust_7="13000.00000" pt_clust_8="13000.00000" pt_clust_9="24.74580"></scales>
<clustering>
<clus scale="   24.746">  1  9  2 -1</clus>
<clus scale="   91.402">  7  8 -1 -1</clus>
<clus scale="   92.608">  5  6 -1 -1</clus>
<clus scale="   94.609">  2  7  1 -1</clus>
<clus scale="   24.746">  1  5  2 -1</clus>
</clustering>
</event>
<event>
 9    1  0.1782981E-005  0.1249392E+03  0.7546771E-02  0.1235765E+00
          1   -1    0    0  502    0  0.00000000000E+00  0.00000000000E+00  0.68523353842E+03  0.68523353842E+03  0.00000000000E+00 0. -1.
         -1   -1    0    0    0  501 -0.00000000000E+00 -0.00000000000E+00 -0.32881933965E+02  0.32881933965E+02  0.00000000000E+00 0.  1.
         23    2    1    2    0    0 -0.10784595904E+03  0.84531597852E+01  0.29494857448E+03  0.32732055065E+03  0.91879674005E+02 0.  0.
         23    2    1    2    0    0  0.63614726627E+02 -0.48525156209E+01  0.26436456136E+03  0.28771474323E+03  0.93918964094E+02 0.  0.
        -11    1    4    4    0    0  0.72091223672E+02 -0.23574410642E+02  0.25322118189E+03  0.26433664961E+03  0.00000000000E+00 0. -1.
         11    1    4    4    0    0 -0.84764970453E+01  0.18721895021E+02  0.11143379468E+02  0.23378093620E+02  0.00000000000E+00 0.  1.
        -13    1    3    3    0    0 -0.97680979408E+02 -0.28594143344E+02  0.18969296410E+03  0.21527335971E+03  0.00000000000E+00 0.  1.
         13    1    3    3    0    0 -0.10164979633E+02  0.37047303129E+02  0.10525561038E+03  0.11204719094E+03  0.00000000000E+00 0. -1.
         21    1    1    2  502  501  0.44231232415E+02 -0.36006441644E+01  0.93038468609E+02  0.10308017850E+03  0.00000000000E+00 0. -1.
<scales pt_clust_5="13000.00000" pt_clust_6="13000.00000" pt_clust_7="13000.00000" pt_clust_8="13000.00000" pt_clust_9="44.37755"></scales>
<clustering>
<clus scale="   44.378">  2  9  1 -1</clus>
<clus scale="   91.880">  7  8 -1 -1</clus>
<clus scale="   93.919">  5  6 -1 -1</clus>
<clus scale="  123.414">  2  7  1 -1</clus>
<clus scale="  124.939">  1  5  2 -1</clus>
</clustering>
</event>
<event>
 9    1  0.1782981E-005  0.1916497E+03  0.7546771E-02  0.1157510E+00
          1   -1    0    0  502    0  0.00000000000E+00  0.00000000000E+00  0.73624186200E+03  0.73624186200E+03  0.00000000000E+00 0. -1.
         -1   -1    0    0    0  501 -0.00000000000E+00 -0.00000000000E+00 -0.87739870986E+02  0.87739870986E+02  0.00000000000E+00 0.  1.
         23    2    1    2    0    0 -0.12621303752E+03  0.10213233158E+03  0.74705111845E+02  0.20077970856E+03  0.91492587893E+02 0.  0.
         23    2    1    2    0    0  0.15586754786E+03 -0.10800853134E+03  0.45237773352E+03  0.49807597343E+03  0.86449558745E+02 0.  0.
        -13    1    4    4    0    0  0.62942462550E+02 -0.73538688382E+02  0.30876885466E+03  0.32358599767E+03  0.00000000000E+00 0.  1.
         13    1    4    4    0    0  0.92925085311E+02 -0.34469842953E+02  0.14360887886E+03  0.17448997576E+03  0.00000000000E+00 0. -1.
        -13    1    3    3    0    0 -0.68899112759E+01  0.52795372362E+02  0.41367642082E+02  0.67424802793E+02  0.00000000000E+00 0.  1.
         13    1    3    3    0    0 -0.11932312625E+03  0.49336959218E+02  0.33337469763E+02  0.13335490577E+03  0.00000000000E+00 0. -1.
         21    1    1    2  502  501 -0.29654510339E+02  0.58761997551E+01  0.12141914565E+03  0.12512605099E+03  0.00000000000E+00 0.  1.
<scales pt_clust_5="13000.00000" pt_clust_6="13000.00000" pt_clust_7="13000.00000" pt_clust_8="13000.00000" pt_clust_9="30.23110"></scales>
<clustering>
<clus scale="   30.231">  1  9  2 -1</clus>
<clus scale="   86.450">  5  6 -1 -1</clus>
<clus scale="   91.493">  7  8 -1 -1</clus>
<clus scale="  189.294">  1  5  2 -1</clus>
<clus scale="   30.231">  1  5  2 -1</clus>
</clustering>
</event>
<event>
 9    1  0.1782981E-005  0.2378578E+03  0.7546771E-02  0.1121337E+00
         -2   -1    0    0    0  501 -0.00000000000E+00  0.00000000000E+00  0.22862721269E+03  0.22862721269E+03  0.00000000000E+00 0.  1.
          2   -1    0    0  502    0  0.00000000000E+00 -0.00000000000E+00 -0.32007531132E+03  0.32007531132E+03  0.00000000000E+00 0. -1.
         23    2    1    2    0    0 -0.34089643964E+02  0.19145875490E+03 -0.37736793201E+02  0.21800744508E+03  0.91019898362E+02 0.  0.
         23    2    1    2    0    0  0.49670076285E+02 -0.24177829967E+03 -0.10738202153E+02  0.26271350744E+03  0.89326453721E+02 0.  0.
        -11    1    4    4    0    0 -0.25856562517E+02 -0.76863538446E+02 -0.21971391396E+01  0.81125783744E+02  0.00000000000E+00 0.  1.
         11    1    4    4    0    0  0.75526638802E+02 -0.16491476123E+03 -0.85410630136E+01  0.18158772370E+03  0.00000000000E+00 0. -1.
        -11    1    3    3    0    0  0.18594128025E+01  0.47033884799E+02  0.28581790698E+02  0.55068707037E+02  0.00000000000E+00 0.  1.
         11    1    3    3    0    0 -0.35949056766E+02  0.14442487010E+03 -0.66318583900E+02  0.16293873804E+03  0.00000000000E+00 0. -1.
         21    1    1    2  502  501 -0.15580432321E+02  0.50319544778E+02 -0.42973103275E+02  0.67981571496E+02  0.00000000000E+00 0. -1.
<scales pt_clust_5="13000.00000" pt_clust_6="13000.00000" pt_clust_7="13000.00000" pt_clust_8="13000.00000" pt_clust_9="52.67643"></scales>
<clustering>
<clus scale="   52.676">  2  9  1 -1</clus>
<clus scale="   89.326">  5  6 -1 -1</clus>
<clus scale="   91.020">  7  8 -1 -1</clus>
<clus scale="  237.215">  2  5  1 -1</clus>
<clus scale="   52.676">  2  5  1 -1</clus>
</clustering>
</event>
<event>
 9    1  0.1782981E-005  0.9424484E+02  0.7546771E-02  0.1294343E+00
         -2   -1    0    0    0  501 -0.00000000000E+00  0.00000000000E+00  0.80736249591E+02  0.80736249591E+02  0.00000000000E+00 0.  1.
          2   -1    0    0  502    0  0.00000000000E+00 -0.00000000000E+00 -0.15009971365E+03  0.15009971365E+03  0.00000000000E+00 0. -1.
         23    2    1    2    0    0  0.18263981589E+01  0.14561122796E+01 -0.13456862585E+02  0.94265288894E+02  0.93270582428E+02 0.  0.
         23    2    1    2    0    0 -0.79061268107E+01 -0.25834110550E+02 -0.27338521913E+02  0.98526160026E+02  0.90719905864E+02 0.  0.
        -11    1    3    3    0    0 -0.37138968491E+02  0.17514515069E+02  0.14662457051E+02  0.43601019087E+02  0.00000000000E+00 0. -1.
         11    1    3    3    0    0  0.38965366650E+02 -0.16058402789E+02 -0.28119319636E+02  0.50664269807E+02  0.00000000000E+00 0.  1.
        -13    1    4    4    0    0 -0.32945234442E+02 -0.49330472538E+02 -0.10350134473E+02  0.60216353899E+02  0.00000000000E+00 0. -1.
         13    1    4    4    0    0  0.25039107632E+02  0.23496361988E+02 -0.16988387440E+02  0.38309806127E+02  0.00000000000E+00 0.  1.
         21    1    1    2  502  501  0.60797286518E+01  0.24377998271E+02 -0.28568079560E+02  0.38044514321E+02  0.00000000000E+00 0.  1.
<scales pt_clust_5="13000.00000" pt_clust_6="13000.00000" pt_clust_7="13000.00000" pt_clust_8="13000.00000" pt_clust_9="25.12469"></scales>
<clustering>
<clus scale="   25.125">  2  9  1 -1</clus>
<clus scale="   90.720">  7  8 -1 -1</clus>
<clus scale="   91.721">  2  7  1 -1</clus>
<clus scale="   93.271">  5  6 -1 -1</clus>
<clus scale="   25.125">  2  5  1 -1</clus>
</clustering>
</event>
<event>
 9    1  0.1782981E-005  0.1191542E+03  0.7546771E-02  0.1246735E+00
         -2   -1    0    0    0  501 -0.00000000000E+00  0.00000000000E+00  0.52157514172E+03  0.52157514172E+03  0.00000000000E+00 0.  1.
          2   -1    0    0  502    0  0.00000000000E+00 -0.00000000000E+00 -0.51019930701E+02  0.51019930701E+02  0.00000000000E+00 0. -1.
         23    2    1    2    0    0  0.72236476391E+02  0.12336884411E+02  0.35302986790E+03  0.37209376088E+03  0.91942221102E+02 0.  0.
         23    2    1    2    0    0 -0.54598686085E+02 -0.16716973033E+01  0.13337984873E+03  0.17449740393E+03  0.98363351082E+02 0.  0.
        -13    1    3    3    0    0  0.90978384395E+02 -0.39261943170E+01  0.24852085382E+03  0.26467923268E+03  0.00000000000E+00 0.  1.
         13    1    3    3    0    0 -0.18741908003E+02  0.16263078728E+02  0.10450901408E+03  0.10741452820E+03  0.00000000000E+00 0. -1.
        -13    1    4    4    0    0 -0.13237267904E+02  0.29844935396E+02  0.14406827779E+01  0.32680590527E+02  0.00000000000E+00 0. -1.
         13    1    4    4    0    0 -0.41361418181E+02 -0.31516632699E+02  0.13193916595E+03  0.14181681340E+03  0.00000000000E+00 0.  1.
         21    1    1    2  502  501 -0.17637790306E+02 -0.10665187108E+02 -0.15854505609E+02  0.26003907611E+02  0.00000000000E+00 0. -1.
<scales pt_clust_5="13000.00000" pt_clust_6="13000.00000" pt_clust_7="13000.00000" pt_clust_8="13000.00000" pt_clust_9="20.61160"></scales>
<clustering>
<clus scale="   20.612">  2  9  1 -1</clus>
<clus scale="   91.942">  5  6 -1 -1</clus>
<clus scale="   98.363">  7  8 -1 -1</clus>
<clus scale="  113.911">  1  5  2 -1</clus>
<clus scale="   20.612">  2  5  1 -1</clus>
</clustering>
</event>
<event>
 9    1  0.1782981E-005  0.1177705E+03  0.7546771E-02  0.1247206E+00
         -1   -1    0    0    0  501 -0.00000000000E+00  0.00000000000E+00  0.13803585112E+03  0.13803585112E+03  0.00000000000E+00 0.  1.
          1   -1    0    0  502    0  0.00000000000E+00 -0.00000000000E+00 -0.25040789715E+03  0.25040789715E+03  0.00000000000E+00 0. -1.
         23    2    1    2    0    0  0.72346401012E+01 -0.79165042633E+02  0.86144405932E+02  0.14720048080E+03  0.89037513897E+02 0.  0.
         23    2    1    2    0    0 -0.10684620664E+02  0.56714215900E+02 -0.12661070462E+03  0.16583518775E+03  0.90224029884E+02 0.  0.
        -11    1    4    4    0    0  0.22868417381E+02  0.61369256279E+02 -0.51079726135E+02  0.83055936283E+02  0.00000000000E+00 0. -1.
         11    1    4    4    0    0 -0.33553038045E+02 -0.46550403792E+01 -0.75530978482E+02  0.82779251467E+02  0.00000000000E+00 0.  1.
        -13    1    3    3    0    0 -0.23782018503E+02 -0.83239052527E+02  0.73108098767E+02  0.11330983353E+03  0.00000000000E+00 0.  1.
         13    1    3    3    0    0  0.31016658604E+02  0.40740098936E+01  0.13036307165E+02  0.33890647265E+02  0.00000000000E+00 0. -1.
         21    1    1    2  502  501  0.34499805625E+01  0.22450826733E+02 -0.71905747341E+02  0.75408079724E+02  0.00000000000E+00 0. -1.
<scales pt_clust_5="13000.00000" pt_clust_6="13000.00000" pt_clust_7="13000.00000" pt_clust_8="13000.00000" pt_clust_9="22.71436"></scales>
<clustering>
<clus scale="   22.714">  2  9  1 -1</clus>
<clus scale="   89.038">  7  8 -1 -1</clus>
<clus scale="   90.224">  5  6 -1 -1</clus>
<clus scale="  116.864">  1  7  2 -1</clus>
<clus scale="   22.714">  2  5  1 -1</clus>
</clustering>
</event>
<event>
 9    1  0.1782981E-005  0.1533388E+03  0.7546771E-02  0.1207633E+00
         -2   -1    0    0    0  501 -0.00000000000E+00  0.00000000000E+00  0.11951663640E+04  0.11951663640E+04  0.00000000000E+00 0.  1.
          2   -1    0    0  502    0  0.00000000000E+00 -0.00000000000E+00 -0.36764148946E+02  0.36764148946E+02  0.00000000000E+00 0. -1.
         23    2    1    2    0    0 -0.43473301580E+02 -0.65200400020E+02  0.33294187723E+03  0.35401596941E+03  0.91301658663E+02 0.  0.
         23    2    1    2    0    0 -0.90830874922E+02  0.54695193614E+02  0.58972752785E+03  0.60640408537E+03  0.93303513394E+02 0.  0.
        -11    1    3    3    0    0  0.10289968398E+02  0.18291626791E+02  0.61065913760E+02  0.64571765375E+02  0.00000000000E+00 0. -1.
         11    1    3    3    0    0 -0.53763269978E+02 -0.83492026811E+02  0.27187596346E+03  0.28944420404E+03  0.00000000000E+00 0.  1.
        -11    1    4    4    0    0 -0.56849512073E+02  0.79412563232E+02  0.36856772850E+03  0.38128780824E+03  0.00000000000E+00 0.  1.
         11    1    4    4    0    0 -0.33981362849E+02 -0.24717369617E+02  0.22115979935E+03  0.22511627713E+03  0.00000000000E+00 0. -1.
         21    1    1    2  502  501  0.13430417650E+03  0.10505206406E+02  0.23573280994E+03  0.27151045812E+03  0.00000000000E+00 0. -1.
<scales pt_clust_5="13000.00000" pt_clust_6="13000.00000" pt_clust_7="13000.00000" pt_clust_8="13000.00000" pt_clust_9="121.68507"></scales>
<clustering>
<clus scale="   91.302">  5  6 -1 -1</clus>
<clus scale="   93.304">  7  8 -1 -1</clus>
<clus scale="  120.320">  1  5  2 -1</clus>
<clus scale="  121.685">  2  9  1 -1</clus>
<clus scale="  121.685">  2  5  1 -1</clus>
</clustering>
</event>
<event>
 9    1  0.1782981E-005  0.1046938E+03  0.7546771E-02  0.1271704E+00
          2   -1    0    0  502    0  0.00000000000E+00  0.00000000000E+00  0.19162342898E+03  0.19162342898E+03  0.00000000000E+00 0. -1.
         -2   -1    0    0    0  501 -0.00000000000E+00 -0.00000000000E+00 -0.74726966533E+02  0.74726966533E+02  0.00000000000E+00 0.  1.
         23    2    1    2    0    0 -0.21188167391E+02  0.36163548999E+02  0.45298577953E+02  0.10859312617E+03  0.89351917568E+02 0.  0.
         23    2    1    2    0    0  0.11023228261E+02 -0.60321620602E+02  0.41343300405E+02  0.11772880111E+03  0.91600178210E+02 0.  0.
        -11    1    3    3    0    0  0.10440668610E+02  0.25158793954E+02  0.64481931484E+02  0.69999228297E+02  0.00000000000E+00 0. -1.
         11    1    3    3    0    0 -0.31628836001E+02  0.11004755044E+02 -0.19183353530E+02  0.38593897873E+02  0.00000000000E+00 0.  1.
        -13    1    4    4    0    0  0.35822251030E+01 -0.81257298754E+02  0.14059388022E+02  0.82542397161E+02  0.00000000000E+00 0.  1.
         13    1    4    4    0    0  0.74410031585E+01  0.20935678152E+02  0.27283912383E+02  0.35186403945E+02  0.00000000000E+00 0. -1.
         21    1    1    2  502  501  0.10164939130E+02  0.24158071604E+02  0.30254584092E+02  0.40028468240E+02  0.00000000000E+00 0. -1.
<scales pt_clust_5="13000.00000" pt_clust_6="13000.00000" pt_clust_7="13000.00000" pt_clust_8="13000.00000" pt_clust_9="26.20951"></scales>
<clustering>
<clus scale="   26.210">  1  9  2 -1</clus>
<clus scale="   89.352">  5  6 -1 -1</clus>
<clus scale="   91.600">  7  8 -1 -1</clus>
<clus scale="  102.733">  2  5  1 -1</clus>
<clus scale="   26.210">  1  5  2 -1</clus>
</clustering>
</event>
<event>
 9    1  0.1782981E-005  0.1004583E+03  0.7546771E-02  0.1280417E+00
         -1   -1    0    0    0  501 -0.00000000000E+00  0.00000000000E+00  0.17309829925E+03  0.17309829925E+03  0.00000000000E+00 0.  1.
          1   -1    0    0  502    0  0.00000000000E+00 -0.00000000000E+00 -0.10309999606E+03  0.10309999606E+03  0.00000000000E+00 0. -1.
         23    2    1    2    0    0 -0.20371037455E+02  0.26223348927E+02  0.83240678597E+02  0.12793858815E+03  0.91305139878E+02 0.  0.
         23    2    1    2    0    0  0.42921951027E+02 -0.52240270397E+02 -0.18824126830E+02  0.11338020237E+03  0.89047081972E+02 0.  0.
        -13    1    3    3    0    0 -0.51451715343E+02  0.26943979787E+02  0.76632400589E+02  0.96154988839E+02  0.00000000000E+00 0.  1.
         13    1    3    3    0    0  0.31080677888E+02 -0.72063086059E+00  0.66082780076E+01  0.31783599309E+02  0.00000000000E+00 0. -1.
        -13    1    4    4    0    0  0.22166814090E+02 -0.74888482599E+02 -0.25082592883E+02  0.82029195648E+02  0.00000000000E+00 0. -1.
         13    1    4    4    0    0  0.20755136937E+02  0.22648212202E+02  0.62584660530E+01  0.31351006723E+02  0.00000000000E+00 0.  1.
         21    1    1    2  502  501 -0.22550913572E+02  0.26016921470E+02  0.55817514206E+01  0.34879504794E+02  0.00000000000E+00 0.  1.
<scales pt_clust_5="13000.00000" pt_clust_6="13000.00000" pt_clust_7="13000.00000" pt_clust_8="13000.00000" pt_clust_9="34.42999"></scales>
<clustering>
<clus scale="   34.430">  2  9  1 -1</clus>
<clus scale="   89.047">  7  8 -1 -1</clus>
<clus scale="   91.305">  5  6 -1 -1</clus>
<clus scale="   98.410">  2  7  1 -1</clus>
<clus scale="   34.430">  2  5  1 -1</clus>
</clustering>
</event>
<event>
 9    1  0.1782981E-005  0.9944581E+02  0.7546771E-02  0.1282273E+00
          1   -1    0    0  502    0  0.00000000000E+00  0.00000000000E+00  0.46832749312E+02  0.46832749312E+02  0.00000000000E+00 0. -1.
         -1   -1    0    0    0  501 -0.00000000000E+00 -0.00000000000E+00 -0.35503009792E+03  0.35503009792E+03  0.00000000000E+00 0.  1.
         23    2    1    2    0    0  0.64758784181E+01 -0.29552945131E+02 -0.21173039445E+03  0.23300968235E+03  0.92457766418E+02 0.  0.
         23    2    1    2    0    0  0.37802308696E+01  0.50892848298E+02 -0.10059091628E+03  0.14482013951E+03  0.90829335652E+02 0.  0.
        -11    1    3    3    0    0 -0.31291374724E+02 -0.10458826307E+02 -0.17141307615E+03  0.17455938776E+03  0.00000000000E+00 0.  1.
         11    1    3    3    0    0  0.37767253142E+02 -0.19094118824E+02 -0.40317318297E+02  0.58450294595E+02  0.00000000000E+00 0. -1.
        -11    1    4    4    0    0 -0.24282426705E+02  0.61754395209E+02 -0.40833998748E+02  0.77914421182E+02  0.00000000000E+00 0.  1.
         11    1    4    4    0    0  0.28062657575E+02 -0.10861546911E+02 -0.59756917533E+02  0.66905718324E+02  0.00000000000E+00 0. -1.
         21    1    1    2  502  501 -0.10256109288E+02 -0.21339903167E+02  0.41239621204E+01  0.24033025371E+02  0.00000000000E+00 0.  1.
<scales pt_clust_5="13000.00000" pt_clust_6="13000.00000" pt_clust_7="13000.00000" pt_clust_8="13000.00000" pt_clust_9="23.67655"></scales>
<clustering>
<clus scale="   23.677">  1  9  2 -1</clus>
<clus scale="   90.829">  7  8 -1 -1</clus>
<clus scale="   92.458">  5  6 -1 -1</clus>
<clus scale="   97.934">  1  7  2 -1</clus>
<clus scale="   23.677">  1  5  2 -1</clus>
</clustering>
</event>
<event>
 9    1  0.1782981E-005  0.1278968E+03  0.7546771E-02  0.1230710E+00
          1   -1    0    0  502    0  0.00000000000E+00  0.00000000000E+00  0.27382020300E+03  0.27382020300E+03  0.00000000000E+00 0. -1.
         -1   -1    0    0    0  501 -0.00000000000E+00 -0.00000000000E+00 -0.10746426129E+03  0.10746426129E+03  0.00000000000E+00 0.  1.
         23    2    1    2    0    0  0.76619847510E+02  0.58654088308E+02 -0.23663718948E+02  0.13530506246E+03  0.91850885823E+02 0.  0.
         23    2    1    2    0    0 -0.66361036970E+02 -0.25359862177E+02  0.11684007627E+03  0.16493003256E+03  0.92213894731E+02 0.  0.
        -13    1    4    4    0    0 -0.20921786194E+02 -0.53638427967E+02  0.35751052271E+02  0.67771231588E+02  0.00000000000E+00 0.  1.
         13    1    4    4    0    0 -0.45439250776E+02  0.28278565791E+02  0.81089023997E+02  0.97158800976E+02  0.00000000000E+00 0. -1.
        -13    1    3    3    0    0  0.34193194896E+02  0.78348727131E+02 -0.74892552152E+01  0.85812508202E+02  0.00000000000E+00 0. -1.
         13    1    3    3    0    0  0.42426652614E+02 -0.19694638823E+02 -0.16174463733E+02  0.49492554263E+02  0.00000000000E+00 0.  1.
         21    1    1    2  502  501 -0.10258810539E+02 -0.33294226131E+02  0.73179584389E+02  0.81049369268E+02  0.00000000000E+00 0. -1.
<scales pt_clust_5="13000.00000" pt_clust_6="13000.00000" pt_clust_7="13000.00000" pt_clust_8="13000.00000" pt_clust_9="34.83890"></scales>
<clustering>
<clus scale="   34.839">  1  9  2 -1</clus>
<clus scale="   91.851">  7  8 -1 -1</clus>
<clus scale="   92.214">  5  6 -1 -1</clus>
<clus scale="  127.635">  2  7  1 -1</clus>
<clus scale="   34.839">  1  5  2 -1</clus>
</clustering>
</event>
<event>
 9    1  0.1782981E-005  0.1929510E+03  0.7546771E-02  0.1183141E+00
          1   -1    0    0  502    0  0.00000000000E+00  0.00000000000E+00  0.31972604119E+03  0.31972604119E+03  0.00000000000E+00 0. -1.
         -1   -1    0    0    0  501 -0.00000000000E+00 -0.00000000000E+00 -0.47135061809E+03  0.47135061809E+03  0.00000000000E+00 0.  1.
         23    2    1    2    0    0  0.19711726183E+02  0.17412790110E+03 -0.40108427259E+03  0.44717164801E+03  0.91568613486E+02 0.  0.
         23    2    1    2    0    0  0.23517941343E+02 -0.47826876104E+02  0.10893980916E+03  0.15008398150E+03  0.88412758350E+02 0.  0.
        -13    1    3    3    0    0 -0.25239835042E+01  0.80855640104E+02 -0.87094734542E+02  0.11886756418E+03  0.00000000000E+00 0. -1.
         13    1    3    3    0    0  0.22235709687E+02  0.93272261000E+02 -0.31398953805E+03  0.32830408383E+03  0.00000000000E+00 0.  1.
        -13    1    4    4    0    0  0.31307163683E+02 -0.24641634391E+02  0.14727504863E+01  0.39868755152E+02  0.00000000000E+00 0. -1.
         13    1    4    4    0    0 -0.77892223399E+01 -0.23185241713E+02  0.10746705868E+03  0.11021522635E+03  0.00000000000E+00 0.  1.
         21    1    1    2  502  501 -0.43229667526E+02 -0.12630102500E+03  0.14051988653E+03  0.19382102977E+03  0.00000000000E+00 0. -1.
<scales pt_clust_5="13000.00000" pt_clust_6="13000.00000" pt_clust_7="13000.00000" pt_clust_8="13000.00000" pt_clust_9="169.83899"></scales>
<clustering>
<clus scale="   88.413">  7  8 -1 -1</clus>
<clus scale="   91.569">  5  6 -1 -1</clus>
<clus scale="  103.234">  1  7  2 -1</clus>
<clus scale="  169.839">  1  9  2 -1</clus>
<clus scale="  103.234">  1  5  2 -1</clus>
</clustering>
</event>
<event>
 9    1  0.1782981E-005  0.2138987E+03  0.7546771E-02  0.1139350E+00
          1   -1    0    0  502    0  0.00000000000E+00  0.00000000000E+00  0.21833074860E+03  0.21833074860E+03  0.00000000000E+00 0. -1.
         -1   -1    0    0    0  501 -0.00000000000E+00 -0.00000000000E+00 -0.27158769758E+03  0.27158769758E+03  0.00000000000E+00 0.  1.
         23    2    1    2    0    0  0.49543034499E+01  0.20225883938E+03 -0.11034063651E+03  0.24950540725E+03  0.95627971608E+02 0.  0.
         23    2    1    2    0    0  0.99527478466E+01 -0.17390063633E+03  0.26106278038E+02  0.19584839198E+03  0.85642082998E+02 0.  0.
        -13    1    4    4    0    0  0.16520275471E+02 -0.15275726299E+02 -0.20446841170E+02  0.30402970734E+02  0.00000000000E+00 0.  1.
         13    1    4    4    0    0 -0.65675276239E+01 -0.15862491003E+03  0.46553119208E+02  0.16544542124E+03  0.00000000000E+00 0. -1.
        -13    1    3    3    0    0 -0.39749042693E+02  0.12449118194E+03 -0.86409819259E+02  0.15666747473E+03  0.00000000000E+00 0.  1.
         13    1    3    3    0    0  0.44703346143E+02  0.77767657443E+02 -0.23930817255E+02  0.92837932522E+02  0.00000000000E+00 0. -1.
         21    1    1    2  502  501 -0.14907051296E+02 -0.28358203045E+02  0.30977409494E+02  0.44564646944E+02  0.00000000000E+00 0. -1.
<scales pt_clust_5="13000.00000" pt_clust_6="13000.00000" pt_clust_7="13000.00000" pt_clust_8="13000.00000" pt_clust_9="32.03760"></scales>
<clustering>
<clus scale="   32.038">  1  9  2 -1</clus>
<clus scale="   85.642">  5  6 -1 -1</clus>
<clus scale="   95.628">  7  8 -1 -1</clus>
<clus scale="  209.625">  1  5  2 -1</clus>
<clus scale="   32.038">  1  5  2 -1</clus>
</clustering>
</event>
<event>
 9    1  0.1782981E-005  0.9719917E+02  0.7546771E-02  0.1287438E+00
         -2   -1    0    0    0  501 -0.00000000000E+00  0.00000000000E+00  0.82428306218E+02  0.82428306218E+02  0.00000000000E+00 0.  1.
          2   -1    0    0  502    0  0.00000000000E+00 -0.00000000000E+00 -0.33804922797E+03  0.33804922797E+03  0.00000000000E+00 0. -1.
         23    2    1    2    0    0 -0.29694942494E+02  0.15588273378E+01  0.38141101062E+02  0.10250612380E+03  0.90379988240E+02 0.  0.
         23    2    1    2    0    0  0.29686301071E+02  0.20351969727E+02 -0.25084029361E+03  0.26978056125E+03  0.92548469391E+02 0.  0.
        -11    1    4    4    0    0  0.72787244167E+01  0.45660136827E+02 -0.58867812975E+02  0.74854841719E+02  0.00000000000E+00 0.  1.
         11    1    4    4    0    0  0.22407576655E+02 -0.25308167100E+02 -0.19197248064E+03  0.19492571953E+03  0.00000000000E+00 0. -1.
        -13    1    3    3    0    0 -0.15434127128E+01  0.28133246289E+02 -0.18640131382E+02  0.33783371168E+02  0.00000000000E+00 0. -1.
         13    1    3    3    0    0 -0.28151529781E+02 -0.26574418952E+02  0.56781232444E+02  0.68722752633E+02  0.00000000000E+00 0.  1.
         21    1    1    2  502  501  0.86414226707E-02 -0.21910797065E+02 -0.42921729202E+02  0.48190849135E+02  0.00000000000E+00 0. -1.
<scales pt_clust_5="13000.00000" pt_clust_6="13000.00000" pt_clust_7="13000.00000" pt_clust_8="13000.00000" pt_clust_9="21.91080"></scales>
<clustering>
<clus scale="   21.911">  2  9  1 -1</clus>
<clus scale="   90.380">  7  8 -1 -1</clus>
<clus scale="   92.548">  5  6 -1 -1</clus>
<clus scale="   95.137">  1  7  2 -1</clus>
<clus scale="   21.911">  2  5  1 -1</clus>
</clustering>
</event>
<event>
 9    1  0.1782981E-005  0.1130939E+03  0.7546771E-02  0.1254976E+00
          3   -1    0    0  502    0  0.00000000000E+00  0.00000000000E+00  0.17247446645E+03  0.17247446645E+03  0.00000000000E+00 0. -1.
         -3   -1    0    0    0  501 -0.00000000000E+00 -0.00000000000E+00 -0.22710543614E+03  0.22710543614E+03  0.00000000000E+00 0.  1.
         23    2    1    2    0    0 -0.68380794086E+02 -0.18896655317E+02 -0.17924222970E+03  0.21366553074E+03  0.92152946450E+02 0.  0.
         23    2    1    2    0    0  0.34875930024E+02  0.85584312165E+00  0.77167072414E+02  0.12509498549E+03  0.92070274070E+02 0.  0.
        -11    1    3    3    0    0 -0.48135682275E+02 -0.47830045905E+02 -0.15920573220E+03  0.17306421457E+03  0.00000000000E+00 0.  1.
         11    1    3    3    0    0 -0.20245111811E+02  0.28933390587E+02 -0.20036497495E+02  0.40601316173E+02  0.00000000000E+00 0. -1.
        -13    1    4    4    0    0 -0.14467952503E+02 -0.27846964570E+02  0.30301545966E+01  0.31527082362E+02  0.00000000000E+00 0.  1.
         13    1    4    4    0    0  0.49343882527E+02  0.28702807692E+02  0.74136917818E+02  0.93567903128E+02  0.00000000000E+00 0. -1.
         21    1    1    2  502  501  0.33504864062E+02  0.18040812196E+02  0.47444187593E+02  0.60819386357E+02  0.00000000000E+00 0.  1.
<scales pt_clust_5="13000.00000" pt_clust_6="13000.00000" pt_clust_7="13000.00000" pt_clust_8="13000.00000" pt_clust_9="38.05321"></scales>
<clustering>
<clus scale="   38.053">  1  9  2 -1</clus>
<clus scale="   92.070">  7  8 -1 -1</clus>
<clus scale="   92.153">  5  6 -1 -1</clus>
<clus scale="  113.027">  1  7  2 -1</clus>
<clus scale="   38.053">  1  5  2 -1</clus>
</clustering>
</event>
<event>
 9    1  0.6119066E-005  0.9567520E+02  0.7546771E-02  0.1290697E+00
         -2   -1    0    0    0  501 -0.00000000000E+00  0.00000000000E+00  0.19331184216E+03  0.19331184216E+03  0.00000000000E+00 0.  1.
          2   -1    0    0  502    0  0.00000000000E+00 -0.00000000000E+00 -0.32488115402E+03  0.32488115402E+03  0.00000000000E+00 0. -1.
         23    2    1    2    0    0 -0.14937925824E+02 -0.25519680990E+02  0.16489307878E+03  0.18971070298E+03  0.89028240740E+02 0.  0.
         23    2    1    2    0    0  0.42069787089E+02  0.11447006056E+02 -0.26937877019E+03  0.28764480342E+03  0.90959937179E+02 0.  0.
        -11    1    3    3    0    0  0.63791619190E+01  0.31772082702E+02  0.64190493096E+02  0.71906733690E+02  0.00000000000E+00 0.  1.
         11    1    3    3    0    0 -0.21317087743E+02 -0.57291763692E+02  0.10070258569E+03  0.11780396929E+03  0.00000000000E+00 0. -1.
        -11    1    4    4    0    0  0.30734611930E+02 -0.38467927433E+02 -0.11860357076E+03  0.12841808598E+03  0.00000000000E+00 0.  1.
         11    1    4    4    0    0  0.11335175158E+02  0.49914933489E+02 -0.15077519943E+03  0.15922671743E+03  0.00000000000E+00 0. -1.
         21    1    1    2  502  501 -0.27131861265E+02  0.14072674935E+02 -0.27083620454E+02  0.40837489791E+02  0.00000000000E+00 0. -1.
<scales pt_clust_5="13000.00000" pt_clust_6="13000.00000" pt_clust_7="13000.00000" pt_clust_8="13000.00000" pt_clust_9="30.56433"></scales>
<clustering>
<clus scale="   30.564">  2  9  1 -1</clus>
<clus scale="   89.028">  5  6 -1 -1</clus>
<clus scale="   90.960">  7  8 -1 -1</clus>
<clus scale="   93.841">  1  5  2 -1</clus>
<clus scale="   30.564">  2  5  1 -1</clus>
</clustering>
</event>
<event>
 9    1  0.1782981E-005  0.2964195E+03  0.7546771E-02  0.1087275E+00
          2   -1    0    0  502    0  0.00000000000E+00  0.00000000000E+00  0.97281328268E+03  0.97281328268E+03  0.00000000000E+00 0. -1.
         -2   -1    0    0    0  501 -0.00000000000E+00 -0.00000000000E+00 -0.10018118610E+03  0.10018118610E+03  0.00000000000E+00 0.  1.
         23    2    1    2    0    0 -0.20991220784E+03  0.18267317663E+03  0.35885666503E+03  0.46303633406E+03  0.90509204866E+02 0.  0.
         23    2    1    2    0    0  0.19822726844E+03 -0.20883347810E+03  0.46556817270E+03  0.55387927073E+03  0.84398172881E+02 0.  0.
        -11    1    3    3    0    0 -0.17459565221E+03  0.11285221828E+03  0.30060245167E+03  0.36548748117E+03  0.00000000000E+00 0.  1.
         11    1    3    3    0    0 -0.35316555628E+02  0.69820958350E+02  0.58254213355E+02  0.97548852889E+02  0.00000000000E+00 0. -1.
        -13    1    4    4    0    0  0.13404444077E+03 -0.13489221331E+03  0.37518737203E+03  0.42062974865E+03  0.00000000000E+00 0. -1.
         13    1    4    4    0    0  0.64182827665E+02 -0.73941264790E+02  0.90380800661E+02  0.13324952208E+03  0.00000000000E+00 0.  1.
         21    1    1    2  502  501  0.11684939397E+02  0.26160301464E+02  0.48207258848E+02  0.56078863995E+02  0.00000000000E+00 0. -1.
<scales pt_clust_5="13000.00000" pt_clust_6="13000.00000" pt_clust_7="13000.00000" pt_clust_8="13000.00000" pt_clust_9="28.65134"></scales>
<clustering>
<clus scale="   28.651">  1  9  2 -1</clus>
<clus scale="   84.398">  7  8 -1 -1</clus>
<clus scale="   90.509">  5  6 -1 -1</clus>
<clus scale="  294.611">  1  7  2 -1</clus>
<clus scale="   28.651">  1  5  2 -1</clus>
</clustering>
</event>
<event>
 9    1  0.1782981E-005  0.2378620E+03  0.7546771E-02  0.1123550E+00
         -1   -1    0    0    0  501 -0.00000000000E+00  0.00000000000E+00  0.56258335647E+03  0.56258335647E+03  0.00000000000E+00 0.  1.
          1   -1    0    0  502    0  0.00000000000E+00 -0.00000000000E+00 -0.15586219033E+03  0.15586219033E+03  0.00000000000E+00 0. -1.
         23    2    1    2    0    0 -0.21424084235E+03 -0.61884827622E+02  0.39983317245E+03  0.47173712796E+03  0.11375623798E+03 0.  0.
         23    2    1    2    0    0  0.19454918326E+03  0.66169737985E+02 -0.82930487536E+01  0.22147776399E+03  0.82193712370E+02 0.  0.
        -11    1    3    3    0    0 -0.50037109045E+01 -0.38059659735E+02  0.45312098580E+02  0.59386539718E+02  0.00000000000E+00 0. -1.
         11    1    3    3    0    0 -0.20923713145E+03 -0.23825167887E+02  0.35452107387E+03  0.41235058824E+03  0.00000000000E+00 0.  1.
        -13    1    4    4    0    0  0.16832933366E+03  0.60377828327E+02  0.22932370741E+02  0.18029459324E+03  0.00000000000E+00 0.  1.
         13    1    4    4    0    0  0.26219849599E+02  0.57919096579E+01 -0.31225419495E+02  0.41183170751E+02  0.00000000000E+00 0. -1.
         21    1    1    2  502  501  0.19691659097E+02 -0.42849103629E+01  0.15181042433E+02  0.25230654850E+02  0.00000000000E+00 0.  1.
<scales pt_clust_5="13000.00000" pt_clust_6="13000.00000" pt_clust_7="13000.00000" pt_clust_8="13000.00000" pt_clust_9="20.15247"></scales>
<clustering>
<clus scale="   20.152">  1  9  2 -1</clus>
<clus scale="   82.194">  7  8 -1 -1</clus>
<clus scale="  113.756">  5  6 -1 -1</clus>
<clus scale="  224.485">  2  7  1 -1</clus>
<clus scale="  224.485">  2  5  1 -1</clus>
</clustering>
</event>
<event>
 9    1  0.1782981E-005  0.9166873E+02  0.7546771E-02  0.1299981E+00
         -2   -1    0    0    0  501 -0.00000000000E+00  0.00000000000E+00  0.57171952468E+02  0.57171952468E+02  0.00000000000E+00 0.  1.
          2   -1    0    0  502    0  0.00000000000E+00 -0.00000000000E+00 -0.61509467780E+03  0.61509467780E+03  0.00000000000E+00 0. -1.
         23    2    1    2    0    0 -0.40544033445E+00 -0.38323280500E+01  0.10659901172E+02  0.92332883031E+02  0.91634473184E+02 0.  0.
         23    2    1    2    0    0 -0.12475671990E+02 -0.12379288725E+02 -0.41482849593E+03  0.42479164385E+03  0.89757286457E+02 0.  0.
        -11    1    3    3    0    0 -0.14909626484E+02 -0.36522497199E+02  0.31904437378E+02  0.50735420447E+02  0.00000000000E+00 0.  1.
         11    1    3    3    0    0  0.14504186149E+02  0.32690169149E+02 -0.21244536206E+02  0.41597462584E+02  0.00000000000E+00 0. -1.
        -13    1    4    4    0    0 -0.66345396086E+01 -0.50593608154E+02 -0.27619870349E+03  0.28087266530E+03  0.00000000000E+00 0.  1.
         13    1    4    4    0    0 -0.58411323813E+01  0.38214319429E+02 -0.13862979243E+03  0.14391897855E+03  0.00000000000E+00 0. -1.
         21    1    1    2  502  501  0.12881112324E+02  0.16211616775E+02 -0.15375413057E+03  0.15514210338E+03  0.00000000000E+00 0. -1.
<scales pt_clust_5="13000.00000" pt_clust_6="13000.00000" pt_clust_7="13000.00000" pt_clust_8="13000.00000" pt_clust_9="20.70603"></scales>
<clustering>
<clus scale="   20.706">  2  9  1 -1</clus>
<clus scale="   89.757">  7  8 -1 -1</clus>
<clus scale="   89.792">  2  7  1 -1</clus>
<clus scale="   91.634">  5  6 -1 -1</clus>
<clus scale="   20.706">  2  5  1 -1</clus>
</clustering>
</event>
<event>
 9    1  0.1782981E-005  0.9664769E+02  0.7546771E-02  0.1289025E+00
          2   -1    0    0  502    0  0.00000000000E+00  0.00000000000E+00  0.48281239710E+03  0.48281239710E+03  0.00000000000E+00 0. -1.
         -2   -1    0    0    0  501 -0.00000000000E+00 -0.00000000000E+00 -0.27537905564E+02  0.27537905564E+02  0.00000000000E+00 0.  1.
         23    2    1    2    0    0  0.18389028840E+02  0.37616900329E+02  0.13069257027E+03  0.16342341317E+03  0.88732612258E+02 0.  0.
         23    2    1    2    0    0 -0.87459524203E+01 -0.95447039101E+01  0.23493488503E+03  0.25249369490E+03  0.91602798553E+02 0.  0.
        -11    1    3    3    0    0 -0.25205021917E+02  0.44828987742E+02  0.51768545067E+02  0.72972005113E+02  0.00000000000E+00 0.  1.
         11    1    3    3    0    0  0.43594050758E+02 -0.72120874135E+01  0.78924025199E+02  0.90451408059E+02  0.00000000000E+00 0. -1.
        -13    1    4    4    0    0 -0.45514594151E+02 -0.16855529869E+02  0.84393556565E+02  0.97354812709E+02  0.00000000000E+00 0.  1.
         13    1    4    4    0    0  0.36768641730E+02  0.73108259593E+01  0.15054132846E+03  0.15513888219E+03  0.00000000000E+00 0. -1.
         21    1    1    2  502  501 -0.96430764200E+01 -0.28072196419E+02  0.89647036241E+02  0.94433194595E+02  0.00000000000E+00 0. -1.
<scales pt_clust_5="13000.00000" pt_clust_6="13000.00000" pt_clust_7="13000.00000" pt_clust_8="13000.00000" pt_clust_9="29.68227"></scales>
<clustering>
<clus scale="   29.682">  1  9  2 -1</clus>
<clus scale="   88.733">  5  6 -1 -1</clus>
<clus scale="   91.603">  7  8 -1 -1</clus>
<clus scale="   93.932">  2  5  1 -1</clus>
<clus scale="   29.682">  1  5  2 -1</clus>
</clustering>
</event>
<event>
 9    1  0.1782981E-005  0.1006012E+03  0.7546771E-02  0.1280080E+00
         -1   -1    0    0    0  501 -0.00000000000E+00  0.00000000000E+00  0.49533332068E+02  0.49533332068E+02  0.00000000000E+00 0.  1.
          1   -1    0    0  502    0  0.00000000000E+00 -0.00000000000E+00 -0.33639168092E+03  0.33639168092E+03  0.00000000000E+00 0. -1.
         23    2    1    2    0    0 -0.30357514448E+02 -0.72320542475E+01 -0.35868982006E+02  0.10181218197E+03  0.90029191021E+02 0.  0.
         23    2    1    2    0    0  0.49067880982E+02 -0.10186082881E+02 -0.22925150140E+03  0.25055684629E+03  0.87812693265E+02 0.  0.
        -11    1    3    3    0    0  0.51804035145E+01 -0.43331658778E+02 -0.93379673889E+01  0.44628095052E+02  0.00000000000E+00 0. -1.
         11    1    3    3    0    0 -0.35537917963E+02  0.36099604531E+02 -0.26531014617E+02  0.57184086921E+02  0.00000000000E+00 0.  1.
        -13    1    4    4    0    0 -0.15855393887E+02  0.23179963986E+02 -0.61126899799E+02  0.67269622600E+02  0.00000000000E+00 0.  1.
         13    1    4    4    0    0  0.64923274869E+02 -0.33366046866E+02 -0.16812460160E+03  0.18328722369E+03  0.00000000000E+00 0. -1.
         21    1    1    2  502  501 -0.18710366534E+02  0.17418137128E+02 -0.21737865444E+02  0.33555984725E+02  0.00000000000E+00 0.  1.
<scales pt_clust_5="13000.00000" pt_clust_6="13000.00000" pt_clust_7="13000.00000" pt_clust_8="13000.00000" pt_clust_9="25.56305"></scales>
<clustering>
<clus scale="   25.563">  1  9  2 -1</clus>
<clus scale="   87.813">  7  8 -1 -1</clus>
<clus scale="   90.029">  5  6 -1 -1</clus>
<clus scale="   98.623">  2  7  1 -1</clus>
<clus scale="   98.623">  2  5  1 -1</clus>
</clustering>
</event>
<event>
 9    1  0.1782981E-005  0.1125839E+03  0.7546771E-02  0.1256031E+00
          1   -1    0    0  502    0  0.00000000000E+00  0.00000000000E+00  0.10894325256E+03  0.10894325256E+03  0.00000000000E+00 0. -1.
         -1   -1    0    0    0  501 -0.00000000000E+00 -0.00000000000E+00 -0.18505334185E+03  0.18505334185E+03  0.00000000000E+00 0.  1.
         23    2    1    2    0    0 -0.47711197994E+02  0.33823666374E+02 -0.79510248466E+02  0.13363725378E+03  0.90092381281E+02 0.  0.
         23    2    1    2    0    0  0.78833127960E+02 -0.44006938647E+02  0.71017579460E+01  0.12740519988E+03  0.89612372350E+02 0.  0.
        -13    1    4    4    0    0  0.95145203800E+01 -0.39250324991E+02 -0.28406124515E+02  0.49376330564E+02  0.00000000000E+00 0.  1.
         13    1    4    4    0    0  0.69318607580E+02 -0.47566136559E+01  0.35507882461E+02  0.78028869319E+02  0.00000000000E+00 0. -1.
        -13    1    3    3    0    0 -0.17351484301E+02  0.60628103173E+02 -0.30475072666E+02  0.70039781238E+02  0.00000000000E+00 0. -1.
         13    1    3    3    0    0 -0.30359713693E+02 -0.26804436799E+02 -0.49035175800E+02  0.63597472539E+02  0.00000000000E+00 0.  1.
         21    1    1    2  502  501 -0.31121929966E+02  0.10183272273E+02 -0.37015987784E+01  0.32954140749E+02  0.00000000000E+00 0.  1.
<scales pt_clust_5="13000.00000" pt_clust_6="13000.00000" pt_clust_7="13000.00000" pt_clust_8="13000.00000" pt_clust_9="32.74559"></scales>
<clustering>
<clus scale="   32.746">  1  9  2 -1</clus>
<clus scale="   89.612">  5  6 -1 -1</clus>
<clus scale="   90.092">  7  8 -1 -1</clus>
<clus scale="  112.200">  1  5  2 -1</clus>
<clus scale="   32.746">  1  5  2 -1</clus>
</clustering>
</event>
<event>
 9    1  0.1782981E-005  0.1487346E+03  0.7546771E-02  0.1202527E+00
         -1   -1    0    0    0  501 -0.00000000000E+00  0.00000000000E+00  0.91487211054E+02  0.91487211054E+02  0.00000000000E+00 0.  1.
          1   -1    0    0  502    0  0.00000000000E+00 -0.00000000000E+00 -0.30165142955E+03  0.30165142955E+03  0.00000000000E+00 0. -1.
         23    2    1    2    0    0  0.94927055486E+02  0.48979581907E+02 -0.81874197335E+02  0.16296621173E+03  0.91893724860E+02 0.  0.
         23    2    1    2    0    0 -0.10129371799E+03 -0.76255296454E+02 -0.12962144349E+03  0.20213189249E+03  0.89332501412E+02 0.  0.
        -11    1    3    3    0    0  0.76680972726E+02 -0.76734740166E+01 -0.26003847193E+02  0.81332981321E+02  0.00000000000E+00 0. -1.
         11    1    3    3    0    0  0.18246082759E+02  0.56653055924E+02 -0.55870350143E+02  0.81633230407E+02  0.00000000000E+00 0.  1.
        -11    1    4    4    0    0 -0.82193088502E+02 -0.90185133528E+02 -0.76580795017E+02  0.14406137675E+03  0.00000000000E+00 0.  1.
         11    1    4    4    0    0 -0.19100629492E+02  0.13929837074E+02 -0.53040648470E+02  0.58070515738E+02  0.00000000000E+00 0. -1.
         21    1    1    2  502  501  0.63666625086E+01  0.27275714546E+02  0.13314223217E+01  0.28040536388E+02  0.00000000000E+00 0. -1.
<scales pt_clust_5="13000.00000" pt_clust_6="13000.00000" pt_clust_7="13000.00000" pt_clust_8="13000.00000" pt_clust_9="28.00891"></scales>
<clustering>
<clus scale="   28.009">  1  9  2 -1</clus>
<clus scale="   89.333">  7  8 -1 -1</clus>
<clus scale="   91.894">  5  6 -1 -1</clus>
<clus scale="  147.166">  2  7  1 -1</clus>
<clus scale="  147.166">  2  5  1 -1</clus>
</clustering>
</event>
<event>
 9    1  0.1782981E-005  0.3976715E+03  0.7546771E-02  0.1044955E+00
          2   -1    0    0  502    0  0.00000000000E+00  0.00000000000E+00  0.25637827323E+03  0.25637827323E+03  0.00000000000E+00 0. -1.
         -2   -1    0    0    0  501 -0.00000000000E+00 -0.00000000000E+00 -0.14423322108E+04  0.14423322108E+04  0.00000000000E+00 0.  1.
         23    2    1    2    0    0  0.10540363792E+03 -0.37168645205E+03 -0.11746746879E+04  0.12411750686E+04  0.10674353908E+03 0.  0.
         23    2    1    2    0    0 -0.11576148730E+03  0.34950796699E+03 -0.77571469339E+02  0.38686838902E+03  0.89962640223E+02 0.  0.
        -11    1    4    4    0    0 -0.44902849322E+02  0.40462776861E+02  0.35640352751E-01  0.60444217744E+02  0.00000000000E+00 0.  1.
         11    1    4    4    0    0 -0.70858637980E+02  0.30904519013E+03 -0.77607109692E+02  0.32642417128E+03  0.00000000000E+00 0. -1.
        -11    1    3    3    0    0  0.46405531571E+02 -0.77755927632E+02 -0.16852406969E+03  0.19131079349E+03  0.00000000000E+00 0. -1.
         11    1    3    3    0    0  0.58998106353E+02 -0.29393052442E+03 -0.10061506182E+04  0.10498642751E+04  0.00000000000E+00 0.  1.
         21    1    1    2  502  501  0.10357849378E+02  0.22178485059E+02  0.66292219597E+02  0.70667026415E+02  0.00000000000E+00 0. -1.
<scales pt_clust_5="13000.00000" pt_clust_6="13000.00000" pt_clust_7="13000.00000" pt_clust_8="13000.00000" pt_clust_9="24.47795"></scales>
<clustering>
<clus scale="   24.478">  1  9  2 -1</clus>
<clus scale="   89.963">  5  6 -1 -1</clus>
<clus scale="  106.744">  7  8 -1 -1</clus>
<clus scale="  393.499">  1  5  2 -1</clus>
<clus scale="   24.478">  1  5  2 -1</clus>
</clustering>
</event>
<event>
 9    1  0.1782981E-005  0.9934117E+02  0.7546771E-02  0.1281934E+00
         -1   -1    0    0    0  501 -0.00000000000E+00  0.00000000000E+00  0.91689518405E+02  0.91689518405E+02  0.00000000000E+00 0.  1.
          1   -1    0    0  502    0  0.00000000000E+00 -0.00000000000E+00 -0.19642457115E+03  0.19642457115E+03  0.00000000000E+00 0. -1.
         23    2    1    2    0    0 -0.34317576434E+02  0.95857787115E+01  0.17733671306E+01  0.10049212701E+03  0.93946471751E+02 0.  0.
         23    2    1    2    0    0  0.13965261049E+00 -0.39438594599E+02 -0.98781987579E+02  0.14158916066E+03  0.93456872936E+02 0.  0.
        -11    1    4    4    0    0  0.11707214642E+02 -0.68599081189E+02 -0.61569413049E+02  0.92917627164E+02  0.00000000000E+00 0.  1.
         11    1    4    4    0    0 -0.11567562032E+02  0.29160486590E+02 -0.37212574530E+02  0.48671533494E+02  0.00000000000E+00 0. -1.
        -11    1    3    3    0    0 -0.14876181203E+02  0.51320454148E+02  0.80128547972E+01  0.54030506412E+02  0.00000000000E+00 0. -1.
         11    1    3    3    0    0 -0.19441395231E+02 -0.41734675437E+02 -0.62394876667E+01  0.46461620599E+02  0.00000000000E+00 0.  1.
         21    1    1    2  502  501  0.34177923824E+02  0.29852815888E+02 -0.77264322939E+01  0.46032801884E+02  0.00000000000E+00 0. -1.
<scales pt_clust_5="13000.00000" pt_clust_6="13000.00000" pt_clust_7="13000.00000" pt_clust_8="13000.00000" pt_clust_9="45.37974"></scales>
<clustering>
<clus scale="   45.380">  1  9  2 -1</clus>
<clus scale="   93.457">  5  6 -1 -1</clus>
<clus scale="   93.946">  7  8 -1 -1</clus>
<clus scale="   98.878">  2  5  1 -1</clus>
<clus scale="   98.878">  2  5  1 -1</clus>
</clustering>
</event>
<event>
 9    1  0.1782981E-005  0.9383791E+02  0.7546771E-02  0.1294253E+00
          2   -1    0    0  502    0  0.00000000000E+00  0.00000000000E+00  0.35285787593E+02  0.35285787593E+02  0.00000000000E+00 0. -1.
         -2   -1    0    0    0  501 -0.00000000000E+00 -0.00000000000E+00 -0.46224333037E+03  0.46224333037E+03  0.00000000000E+00 0.  1.
         23    2    1    2    0    0  0.94828524136E+00  0.91255116431E+01 -0.23499660492E+03  0.25243258253E+03  0.91731293396E+02 0.  0.
         23    2    1    2    0    0  0.34404949984E+02 -0.22969882962E+02 -0.17896192533E+03  0.20496559744E+03  0.90951686668E+02 0.  0.
        -11    1    3    3    0    0  0.87025212896E+01  0.41466600632E+02 -0.19884980257E+03  0.20331369070E+03  0.00000000000E+00 0.  1.
         11    1    3    3    0    0 -0.77542360483E+01 -0.32341088989E+02 -0.36146802352E+02  0.49118891823E+02  0.00000000000E+00 0. -1.
        -13    1    4    4    0    0  0.36747291529E+02  0.29660687308E+02 -0.86096309294E+02  0.98197221347E+02  0.00000000000E+00 0.  1.
         13    1    4    4    0    0 -0.23423415445E+01 -0.52630570270E+02 -0.92865616037E+02  0.10676837609E+03  0.00000000000E+00 0. -1.
         21    1    1    2  502  501 -0.35353235226E+02  0.13844371319E+02 -0.12999012523E+02  0.40130938000E+02  0.00000000000E+00 0.  1.
<scales pt_clust_5="13000.00000" pt_clust_6="13000.00000" pt_clust_7="13000.00000" pt_clust_8="13000.00000" pt_clust_9="37.96733"></scales>
<clustering>
<clus scale="   37.967">  1  9  2 -1</clus>
<clus scale="   90.952">  7  8 -1 -1</clus>
<clus scale="   91.731">  5  6 -1 -1</clus>
<clus scale="   93.076">  1  7  2 -1</clus>
<clus scale="   37.967">  1  5  2 -1</clus>
</clustering>
</event>
<event>
 9    1  0.1782981E-005  0.1221345E+03  0.7546771E-02  0.1240829E+00
         -1   -1    0    0    0  501 -0.00000000000E+00  0.00000000000E+00  0.36493143134E+03  0.36493143134E+03  0.00000000000E+00 0.  1.
          1   -1    0    0  502    0  0.00000000000E+00 -0.00000000000E+00 -0.15054031099E+03  0.15054031099E+03  0.00000000000E+00 0. -1.
         23    2    1    2    0    0  0.85143761890E+02  0.22917325577E+02  0.28625046445E+03  0.31298894316E+03  0.90818974581E+02 0.  0.
         23    2    1    2    0    0 -0.48839921931E+02 -0.40273063180E+02  0.13354827559E+02  0.10824562246E+03  0.86784248395E+02 0.  0.
        -11    1    3    3    0    0  0.73260930414E+02  0.55188495156E+02  0.19570428194E+03  0.21613213526E+03  0.00000000000E+00 0.  1.
         11    1    3    3    0    0  0.11882831476E+02 -0.32271169579E+02  0.90546182513E+02  0.96856807905E+02  0.00000000000E+00 0. -1.
        -11    1    4    4    0    0  0.63143530063E+01 -0.41632137400E+02 -0.16841819436E+02  0.45351436585E+02  0.00000000000E+00 0.  1.
         11    1    4    4    0    0 -0.55154274937E+02  0.13590742209E+01  0.30196646995E+02  0.62894185870E+02  0.00000000000E+00 0. -1.
         21    1    1    2  502  501 -0.36303839959E+02  0.17355737602E+02 -0.85214171661E+02  0.94237176716E+02  0.00000000000E+00 0.  1.
<scales pt_clust_5="13000.00000" pt_clust_6="13000.00000" pt_clust_7="13000.00000" pt_clust_8="13000.00000" pt_clust_9="40.23917"></scales>
<clustering>
<clus scale="   40.239">  2  9  1 -1</clus>
<clus scale="   86.784">  7  8 -1 -1</clus>
<clus scale="   90.819">  5  6 -1 -1</clus>
<clus scale="  119.165">  2  7  1 -1</clus>
<clus scale="   40.239">  2  5  1 -1</clus>
</clustering>
</event>
<event>
 9    1  0.1782981E-005  0.9789131E+02  0.7546771E-02  0.1286017E+00
          1   -1    0    0  502    0  0.00000000000E+00  0.00000000000E+00  0.11327118496E+04  0.11327118496E+04  0.00000000000E+00 0. -1.
         -1   -1    0    0    0  501 -0.00000000000E+00 -0.00000000000E+00 -0.20632991400E+02  0.20632991400E+02  0.00000000000E+00 0.  1.
         23    2    1    2    0    0  0.77958179146E+01  0.11656490395E+02  0.16937726784E+03  0.19460531052E+03  0.94794089886E+02 0.  0.
         23    2    1    2    0    0 -0.66047521562E+02 -0.53014724410E+01  0.54542774610E+03  0.55716742666E+03  0.92486401170E+02 0.  0.
        -11    1    4    4    0    0 -0.46295633157E+02  0.41997803526E+02  0.30288714688E+03  0.30926966371E+03  0.00000000000E+00 0. -1.
         11    1    4    4    0    0 -0.19751888405E+02 -0.47299275967E+02  0.24254059922E+03  0.24789776294E+03  0.00000000000E+00 0.  1.
        -13    1    3    3    0    0 -0.90474857195E+01 -0.38981584970E+02  0.51578128128E+02  0.65281883136E+02  0.00000000000E+00 0.  1.
         13    1    3    3    0    0  0.16843303634E+02  0.50638075365E+02  0.11779913971E+03  0.12932342739E+03  0.00000000000E+00 0. -1.
         21    1    1    2  502  501  0.58251703648E+02 -0.63550179537E+01  0.39727384424E+03  0.40157210379E+03  0.00000000000E+00 0. -1.
<scales pt_clust_5="13000.00000" pt_clust_6="13000.00000" pt_clust_7="13000.00000" pt_clust_8="13000.00000" pt_clust_9="58.59733"></scales>
<clustering>
<clus scale="   58.597">  1  9  2 -1</clus>
<clus scale="   92.486">  5  6 -1 -1</clus>
<clus scale="   94.794">  7  8 -1 -1</clus>
<clus scale="   95.658">  1  5  2 -1</clus>
<clus scale="   58.597">  1  5  2 -1</clus>
</clustering>
</event>
<event>
 9    1  0.1782981E-005  0.1881289E+03  0.7546771E-02  0.1181797E+00
         -1   -1    0    0    0  501 -0.00000000000E+00  0.00000000000E+00  0.13031235437E+03  0.13031235437E+03  0.00000000000E+00 0.  1.
          1   -1    0    0  502    0  0.00000000000E+00 -0.00000000000E+00 -0.15388151662E+04  0.15388151662E+04  0.00000000000E+00 0. -1.
         23    2    1    2    0    0 -0.43573647694E+02  0.53220445404E+02  0.76495505114E+02  0.13793386590E+03  0.91886399847E+02 0.  0.
         23    2    1    2    0    0  0.77188324475E+02 -0.19283878062E+03 -0.81754024749E+03  0.84846127628E+03  0.91485782136E+02 0.  0.
        -11    1    4    4    0    0  0.57357224458E+02 -0.54822420360E+02 -0.41336242527E+03  0.42090835535E+03  0.00000000000E+00 0. -1.
         11    1    4    4    0    0  0.19831100017E+02 -0.13801636026E+03 -0.40417782222E+03  0.42755292093E+03  0.00000000000E+00 0.  1.
        -11    1    3    3    0    0 -0.63280869681E+02  0.32030170993E+02  0.82062873976E+02  0.10846527374E+03  0.00000000000E+00 0.  1.
         11    1    3    3    0    0  0.19707221987E+02  0.21190274411E+02 -0.55673688617E+01  0.29468592164E+02  0.00000000000E+00 0. -1.
         21    1    1    2  502  501 -0.33614676781E+02  0.13961833521E+03 -0.66745806943E+03  0.68273237836E+03  0.00000000000E+00 0.  1.
<scales pt_clust_5="13000.00000" pt_clust_6="13000.00000" pt_clust_7="13000.00000" pt_clust_8="13000.00000" pt_clust_9="164.38622"></scales>
<clustering>
<clus scale="   91.486">  5  6 -1 -1</clus>
<clus scale="   91.886">  7  8 -1 -1</clus>
<clus scale="  114.779">  1  7  2 -1</clus>
<clus scale="  164.386">  2  9  1 -1</clus>
<clus scale="  164.386">  2  5  1 -1</clus>
</clustering>
</event>
<event>
 9    1  0.1782981E-005  0.1032666E+03  0.7546771E-02  0.1274071E+00
          1   -1    0    0  502    0  0.00000000000E+00  0.00000000000E+00  0.41446071454E+03  0.41446071454E+03  0.00000000000E+00 0. -1.
         -1   -1    0    0    0  501 -0.00000000000E+00 -0.00000000000E+00 -0.54491526903E+02  0.54491526903E+02  0.00000000000E+00 0.  1.
         23    2    1    2    0    0 -0.68098853004E+02 -0.15534566945E+02  0.71379534415E+02  0.13620500009E+03  0.92617425817E+02 0.  0.
         23    2    1    2    0    0  0.12151182087E+02 -0.23366255924E+02  0.14052845651E+03  0.16975787399E+03  0.91519700349E+02 0.  0.
        -13    1    4    4    0    0 -0.20904265390E+02 -0.93155310786E+01 -0.18101594132E+01  0.22957441231E+02  0.00000000000E+00 0.  1.
         13    1    4    4    0    0  0.33055447477E+02 -0.14050724846E+02  0.14233861592E+03  0.14680043276E+03  0.00000000000E+00 0. -1.
        -13    1    3    3    0    0 -0.69427504546E+01  0.23853779573E+02 -0.10242504231E+02  0.26872169185E+02  0.00000000000E+00 0.  1.
         13    1    3    3    0    0 -0.61156102550E+02 -0.39388346518E+02  0.81622038646E+02  0.10933283090E+03  0.00000000000E+00 0. -1.
         21    1    1    2  502  501  0.55947670917E+02  0.38900822869E+02  0.14806119672E+03  0.16298936737E+03  0.00000000000E+00 0. -1.
<scales pt_clust_5="13000.00000" pt_clust_6="13000.00000" pt_clust_7="13000.00000" pt_clust_8="13000.00000" pt_clust_9="68.14261"></scales>
<clustering>
<clus scale="   68.143">  1  9  2 -1</clus>
<clus scale="   91.520">  5  6 -1 -1</clus>
<clus scale="   92.617">  7  8 -1 -1</clus>
<clus scale="  102.283">  1  5  2 -1</clus>
<clus scale="   68.143">  1  5  2 -1</clus>
</clustering>
</event>
<event>
 9    1  0.1782981E-005  0.3106543E+03  0.7546771E-02  0.1080035E+00
          1   -1    0    0  502    0  0.00000000000E+00  0.00000000000E+00  0.76151680881E+03  0.76151680881E+03  0.00000000000E+00 0. -1.
         -1   -1    0    0    0  501 -0.00000000000E+00 -0.00000000000E+00 -0.21611826428E+03  0.21611826428E+03  0.00000000000E+00 0.  1.
         23    2    1    2    0    0  0.27389603744E+03 -0.11448621362E+03  0.11908017651E+03  0.33240350140E+03  0.90475780610E+02 0.  0.
         23    2    1    2    0    0 -0.24083679835E+03  0.18301771282E+03  0.13364811388E+03  0.34283223748E+03  0.90411714196E+02 0.  0.
        -13    1    4    4    0    0 -0.25497742522E+01  0.24211201121E+02 -0.47188820959E+01  0.24798214789E+02  0.00000000000E+00 0. -1.
         13    1    4    4    0    0 -0.23828702410E+03  0.15880651170E+03  0.13836699597E+03  0.31803402269E+03  0.00000000000E+00 0.  1.
        -13    1    3    3    0    0  0.82435714387E+02 -0.26701362294E+02 -0.69848349230E+01  0.86933294392E+02  0.00000000000E+00 0.  1.
         13    1    3    3    0    0  0.19146032305E+03 -0.87784851324E+02  0.12606501143E+03  0.24547020701E+03  0.00000000000E+00 0. -1.
         21    1    1    2  502  501 -0.33059239084E+02 -0.68531499200E+02  0.29267025414E+03  0.30239933421E+03  0.00000000000E+00 0. -1.
<scales pt_clust_5="13000.00000" pt_clust_6="13000.00000" pt_clust_7="13000.00000" pt_clust_8="13000.00000" pt_clust_9="76.08863"></scales>
<clustering>
<clus scale="   76.089">  1  9  2 -1</clus>
<clus scale="   90.412">  5  6 -1 -1</clus>
<clus scale="   90.476">  7  8 -1 -1</clus>
<clus scale="  310.636">  1  5  2 -1</clus>
<clus scale="   76.089">  1  5  2 -1</clus>
</clustering>
</event>
<event>
 9    1  0.1782981E-005  0.1203646E+03  0.7546771E-02  0.1242762E+00
          1   -1    0    0  502    0  0.00000000000E+00  0.00000000000E+00  0.18612812097E+03  0.18612812097E+03  0.00000000000E+00 0. -1.
         -1   -1    0    0    0  501 -0.00000000000E+00 -0.00000000000E+00 -0.28588329298E+03  0.28588329298E+03  0.00000000000E+00 0.  1.
         23    2    1    2    0    0 -0.54799763742E+02  0.59806964061E+02 -0.12388851723E+03  0.17453623537E+03  0.92383146196E+02 0.  0.
         23    2    1    2    0    0  0.42792147475E+01 -0.82842281026E+02 -0.10165095357E+03  0.15998102773E+03  0.91541562522E+02 0.  0.
        -13    1    3    3    0    0  0.29521318292E+00  0.66761381766E+02 -0.58668844346E+02  0.88877458013E+02  0.00000000000E+00 0.  1.
         13    1    3    3    0    0 -0.55094976925E+02 -0.69544177042E+01 -0.65219672880E+02  0.85658777358E+02  0.00000000000E+00 0. -1.
        -13    1    4    4    0    0  0.32624320932E+02 -0.42974628278E+02 -0.96803315611E+02  0.11082439671E+03  0.00000000000E+00 0.  1.
         13    1    4    4    0    0 -0.28345106185E+02 -0.39867652748E+02 -0.48476379569E+01  0.49156631028E+02  0.00000000000E+00 0. -1.
         21    1    1    2  502  501  0.50520548995E+02  0.23035316965E+02  0.12578429878E+03  0.13749415085E+03  0.00000000000E+00 0. -1.
<scales pt_clust_5="13000.00000" pt_clust_6="13000.00000" pt_clust_7="13000.00000" pt_clust_8="13000.00000" pt_clust_9="55.52433"></scales>
<clustering>
<clus scale="   55.524">  1  9  2 -1</clus>
<clus scale="   91.542">  7  8 -1 -1</clus>
<clus scale="   92.383">  5  6 -1 -1</clus>
<clus scale="  119.720">  1  7  2 -1</clus>
<clus scale="   55.524">  1  5  2 -1</clus>
</clustering>
</event>
<event>
 9    1  0.1782981E-005  0.9778331E+02  0.7546771E-02  0.1286365E+00
         -1   -1    0    0    0  501 -0.00000000000E+00  0.00000000000E+00  0.42274637858E+02  0.42274637858E+02  0.00000000000E+00 0.  1.
          1   -1    0    0  502    0  0.00000000000E+00 -0.00000000000E+00 -0.64103205911E+03  0.64103205911E+03  0.00000000000E+00 0. -1.
         23    2    1    2    0    0 -0.14978174021E+02 -0.38615775889E+02 -0.54355481151E+02  0.11397442728E+03  0.91214735088E+02 0.  0.
         23    2    1    2    0    0 -0.32702125604E+02  0.25953690093E+02 -0.21501954998E+03  0.23627597068E+03  0.88599686226E+02 0.  0.
        -11    1    4    4    0    0 -0.31205545677E+02 -0.20218553455E+02 -0.37366006017E+02  0.52714271222E+02  0.00000000000E+00 0.  1.
         11    1    4    4    0    0 -0.14965799277E+01  0.46172243548E+02 -0.17765354397E+03  0.18356169946E+03  0.00000000000E+00 0. -1.
        -13    1    3    3    0    0 -0.45938813546E+02 -0.35067750463E+02 -0.83297225457E+01  0.58390975247E+02  0.00000000000E+00 0. -1.
         13    1    3    3    0    0  0.30960639525E+02 -0.35480254259E+01 -0.46025758605E+02  0.55583452028E+02  0.00000000000E+00 0.  1.
         21    1    1    2  502  501  0.47680299625E+02  0.12662085796E+02 -0.32938239012E+03  0.33305629901E+03  0.00000000000E+00 0. -1.
<scales pt_clust_5="13000.00000" pt_clust_6="13000.00000" pt_clust_7="13000.00000" pt_clust_8="13000.00000" pt_clust_9="49.33294"></scales>
<clustering>
<clus scale="   49.333">  2  9  1 -1</clus>
<clus scale="   88.600">  5  6 -1 -1</clus>
<clus scale="   91.215">  7  8 -1 -1</clus>
<clus scale="   95.349">  2  5  1 -1</clus>
<clus scale="   49.333">  2  5  1 -1</clus>
</clustering>
</event>
<event>
 9    1  0.1782981E-005  0.1146967E+03  0.7546771E-02  0.1252440E+00
         -2   -1    0    0    0  501 -0.00000000000E+00  0.00000000000E+00  0.24229924652E+03  0.24229924652E+03  0.00000000000E+00 0. -1.
          2   -1    0    0  502    0  0.00000000000E+00 -0.00000000000E+00 -0.12514519296E+03  0.12514519296E+03  0.00000000000E+00 0.  1.
         23    2    1    2    0    0 -0.88046229346E+02  0.48605586262E+02  0.70106284483E+02  0.15300083245E+03  0.91540821985E+02 0.  0.
         23    2    1    2    0    0  0.70577851161E+01 -0.66648674105E+02 -0.10921053768E+02  0.11322569586E+03  0.90603149487E+02 0.  0.
        -11    1    4    4    0    0  0.21166211601E+02 -0.33027603686E+02  0.36381419085E+02  0.53501764208E+02  0.00000000000E+00 0. -1.
         11    1    4    4    0    0 -0.14108426485E+02 -0.33621070420E+02 -0.47302472853E+02  0.59723931653E+02  0.00000000000E+00 0.  1.
        -13    1    3    3    0    0 -0.27087475927E+02 -0.21809363146E+02 -0.25613184495E+01  0.34870331589E+02  0.00000000000E+00 0.  1.
         13    1    3    3    0    0 -0.60958753419E+02  0.70414949409E+02  0.72667602933E+02  0.11813050087E+03  0.00000000000E+00 0. -1.
         21    1    1    2  502  501  0.80988444230E+02  0.18043087843E+02  0.57968822853E+02  0.10121791117E+03  0.00000000000E+00 0. -1.
<scales pt_clust_5="13000.00000" pt_clust_6="13000.00000" pt_clust_7="13000.00000" pt_clust_8="13000.00000" pt_clust_9="82.97398"></scales>
<clustering>
<clus scale="   82.974">  1  9  2 -1</clus>
<clus scale="   90.603">  5  6 -1 -1</clus>
<clus scale="   91.541">  7  8 -1 -1</clus>
<clus scale="  113.950">  2  5  1 -1</clus>
<clus scale="  113.950">  2  5  1 -1</clus>
</clustering>
</event>
<event>
 9    1  0.1782981E-005  0.3157195E+03  0.7546771E-02  0.1077714E+00
          1   -1    0    0  502    0  0.00000000000E+00  0.00000000000E+00  0.15017443312E+04  0.15017443312E+04  0.00000000000E+00 0. -1.
         -1   -1    0    0    0  501 -0.00000000000E+00 -0.00000000000E+00 -0.71992941585E+02  0.71992941585E+02  0.00000000000E+00 0.  1.
         23    2    1    2    0    0  0.30581342110E+03 -0.13690308562E+02  0.62800764894E+03  0.70459202124E+03  0.91362115783E+02 0.  0.
         23    2    1    2    0    0 -0.29663049975E+03 -0.57453831165E+01  0.71452509553E+03  0.77931672480E+03  0.93625758198E+02 0.  0.
        -11    1    4    4    0    0 -0.27567635967E+03  0.19237194274E+02  0.60677231566E+03  0.66673845545E+03  0.00000000000E+00 0. -1.
         11    1    4    4    0    0 -0.20954140080E+02 -0.24982577390E+02  0.10775277987E+03  0.11257826935E+03  0.00000000000E+00 0.  1.
        -11    1    3    3    0    0  0.37387334347E+02  0.14610758332E+02  0.15376895148E+03  0.15892192256E+03  0.00000000000E+00 0. -1.
         11    1    3    3    0    0  0.26842608675E+03 -0.28301066894E+02  0.47423869745E+03  0.54567009869E+03  0.00000000000E+00 0.  1.
         21    1    1    2  502  501 -0.91829213503E+01  0.19435691678E+02  0.87218645112E+02  0.89828526709E+02  0.00000000000E+00 0. -1.
<scales pt_clust_5="13000.00000" pt_clust_6="13000.00000" pt_clust_7="13000.00000" pt_clust_8="13000.00000" pt_clust_9="21.49586"></scales>
<clustering>
<clus scale="   21.496">  1  9  2 -1</clus>
<clus scale="   91.362">  7  8 -1 -1</clus>
<clus scale="   93.626">  5  6 -1 -1</clus>
<clus scale="  315.056">  2  7  1 -1</clus>
<clus scale="   21.496">  1  5  2 -1</clus>
</clustering>
</event>
<event>
 9    1  0.1782981E-005  0.1268154E+03  0.7546771E-02  0.1232808E+00
          1   -1    0    0  502    0  0.00000000000E+00  0.00000000000E+00  0.17335673015E+03  0.17335673015E+03  0.00000000000E+00 0. -1.
         -1   -1    0    0    0  501 -0.00000000000E+00 -0.00000000000E+00 -0.12312390380E+03  0.12312390380E+03  0.00000000000E+00 0.  1.
         23    2    1    2    0    0 -0.91474046598E+02 -0.81298749889E+01 -0.26062294623E+02  0.13289686043E+03  0.92459376176E+02 0.  0.
         23    2    1    2    0    0  0.76138811617E+02  0.21953118265E+02  0.50283245568E+02  0.13037429974E+03  0.90498592314E+02 0.  0.
        -11    1    4    4    0    0  0.59719523589E+02  0.50079744199E+02  0.10007681759E+02  0.78578342887E+02  0.00000000000E+00 0.  1.
         11    1    4    4    0    0  0.16419288028E+02 -0.28126625934E+02  0.40275563809E+02  0.51795956849E+02  0.00000000000E+00 0. -1.
        -13    1    3    3    0    0 -0.20839760477E+02  0.39224254974E+02 -0.16240572048E+02  0.47292641874E+02  0.00000000000E+00 0.  1.
         13    1    3    3    0    0 -0.70634286120E+02 -0.47354129963E+02 -0.98217225750E+01  0.85604218556E+02  0.00000000000E+00 0. -1.
         21    1    1    2  502  501  0.15335234981E+02 -0.13823243276E+02  0.26011875411E+02  0.33209473784E+02  0.00000000000E+00 0. -1.
<scales pt_clust_5="13000.00000" pt_clust_6="13000.00000" pt_clust_7="13000.00000" pt_clust_8="13000.00000" pt_clust_9="20.64586"></scales>
<clustering>
<clus scale="   20.646">  1  9  2 -1</clus>
<clus scale="   90.499">  5  6 -1 -1</clus>
<clus scale="   92.459">  7  8 -1 -1</clus>
<clus scale="  125.393">  1  5  2 -1</clus>
<clus scale="   20.646">  1  5  2 -1</clus>
</clustering>
</event>
<event>
 9    1  0.1782981E-005  0.1135420E+03  0.7546771E-02  0.1254589E+00
         -1   -1    0    0    0  501 -0.00000000000E+00  0.00000000000E+00  0.24118690998E+03  0.24118690998E+03  0.00000000000E+00 0.  1.
          1   -1    0    0  502    0  0.00000000000E+00 -0.00000000000E+00 -0.25148781815E+03  0.25148781815E+03  0.00000000000E+00 0. -1.
         23    2    1    2    0    0  0.29236370952E+02  0.60851182904E+02  0.20001340692E+03  0.23028081795E+03  0.92012283541E+02 0.  0.
         23    2    1    2    0    0 -0.50266702516E+02 -0.17459514615E+02 -0.12856114199E+03  0.16747977512E+03  0.93219803740E+02 0.  0.
        -13    1    3    3    0    0  0.20566924246E+02  0.83142440442E+02  0.12485260101E+03  0.15140619457E+03  0.00000000000E+00 0.  1.
         13    1    3    3    0    0  0.86694467060E+01 -0.22291257537E+02  0.75160805908E+02  0.78874623381E+02  0.00000000000E+00 0. -1.
        -13    1    4    4    0    0 -0.27599152239E+02  0.37882669944E+02 -0.47352674611E+02  0.66626463806E+02  0.00000000000E+00 0.  1.
         13    1    4    4    0    0 -0.22667550277E+02 -0.55342184560E+02 -0.81208467383E+02  0.10085331131E+03  0.00000000000E+00 0. -1.
         21    1    1    2  502  501  0.21030331564E+02 -0.43391668289E+02 -0.81753173098E+02  0.94914135060E+02  0.00000000000E+00 0.  1.
<scales pt_clust_5="13000.00000" pt_clust_6="13000.00000" pt_clust_7="13000.00000" pt_clust_8="13000.00000" pt_clust_9="48.21941"></scales>
<clustering>
<clus scale="   48.219">  2  9  1 -1</clus>
<clus scale="   92.012">  5  6 -1 -1</clus>
<clus scale="   93.220">  7  8 -1 -1</clus>
<clus scale="  112.553">  1  5  2 -1</clus>
<clus scale="   48.219">  2  5  1 -1</clus>
</clustering>
</event>
<event>
 9    1  0.1782981E-005  0.1101581E+03  0.7546771E-02  0.1261809E+00
         -1   -1    0    0    0  501 -0.00000000000E+00  0.00000000000E+00  0.72976439317E+02  0.72976439317E+02  0.00000000000E+00 0.  1.
          1   -1    0    0  502    0  0.00000000000E+00 -0.00000000000E+00 -0.22035582344E+03  0.22035582344E+03  0.00000000000E+00 0. -1.
         23    2    1    2    0    0  0.53263119834E+02  0.37730817445E+02 -0.37647807972E+02  0.11901567014E+03  0.92123817633E+02 0.  0.
         23    2    1    2    0    0 -0.39905198493E+02 -0.11464608976E+02 -0.74207090578E+02  0.12816102041E+03  0.95888960445E+02 0.  0.
        -11    1    3    3    0    0 -0.25288254256E+02  0.55509219703E+01 -0.18973984361E+02  0.32098607767E+02  0.00000000000E+00 0. -1.
         11    1    3    3    0    0  0.78551374090E+02  0.32179895474E+02 -0.18673823611E+02  0.86917062378E+02  0.00000000000E+00 0.  1.
        -11    1    4    4    0    0  0.14836120606E+02  0.25038129871E+02 -0.15826134143E+00  0.29104011214E+02  0.00000000000E+00 0.  1.
         11    1    4    4    0    0 -0.54741319099E+02 -0.36502738847E+02 -0.74048829236E+02  0.99057009198E+02  0.00000000000E+00 0. -1.
         21    1    1    2  502  501 -0.13357921341E+02 -0.26266208469E+02 -0.35524485572E+02  0.46155572199E+02  0.00000000000E+00 0.  1.
<scales pt_clust_5="13000.00000" pt_clust_6="13000.00000" pt_clust_7="13000.00000" pt_clust_8="13000.00000" pt_clust_9="29.46774"></scales>
<clustering>
<clus scale="   29.468">  2  9  1 -1</clus>
<clus scale="   92.124">  5  6 -1 -1</clus>
<clus scale="   95.889">  7  8 -1 -1</clus>
<clus scale="  106.897">  1  5  2 -1</clus>
<clus scale="   29.468">  2  5  1 -1</clus>
</clustering>
</event>
<event>
 9    1  0.1782981E-005  0.1105513E+03  0.7546771E-02  0.1261601E+00
         -2   -1    0    0    0  501 -0.00000000000E+00  0.00000000000E+00  0.27354054594E+02  0.27354054594E+02  0.00000000000E+00 0.  1.
          2   -1    0    0  502    0  0.00000000000E+00 -0.00000000000E+00 -0.76718885446E+03  0.76718885446E+03  0.00000000000E+00 0. -1.
         23    2    1    2    0    0  0.37760689215E+02  0.43805748724E+02 -0.16165107552E+03  0.19473668352E+03  0.91904800860E+02 0.  0.
         23    2    1    2    0    0 -0.69026976004E+02 -0.26073945080E+02 -0.33071553478E+03  0.34974122918E+03  0.86611710640E+02 0.  0.
        -11    1    4    4    0    0 -0.51043154683E+02  0.22476003578E+02 -0.11379321553E+03  0.12672596528E+03  0.00000000000E+00 0.  1.
         11    1    4    4    0    0 -0.17983821321E+02 -0.48549948659E+02 -0.21692231925E+03  0.22301526390E+03  0.00000000000E+00 0. -1.
        -13    1    3    3    0    0 -0.10917663644E+02  0.57064532779E+02 -0.83997777695E+02  0.10213316278E+03  0.00000000000E+00 0.  1.
         13    1    3    3    0    0  0.48678352859E+02 -0.13258784055E+02 -0.77653297823E+02  0.92603520746E+02  0.00000000000E+00 0. -1.
         21    1    1    2  502  501  0.31266286789E+02 -0.17731803643E+02 -0.24746818957E+03  0.25006499635E+03  0.00000000000E+00 0. -1.
<scales pt_clust_5="13000.00000" pt_clust_6="13000.00000" pt_clust_7="13000.00000" pt_clust_8="13000.00000" pt_clust_9="35.94437"></scales>
<clustering>
<clus scale="   35.944">  2  9  1 -1</clus>
<clus scale="   86.612">  5  6 -1 -1</clus>
<clus scale="   91.905">  7  8 -1 -1</clus>
<clus scale="  106.192">  2  5  1 -1</clus>
<clus scale="   35.944">  2  5  1 -1</clus>
</clustering>
</event>
<event>
 9    1  0.1782981E-005  0.1031498E+03  0.7546771E-02  0.1274629E+00
          2   -1    0    0  502    0  0.00000000000E+00  0.00000000000E+00  0.71084728106E+03  0.71084728106E+03  0.00000000000E+00 0. -1.
         -2   -1    0    0    0  501 -0.00000000000E+00 -0.00000000000E+00 -0.30024823765E+02  0.30024823765E+02  0.00000000000E+00 0.  1.
         23    2    1    2    0    0  0.33933165311E+02 -0.17768248437E+02  0.11359017199E+03  0.15112320795E+03  0.92023510290E+02 0.  0.
         23    2    1    2    0    0 -0.71277081527E+02  0.29234447604E+02  0.47489919631E+03  0.48949202118E+03  0.90211511839E+02 0.  0.
        -11    1    4    4    0    0 -0.23098818226E+02 -0.32341609806E+02  0.13579320839E+03  0.14148968363E+03  0.00000000000E+00 0. -1.
         11    1    4    4    0    0 -0.48178263301E+02  0.61576057409E+02  0.33910598791E+03  0.34800233755E+03  0.00000000000E+00 0.  1.
        -13    1    3    3    0    0  0.68852982645E+01  0.26783625113E+02  0.17202701127E+01  0.27707927307E+02  0.00000000000E+00 0.  1.
         13    1    3    3    0    0  0.27047867046E+02 -0.44551873550E+02  0.11186990188E+03  0.12341528064E+03  0.00000000000E+00 0. -1.
         21    1    1    2  502  501  0.37343916216E+02 -0.11466199166E+02  0.92333088998E+02  0.10025687570E+03  0.00000000000E+00 0.  1.
<scales pt_clust_5="13000.00000" pt_clust_6="13000.00000" pt_clust_7="13000.00000" pt_clust_8="13000.00000" pt_clust_9="39.06459"></scales>
<clustering>
<clus scale="   39.065">  1  9  2 -1</clus>
<clus scale="   90.212">  5  6 -1 -1</clus>
<clus scale="   92.024">  7  8 -1 -1</clus>
<clus scale="  101.537">  1  5  2 -1</clus>
<clus scale="   39.065">  1  5  2 -1</clus>
</clustering>
</event>
<event>
 9    1  0.1782981E-005  0.1324691E+03  0.7546771E-02  0.1224916E+00
         -2   -1    0    0    0  501 -0.00000000000E+00  0.00000000000E+00  0.52718190697E+02  0.52718190697E+02  0.00000000000E+00 0.  1.
          2   -1    0    0  502    0  0.00000000000E+00 -0.00000000000E+00 -0.55926656326E+03  0.55926656326E+03  0.00000000000E+00 0. -1.
         23    2    1    2    0    0 -0.60175798832E+02 -0.63776259500E+02 -0.97436892363E+02  0.15858050557E+03  0.89248477367E+02 0.  0.
         23    2    1    2    0    0  0.83184799693E+02  0.49835939594E+02 -0.40421083502E+03  0.42605899353E+03  0.93469433759E+02 0.  0.
        -11    1    4    4    0    0  0.29720074484E+02  0.67104985893E+02 -0.28458280090E+03  0.29389408386E+03  0.00000000000E+00 0.  1.
         11    1    4    4    0    0  0.53464725208E+02 -0.17269046299E+02 -0.11962803412E+03  0.13216490967E+03  0.00000000000E+00 0. -1.
        -11    1    3    3    0    0  0.41082209030E+01 -0.55842125175E+02 -0.66094905377E+02  0.86624228365E+02  0.00000000000E+00 0. -1.
         11    1    3    3    0    0 -0.64284019735E+02 -0.79341343247E+01 -0.31341986986E+02  0.71956277204E+02  0.00000000000E+00 0.  1.
         21    1    1    2  502  501 -0.23009000860E+02  0.13940319906E+02 -0.49006451751E+01  0.27345254850E+02  0.00000000000E+00 0.  1.
<scales pt_clust_5="13000.00000" pt_clust_6="13000.00000" pt_clust_7="13000.00000" pt_clust_8="13000.00000" pt_clust_9="26.90254"></scales>
<clustering>
<clus scale="   26.903">  1  9  2 -1</clus>
<clus scale="   89.248">  7  8 -1 -1</clus>
<clus scale="   93.469">  5  6 -1 -1</clus>
<clus scale="  129.525">  1  7  2 -1</clus>
<clus scale="  132.469">  2  5  1 -1</clus>
</clustering>
</event>
<event>
 9    1  0.1782981E-005  0.1043145E+03  0.7546771E-02  0.1274046E+00
          2   -1    0    0  502    0  0.00000000000E+00  0.00000000000E+00  0.33032026353E+03  0.33032026353E+03  0.00000000000E+00 0. -1.
         -2   -1    0    0    0  501 -0.00000000000E+00 -0.00000000000E+00 -0.67579983278E+02  0.67579983278E+02  0.00000000000E+00 0.  1.
         23    2    1    2    0    0  0.42809651961E+02  0.56265049082E+02  0.55162784223E+02  0.12843844422E+03  0.91951504295E+02 0.  0.
         23    2    1    2    0    0 -0.40022311413E+02  0.22025132474E+01  0.64509774783E+02  0.11488302663E+03  0.86197229019E+02 0.  0.
        -11    1    3    3    0    0  0.61743286540E+02  0.36170465830E+02  0.67341865501E+02  0.98262214916E+02  0.00000000000E+00 0. -1.
         11    1    3    3    0    0 -0.18933634579E+02  0.20094583252E+02 -0.12179081277E+02  0.30176229307E+02  0.00000000000E+00 0.  1.
        -13    1    4    4    0    0  0.16565624412E+02 -0.26682218645E+02  0.24094761302E+02  0.39584317933E+02  0.00000000000E+00 0.  1.
         13    1    4    4    0    0 -0.56587935825E+02  0.28884731892E+02  0.40415013481E+02  0.75298708701E+02  0.00000000000E+00 0. -1.
         21    1    1    2  502  501 -0.27873405479E+01 -0.58467562329E+02  0.14306772125E+03  0.15457877595E+03  0.00000000000E+00 0.  1.
<scales pt_clust_5="13000.00000" pt_clust_6="13000.00000" pt_clust_7="13000.00000" pt_clust_8="13000.00000" pt_clust_9="58.53397"></scales>
<clustering>
<clus scale="   58.534">  1  9  2 -1</clus>
<clus scale="   86.197">  7  8 -1 -1</clus>
<clus scale="   91.952">  5  6 -1 -1</clus>
<clus scale="   99.279">  1  7  2 -1</clus>
<clus scale="   58.534">  1  5  2 -1</clus>
</clustering>
</event>
<event>
 9    1  0.1782981E-005  0.1109758E+03  0.7546771E-02  0.1260112E+00
         -2   -1    0    0    0  501 -0.00000000000E+00  0.00000000000E+00  0.33064930039E+03  0.33064930039E+03  0.00000000000E+00 0.  1.
          2   -1    0    0  502    0  0.00000000000E+00 -0.00000000000E+00 -0.13876419221E+03  0.13876419221E+03  0.00000000000E+00 0. -1.
         23    2    1    2    0    0 -0.15908275207E+01  0.28334594546E+02  0.25265317930E+03  0.26923851892E+03  0.88602319836E+02 0.  0.
         23    2    1    2    0    0 -0.34744897173E+02 -0.56013349318E+02 -0.91096672916E+02  0.14534594448E+03  0.92098515626E+02 0.  0.
        -11    1    4    4    0    0  0.25112398340E+02  0.69991119887E+01 -0.16866856226E+02  0.31050136199E+02  0.00000000000E+00 0.  1.
         11    1    4    4    0    0 -0.59857295513E+02 -0.63012461306E+02 -0.74229816690E+02  0.11429580829E+03  0.00000000000E+00 0. -1.
        -13    1    3    3    0    0 -0.35157869886E+02 -0.99376248368E+01  0.15341016223E+03  0.15770069778E+03  0.00000000000E+00 0. -1.
         13    1    3    3    0    0  0.33567042365E+02  0.38272219383E+02  0.99243017068E+02  0.11153782115E+03  0.00000000000E+00 0.  1.
         21    1    1    2  502  501  0.36335724694E+02  0.27678754771E+02  0.30328601793E+02  0.54829029186E+02  0.00000000000E+00 0.  1.
<scales pt_clust_5="13000.00000" pt_clust_6="13000.00000" pt_clust_7="13000.00000" pt_clust_8="13000.00000" pt_clust_9="45.67711"></scales>
<clustering>
<clus scale="   45.677">  1  9  2 -1</clus>
<clus scale="   88.602">  7  8 -1 -1</clus>
<clus scale="   92.099">  5  6 -1 -1</clus>
<clus scale="  108.092">  1  7  2 -1</clus>
<clus scale="  110.976">  2  5  1 -1</clus>
</clustering>
</event>
<event>
 9    1  0.1782981E-005  0.1868142E+03  0.7546771E-02  0.1161488E+00
         -2   -1    0    0    0  501 -0.00000000000E+00  0.00000000000E+00  0.22992614136E+03  0.22992614136E+03  0.00000000000E+00 0.  1.
          2   -1    0    0  502    0  0.00000000000E+00 -0.00000000000E+00 -0.30803456601E+03  0.30803456601E+03  0.00000000000E+00 0. -1.
         23    2    1    2    0    0 -0.84472431841E+02  0.15188295389E+03  0.12549632850E+03  0.23396664712E+03  0.93739213097E+02 0.  0.
         23    2    1    2    0    0  0.77540708566E+02 -0.10500372705E+03 -0.96634527342E+02  0.18699688119E+03  0.92689036680E+02 0.  0.
        -11    1    4    4    0    0  0.26317586882E+02 -0.98212432809E+02 -0.37266265645E+02  0.10829160583E+03  0.00000000000E+00 0. -1.
         11    1    4    4    0    0  0.51223121684E+02 -0.67912942367E+01 -0.59368261697E+02  0.78705275360E+02  0.00000000000E+00 0.  1.
        -13    1    3    3    0    0 -0.52997417329E+02  0.29079125227E+02  0.77783646585E+02  0.98512016747E+02  0.00000000000E+00 0. -1.
         13    1    3    3    0    0 -0.31475014512E+02  0.12280382866E+03  0.47712681918E+02  0.13545463037E+03  0.00000000000E+00 0.  1.
         21    1    1    2  502  501  0.69317232750E+01 -0.46879226846E+02 -0.10697022582E+03  0.11699717907E+03  0.00000000000E+00 0. -1.
<scales pt_clust_5="13000.00000" pt_clust_6="13000.00000" pt_clust_7="13000.00000" pt_clust_8="13000.00000" pt_clust_9="47.38893"></scales>
<clustering>
<clus scale="   47.389">  2  9  1 -1</clus>
<clus scale="   92.689">  5  6 -1 -1</clus>
<clus scale="   93.739">  7  8 -1 -1</clus>
<clus scale="  186.289">  2  5  1 -1</clus>
<clus scale="   47.389">  2  5  1 -1</clus>
</clustering>
</event>
<event>
 9    1  0.1782981E-005  0.1904411E+03  0.7546771E-02  0.1158075E+00
          2   -1    0    0  502    0  0.00000000000E+00  0.00000000000E+00  0.67115993856E+03  0.67115993856E+03  0.00000000000E+00 0. -1.
         -2   -1    0    0    0  501 -0.00000000000E+00 -0.00000000000E+00 -0.74127363160E+02  0.74127363160E+02  0.00000000000E+00 0.  1.
         23    2    1    2    0    0  0.16153721326E+03  0.45480998239E+02  0.13957687613E+03  0.23648566988E+03  0.90999863949E+02 0.  0.
         23    2    1    2    0    0 -0.16648377369E+03 -0.18748567252E+02  0.35713252314E+03  0.40486015314E+03  0.91102957376E+02 0.  0.
        -13    1    4    4    0    0 -0.47527303493E+02  0.25152293815E+02  0.17396607518E+03  0.18208700606E+03  0.00000000000E+00 0.  1.
         13    1    4    4    0    0 -0.11895647019E+03 -0.43900861068E+02  0.18316644796E+03  0.22277314708E+03  0.00000000000E+00 0. -1.
        -13    1    3    3    0    0  0.67844408507E+02  0.86069476597E+01  0.52195112629E+01  0.68587073210E+02  0.00000000000E+00 0.  1.
         13    1    3    3    0    0  0.93692804748E+02  0.36874050579E+02  0.13435736487E+03  0.16789859667E+03  0.00000000000E+00 0. -1.
         21    1    1    2  502  501  0.49465604312E+01 -0.26732430987E+02  0.10032317613E+03  0.10394147871E+03  0.00000000000E+00 0.  1.
<scales pt_clust_5="13000.00000" pt_clust_6="13000.00000" pt_clust_7="13000.00000" pt_clust_8="13000.00000" pt_clust_9="27.18623"></scales>
<clustering>
<clus scale="   27.186">  1  9  2 -1</clus>
<clus scale="   91.000">  7  8 -1 -1</clus>
<clus scale="   91.103">  5  6 -1 -1</clus>
<clus scale="  190.392">  2  7  1 -1</clus>
<clus scale="   27.186">  1  5  2 -1</clus>
</clustering>
</event>
<event>
 9    1  0.1782981E-005  0.9879101E+02  0.7546771E-02  0.1283881E+00
         -1   -1    0    0    0  501 -0.00000000000E+00  0.00000000000E+00  0.13651184559E+03  0.13651184559E+03  0.00000000000E+00 0.  1.
          1   -1    0    0  502    0  0.00000000000E+00 -0.00000000000E+00 -0.15499378418E+03  0.15499378418E+03  0.00000000000E+00 0. -1.
         23    2    1    2    0    0 -0.16949022491E+02 -0.14412043750E+02  0.75876711497E+02  0.12291595378E+03  0.94106747773E+02 0.  0.
         23    2    1    2    0    0  0.39127595111E+02 -0.12846310083E+02 -0.72716500144E+02  0.12731874686E+03  0.96054034411E+02 0.  0.
        -11    1    4    4    0    0  0.11545535558E+02  0.36183871981E+02 -0.35260978530E+01  0.38144532360E+02  0.00000000000E+00 0. -1.
         11    1    4    4    0    0  0.27582059553E+02 -0.49030182064E+02 -0.69190402291E+02  0.89174214500E+02  0.00000000000E+00 0.  1.
        -11    1    3    3    0    0 -0.13839785472E+02  0.39657243125E+02  0.39626957328E+02  0.57745409699E+02  0.00000000000E+00 0. -1.
         11    1    3    3    0    0 -0.31092370189E+01 -0.54069286875E+02  0.36249754168E+02  0.65170544077E+02  0.00000000000E+00 0.  1.
         21    1    1    2  502  501 -0.22178572621E+02  0.27258353833E+02 -0.21642149943E+02  0.41270929131E+02  0.00000000000E+00 0. -1.
<scales pt_clust_5="13000.00000" pt_clust_6="13000.00000" pt_clust_7="13000.00000" pt_clust_8="13000.00000" pt_clust_9="35.14124"></scales>
<clustering>
<clus scale="   35.141">  2  9  1 -1</clus>
<clus scale="   94.107">  7  8 -1 -1</clus>
<clus scale="   96.054">  5  6 -1 -1</clus>
<clus scale="   96.899">  1  7  2 -1</clus>
<clus scale="   35.141">  2  5  1 -1</clus>
</clustering>
</event>
<event>
 9    1  0.1782981E-005  0.1614522E+03  0.7546771E-02  0.1187090E+00
          1   -1    0    0  502    0  0.00000000000E+00  0.00000000000E+00  0.67381281243E+03  0.67381281243E+03  0.00000000000E+00 0. -1.
         -1   -1    0    0    0  501 -0.00000000000E+00 -0.00000000000E+00 -0.12017771554E+03  0.12017771554E+03  0.00000000000E+00 0.  1.
         23    2    1    2    0    0 -0.14331927194E+03 -0.34970078680E+02 -0.18082963980E+02  0.17487421061E+03  0.92144863327E+02 0.  0.
         23    2    1    2    0    0  0.13109333950E+03 -0.11382173789E+02  0.53545241437E+03  0.55900640263E+03  0.91999198809E+02 0.  0.
        -11    1    3    3    0    0 -0.91234882723E+02 -0.43741640162E+02  0.27780141770E+02  0.10492316801E+03  0.00000000000E+00 0. -1.
         11    1    3    3    0    0 -0.52084389213E+02  0.87715614813E+01 -0.45863105750E+02  0.69951042591E+02  0.00000000000E+00 0.  1.
        -11    1    4    4    0    0 -0.84421593511E-01  0.23987413932E+02  0.63194296565E+02  0.67593803506E+02  0.00000000000E+00 0.  1.
         11    1    4    4    0    0  0.13117776109E+03 -0.35369587721E+02  0.47225811781E+03  0.49141259913E+03  0.00000000000E+00 0. -1.
         21    1    1    2  502  501  0.12225932435E+02  0.46352252470E+02  0.36265646495E+02  0.60109914728E+02  0.00000000000E+00 0.  1.
<scales pt_clust_5="13000.00000" pt_clust_6="13000.00000" pt_clust_7="13000.00000" pt_clust_8="13000.00000" pt_clust_9="47.93751"></scales>
<clustering>
<clus scale="   47.938">  2  9  1 -1</clus>
<clus scale="   91.999">  7  8 -1 -1</clus>
<clus scale="   92.145">  5  6 -1 -1</clus>
<clus scale="  161.369">  1  7  2 -1</clus>
<clus scale="  161.369">  1  5  2 -1</clus>
</clustering>
</event>
<event>
 9    1  0.1782981E-005  0.3148450E+03  0.7546771E-02  0.1078662E+00
         -2   -1    0    0    0  501 -0.00000000000E+00  0.00000000000E+00  0.56686294303E+03  0.56686294303E+03  0.00000000000E+00 0.  1.
          2   -1    0    0  502    0  0.00000000000E+00 -0.00000000000E+00 -0.50951806527E+03  0.50951806527E+03  0.00000000000E+00 0. -1.
         23    2    1    2    0    0  0.17507966923E+03  0.84375132012E+02  0.29139469232E+03  0.35743866444E+03  0.71270461231E+02 0.  0.
         23    2    1    2    0    0 -0.27168417650E+03 -0.17276130993E+03 -0.39093430179E+03  0.51459633924E+03  0.91219526815E+02 0.  0.
        -11    1    4    4    0    0 -0.25096528993E+03 -0.12340799096E+03 -0.34457803673E+03  0.44378726027E+03  0.00000000000E+00 0. -1.
         11    1    4    4    0    0 -0.20718886569E+02 -0.49353318966E+02 -0.46356265060E+02  0.70809078965E+02  0.00000000000E+00 0.  1.
        -13    1    3    3    0    0  0.12621946980E+03  0.74996173522E+02  0.26005780178E+03  0.29863998537E+03  0.00000000000E+00 0.  1.
         13    1    3    3    0    0  0.48860199431E+02  0.93789584906E+01  0.31336890540E+02  0.58798679062E+02  0.00000000000E+00 0. -1.
         21    1    1    2  502  501  0.96604507272E+02  0.88386177917E+02  0.15688448723E+03  0.20434600462E+03  0.00000000000E+00 0.  1.
<scales pt_clust_5="13000.00000" pt_clust_6="13000.00000" pt_clust_7="13000.00000" pt_clust_8="13000.00000" pt_clust_9="130.93719"></scales>
<clustering>
<clus scale="   71.270">  7  8 -1 -1</clus>
<clus scale="   91.220">  5  6 -1 -1</clus>
<clus scale="  130.937">  1  9  2 -1</clus>
<clus scale="  309.654">  1  7  2 -1</clus>
<clus scale="  314.845">  2  5  1 -1</clus>
</clustering>
</event>
<event>
 9    1  0.1782981E-005  0.1356646E+03  0.7546771E-02  0.1219337E+00
         -2   -1    0    0    0  501 -0.00000000000E+00  0.00000000000E+00  0.62893630357E+02  0.62893630357E+02  0.00000000000E+00 0.  1.
          2   -1    0    0  502    0  0.00000000000E+00 -0.00000000000E+00 -0.36363646873E+03  0.36363646873E+03  0.00000000000E+00 0. -1.
         23    2    1    2    0    0  0.81775084235E+02  0.40742235433E+02 -0.10002312278E+03  0.16413440458E+03  0.92673531961E+02 0.  0.
         23    2    1    2    0    0 -0.10324335980E+03 -0.23466866103E+02 -0.17558915376E+03  0.22510131987E+03  0.92893315922E+02 0.  0.
        -11    1    3    3    0    0  0.44198360092E+02  0.65166338613E+02 -0.87261577244E+02  0.11753607781E+03  0.00000000000E+00 0.  1.
         11    1    3    3    0    0  0.37576724142E+02 -0.24424103180E+02 -0.12761545533E+02  0.46598326770E+02  0.00000000000E+00 0. -1.
        -13    1    4    4    0    0 -0.57320327515E+02 -0.33779272955E+02 -0.16348232655E+03  0.17650249381E+03  0.00000000000E+00 0. -1.
         13    1    4    4    0    0 -0.45923032285E+02  0.10312406851E+02 -0.12106827208E+02  0.48598826060E+02  0.00000000000E+00 0.  1.
         21    1    1    2  502  501  0.21468275565E+02 -0.17275369329E+02 -0.25130561836E+02  0.37294374635E+02  0.00000000000E+00 0. -1.
<scales pt_clust_5="13000.00000" pt_clust_6="13000.00000" pt_clust_7="13000.00000" pt_clust_8="13000.00000" pt_clust_9="27.55586"></scales>
<clustering>
<clus scale="   27.556">  1  9  2 -1</clus>
<clus scale="   92.674">  5  6 -1 -1</clus>
<clus scale="   92.893">  7  8 -1 -1</clus>
<clus scale="  135.514">  1  5  2 -1</clus>
<clus scale="  135.665">  2  5  1 -1</clus>
</clustering>
</event>
<event>
 9    1  0.1782981E-005  0.9603233E+02  0.7546771E-02  0.1290570E+00
         -1   -1    0    0    0  501 -0.00000000000E+00  0.00000000000E+00  0.14861791787E+03  0.14861791787E+03  0.00000000000E+00 0.  1.
          1   -1    0    0  502    0  0.00000000000E+00 -0.00000000000E+00 -0.10909533859E+03  0.10909533859E+03  0.00000000000E+00 0. -1.
         23    2    1    2    0    0  0.25541585963E+02 -0.15454819957E+01  0.67098636538E+02  0.11473175399E+03  0.89478417628E+02 0.  0.
         23    2    1    2    0    0 -0.55162403745E+02 -0.64198256314E+01 -0.12769828770E+01  0.10257753873E+03  0.86234655556E+02 0.  0.
        -11    1    4    4    0    0  0.26431734382E+01 -0.36763035458E+02  0.40253075653E+01  0.37077085146E+02  0.00000000000E+00 0.  1.
         11    1    4    4    0    0 -0.57805577183E+02  0.30343209827E+02 -0.53022904423E+01  0.65500453586E+02  0.00000000000E+00 0. -1.
        -13    1    3    3    0    0  0.52749039263E+01 -0.40467472747E+02  0.56309044833E+02  0.69542429437E+02  0.00000000000E+00 0.  1.
         13    1    3    3    0    0  0.20266682036E+02  0.38921990751E+02  0.10789591705E+02  0.45189324557E+02  0.00000000000E+00 0. -1.
         21    1    1    2  502  501  0.29620817782E+02  0.79653076271E+01 -0.26299074390E+02  0.40403963734E+02  0.00000000000E+00 0. -1.
<scales pt_clust_5="13000.00000" pt_clust_6="13000.00000" pt_clust_7="13000.00000" pt_clust_8="13000.00000" pt_clust_9="30.67310"></scales>
<clustering>
<clus scale="   30.673">  2  9  1 -1</clus>
<clus scale="   86.235">  5  6 -1 -1</clus>
<clus scale="   89.478">  7  8 -1 -1</clus>
<clus scale="   93.017">  2  5  1 -1</clus>
<clus scale="   30.673">  2  5  1 -1</clus>
</clustering>
</event>
<event>
 9    1  0.1782981E-005  0.9151682E+02  0.7546771E-02  0.1301284E+00
         -1   -1    0    0    0  501 -0.00000000000E+00  0.00000000000E+00  0.23621340643E+03  0.23621340643E+03  0.00000000000E+00 0.  1.
          1   -1    0    0  502    0  0.00000000000E+00 -0.00000000000E+00 -0.11279484237E+03  0.11279484237E+03  0.00000000000E+00 0. -1.
         23    2    1    2    0    0  0.99407420639E+01 -0.99784086058E+01  0.16178523487E+03  0.18526257339E+03  0.89159250132E+02 0.  0.
         23    2    1    2    0    0 -0.13275458718E+02  0.44655473515E+02  0.16368783324E+02  0.98864329057E+02  0.85649689862E+02 0.  0.
        -11    1    4    4    0    0  0.78856696565E+01 -0.22450313568E+02  0.15681928254E+02  0.28497776037E+02  0.00000000000E+00 0.  1.
         11    1    4    4    0    0 -0.21161128374E+02  0.67105787083E+02  0.68685506958E+00  0.70366553021E+02  0.00000000000E+00 0. -1.
        -11    1    3    3    0    0 -0.37712193003E+02 -0.91794080999E+01  0.99736716975E+02  0.10702281881E+03  0.00000000000E+00 0.  1.
         11    1    3    3    0    0  0.47652935067E+02 -0.79900050590E+00  0.62048517899E+02  0.78239754574E+02  0.00000000000E+00 0. -1.
         21    1    1    2  502  501  0.33347166538E+01 -0.34677064909E+02 -0.54735454138E+02  0.64881346361E+02  0.00000000000E+00 0.  1.
<scales pt_clust_5="13000.00000" pt_clust_6="13000.00000" pt_clust_7="13000.00000" pt_clust_8="13000.00000" pt_clust_9="34.83704"></scales>
<clustering>
<clus scale="   34.837">  2  9  1 -1</clus>
<clus scale="   85.650">  5  6 -1 -1</clus>
<clus scale="   88.101">  2  5  1 -1</clus>
<clus scale="   89.159">  7  8 -1 -1</clus>
<clus scale="   34.837">  2  5  1 -1</clus>
</clustering>
</event>
<event>
 9    1  0.1782981E-005  0.1261038E+03  0.7546771E-02  0.1235135E+00
         -2   -1    0    0    0  501 -0.00000000000E+00  0.00000000000E+00  0.10834754935E+03  0.10834754935E+03  0.00000000000E+00 0.  1.
          2   -1    0    0  502    0  0.00000000000E+00 -0.00000000000E+00 -0.36823863893E+03  0.36823863893E+03  0.00000000000E+00 0. -1.
         23    2    1    2    0    0 -0.33962494013E+02  0.10202144510E+03 -0.47280455726E+02  0.14887271232E+03  0.91464838706E+02 0.  0.
         23    2    1    2    0    0  0.96656670866E+02 -0.11416667058E+02 -0.68551705305E+02  0.14634986189E+03  0.85123988772E+02 0.  0.
        -13    1    3    3    0    0 -0.32305772660E+02 -0.42171679238E+01 -0.23005090833E+02  0.39883350621E+02  0.00000000000E+00 0. -1.
         13    1    3    3    0    0 -0.16567213526E+01  0.10623861302E+03 -0.24275364893E+02  0.10898936170E+03  0.00000000000E+00 0.  1.
        -13    1    4    4    0    0  0.18745020725E+02  0.34200318221E+02 -0.21793113583E+02  0.44676362521E+02  0.00000000000E+00 0.  1.
         13    1    4    4    0    0  0.77911650141E+02 -0.45616985279E+02 -0.46758591721E+02  0.10167349937E+03  0.00000000000E+00 0. -1.
         21    1    1    2  502  501 -0.62694176853E+02 -0.90604778039E+02 -0.14405892855E+03  0.18136361408E+03  0.00000000000E+00 0. -1.
<scales pt_clust_5="13000.00000" pt_clust_6="13000.00000" pt_clust_7="13000.00000" pt_clust_8="13000.00000" pt_clust_9="110.18070"></scales>
<clustering>
<clus scale="   85.124">  7  8 -1 -1</clus>
<clus scale="   91.465">  5  6 -1 -1</clus>
<clus scale="  110.181">  2  9  1 -1</clus>
<clus scale="  121.583">  2  7  1 -1</clus>
<clus scale="  110.181">  2  5  1 -1</clus>
</clustering>
</event>
<event>
 9    1  0.1782981E-005  0.1620680E+03  0.7546771E-02  0.1186569E+00
          3   -1    0    0  502    0  0.00000000000E+00  0.00000000000E+00  0.54958821696E+03  0.54958821696E+03  0.00000000000E+00 0. -1.
         -3   -1    0    0    0  501 -0.00000000000E+00 -0.00000000000E+00 -0.76406890337E+02  0.76406890337E+02  0.00000000000E+00 0.  1.
         23    2    1    2    0    0 -0.44774227051E+02  0.12135057774E+03  0.10215689211E+03  0.18865482820E+03  0.91781912546E+02 0.  0.
         23    2    1    2    0    0  0.28274602916E+02 -0.13791561131E+03  0.18361247013E+03  0.24847555946E+03  0.90589157434E+02 0.  0.
        -11    1    4    4    0    0 -0.16207812340E+02 -0.99447191557E+02  0.77351283546E+02  0.12702621051E+03  0.00000000000E+00 0. -1.
         11    1    4    4    0    0  0.44482415255E+02 -0.38468419758E+02  0.10626118659E+03  0.12144934895E+03  0.00000000000E+00 0.  1.
        -13    1    3    3    0    0 -0.19635571475E+02  0.12534480964E+03  0.10264552641E+03  0.16319614292E+03  0.00000000000E+00 0.  1.
         13    1    3    3    0    0 -0.25138655576E+02 -0.39942319007E+01 -0.48863430088E+00  0.25458685279E+02  0.00000000000E+00 0. -1.
         21    1    1    2  502  501  0.16499624135E+02  0.16565033576E+02  0.18741196438E+03  0.18886471965E+03  0.00000000000E+00 0.  1.
<scales pt_clust_5="13000.00000" pt_clust_6="13000.00000" pt_clust_7="13000.00000" pt_clust_8="13000.00000" pt_clust_9="23.38029"></scales>
<clustering>
<clus scale="   23.380">  1  9  2 -1</clus>
<clus scale="   90.589">  5  6 -1 -1</clus>
<clus scale="   91.782">  7  8 -1 -1</clus>
<clus scale="  161.395">  1  5  2 -1</clus>
<clus scale="   23.380">  1  5  2 -1</clus>
</clustering>
</event>
<event>
 9    1  0.1782981E-005  0.1132947E+03  0.7546771E-02  0.1263381E+00
         -1   -1    0    0    0  501 -0.00000000000E+00  0.00000000000E+00  0.19124441034E+02  0.19124441034E+02  0.00000000000E+00 0.  1.
          1   -1    0    0  502    0  0.00000000000E+00 -0.00000000000E+00 -0.88219320971E+03  0.88219320971E+03  0.00000000000E+00 0. -1.
         23    2    1    2    0    0  0.25745195894E+02  0.96601854158E+01 -0.26127744460E+03  0.28571628293E+03  0.11230207913E+03 0.  0.
         23    2    1    2    0    0  0.67312618156E+01 -0.63068153284E+01 -0.38940505689E+03  0.40072025678E+03  0.94102816381E+02 0.  0.
        -11    1    3    3    0    0 -0.19058630248E+02  0.17775156404E+02 -0.64428189891E+01  0.26845809517E+02  0.00000000000E+00 0.  1.
         11    1    3    3    0    0  0.44803826141E+02 -0.81149709884E+01 -0.25483462562E+03  0.25887047341E+03  0.00000000000E+00 0. -1.
        -11    1    4    4    0    0 -0.35903184301E+02 -0.28809212527E+02 -0.17396045091E+03  0.17994790316E+03  0.00000000000E+00 0. -1.
         11    1    4    4    0    0  0.42634446117E+02  0.22502397198E+02 -0.21544460598E+03  0.22077235362E+03  0.00000000000E+00 0.  1.
         21    1    1    2  502  501 -0.32476457709E+02 -0.33533700873E+01 -0.21238626718E+03  0.21488111104E+03  0.00000000000E+00 0. -1.
<scales pt_clust_5="13000.00000" pt_clust_6="13000.00000" pt_clust_7="13000.00000" pt_clust_8="13000.00000" pt_clust_9="32.64913"></scales>
<clustering>
<clus scale="   32.649">  2  9  1 -1</clus>
<clus scale="   94.103">  7  8 -1 -1</clus>
<clus scale="   95.285">  2  7  1 -1</clus>
<clus scale="  112.302">  5  6 -1 -1</clus>
<clus scale="   32.649">  2  5  1 -1</clus>
</clustering>
</event>
<event>
 9    1  0.1782981E-005  0.9295505E+02  0.7546771E-02  0.1297112E+00
          1   -1    0    0  502    0  0.00000000000E+00  0.00000000000E+00  0.28102327657E+03  0.28102327657E+03  0.00000000000E+00 0. -1.
         -1   -1    0    0    0  501 -0.00000000000E+00 -0.00000000000E+00 -0.64853359758E+02  0.64853359758E+02  0.00000000000E+00 0.  1.
         23    2    1    2    0    0 -0.82711156064E+01  0.22712273923E+01  0.25783978192E+00  0.92688414428E+02  0.92290334600E+02 0.  0.
         23    2    1    2    0    0 -0.24035923747E+01 -0.35801293419E+02  0.16123867655E+03  0.18816979806E+03  0.90124648242E+02 0.  0.
        -13    1    3    3    0    0  0.20155901422E+02  0.18903925639E+02  0.35146934266E+02  0.44709347513E+02  0.00000000000E+00 0. -1.
         13    1    3    3    0    0 -0.28427017029E+02 -0.16632698247E+02 -0.34889094485E+02  0.47979066915E+02  0.00000000000E+00 0.  1.
        -13    1    4    4    0    0 -0.48862732940E+01  0.29865539685E+02  0.38749219763E+02  0.49166331565E+02  0.00000000000E+00 0.  1.
         13    1    4    4    0    0  0.24826809193E+01 -0.65666833103E+02  0.12248945679E+03  0.13900346650E+03  0.00000000000E+00 0. -1.
         21    1    1    2  502  501  0.10674707981E+02  0.33530066026E+02  0.54673400485E+02  0.65018423841E+02  0.00000000000E+00 0.  1.
<scales pt_clust_5="13000.00000" pt_clust_6="13000.00000" pt_clust_7="13000.00000" pt_clust_8="13000.00000" pt_clust_9="35.18828"></scales>
<clustering>
<clus scale="   35.188">  1  9  2 -1</clus>
<clus scale="   90.125">  7  8 -1 -1</clus>
<clus scale="   90.805">  1  7  2 -1</clus>
<clus scale="   92.290">  5  6 -1 -1</clus>
<clus scale="   35.188">  1  5  2 -1</clus>
</clustering>
</event>
<event>
 9    1  0.1782981E-005  0.1185484E+03  0.7546771E-02  0.1248571E+00
         -2   -1    0    0    0  501 -0.00000000000E+00  0.00000000000E+00  0.67344206372E+02  0.67344206372E+02  0.00000000000E+00 0.  1.
          2   -1    0    0  502    0  0.00000000000E+00 -0.00000000000E+00 -0.44899798425E+03  0.44899798425E+03  0.00000000000E+00 0. -1.
         23    2    1    2    0    0 -0.56813834082E+02 -0.35773759510E+02 -0.30476493369E+02  0.11628235223E+03  0.89917713384E+02 0.  0.
         23    2    1    2    0    0  0.74067430948E+02 -0.87780949763E+01 -0.15546451777E+03  0.19860006224E+03  0.98537957946E+02 0.  0.
        -11    1    3    3    0    0 -0.39042446351E+02 -0.92284338328E+01 -0.60401237925E+02  0.72510593370E+02  0.00000000000E+00 0. -1.
         11    1    3    3    0    0 -0.17771387732E+02 -0.26545325678E+02  0.29924744556E+02  0.43771758863E+02  0.00000000000E+00 0.  1.
        -13    1    4    4    0    0  0.63916516937E+01 -0.37225881509E+02 -0.16051884932E+02  0.41040010665E+02  0.00000000000E+00 0. -1.
         13    1    4    4    0    0  0.67675779255E+02  0.28447786533E+02 -0.13941263284E+03  0.15756005157E+03  0.00000000000E+00 0.  1.
         21    1    1    2  502  501 -0.17253596866E+02  0.44551854487E+02 -0.19571276674E+03  0.20145977615E+03  0.00000000000E+00 0. -1.
<scales pt_clust_5="13000.00000" pt_clust_6="13000.00000" pt_clust_7="13000.00000" pt_clust_8="13000.00000" pt_clust_9="47.77609"></scales>
<clustering>
<clus scale="   47.776">  2  9  1 -1</clus>
<clus scale="   89.918">  5  6 -1 -1</clus>
<clus scale="   98.538">  7  8 -1 -1</clus>
<clus scale="  111.486">  1  5  2 -1</clus>
<clus scale="   47.776">  2  5  1 -1</clus>
</clustering>
</event>
<event>
 9    1  0.1782981E-005  0.1509717E+03  0.7546771E-02  0.1199555E+00
          2   -1    0    0  502    0  0.00000000000E+00  0.00000000000E+00  0.25698664115E+03  0.25698664115E+03  0.00000000000E+00 0. -1.
         -2   -1    0    0    0  501 -0.00000000000E+00 -0.00000000000E+00 -0.14321006358E+03  0.14321006358E+03  0.00000000000E+00 0.  1.
         23    2    1    2    0    0  0.11490726076E+03 -0.16097592657E+02 -0.43626190178E+02  0.15370995998E+03  0.90888372544E+02 0.  0.
         23    2    1    2    0    0 -0.13056875335E+03 -0.51081001067E+01  0.11690259592E+03  0.19816255128E+03  0.92346563329E+02 0.  0.
        -11    1    3    3    0    0  0.95383170647E+01  0.30652032462E+02 -0.10345925382E+02  0.33727803938E+02  0.00000000000E+00 0.  1.
         11    1    3    3    0    0  0.10536894369E+03 -0.46749625119E+02 -0.33280264796E+02  0.11998215604E+03  0.00000000000E+00 0. -1.
        -13    1    4    4    0    0 -0.34362369282E+02 -0.10095686996E+02  0.91904593449E+02  0.98636451759E+02  0.00000000000E+00 0. -1.
         13    1    4    4    0    0 -0.96206384070E+02  0.49875868892E+01  0.24998002476E+02  0.99526099524E+02  0.00000000000E+00 0.  1.
         21    1    1    2  502  501  0.15661492596E+02  0.21205692763E+02  0.40500171830E+02  0.48324193466E+02  0.00000000000E+00 0.  1.
<scales pt_clust_5="13000.00000" pt_clust_6="13000.00000" pt_clust_7="13000.00000" pt_clust_8="13000.00000" pt_clust_9="26.36217"></scales>
<clustering>
<clus scale="   26.362">  1  9  2 -1</clus>
<clus scale="   90.888">  5  6 -1 -1</clus>
<clus scale="   92.347">  7  8 -1 -1</clus>
<clus scale="  150.084">  2  5  1 -1</clus>
<clus scale="   26.362">  1  5  2 -1</clus>
</clustering>
</event>
<event>
 9    1  0.1782981E-005  0.1303750E+03  0.7546771E-02  0.1227825E+00
          1   -1    0    0  502    0  0.00000000000E+00  0.00000000000E+00  0.20076029474E+03  0.20076029474E+03  0.00000000000E+00 0. -1.
         -1   -1    0    0    0  501 -0.00000000000E+00 -0.00000000000E+00 -0.15099169833E+03  0.15099169833E+03  0.00000000000E+00 0.  1.
         23    2    1    2    0    0 -0.46659173066E+02  0.67481839878E+02 -0.25286782758E+02  0.12646783874E+03  0.92864501871E+02 0.  0.
         23    2    1    2    0    0  0.69025619271E+02 -0.67032916161E+02 -0.10839373652E+02  0.13652398304E+03  0.96246339973E+02 0.  0.
        -11    1    4    4    0    0  0.56080320115E+02 -0.25624532650E+02  0.37027813262E+02  0.71921331556E+02  0.00000000000E+00 0. -1.
         11    1    4    4    0    0  0.12945299155E+02 -0.41408383511E+02 -0.47867186914E+02  0.64602651480E+02  0.00000000000E+00 0.  1.
        -11    1    3    3    0    0 -0.37761733925E+02 -0.82408276044E+01 -0.31654688316E+02  0.49958773814E+02  0.00000000000E+00 0.  1.
         11    1    3    3    0    0 -0.88974391406E+01  0.75722667483E+02  0.63679055581E+01  0.76509064921E+02  0.00000000000E+00 0. -1.
         21    1    1    2  502  501 -0.22366446205E+02 -0.44892371682E+00  0.85894752820E+02  0.88760171306E+02  0.00000000000E+00 0. -1.
<scales pt_clust_5="13000.00000" pt_clust_6="13000.00000" pt_clust_7="13000.00000" pt_clust_8="13000.00000" pt_clust_9="22.37095"></scales>
<clustering>
<clus scale="   22.371">  1  9  2 -1</clus>
<clus scale="   92.865">  7  8 -1 -1</clus>
<clus scale="   96.246">  5  6 -1 -1</clus>
<clus scale="  127.899">  2  7  1 -1</clus>
<clus scale="   22.371">  1  5  2 -1</clus>
</clustering>
</event>
<event>
 9    1  0.1782981E-005  0.1211726E+03  0.7546771E-02  0.1242528E+00
          1   -1    0    0  502    0  0.00000000000E+00  0.00000000000E+00  0.82746145070E+03  0.82746145070E+03  0.00000000000E+00 0. -1.
         -1   -1    0    0    0  501 -0.00000000000E+00 -0.00000000000E+00 -0.41009545938E+02  0.41009545938E+02  0.00000000000E+00 0.  1.
         23    2    1    2    0    0 -0.49901312182E+02 -0.22744991387E+02  0.20853501266E+03  0.23389870207E+03  0.90632641664E+02 0.  0.
         23    2    1    2    0    0  0.11027081566E+03 -0.36274713114E+02  0.19675160051E+03  0.24416893651E+03  0.86207712260E+02 0.  0.
        -11    1    3    3    0    0 -0.57041209638E+02  0.11493266690E+02  0.70046693647E+02  0.91062253800E+02  0.00000000000E+00 0.  1.
         11    1    3    3    0    0  0.71398974565E+01 -0.34238258078E+02  0.13848831901E+03  0.14283644827E+03  0.00000000000E+00 0. -1.
        -13    1    4    4    0    0  0.73140658113E+02  0.13508859386E+02  0.66089201594E+02  0.99497877960E+02  0.00000000000E+00 0. -1.
         13    1    4    4    0    0  0.37130157549E+02 -0.49783572500E+02  0.13066239892E+03  0.14467105855E+03  0.00000000000E+00 0.  1.
         21    1    1    2  502  501 -0.60369503480E+02  0.59019704501E+02  0.38116529159E+03  0.39040335806E+03  0.00000000000E+00 0.  1.
<scales pt_clust_5="13000.00000" pt_clust_6="13000.00000" pt_clust_7="13000.00000" pt_clust_8="13000.00000" pt_clust_9="84.42631"></scales>
<clustering>
<clus scale="   84.426">  1  9  2 -1</clus>
<clus scale="   86.208">  7  8 -1 -1</clus>
<clus scale="   90.633">  5  6 -1 -1</clus>
<clus scale="  117.899">  1  7  2 -1</clus>
<clus scale="   84.426">  1  5  2 -1</clus>
</clustering>
</event>
<event>
 9    1  0.1782981E-005  0.1032730E+03  0.7546771E-02  0.1278435E+00
          1   -1    0    0  502    0  0.00000000000E+00  0.00000000000E+00  0.29179864094E+02  0.29179864094E+02  0.00000000000E+00 0. -1.
         -1   -1    0    0    0  501 -0.00000000000E+00 -0.00000000000E+00 -0.95471362111E+03  0.95471362111E+03  0.00000000000E+00 0.  1.
         23    2    1    2    0    0 -0.41820836017E+02 -0.39409682658E+02 -0.32759005554E+03  0.34505138887E+03  0.91886403050E+02 0.  0.
         23    2    1    2    0    0 -0.65956474460E+02  0.29761938462E+02 -0.30274257184E+03  0.32443354911E+03  0.91476956018E+02 0.  0.
        -11    1    3    3    0    0  0.18068567039E+02 -0.44094145732E+02 -0.16388634115E+03  0.17067366411E+03  0.00000000000E+00 0.  1.
         11    1    3    3    0    0 -0.59889403056E+02  0.46844630736E+01 -0.16370371438E+03  0.17437772477E+03  0.00000000000E+00 0. -1.
        -13    1    4    4    0    0 -0.58674488701E+02 -0.51388134499E+01 -0.26890549212E+03  0.27528034205E+03  0.00000000000E+00 0. -1.
         13    1    4    4    0    0 -0.72819857587E+01  0.34900751912E+02 -0.33837079723E+02  0.49153207065E+02  0.00000000000E+00 0.  1.
         21    1    1    2  502  501  0.10777731048E+03  0.96477441964E+01 -0.29520112964E+03  0.31440854721E+03  0.00000000000E+00 0.  1.
<scales pt_clust_5="13000.00000" pt_clust_6="13000.00000" pt_clust_7="13000.00000" pt_clust_8="13000.00000" pt_clust_9="108.20826"></scales>
<clustering>
<clus scale="   91.477">  7  8 -1 -1</clus>
<clus scale="   91.886">  5  6 -1 -1</clus>
<clus scale="  108.208">  1  9  2 -1</clus>
<clus scale="  108.208">  1  7  2 -1</clus>
<clus scale="  103.273">  1  5  2 -1</clus>
</clustering>
</event>
<event>
 9    1  0.1782981E-005  0.1393459E+03  0.7546771E-02  0.1214637E+00
         -2   -1    0    0    0  501 -0.00000000000E+00  0.00000000000E+00  0.28018012621E+02  0.28018012621E+02  0.00000000000E+00 0.  1.
          2   -1    0    0  502    0  0.00000000000E+00 -0.00000000000E+00 -0.85177844931E+03  0.85177844931E+03  0.00000000000E+00 0. -1.
         23    2    1    2    0    0  0.59458441860E+02  0.69533794150E+02 -0.32955593337E+03  0.35426257472E+03  0.92328780941E+02 0.  0.
         23    2    1    2    0    0 -0.65606237991E+02 -0.95678179284E+02 -0.38266988074E+03  0.41081119414E+03  0.94186555048E+02 0.  0.
        -13    1    4    4    0    0 -0.84032518192E+02 -0.45723259529E+02 -0.22905511963E+03  0.24823039379E+03  0.00000000000E+00 0. -1.
         13    1    4    4    0    0  0.18426280201E+02 -0.49954919756E+02 -0.15361476111E+03  0.16258080035E+03  0.00000000000E+00 0.  1.
        -13    1    3    3    0    0  0.40304784483E+02 -0.11561607054E+02 -0.15905904129E+03  0.16449293306E+03  0.00000000000E+00 0. -1.
         13    1    3    3    0    0  0.19153657377E+02  0.81095401203E+02 -0.17049689208E+03  0.18976964166E+03  0.00000000000E+00 0.  1.
         21    1    1    2  502  501  0.61477961313E+01  0.26144385135E+02 -0.11153462258E+03  0.11472269307E+03  0.00000000000E+00 0.  1.
<scales pt_clust_5="13000.00000" pt_clust_6="13000.00000" pt_clust_7="13000.00000" pt_clust_8="13000.00000" pt_clust_9="26.85748"></scales>
<clustering>
<clus scale="   26.857">  2  9  1 -1</clus>
<clus scale="   92.329">  7  8 -1 -1</clus>
<clus scale="   94.187">  5  6 -1 -1</clus>
<clus scale="  138.097">  1  7  2 -1</clus>
<clus scale="   26.857">  2  5  1 -1</clus>
</clustering>
</event>
<event>
 9    1  0.1782981E-005  0.1339507E+03  0.7546771E-02  0.1222554E+00
          1   -1    0    0  502    0  0.00000000000E+00  0.00000000000E+00  0.74600726703E+03  0.74600726703E+03  0.00000000000E+00 0. -1.
         -1   -1    0    0    0  501 -0.00000000000E+00 -0.00000000000E+00 -0.36925575175E+02  0.36925575175E+02  0.00000000000E+00 0.  1.
         23    2    1    2    0    0  0.26566164691E+02  0.10325252941E+03  0.17264317336E+03  0.22139268747E+03  0.88556257955E+02 0.  0.
         23    2    1    2    0    0 -0.95370270233E+01 -0.81987391898E+02  0.31422269148E+03  0.33766056349E+03  0.92010156920E+02 0.  0.
        -11    1    4    4    0    0 -0.16470523856E+02 -0.46646868156E+02  0.29016117164E+03  0.29434794715E+03  0.00000000000E+00 0. -1.
         11    1    4    4    0    0  0.69334968326E+01 -0.35340523742E+02  0.24061519845E+02  0.43312616337E+02  0.00000000000E+00 0.  1.
        -13    1    3    3    0    0  0.45017405332E+02  0.47997102145E+02  0.13981050713E+03  0.15452270546E+03  0.00000000000E+00 0.  1.
         13    1    3    3    0    0 -0.18451240642E+02  0.55255427260E+02  0.32832666228E+02  0.66869982014E+02  0.00000000000E+00 0. -1.
         21    1    1    2  502  501 -0.17029137667E+02 -0.21265137507E+02  0.22221582701E+03  0.22387959125E+03  0.00000000000E+00 0. -1.
<scales pt_clust_5="13000.00000" pt_clust_6="13000.00000" pt_clust_7="13000.00000" pt_clust_8="13000.00000" pt_clust_9="27.24330"></scales>
<clustering>
<clus scale="   27.243">  1  9  2 -1</clus>
<clus scale="   88.556">  7  8 -1 -1</clus>
<clus scale="   92.010">  5  6 -1 -1</clus>
<clus scale="  131.602">  2  7  1 -1</clus>
<clus scale="   27.243">  1  5  2 -1</clus>
</clustering>
</event>
<event>
 9    1  0.1782981E-005  0.1274332E+03  0.7546771E-02  0.1231738E+00
          1   -1    0    0  502    0  0.00000000000E+00  0.00000000000E+00  0.23683738500E+03  0.23683738500E+03  0.00000000000E+00 0. -1.
         -1   -1    0    0    0  501 -0.00000000000E+00 -0.00000000000E+00 -0.10105123055E+03  0.10105123055E+03  0.00000000000E+00 0.  1.
         23    2    1    2    0    0 -0.33439439871E+02 -0.85337913008E+02 -0.16632619557E+02  0.13062404987E+03  0.91570971571E+02 0.  0.
         23    2    1    2    0    0  0.17222245178E+02  0.72710463601E+02  0.13601319399E+03  0.18096641104E+03  0.93090470725E+02 0.  0.
        -13    1    3    3    0    0 -0.35383857266E+02 -0.52100795079E+02 -0.52276369300E+02  0.81849428770E+02  0.00000000000E+00 0.  1.
         13    1    3    3    0    0  0.19444173945E+01 -0.33237117929E+02  0.35643749743E+02  0.48774621095E+02  0.00000000000E+00 0. -1.
        -13    1    4    4    0    0  0.33290868282E+02 -0.24690818071E+01  0.12831499038E+02  0.35763468001E+02  0.00000000000E+00 0.  1.
         13    1    4    4    0    0 -0.16068623104E+02  0.75179545408E+02  0.12318169495E+03  0.14520294304E+03  0.00000000000E+00 0. -1.
         21    1    1    2  502  501  0.16217194693E+02  0.12627449407E+02  0.16405580013E+02  0.26298154647E+02  0.00000000000E+00 0. -1.
<scales pt_clust_5="13000.00000" pt_clust_6="13000.00000" pt_clust_7="13000.00000" pt_clust_8="13000.00000" pt_clust_9="20.55359"></scales>
<clustering>
<clus scale="   20.554">  1  9  2 -1</clus>
<clus scale="   91.571">  5  6 -1 -1</clus>
<clus scale="   93.090">  7  8 -1 -1</clus>
<clus scale="  126.327">  2  5  1 -1</clus>
<clus scale="   20.554">  1  5  2 -1</clus>
</clustering>
</event>
<event>
 9    1  0.1782981E-005  0.1316004E+03  0.7546771E-02  0.1225162E+00
          2   -1    0    0  502    0  0.00000000000E+00  0.00000000000E+00  0.56525267121E+02  0.56525267121E+02  0.00000000000E+00 0.  1.
         -2   -1    0    0    0  501 -0.00000000000E+00 -0.00000000000E+00 -0.40148222686E+03  0.40148222686E+03  0.00000000000E+00 0. -1.
         23    2    1    2    0    0 -0.10105071813E+03 -0.45558366957E+02 -0.19420115032E+03  0.24191447724E+03  0.92313135998E+02 0.  0.
         23    2    1    2    0    0  0.73491236593E+02  0.39241573858E+02 -0.10654558036E+03  0.16361472361E+03  0.92070375858E+02 0.  0.
        -11    1    4    4    0    0  0.59672320250E+02  0.67740968977E+02 -0.64387778071E+02  0.11088467273E+03  0.00000000000E+00 0.  1.
         11    1    4    4    0    0  0.13818916343E+02 -0.28499395118E+02 -0.42157802294E+02  0.52730050875E+02  0.00000000000E+00 0. -1.
        -13    1    3    3    0    0 -0.72625577543E+02 -0.68817388632E+02 -0.10299401944E+03  0.14358995623E+03  0.00000000000E+00 0. -1.
         13    1    3    3    0    0 -0.28425140585E+02  0.23259021675E+02 -0.91207130888E+02  0.98324521008E+02  0.00000000000E+00 0.  1.
         21    1    1    2  502  501  0.27559481535E+02  0.63167930988E+01 -0.44210229056E+02  0.52478293138E+02  0.00000000000E+00 0.  1.
<scales pt_clust_5="13000.00000" pt_clust_6="13000.00000" pt_clust_7="13000.00000" pt_clust_8="13000.00000" pt_clust_9="28.27414"></scales>
<clustering>
<clus scale="   28.274">  2  9  1 -1</clus>
<clus scale="   92.070">  5  6 -1 -1</clus>
<clus scale="   92.313">  7  8 -1 -1</clus>
<clus scale="  131.430">  1  5  2 -1</clus>
<clus scale="  131.430">  1  5  2 -1</clus>
</clustering>
</event>
<event>
 9    1  0.1782981E-005  0.2469821E+03  0.7546771E-02  0.1115518E+00
          1   -1    0    0  502    0  0.00000000000E+00  0.00000000000E+00  0.37305400904E+03  0.37305400904E+03  0.00000000000E+00 0. -1.
         -1   -1    0    0    0  501 -0.00000000000E+00 -0.00000000000E+00 -0.23133248396E+03  0.23133248396E+03  0.00000000000E+00 0.  1.
         23    2    1    2    0    0 -0.95695308920E+01 -0.23362632116E+03 -0.80708872564E+02  0.26421632649E+03  0.92862862379E+02 0.  0.
         23    2    1    2    0    0 -0.42076046035E+01  0.21484198648E+03  0.21284675593E+03  0.31498074651E+03  0.87945131021E+02 0.  0.
        -11    1    3    3    0    0  0.17455811276E+02 -0.24083332678E+02 -0.38686673865E+02  0.48799292975E+02  0.00000000000E+00 0. -1.
         11    1    3    3    0    0 -0.27025342168E+02 -0.20954298849E+03 -0.42022198699E+02  0.21541703351E+03  0.00000000000E+00 0.  1.
        -13    1    4    4    0    0  0.31361693175E+02  0.10243144079E+03  0.62881870710E+02  0.12421709031E+03  0.00000000000E+00 0.  1.
         13    1    4    4    0    0 -0.35569297779E+02  0.11241054568E+03  0.14996488522E+03  0.19076365619E+03  0.00000000000E+00 0. -1.
         21    1    1    2  502  501  0.13777135496E+02  0.18784334689E+02  0.95836417127E+01  0.25189420014E+02  0.00000000000E+00 0. -1.
<scales pt_clust_5="13000.00000" pt_clust_6="13000.00000" pt_clust_7="13000.00000" pt_clust_8="13000.00000" pt_clust_9="23.29508"></scales>
<clustering>
<clus scale="   23.295">  1  9  2 -1</clus>
<clus scale="   87.945">  7  8 -1 -1</clus>
<clus scale="   92.863">  5  6 -1 -1</clus>
<clus scale="  245.175">  1  7  2 -1</clus>
<clus scale="   23.295">  1  5  2 -1</clus>
</clustering>
</event>
<event>
 9    1  0.1782981E-005  0.1035897E+03  0.7546771E-02  0.1273381E+00
          3   -1    0    0  502    0  0.00000000000E+00  0.00000000000E+00  0.25825946683E+03  0.25825946683E+03  0.00000000000E+00 0. -1.
         -3   -1    0    0    0  501 -0.00000000000E+00 -0.00000000000E+00 -0.60246811291E+02  0.60246811291E+02  0.00000000000E+00 0.  1.
         23    2    1    2    0    0 -0.25433655789E+02 -0.57726354407E+02  0.49003364711E+02  0.12118942604E+03  0.91139148509E+02 0.  0.
         23    2    1    2    0    0  0.15906531404E+02  0.24466564349E+02  0.10714614721E+03  0.14300752942E+03  0.90106748350E+02 0.  0.
        -11    1    3    3    0    0 -0.21538768260E+02 -0.29042218340E+02  0.74374139252E+02  0.82697530638E+02  0.00000000000E+00 0. -1.
         11    1    3    3    0    0 -0.38948875287E+01 -0.28684136067E+02 -0.25370774541E+02  0.38491895401E+02  0.00000000000E+00 0.  1.
        -11    1    4    4    0    0 -0.42755293068E+01 -0.32690661990E+02  0.48653808363E+02  0.58772039274E+02  0.00000000000E+00 0. -1.
         11    1    4    4    0    0  0.20182060711E+02  0.57157226339E+02  0.58492338844E+02  0.84235490149E+02  0.00000000000E+00 0.  1.
         21    1    1    2  502  501  0.95271243842E+01  0.33259790058E+02  0.41863143625E+02  0.54309322661E+02  0.00000000000E+00 0. -1.
<scales pt_clust_5="13000.00000" pt_clust_6="13000.00000" pt_clust_7="13000.00000" pt_clust_8="13000.00000" pt_clust_9="34.59739"></scales>
<clustering>
<clus scale="   34.597">  1  9  2 -1</clus>
<clus scale="   90.107">  7  8 -1 -1</clus>
<clus scale="   91.139">  5  6 -1 -1</clus>
<clus scale="  102.683">  1  7  2 -1</clus>
<clus scale="   34.597">  1  5  2 -1</clus>
</clustering>
</event>
<event>
 9    1  0.1782981E-005  0.9896686E+02  0.7546771E-02  0.1283819E+00
         -1   -1    0    0    0  501 -0.00000000000E+00  0.00000000000E+00  0.42990978697E+02  0.42990978697E+02  0.00000000000E+00 0.  1.
          1   -1    0    0  502    0  0.00000000000E+00 -0.00000000000E+00 -0.44724477842E+03  0.44724477842E+03  0.00000000000E+00 0. -1.
         23    2    1    2    0    0 -0.29727392414E+02 -0.44621482178E+02 -0.68480511899E+02  0.12377782428E+03  0.88071418419E+02 0.  0.
         23    2    1    2    0    0 -0.55102077006E+01  0.55623696383E+01 -0.24701269901E+03  0.26327971391E+03  0.90772418383E+02 0.  0.
        -11    1    4    4    0    0 -0.45912454050E+02  0.94758150615E+01 -0.94951084258E+02  0.10589359239E+03  0.00000000000E+00 0.  1.
         11    1    4    4    0    0  0.40402246350E+02 -0.39134454232E+01 -0.15206161475E+03  0.15738612151E+03  0.00000000000E+00 0. -1.
        -11    1    3    3    0    0 -0.42187673752E+02 -0.65336488434E+02 -0.59752866588E+02  0.98076814809E+02  0.00000000000E+00 0.  1.
         11    1    3    3    0    0  0.12460281338E+02  0.20715006256E+02 -0.87276453109E+01  0.25701009472E+02  0.00000000000E+00 0. -1.
         21    1    1    2  502  501  0.35237600115E+02  0.39059112540E+02 -0.88760588819E+02  0.10317821893E+03  0.00000000000E+00 0. -1.
<scales pt_clust_5="13000.00000" pt_clust_6="13000.00000" pt_clust_7="13000.00000" pt_clust_8="13000.00000" pt_clust_9="52.60516"></scales>
<clustering>
<clus scale="   52.605">  2  9  1 -1</clus>
<clus scale="   88.071">  7  8 -1 -1</clus>
<clus scale="   90.772">  5  6 -1 -1</clus>
<clus scale="   96.496">  1  7  2 -1</clus>
<clus scale="   52.605">  2  5  1 -1</clus>
</clustering>
</event>
<event>
 9    1  0.1782981E-005  0.1076687E+03  0.7546771E-02  0.1265821E+00
          1   -1    0    0  502    0  0.00000000000E+00  0.00000000000E+00  0.48139675040E+03  0.48139675040E+03  0.00000000000E+00 0. -1.
         -1   -1    0    0    0  501 -0.00000000000E+00 -0.00000000000E+00 -0.52761551489E+02  0.52761551489E+02  0.00000000000E+00 0.  1.
         23    2    1    2    0    0 -0.22249464153E+02  0.63213779351E+02  0.55565264806E+02  0.12535502621E+03  0.90196249301E+02 0.  0.
         23    2    1    2    0    0  0.10422502915E+02 -0.35225607462E+02  0.12889240034E+03  0.16274254584E+03  0.92316918117E+02 0.  0.
        -11    1    4    4    0    0 -0.16545841076E+02  0.18250011761E+02  0.50038840954E+01  0.25136957696E+02  0.00000000000E+00 0.  1.
         11    1    4    4    0    0  0.26968343990E+02 -0.53475619224E+02  0.12388851625E+03  0.13760558814E+03  0.00000000000E+00 0. -1.
        -11    1    3    3    0    0 -0.12625470248E+02  0.35802454124E+02  0.79248989931E+02  0.87872752463E+02  0.00000000000E+00 0. -1.
         11    1    3    3    0    0 -0.96239939049E+01  0.27411325227E+02 -0.23683725125E+02  0.37482273746E+02  0.00000000000E+00 0.  1.
         21    1    1    2  502  501  0.11826961238E+02 -0.27988171889E+02  0.24417753376E+03  0.24606072985E+03  0.00000000000E+00 0. -1.
<scales pt_clust_5="13000.00000" pt_clust_6="13000.00000" pt_clust_7="13000.00000" pt_clust_8="13000.00000" pt_clust_9="30.38445"></scales>
<clustering>
<clus scale="   30.384">  1  9  2 -1</clus>
<clus scale="   90.196">  7  8 -1 -1</clus>
<clus scale="   92.317">  5  6 -1 -1</clus>
<clus scale="  105.856">  2  7  1 -1</clus>
<clus scale="   30.384">  1  5  2 -1</clus>
</clustering>
</event>
<event>
 9    1  0.1782981E-005  0.1025175E+03  0.7546771E-02  0.1275351E+00
          1   -1    0    0  502    0  0.00000000000E+00  0.00000000000E+00  0.47632620045E+03  0.47632620045E+03  0.00000000000E+00 0. -1.
         -1   -1    0    0    0  501 -0.00000000000E+00 -0.00000000000E+00 -0.58543973714E+02  0.58543973714E+02  0.00000000000E+00 0.  1.
         23    2    1    2    0    0 -0.18555345520E+02 -0.43817300984E+02  0.89728685011E+01  0.10464485472E+03  0.92767324726E+02 0.  0.
         23    2    1    2    0    0  0.21891344297E+02  0.60068026919E+01  0.29757432114E+03  0.31269236174E+03  0.93331258733E+02 0.  0.
        -13    1    3    3    0    0  0.37245519659E+02 -0.26023528900E+02  0.30192658542E+00  0.45437252896E+02  0.00000000000E+00 0.  1.
         13    1    3    3    0    0 -0.55800865179E+02 -0.17793772084E+02  0.86709419157E+01  0.59207601821E+02  0.00000000000E+00 0. -1.
        -13    1    4    4    0    0  0.46566319824E+02 -0.27692949643E+02  0.16070569990E+03  0.16959258116E+03  0.00000000000E+00 0.  1.
         13    1    4    4    0    0 -0.24674975527E+02  0.33699752334E+02  0.13686862123E+03  0.14309978058E+03  0.00000000000E+00 0. -1.
         21    1    1    2  502  501 -0.33359987769E+01  0.37810498292E+02  0.11123503710E+03  0.11753295771E+03  0.00000000000E+00 0. -1.
<scales pt_clust_5="13000.00000" pt_clust_6="13000.00000" pt_clust_7="13000.00000" pt_clust_8="13000.00000" pt_clust_9="37.95738"></scales>
<clustering>
<clus scale="   37.957">  1  9  2 -1</clus>
<clus scale="   92.767">  5  6 -1 -1</clus>
<clus scale="   93.331">  7  8 -1 -1</clus>
<clus scale="  102.004">  2  5  1 -1</clus>
<clus scale="   37.957">  1  5  2 -1</clus>
</clustering>
</event>
<event>
 9    1  0.1782981E-005  0.1856569E+03  0.7546771E-02  0.1162803E+00
          4   -1    0    0  502    0  0.00000000000E+00  0.00000000000E+00  0.24401252303E+03  0.24401252303E+03  0.00000000000E+00 0. -1.
         -4   -1    0    0    0  501 -0.00000000000E+00 -0.00000000000E+00 -0.31784823391E+03  0.31784823391E+03  0.00000000000E+00 0.  1.
         23    2    1    2    0    0  0.15343656192E+03 -0.40000102502E+02 -0.22029848506E+03  0.28618857783E+03  0.90717654445E+02 0.  0.
         23    2    1    2    0    0 -0.17195629564E+03  0.99138973584E+01  0.13647247402E+03  0.23895751754E+03  0.93854707156E+02 0.  0.
        -11    1    4    4    0    0 -0.11236419667E+03 -0.15723974236E+02  0.13181134729E+03  0.17391718528E+03  0.00000000000E+00 0. -1.
         11    1    4    4    0    0 -0.59592098962E+02  0.25637871595E+02  0.46611267251E+01  0.65040332264E+02  0.00000000000E+00 0.  1.
        -13    1    3    3    0    0  0.10221421527E+02 -0.37765739342E+02 -0.54490676092E+02  0.67081758378E+02  0.00000000000E+00 0. -1.
         13    1    3    3    0    0  0.14321514040E+03 -0.22343631602E+01 -0.16580780896E+03  0.21910681945E+03  0.00000000000E+00 0.  1.
         21    1    1    2  502  501  0.18519733713E+02  0.30086205144E+02  0.99903001695E+01  0.36714661570E+02  0.00000000000E+00 0. -1.
<scales pt_clust_5="13000.00000" pt_clust_6="13000.00000" pt_clust_7="13000.00000" pt_clust_8="13000.00000" pt_clust_9="35.32931"></scales>
<clustering>
<clus scale="   35.329">  1  9  2 -1</clus>
<clus scale="   90.718">  7  8 -1 -1</clus>
<clus scale="   93.855">  5  6 -1 -1</clus>
<clus scale="  184.091">  2  7  1 -1</clus>
<clus scale="   35.329">  1  5  2 -1</clus>
</clustering>
</event>
<event>
 9    1  0.1782981E-005  0.1613468E+03  0.7546771E-02  0.1187561E+00
          1   -1    0    0  502    0  0.00000000000E+00  0.00000000000E+00  0.23834185974E+03  0.23834185974E+03  0.00000000000E+00 0. -1.
         -1   -1    0    0    0  501 -0.00000000000E+00 -0.00000000000E+00 -0.22797805131E+03  0.22797805131E+03  0.00000000000E+00 0.  1.
         23    2    1    2    0    0  0.91944716580E+02 -0.11496624367E+03 -0.81610968316E+02  0.19060819662E+03  0.89443090174E+02 0.  0.
         23    2    1    2    0    0 -0.11832646307E+03  0.57624693844E+02  0.12597457116E+03  0.20401767071E+03  0.91825160927E+02 0.  0.
        -11    1    4    4    0    0 -0.19020778358E+02  0.50831444258E+02  0.73877210109E+02  0.91670430937E+02  0.00000000000E+00 0. -1.
         11    1    4    4    0    0 -0.99305684710E+02  0.67932495860E+01  0.52097361053E+02  0.11234723977E+03  0.00000000000E+00 0.  1.
        -11    1    3    3    0    0  0.33042318601E+02 -0.74302478752E+01  0.12439783759E+02  0.36079795204E+02  0.00000000000E+00 0. -1.
         11    1    3    3    0    0  0.58902397979E+02 -0.10753599579E+03 -0.94050752075E+02  0.15452840142E+03  0.00000000000E+00 0.  1.
         21    1    1    2  502  501  0.26381746488E+02  0.57341549823E+02 -0.33999794418E+02  0.71694043716E+02  0.00000000000E+00 0. -1.
<scales pt_clust_5="13000.00000" pt_clust_6="13000.00000" pt_clust_7="13000.00000" pt_clust_8="13000.00000" pt_clust_9="63.11933"></scales>
<clustering>
<clus scale="   63.119">  2  9  1 -1</clus>
<clus scale="   89.443">  7  8 -1 -1</clus>
<clus scale="   91.825">  5  6 -1 -1</clus>
<clus scale="  160.003">  2  7  1 -1</clus>
<clus scale="  161.347">  1  5  2 -1</clus>
</clustering>
</event>
<event>
 9    1  0.1782981E-005  0.1075915E+03  0.7546771E-02  0.1268626E+00
          2   -1    0    0  502    0  0.00000000000E+00  0.00000000000E+00  0.55578143141E+03  0.55578143141E+03  0.00000000000E+00 0. -1.
         -2   -1    0    0    0  501 -0.00000000000E+00 -0.00000000000E+00 -0.32577562637E+02  0.32577562637E+02  0.00000000000E+00 0.  1.
         23    2    1    2    0    0 -0.28927327619E+02 -0.56130784587E+02  0.12681660104E+03  0.17092196834E+03  0.95626427829E+02 0.  0.
         23    2    1    2    0    0  0.85723369182E+01  0.24498837299E+02  0.24525161700E+03  0.26169078769E+03  0.87521624355E+02 0.  0.
        -13    1    3    3    0    0 -0.78174092642E+01 -0.81334213852E+02  0.89448209268E+02  0.12115010678E+03  0.00000000000E+00 0.  1.
         13    1    3    3    0    0 -0.21109918355E+02  0.25203429265E+02  0.37368391769E+02  0.49771861560E+02  0.00000000000E+00 0. -1.
        -13    1    4    4    0    0  0.45114114227E+02  0.25905113191E+02  0.11165297071E+03  0.12317769303E+03  0.00000000000E+00 0.  1.
         13    1    4    4    0    0 -0.36541777308E+02 -0.14062758926E+01  0.13359864629E+03  0.13851309466E+03  0.00000000000E+00 0. -1.
         21    1    1    2  502  501  0.20354990701E+02  0.31631947288E+02  0.15113565073E+03  0.15574623802E+03  0.00000000000E+00 0. -1.
<scales pt_clust_5="13000.00000" pt_clust_6="13000.00000" pt_clust_7="13000.00000" pt_clust_8="13000.00000" pt_clust_9="37.61523"></scales>
<clustering>
<clus scale="   37.615">  1  9  2 -1</clus>
<clus scale="   87.522">  7  8 -1 -1</clus>
<clus scale="   95.626">  5  6 -1 -1</clus>
<clus scale="  100.457">  1  7  2 -1</clus>
<clus scale="   37.615">  1  5  2 -1</clus>
</clustering>
</event>
<event>
 9    1  0.1782981E-005  0.9963012E+02  0.7546771E-02  0.1281099E+00
          1   -1    0    0  502    0  0.00000000000E+00  0.00000000000E+00  0.51651076404E+03  0.51651076404E+03  0.00000000000E+00 0. -1.
         -1   -1    0    0    0  501 -0.00000000000E+00 -0.00000000000E+00 -0.26326098399E+02  0.26326098399E+02  0.00000000000E+00 0.  1.
         23    2    1    2    0    0  0.51982165751E+02 -0.13370755640E+02  0.21620146540E+03  0.24109590951E+03  0.92213021195E+02 0.  0.
         23    2    1    2    0    0 -0.24984283636E+02  0.49019573503E+01  0.23346068348E+03  0.25231747119E+03  0.92260348580E+02 0.  0.
        -11    1    4    4    0    0  0.84660292093E+01 -0.26700340473E+02  0.21207644435E+02  0.35133260800E+02  0.00000000000E+00 0.  1.
         11    1    4    4    0    0 -0.33450312846E+02  0.31602297823E+02  0.21225303905E+03  0.21718421039E+03  0.00000000000E+00 0. -1.
        -13    1    3    3    0    0 -0.80333686300E+01  0.22690352759E+02  0.15743010828E+02  0.28761597831E+02  0.00000000000E+00 0. -1.
         13    1    3    3    0    0  0.60015534381E+02 -0.36061108399E+02  0.20045845457E+03  0.21233431167E+03  0.00000000000E+00 0.  1.
         21    1    1    2  502  501 -0.26997882115E+02  0.84687982898E+01  0.40522516762E+02  0.49423481746E+02  0.00000000000E+00 0.  1.
<scales pt_clust_5="13000.00000" pt_clust_6="13000.00000" pt_clust_7="13000.00000" pt_clust_8="13000.00000" pt_clust_9="28.29499"></scales>
<clustering>
<clus scale="   28.295">  2  9  1 -1</clus>
<clus scale="   92.213">  7  8 -1 -1</clus>
<clus scale="   92.260">  5  6 -1 -1</clus>
<clus scale="   99.586">  2  7  1 -1</clus>
<clus scale="   99.630">  1  5  2 -1</clus>
</clustering>
</event>
<event>
 9    1  0.1782981E-005  0.2225863E+03  0.7546771E-02  0.1132199E+00
          3   -1    0    0  502    0  0.00000000000E+00  0.00000000000E+00  0.27310304841E+03  0.27310304841E+03  0.00000000000E+00 0. -1.
         -3   -1    0    0    0  501 -0.00000000000E+00 -0.00000000000E+00 -0.34739178370E+03  0.34739178370E+03  0.00000000000E+00 0.  1.
         23    2    1    2    0    0  0.36598371291E+02  0.19557659986E+03 -0.21619543873E+03  0.30770410079E+03  0.91387628913E+02 0.  0.
         23    2    1    2    0    0 -0.71177214127E+02 -0.20363737619E+03  0.14600507128E+03  0.27704903150E+03  0.94362642110E+02 0.  0.
        -11    1    3    3    0    0 -0.10569703121E+02  0.96440607863E+02 -0.15260045347E+03  0.18082977595E+03  0.00000000000E+00 0.  1.
         11    1    3    3    0    0  0.47168074412E+02  0.99135992002E+02 -0.63594985257E+02  0.12687432484E+03  0.00000000000E+00 0. -1.
        -11    1    4    4    0    0 -0.92120614361E+02 -0.13869763311E+03  0.93555874085E+02  0.19098676027E+03  0.00000000000E+00 0. -1.
         11    1    4    4    0    0  0.20943400233E+02 -0.64939743070E+02  0.52449197200E+02  0.86062271236E+02  0.00000000000E+00 0.  1.
         21    1    1    2  502  501  0.34578842836E+02  0.80607763209E+01 -0.40983678463E+01  0.35741699817E+02  0.00000000000E+00 0. -1.
<scales pt_clust_5="13000.00000" pt_clust_6="13000.00000" pt_clust_7="13000.00000" pt_clust_8="13000.00000" pt_clust_9="35.50595"></scales>
<clustering>
<clus scale="   35.506">  1  9  2 -1</clus>
<clus scale="   91.388">  5  6 -1 -1</clus>
<clus scale="   94.363">  7  8 -1 -1</clus>
<clus scale="  221.341">  2  5  1 -1</clus>
<clus scale="   35.506">  1  5  2 -1</clus>
</clustering>
</event>
<event>
 9    1  0.1782981E-005  0.4695527E+03  0.7546771E-02  0.1066381E+00
         -2   -1    0    0    0  501 -0.00000000000E+00  0.00000000000E+00  0.27951977078E+03  0.27951977078E+03  0.00000000000E+00 0.  1.
          2   -1    0    0  502    0  0.00000000000E+00 -0.00000000000E+00 -0.12075187816E+04  0.12075187816E+04  0.00000000000E+00 0. -1.
         23    2    1    2    0    0 -0.48157864380E+03  0.12891800898E+02 -0.11399341558E+03  0.50339455487E+03  0.91254536244E+02 0.  0.
         23    2    1    2    0    0  0.73303614092E+02  0.16604112090E+02 -0.11696836663E+03  0.17530037821E+03  0.10676847584E+03 0.  0.
        -13    1    4    4    0    0  0.19557056218E+02  0.53292820654E+02 -0.86455247626E+02  0.10342684866E+03  0.00000000000E+00 0.  1.
         13    1    4    4    0    0  0.53746557874E+02 -0.36688708564E+02 -0.30513119004E+02  0.71873529556E+02  0.00000000000E+00 0. -1.
        -13    1    3    3    0    0 -0.41837874107E+03  0.42425629564E+02 -0.95715872009E+02  0.43127976208E+03  0.00000000000E+00 0.  1.
         13    1    3    3    0    0 -0.63199902721E+02 -0.29533828666E+02 -0.18277543566E+02  0.72114792785E+02  0.00000000000E+00 0. -1.
         21    1    1    2  502  501  0.40827502970E+03 -0.29495912988E+02 -0.69703722857E+03  0.80834361925E+03  0.00000000000E+00 0. -1.
<scales pt_clust_5="13000.00000" pt_clust_6="13000.00000" pt_clust_7="13000.00000" pt_clust_8="13000.00000" pt_clust_9="460.59998"></scales>
<clustering>
<clus scale="   91.255">  7  8 -1 -1</clus>
<clus scale="  106.768">  5  6 -1 -1</clus>
<clus scale="  130.570">  2  5  1 -1</clus>
<clus scale="  460.600">  2  9  1 -1</clus>
<clus scale="  130.570">  2  5  1 -1</clus>
</clustering>
</event>
<event>
 9    1  0.1782981E-005  0.1674419E+03  0.7546771E-02  0.1180984E+00
          1   -1    0    0  502    0  0.00000000000E+00  0.00000000000E+00  0.45147345719E+03  0.45147345719E+03  0.00000000000E+00 0. -1.
         -1   -1    0    0    0  501 -0.00000000000E+00 -0.00000000000E+00 -0.24457102181E+03  0.24457102181E+03  0.00000000000E+00 0.  1.
         23    2    1    2    0    0  0.13242984221E+03 -0.38195422657E+02 -0.16911832052E+03  0.23728063854E+03  0.93298133276E+02 0.  0.
         23    2    1    2    0    0 -0.12725719947E+03  0.10195390050E+03  0.33318251099E+03  0.38177673142E+03  0.90298916828E+02 0.  0.
        -11    1    3    3    0    0  0.90120302102E+00  0.20562649036E+02 -0.34165080133E+02  0.39885929885E+02  0.00000000000E+00 0. -1.
         11    1    3    3    0    0  0.13152863919E+03 -0.58758071693E+02 -0.13495324038E+03  0.19739470866E+03  0.00000000000E+00 0.  1.
        -11    1    4    4    0    0 -0.60159220627E+02  0.55700379773E+02  0.75280851180E+02  0.11130530395E+03  0.00000000000E+00 0. -1.
         11    1    4    4    0    0 -0.67097978840E+02  0.46253520731E+02  0.25790165981E+03  0.27047142747E+03  0.00000000000E+00 0.  1.
         21    1    1    2  502  501 -0.51726427405E+01 -0.63758477848E+02  0.42838244906E+02  0.76987109031E+02  0.00000000000E+00 0.  1.
<scales pt_clust_5="13000.00000" pt_clust_6="13000.00000" pt_clust_7="13000.00000" pt_clust_8="13000.00000" pt_clust_9="63.96796"></scales>
<clustering>
<clus scale="   63.968">  1  9  2 -1</clus>
<clus scale="   90.299">  7  8 -1 -1</clus>
<clus scale="   93.298">  5  6 -1 -1</clus>
<clus scale="  165.789">  1  7  2 -1</clus>
<clus scale="   63.968">  1  5  2 -1</clus>
</clustering>
</event>
<event>
 9    1  0.1782981E-005  0.1816166E+03  0.7546771E-02  0.1167019E+00
          2   -1    0    0  502    0  0.00000000000E+00  0.00000000000E+00  0.81831310248E+02  0.81831310248E+02  0.00000000000E+00 0. -1.
         -2   -1    0    0    0  501 -0.00000000000E+00 -0.00000000000E+00 -0.55204290449E+03  0.55204290449E+03  0.00000000000E+00 0.  1.
         23    2    1    2    0    0 -0.13949447248E+03  0.55095088346E+02 -0.32610760056E+03  0.37055718203E+03  0.92044996590E+02 0.  0.
         23    2    1    2    0    0  0.15858075596E+03 -0.30605932660E+02 -0.11822994280E+03  0.22290080488E+03  0.98091131945E+02 0.  0.
        -11    1    3    3    0    0 -0.71487346238E+02 -0.66665090062E+01 -0.21339085695E+03  0.22514559921E+03  0.00000000000E+00 0.  1.
         11    1    3    3    0    0 -0.68007126242E+02  0.61761597352E+02 -0.11271674361E+03  0.14541158282E+03  0.00000000000E+00 0. -1.
        -13    1    4    4    0    0  0.11863274461E+02  0.28395868671E+02 -0.21182203574E+02  0.37359716096E+02  0.00000000000E+00 0.  1.
         13    1    4    4    0    0  0.14671748150E+03 -0.59001801331E+02 -0.97047739226E+02  0.18554108878E+03  0.00000000000E+00 0. -1.
         21    1    1    2  502  501 -0.19086283478E+02 -0.24489155685E+02 -0.25874050883E+02  0.40416227834E+02  0.00000000000E+00 0. -1.
<scales pt_clust_5="13000.00000" pt_clust_6="13000.00000" pt_clust_7="13000.00000" pt_clust_8="13000.00000" pt_clust_9="31.04843"></scales>
<clustering>
<clus scale="   31.048">  1  9  2 -1</clus>
<clus scale="   92.045">  5  6 -1 -1</clus>
<clus scale="   98.091">  7  8 -1 -1</clus>
<clus scale="  178.424">  2  5  1 -1</clus>
<clus scale="   31.048">  1  5  2 -1</clus>
</clustering>
</event>
<event>
 9    1  0.1782981E-005  0.1499937E+03  0.7546771E-02  0.1218696E+00
         -1   -1    0    0    0  501 -0.00000000000E+00  0.00000000000E+00  0.62147187920E+03  0.62147187920E+03  0.00000000000E+00 0.  1.
          1   -1    0    0  502    0  0.00000000000E+00 -0.00000000000E+00 -0.11906180286E+03  0.11906180286E+03  0.00000000000E+00 0. -1.
         23    2    1    2    0    0 -0.63822131363E+02 -0.94594059225E+02  0.45653936748E+03  0.47964032800E+03  0.92765024072E+02 0.  0.
         23    2    1    2    0    0  0.11294353053E+02 -0.41566149424E+02  0.53308665404E+02  0.11476295644E+03  0.92051155206E+02 0.  0.
        -11    1    4    4    0    0  0.17876048168E+01 -0.69375209695E+02  0.49242825720E+02  0.85093895998E+02  0.00000000000E+00 0. -1.
         11    1    4    4    0    0  0.95067482365E+01  0.27809060271E+02  0.40658396845E+01  0.29669060442E+02  0.00000000000E+00 0.  1.
        -11    1    3    3    0    0  0.65185469770E+01 -0.70922128474E+02  0.25918252471E+03  0.26878991960E+03  0.00000000000E+00 0. -1.
         11    1    3    3    0    0 -0.70340678340E+02 -0.23671930751E+02  0.19735684277E+03  0.21085040840E+03  0.00000000000E+00 0.  1.
         21    1    1    2  502  501  0.52527778310E+02  0.13616020865E+03 -0.74379565471E+01  0.14613039763E+03  0.00000000000E+00 0.  1.
<scales pt_clust_5="13000.00000" pt_clust_6="13000.00000" pt_clust_7="13000.00000" pt_clust_8="13000.00000" pt_clust_9="117.86761"></scales>
<clustering>
<clus scale="   92.051">  5  6 -1 -1</clus>
<clus scale="   92.765">  7  8 -1 -1</clus>
<clus scale="  101.630">  2  5  1 -1</clus>
<clus scale="  117.868">  2  9  1 -1</clus>
<clus scale="  101.630">  2  5  1 -1</clus>
</clustering>
</event>
<event>
 9    1  0.1782981E-005  0.1075955E+03  0.7546771E-02  0.1265979E+00
          2   -1    0    0  502    0  0.00000000000E+00  0.00000000000E+00  0.28709352569E+03  0.28709352569E+03  0.00000000000E+00 0. -1.
         -2   -1    0    0    0  501 -0.00000000000E+00 -0.00000000000E+00 -0.50949106883E+02  0.50949106883E+02  0.00000000000E+00 0.  1.
         23    2    1    2    0    0 -0.22642108132E+02 -0.55510318510E+02  0.70322968325E+02  0.13029017280E+03  0.91848509689E+02 0.  0.
         23    2    1    2    0    0  0.34454916341E+02  0.39199536856E+02  0.12679355822E+03  0.16383480489E+03  0.89674366115E+02 0.  0.
        -11    1    3    3    0    0  0.19417552471E+02 -0.53862396505E+02  0.66905266509E+02  0.88059717169E+02  0.00000000000E+00 0. -1.
         11    1    3    3    0    0 -0.42059660603E+02 -0.16479220056E+01  0.34177018155E+01  0.42230455629E+02  0.00000000000E+00 0.  1.
        -13    1    4    4    0    0  0.36379001126E+02  0.65866928665E+02  0.79198681254E+02  0.10924429105E+03  0.00000000000E+00 0.  1.
         13    1    4    4    0    0 -0.19240847849E+01 -0.26667391809E+02  0.47594876962E+02  0.54590513839E+02  0.00000000000E+00 0. -1.
         21    1    1    2  502  501 -0.11812808208E+02  0.16310781654E+02  0.39027892271E+02  0.43917654890E+02  0.00000000000E+00 0.  1.
<scales pt_clust_5="13000.00000" pt_clust_6="13000.00000" pt_clust_7="13000.00000" pt_clust_8="13000.00000" pt_clust_9="20.13912"></scales>
<clustering>
<clus scale="   20.139">  1  9  2 -1</clus>
<clus scale="   89.674">  7  8 -1 -1</clus>
<clus scale="   91.849">  5  6 -1 -1</clus>
<clus scale="  105.746">  1  7  2 -1</clus>
<clus scale="   20.139">  1  5  2 -1</clus>
</clustering>
</event>
<event>
 9    1  0.1782981E-005  0.1069441E+03  0.7546771E-02  0.1266852E+00
         -1   -1    0    0    0  501 -0.00000000000E+00  0.00000000000E+00  0.56998374550E+02  0.56998374550E+02  0.00000000000E+00 0.  1.
          1   -1    0    0  502    0  0.00000000000E+00 -0.00000000000E+00 -0.41833489355E+03  0.41833489355E+03  0.00000000000E+00 0. -1.
         23    2    1    2    0    0 -0.13886776557E+02  0.61341943582E+02 -0.24496463803E+02  0.11311054567E+03  0.90764762976E+02 0.  0.
         23    2    1    2    0    0 -0.11637242946E+02 -0.35804317177E+02 -0.24605503082E+03  0.26452130696E+03  0.89504575805E+02 0.  0.
        -13    1    3    3    0    0  0.14328274693E+01  0.45410324796E+02  0.29904273426E+02  0.54391324324E+02  0.00000000000E+00 0.  1.
         13    1    3    3    0    0 -0.15319604026E+02  0.15931618786E+02 -0.54400737230E+02  0.58719221349E+02  0.00000000000E+00 0. -1.
        -13    1    4    4    0    0 -0.35501201935E+02  0.12757626572E+02 -0.61039631161E+02  0.71756037703E+02  0.00000000000E+00 0.  1.
         13    1    4    4    0    0  0.23863958988E+02 -0.48561943749E+02 -0.18501539966E+03  0.19276526926E+03  0.00000000000E+00 0. -1.
         21    1    1    2  502  501  0.25524019503E+02 -0.25537626405E+02 -0.90785024374E+02  0.97701415469E+02  0.00000000000E+00 0. -1.
<scales pt_clust_5="13000.00000" pt_clust_6="13000.00000" pt_clust_7="13000.00000" pt_clust_8="13000.00000" pt_clust_9="36.10604"></scales>
<clustering>
<clus scale="   36.106">  2  9  1 -1</clus>
<clus scale="   89.505">  7  8 -1 -1</clus>
<clus scale="   90.765">  5  6 -1 -1</clus>
<clus scale="  105.877">  2  7  1 -1</clus>
<clus scale="   36.106">  2  5  1 -1</clus>
</clustering>
</event>
<event>
 9    1  0.1782981E-005  0.9222188E+02  0.7546771E-02  0.1297961E+00
         -3   -1    0    0    0  501 -0.00000000000E+00  0.00000000000E+00  0.94038045068E+02  0.94038045068E+02  0.00000000000E+00 0.  1.
          3   -1    0    0  502    0  0.00000000000E+00 -0.00000000000E+00 -0.18864523605E+03  0.18864523605E+03  0.00000000000E+00 0. -1.
         23    2    1    2    0    0 -0.11041412342E+02  0.14791512058E+02  0.38121966287E+02  0.99968658379E+02  0.90552452916E+02 0.  0.
         23    2    1    2    0    0  0.95972159783E+01  0.13910366089E+02 -0.79373633364E+02  0.12211185512E+03  0.91244323917E+02 0.  0.
        -11    1    3    3    0    0 -0.98156549042E+01  0.52356705990E+02  0.13227088198E+02  0.54886497479E+02  0.00000000000E+00 0.  1.
         11    1    3    3    0    0 -0.12257574383E+01 -0.37565193931E+02  0.24894878089E+02  0.45082160901E+02  0.00000000000E+00 0. -1.
        -13    1    4    4    0    0  0.30497229165E+02  0.27715122580E+02 -0.25276075003E+01  0.41286775195E+02  0.00000000000E+00 0.  1.
         13    1    4    4    0    0 -0.20900013186E+02 -0.13804756491E+02 -0.76846025864E+02  0.80825079920E+02  0.00000000000E+00 0. -1.
         21    1    1    2  502  501  0.14441963642E+01 -0.28701878148E+02 -0.53355523902E+02  0.60602767620E+02  0.00000000000E+00 0.  1.
<scales pt_clust_5="13000.00000" pt_clust_6="13000.00000" pt_clust_7="13000.00000" pt_clust_8="13000.00000" pt_clust_9="28.73819"></scales>
<clustering>
<clus scale="   28.738">  2  9  1 -1</clus>
<clus scale="   90.552">  5  6 -1 -1</clus>
<clus scale="   91.244">  7  8 -1 -1</clus>
<clus scale="   91.537">  1  5  2 -1</clus>
<clus scale="   28.738">  2  5  1 -1</clus>
</clustering>
</event>
<event>
 9    1  0.1782981E-005  0.9099164E+02  0.7546771E-02  0.1302224E+00
         -1   -1    0    0    0  501 -0.00000000000E+00  0.00000000000E+00  0.25888222765E+03  0.25888222765E+03  0.00000000000E+00 0.  1.
          1   -1    0    0  502    0  0.00000000000E+00 -0.00000000000E+00 -0.75880477521E+02  0.75880477521E+02  0.00000000000E+00 0. -1.
         23    2    1    2    0    0  0.82297719190E+01 -0.11327308575E+02  0.18590873725E+03  0.20685057525E+03  0.89605049144E+02 0.  0.
         23    2    1    2    0    0  0.16508779868E+02  0.33741563934E+02 -0.73486147627E+00  0.94458984813E+02  0.86665603564E+02 0.  0.
        -11    1    4    4    0    0 -0.52313783479E+01  0.30068284058E+02  0.38695445247E+02  0.49282923092E+02  0.00000000000E+00 0.  1.
         11    1    4    4    0    0  0.21740158216E+02  0.36732798757E+01 -0.39430306724E+02  0.45176061721E+02  0.00000000000E+00 0. -1.
        -11    1    3    3    0    0  0.26019192883E+02  0.33523606395E+02  0.85799268391E+02  0.95720139158E+02  0.00000000000E+00 0. -1.
         11    1    3    3    0    0 -0.17789420964E+02 -0.44850914970E+02  0.10010946886E+03  0.11113043610E+03  0.00000000000E+00 0.  1.
         21    1    1    2  502  501 -0.24738551787E+02 -0.22414255359E+02 -0.21721256401E+01  0.33453145108E+02  0.00000000000E+00 0.  1.
<scales pt_clust_5="13000.00000" pt_clust_6="13000.00000" pt_clust_7="13000.00000" pt_clust_8="13000.00000" pt_clust_9="33.38255"></scales>
<clustering>
<clus scale="   33.383">  2  9  1 -1</clus>
<clus scale="   86.666">  5  6 -1 -1</clus>
<clus scale="   88.098">  2  5  1 -1</clus>
<clus scale="   89.605">  7  8 -1 -1</clus>
<clus scale="   33.383">  2  5  1 -1</clus>
</clustering>
</event>
<event>
 9    1  0.1782981E-005  0.9757399E+02  0.7546771E-02  0.1287606E+00
         -1   -1    0    0    0  501 -0.00000000000E+00  0.00000000000E+00  0.40934327418E+03  0.40934327418E+03  0.00000000000E+00 0.  1.
          1   -1    0    0  502    0  0.00000000000E+00 -0.00000000000E+00 -0.51259332205E+02  0.51259332205E+02  0.00000000000E+00 0. -1.
         23    2    1    2    0    0 -0.26549868655E+02 -0.66311691061E+01  0.29978439570E+03  0.31554846351E+03  0.94611209635E+02 0.  0.
         23    2    1    2    0    0  0.85073274637E+01  0.17994683043E+02  0.73890559182E+02  0.11863932838E+03  0.90660312508E+02 0.  0.
        -11    1    4    4    0    0 -0.11405223426E+02  0.33659203855E+02 -0.49003284352E+01  0.35875260896E+02  0.00000000000E+00 0. -1.
         11    1    4    4    0    0  0.19912550890E+02 -0.15664520812E+02  0.78790887617E+02  0.82764067485E+02  0.00000000000E+00 0.  1.
        -13    1    3    3    0    0 -0.59426060975E+02 -0.17306483057E+02  0.22123329351E+03  0.22972840755E+03  0.00000000000E+00 0. -1.
         13    1    3    3    0    0  0.32876192320E+02  0.10675313951E+02  0.78551102188E+02  0.85820055956E+02  0.00000000000E+00 0.  1.
         21    1    1    2  502  501  0.18042541192E+02 -0.11363513937E+02 -0.15591012903E+02  0.26414814499E+02  0.00000000000E+00 0.  1.
<scales pt_clust_5="13000.00000" pt_clust_6="13000.00000" pt_clust_7="13000.00000" pt_clust_8="13000.00000" pt_clust_9="21.32282"></scales>
<clustering>
<clus scale="   21.323">  2  9  1 -1</clus>
<clus scale="   90.660">  5  6 -1 -1</clus>
<clus scale="   93.748">  2  5  1 -1</clus>
<clus scale="   94.611">  7  8 -1 -1</clus>
<clus scale="   21.323">  2  5  1 -1</clus>
</clustering>
</event>
<event>
 9    1  0.1782981E-005  0.1761730E+03  0.7546771E-02  0.1171887E+00
         -1   -1    0    0    0  501 -0.00000000000E+00  0.00000000000E+00  0.67986743250E+02  0.67986743250E+02  0.00000000000E+00 0.  1.
          1   -1    0    0  502    0  0.00000000000E+00 -0.00000000000E+00 -0.13347322776E+04  0.13347322776E+04  0.00000000000E+00 0. -1.
         23    2    1    2    0    0  0.12190360795E+03  0.16400903581E+02 -0.15419447885E+03  0.21730068312E+03  0.91182072289E+02 0.  0.
         23    2    1    2    0    0 -0.25507364474E+03 -0.37442733142E+02 -0.69095261887E+03  0.74278727346E+03  0.88616531043E+02 0.  0.
        -13    1    3    3    0    0  0.11881573423E+03 -0.12036576150E+02 -0.98953528617E+02  0.15509306461E+03  0.00000000000E+00 0.  1.
         13    1    3    3    0    0  0.30878737200E+01  0.28437479730E+02 -0.55240950229E+02  0.62207618502E+02  0.00000000000E+00 0. -1.
        -13    1    4    4    0    0 -0.18683296601E+03 -0.66278562950E+02 -0.48744796556E+03  0.52621756359E+03  0.00000000000E+00 0.  1.
         13    1    4    4    0    0 -0.68240678732E+02  0.28835829808E+02 -0.20350465331E+03  0.21656970987E+03  0.00000000000E+00 0. -1.
         21    1    1    2  502  501  0.13317003680E+03  0.21041829561E+02 -0.42159843659E+03  0.44263106424E+03  0.00000000000E+00 0. -1.
<scales pt_clust_5="13000.00000" pt_clust_6="13000.00000" pt_clust_7="13000.00000" pt_clust_8="13000.00000" pt_clust_9="134.82217"></scales>
<clustering>
<clus scale="   88.617">  7  8 -1 -1</clus>
<clus scale="   91.182">  5  6 -1 -1</clus>
<clus scale="  134.822">  2  9  1 -1</clus>
<clus scale="  174.859">  2  7  1 -1</clus>
<clus scale="  134.822">  2  5  1 -1</clus>
</clustering>
</event>
<event>
 9    1  0.1885159E-005  0.1150880E+03  0.7546771E-02  0.1252601E+00
         -2   -1    0    0    0  501 -0.00000000000E+00  0.00000000000E+00  0.31265656884E+03  0.31265656884E+03  0.00000000000E+00 0.  1.
          2   -1    0    0  502    0  0.00000000000E+00 -0.00000000000E+00 -0.32817759324E+03  0.32817759324E+03  0.00000000000E+00 0. -1.
         23    2    1    2    0    0  0.10857135298E+02 -0.67970893985E+02  0.28393334941E+03  0.30523866758E+03  0.88400098779E+02 0.  0.
         23    2    1    2    0    0  0.47381180039E+01  0.85738693679E+02 -0.22811882069E+03  0.26044452797E+03  0.91758282670E+02 0.  0.
        -11    1    3    3    0    0  0.23210186317E+02 -0.17221584237E+02  0.17614327974E+02  0.33846126255E+02  0.00000000000E+00 0. -1.
         11    1    3    3    0    0 -0.12353051019E+02 -0.50749309748E+02  0.26631902144E+03  0.27139254133E+03  0.00000000000E+00 0.  1.
        -11    1    4    4    0    0 -0.21974319358E+02  0.52272561383E+02 -0.20306593403E+03  0.21083421200E+03  0.00000000000E+00 0.  1.
         11    1    4    4    0    0  0.26712437362E+02  0.33466132297E+02 -0.25052886662E+02  0.49610315972E+02  0.00000000000E+00 0. -1.
         21    1    1    2  502  501 -0.15595253301E+02 -0.17767799694E+02 -0.71335553122E+02  0.75150966533E+02  0.00000000000E+00 0. -1.
<scales pt_clust_5="13000.00000" pt_clust_6="13000.00000" pt_clust_7="13000.00000" pt_clust_8="13000.00000" pt_clust_9="23.64121"></scales>
<clustering>
<clus scale="   23.641">  2  9  1 -1</clus>
<clus scale="   88.400">  5  6 -1 -1</clus>
<clus scale="   91.758">  7  8 -1 -1</clus>
<clus scale="  112.429">  1  5  2 -1</clus>
<clus scale="   23.641">  2  5  1 -1</clus>
</clustering>
</event>
<event>
 9    1  0.2308441E-005  0.9262767E+02  0.7546771E-02  0.1296872E+00
          1   -1    0    0  502    0  0.00000000000E+00  0.00000000000E+00  0.51159353863E+03  0.51159353863E+03  0.00000000000E+00 0. -1.
         -1   -1    0    0    0  501 -0.00000000000E+00 -0.00000000000E+00 -0.72210680047E+02  0.72210680047E+02  0.00000000000E+00 0.  1.
         23    2    1    2    0    0  0.65216183110E+01 -0.13200558386E+02 -0.31664406746E+02  0.98070794232E+02  0.91643110923E+02 0.  0.
         23    2    1    2    0    0  0.13290781947E+02  0.71966630403E+01  0.31384713552E+03  0.32717599392E+03  0.91190293774E+02 0.  0.
        -11    1    4    4    0    0 -0.20640233838E+02  0.39899829719E+02  0.13825860009E+03  0.14537350572E+03  0.00000000000E+00 0. -1.
         11    1    4    4    0    0  0.33931015785E+02 -0.32703166679E+02  0.17558853543E+03  0.18180248820E+03  0.00000000000E+00 0.  1.
        -11    1    3    3    0    0  0.69607037152E+00  0.39143885699E+02 -0.64470356104E+01  0.39677355882E+02  0.00000000000E+00 0. -1.
         11    1    3    3    0    0  0.58255479395E+01 -0.52344444085E+02 -0.25217371136E+02  0.58393438350E+02  0.00000000000E+00 0.  1.
         21    1    1    2  502  501 -0.19812400258E+02  0.60038953456E+01  0.15720012981E+03  0.15855743053E+03  0.00000000000E+00 0. -1.
<scales pt_clust_5="13000.00000" pt_clust_6="13000.00000" pt_clust_7="13000.00000" pt_clust_8="13000.00000" pt_clust_9="20.70212"></scales>
<clustering>
<clus scale="   20.702">  1  9  2 -1</clus>
<clus scale="   91.190">  5  6 -1 -1</clus>
<clus scale="   91.643">  7  8 -1 -1</clus>
<clus scale="   92.180">  1  5  2 -1</clus>
<clus scale="   20.702">  1  5  2 -1</clus>
</clustering>
</event>
<event>
 9    1  0.1782981E-005  0.1057015E+03  0.7546771E-02  0.1268886E+00
         -2   -1    0    0    0  501 -0.00000000000E+00  0.00000000000E+00  0.15388179008E+03  0.15388179008E+03  0.00000000000E+00 0.  1.
          2   -1    0    0  502    0  0.00000000000E+00 -0.00000000000E+00 -0.16320696163E+03  0.16320696163E+03  0.00000000000E+00 0. -1.
         23    2    1    2    0    0 -0.55837990527E+02  0.60771608733E+02  0.46772388438E+02  0.13247754892E+03  0.92474726460E+02 0.  0.
         23    2    1    2    0    0 -0.42354722313E+01 -0.20812562018E+02 -0.34015572485E+01  0.95266840638E+02  0.92806779767E+02 0.  0.
        -11    1    3    3    0    0 -0.23564265786E+02  0.73244816439E+02  0.34303172532E+01  0.77018470731E+02  0.00000000000E+00 0. -1.
         11    1    3    3    0    0 -0.32273724740E+02 -0.12473207707E+02  0.43342071185E+02  0.55459078190E+02  0.00000000000E+00 0.  1.
        -13    1    4    4    0    0  0.32026192052E+02 -0.35019541094E+02 -0.21765425608E+02  0.52208993360E+02  0.00000000000E+00 0.  1.
         13    1    4    4    0    0 -0.36261664283E+02  0.14206979077E+02  0.18363868360E+02  0.43057847278E+02  0.00000000000E+00 0. -1.
         21    1    1    2  502  501  0.60073462758E+02 -0.39959046715E+02 -0.52696002743E+02  0.89344362146E+02  0.00000000000E+00 0. -1.
<scales pt_clust_5="13000.00000" pt_clust_6="13000.00000" pt_clust_7="13000.00000" pt_clust_8="13000.00000" pt_clust_9="72.14947"></scales>
<clustering>
<clus scale="   72.149">  2  9  1 -1</clus>
<clus scale="   92.475">  5  6 -1 -1</clus>
<clus scale="   92.807">  7  8 -1 -1</clus>
<clus scale="  105.410">  1  5  2 -1</clus>
<clus scale="   72.149">  2  5  1 -1</clus>
</clustering>
</event>
<event>
 9    1  0.1782981E-005  0.1083753E+03  0.7546771E-02  0.1268132E+00
         -1   -1    0    0    0  501 -0.00000000000E+00  0.00000000000E+00  0.13218232471E+03  0.13218232471E+03  0.00000000000E+00 0.  1.
          1   -1    0    0  502    0  0.00000000000E+00 -0.00000000000E+00 -0.13967916566E+03  0.13967916566E+03  0.00000000000E+00 0. -1.
         23    2    1    2    0    0 -0.37517010860E+02 -0.90330146769E+00  0.62204360102E+02  0.11644428668E+03  0.91003007796E+02 0.  0.
         23    2    1    2    0    0  0.44146981892E+02  0.25833360271E+02 -0.56896451171E+02  0.12661744732E+03  0.10088832091E+03 0.  0.
        -11    1    4    4    0    0 -0.21598919662E+02 -0.12244408384E+02 -0.42600452586E+02  0.49307579820E+02  0.00000000000E+00 0.  1.
         11    1    4    4    0    0  0.65745901553E+02  0.38077768655E+02 -0.14295998585E+02  0.77309867497E+02  0.00000000000E+00 0. -1.
        -13    1    3    3    0    0 -0.38321732726E+02 -0.30949674768E+02  0.69810477097E+02  0.85439687967E+02  0.00000000000E+00 0. -1.
         13    1    3    3    0    0  0.80472186634E+00  0.30046373300E+02 -0.76061169955E+01  0.31004598716E+02  0.00000000000E+00 0.  1.
         21    1    1    2  502  501 -0.66299710317E+01 -0.24930058804E+02 -0.12804749878E+02  0.28799756375E+02  0.00000000000E+00 0. -1.
<scales pt_clust_5="13000.00000" pt_clust_6="13000.00000" pt_clust_7="13000.00000" pt_clust_8="13000.00000" pt_clust_9="25.79660"></scales>
<clustering>
<clus scale="   25.797">  2  9  1 -1</clus>
<clus scale="   91.003">  7  8 -1 -1</clus>
<clus scale="   99.239">  1  7  2 -1</clus>
<clus scale="  100.888">  5  6 -1 -1</clus>
<clus scale="   25.797">  2  5  1 -1</clus>
</clustering>
</event>
<event>
 9    1  0.1782981E-005  0.1329777E+03  0.7546771E-02  0.1223845E+00
          1   -1    0    0  502    0  0.00000000000E+00  0.00000000000E+00  0.12081118331E+03  0.12081118331E+03  0.00000000000E+00 0. -1.
         -1   -1    0    0    0  501 -0.00000000000E+00 -0.00000000000E+00 -0.35247118507E+03  0.35247118507E+03  0.00000000000E+00 0.  1.
         23    2    1    2    0    0  0.14117586057E+02 -0.72625415686E+02 -0.12645482324E+03  0.17219655095E+03  0.90482443583E+02 0.  0.
         23    2    1    2    0    0 -0.31155158483E+02  0.12704185214E+03 -0.15828273610E+03  0.22318424781E+03  0.87450030486E+02 0.  0.
        -11    1    4    4    0    0 -0.21606945419E+02  0.23229507069E+02 -0.97447719000E+02  0.10248184243E+03  0.00000000000E+00 0.  1.
         11    1    4    4    0    0 -0.95482130647E+01  0.10381234507E+03 -0.60835017096E+02  0.12070240539E+03  0.00000000000E+00 0. -1.
        -11    1    3    3    0    0  0.20370912498E+02 -0.93136884783E+02 -0.10044566708E+03  0.13848749192E+03  0.00000000000E+00 0. -1.
         11    1    3    3    0    0 -0.62533264412E+01  0.20511469098E+02 -0.26009156160E+02  0.33709059024E+02  0.00000000000E+00 0.  1.
         21    1    1    2  502  501  0.17037572426E+02 -0.54416436452E+02  0.53077557584E+02  0.77901569621E+02  0.00000000000E+00 0. -1.
<scales pt_clust_5="13000.00000" pt_clust_6="13000.00000" pt_clust_7="13000.00000" pt_clust_8="13000.00000" pt_clust_9="57.02129"></scales>
<clustering>
<clus scale="   57.021">  1  9  2 -1</clus>
<clus scale="   87.450">  5  6 -1 -1</clus>
<clus scale="   90.482">  7  8 -1 -1</clus>
<clus scale="  130.933">  1  5  2 -1</clus>
<clus scale="   57.021">  1  5  2 -1</clus>
</clustering>
</event>
<event>
 9    1  0.1782981E-005  0.9780637E+02  0.7546771E-02  0.1286754E+00
         -2   -1    0    0    0  501 -0.00000000000E+00  0.00000000000E+00  0.71299767392E+03  0.71299767392E+03  0.00000000000E+00 0.  1.
          2   -1    0    0  502    0  0.00000000000E+00 -0.00000000000E+00 -0.28680596914E+02  0.28680596914E+02  0.00000000000E+00 0. -1.
         23    2    1    2    0    0 -0.76430787059E+01 -0.29395146458E+02  0.25544348357E+03  0.27289489980E+03  0.91092050970E+02 0.  0.
         23    2    1    2    0    0  0.36551162075E+02 -0.39456734840E+02  0.19450927502E+03  0.22281001356E+03  0.94433165252E+02 0.  0.
        -13    1    3    3    0    0 -0.43617879816E+02  0.71132316963E+01  0.13323425475E+03  0.14037266167E+03  0.00000000000E+00 0.  1.
         13    1    3    3    0    0  0.35974801110E+02 -0.36508378155E+02  0.12220922882E+03  0.13252223813E+03  0.00000000000E+00 0. -1.
        -13    1    4    4    0    0  0.11693719714E+02 -0.67109593832E+02  0.15047911965E+03  0.16517992043E+03  0.00000000000E+00 0. -1.
         13    1    4    4    0    0  0.24857442362E+02  0.27652858993E+02  0.44030155376E+02  0.57630093125E+02  0.00000000000E+00 0.  1.
         21    1    1    2  502  501 -0.28908083369E+02  0.68851881298E+02  0.23436431842E+03  0.24597335748E+03  0.00000000000E+00 0.  1.
<scales pt_clust_5="13000.00000" pt_clust_6="13000.00000" pt_clust_7="13000.00000" pt_clust_8="13000.00000" pt_clust_9="74.67435"></scales>
<clustering>
<clus scale="   74.674">  1  9  2 -1</clus>
<clus scale="   91.092">  5  6 -1 -1</clus>
<clus scale="   94.433">  7  8 -1 -1</clus>
<clus scale="   94.584">  1  5  2 -1</clus>
<clus scale="   97.806">  2  5  1 -1</clus>
</clustering>
</event>
<event>
 9    1  0.1782981E-005  0.1498734E+03  0.7546771E-02  0.1201035E+00
          2   -1    0    0  502    0  0.00000000000E+00  0.00000000000E+00  0.56335227173E+03  0.56335227173E+03  0.00000000000E+00 0. -1.
         -2   -1    0    0    0  501 -0.00000000000E+00 -0.00000000000E+00 -0.11184530279E+03  0.11184530279E+03  0.00000000000E+00 0.  1.
         23    2    1    2    0    0 -0.70738827893E+02  0.11008117848E+03 -0.27633922968E+02  0.16088691821E+03  0.89437794734E+02 0.  0.
         23    2    1    2    0    0  0.24690155368E+02 -0.50555297341E+02  0.33311120820E+03  0.35002894920E+03  0.91606475677E+02 0.  0.
        -11    1    3    3    0    0 -0.60704534069E+02  0.78930690430E+02 -0.58845655279E+02  0.11566289592E+03  0.00000000000E+00 0.  1.
         11    1    3    3    0    0 -0.10034293824E+02  0.31150488047E+02  0.31211732311E+02  0.45224022289E+02  0.00000000000E+00 0. -1.
        -13    1    4    4    0    0 -0.33561604001E+02 -0.80928091109E+01  0.87726902360E+02  0.94275575947E+02  0.00000000000E+00 0.  1.
         13    1    4    4    0    0  0.58251759368E+02 -0.42462488230E+02  0.24538430584E+03  0.25575337325E+03  0.00000000000E+00 0. -1.
         21    1    1    2  502  501  0.46048672525E+02 -0.59525881136E+02  0.14602968371E+03  0.16428170711E+03  0.00000000000E+00 0. -1.
<scales pt_clust_5="13000.00000" pt_clust_6="13000.00000" pt_clust_7="13000.00000" pt_clust_8="13000.00000" pt_clust_9="75.25829"></scales>
<clustering>
<clus scale="   75.258">  1  9  2 -1</clus>
<clus scale="   89.438">  5  6 -1 -1</clus>
<clus scale="   91.606">  7  8 -1 -1</clus>
<clus scale="  148.558">  2  5  1 -1</clus>
<clus scale="   75.258">  1  5  2 -1</clus>
</clustering>
</event>
<event>
 9    1  0.1782981E-005  0.1016180E+03  0.7546771E-02  0.1280919E+00
          2   -1    0    0  502    0  0.00000000000E+00  0.00000000000E+00  0.23133664458E+03  0.23133664458E+03  0.00000000000E+00 0. -1.
         -2   -1    0    0    0  501 -0.00000000000E+00 -0.00000000000E+00 -0.11315965232E+03  0.11315965232E+03  0.00000000000E+00 0.  1.
         23    2    1    2    0    0 -0.12758545692E+02 -0.59481867850E+02 -0.24504044257E+02  0.11197795441E+03  0.90762001951E+02 0.  0.
         23    2    1    2    0    0  0.51699270988E+02 -0.56102039022E+00  0.35229407561E+02  0.10341613073E+03  0.82344736157E+02 0.  0.
        -11    1    4    4    0    0 -0.20074970755E+02  0.12272420151E+02  0.30779643161E+01  0.23729530368E+02  0.00000000000E+00 0. -1.
         11    1    4    4    0    0  0.71774241743E+02 -0.12833440541E+02  0.32151443245E+02  0.79686600358E+02  0.00000000000E+00 0.  1.
        -11    1    3    3    0    0 -0.30817692469E+02 -0.76302262165E+02 -0.88790105229E+01  0.82768364780E+02  0.00000000000E+00 0.  1.
         11    1    3    3    0    0  0.18059146777E+02  0.16820394315E+02 -0.15625033734E+02  0.29209589631E+02  0.00000000000E+00 0. -1.
         21    1    1    2  502  501 -0.38940725296E+02  0.60042888240E+02  0.10745162896E+03  0.12910221176E+03  0.00000000000E+00 0. -1.
<scales pt_clust_5="13000.00000" pt_clust_6="13000.00000" pt_clust_7="13000.00000" pt_clust_8="13000.00000" pt_clust_9="71.56486"></scales>
<clustering>
<clus scale="   71.565">  1  9  2 -1</clus>
<clus scale="   82.345">  5  6 -1 -1</clus>
<clus scale="   90.762">  7  8 -1 -1</clus>
<clus scale="   94.176">  1  5  2 -1</clus>
<clus scale="   71.565">  1  5  2 -1</clus>
</clustering>
</event>
<event>
 9    1  0.1782981E-005  0.1816011E+03  0.7546771E-02  0.1196934E+00
          1   -1    0    0  502    0  0.00000000000E+00  0.00000000000E+00  0.77112556380E+03  0.77112556380E+03  0.00000000000E+00 0. -1.
         -1   -1    0    0    0  501 -0.00000000000E+00 -0.00000000000E+00 -0.10054300088E+03  0.10054300088E+03  0.00000000000E+00 0.  1.
         23    2    1    2    0    0 -0.61891127496E+01  0.83229654647E+01 -0.27566730105E+02  0.95370000589E+02  0.90707968409E+02 0.  0.
         23    2    1    2    0    0 -0.12344841772E+03  0.85291980765E+02  0.31556935067E+03  0.36164562516E+03  0.93216464739E+02 0.  0.
        -13    1    4    4    0    0 -0.35272492134E+02  0.79434536475E+01  0.17439135830E+03  0.17809995229E+03  0.00000000000E+00 0. -1.
         13    1    4    4    0    0 -0.88175925586E+02  0.77348527118E+02  0.14117799237E+03  0.18354567287E+03  0.00000000000E+00 0.  1.
        -13    1    3    3    0    0  0.37141988126E+02  0.10014252402E+02 -0.34235126263E+02  0.51496178532E+02  0.00000000000E+00 0. -1.
         13    1    3    3    0    0 -0.43331100876E+02 -0.16912869371E+01  0.66683961584E+01  0.43873822057E+02  0.00000000000E+00 0.  1.
         21    1    1    2  502  501  0.12963753047E+03 -0.93614946230E+02  0.38257994236E+03  0.41465293893E+03  0.00000000000E+00 0. -1.
<scales pt_clust_5="13000.00000" pt_clust_6="13000.00000" pt_clust_7="13000.00000" pt_clust_8="13000.00000" pt_clust_9="155.85138"></scales>
<clustering>
<clus scale="   90.708">  7  8 -1 -1</clus>
<clus scale="   91.299">  2  7  1 -1</clus>
<clus scale="   93.216">  5  6 -1 -1</clus>
<clus scale="  155.851">  1  9  2 -1</clus>
<clus scale="  155.851">  1  5  2 -1</clus>
</clustering>
</event>
<event>
 9    1  0.1782981E-005  0.1135766E+03  0.7546771E-02  0.1256637E+00
         -3   -1    0    0    0  501 -0.00000000000E+00  0.00000000000E+00  0.10747315432E+03  0.10747315432E+03  0.00000000000E+00 0.  1.
          3   -1    0    0  502    0  0.00000000000E+00 -0.00000000000E+00 -0.68001279169E+03  0.68001279169E+03  0.00000000000E+00 0. -1.
         23    2    1    2    0    0  0.41379573330E+02 -0.48771055245E+02  0.44779445707E+02  0.11969689307E+03  0.90726305636E+02 0.  0.
         23    2    1    2    0    0  0.67664046390E+02  0.68842112593E+02 -0.26372673343E+03  0.29722069477E+03  0.97317479594E+02 0.  0.
        -13    1    3    3    0    0  0.30317838660E-01 -0.53810803932E+02  0.54853467228E+02  0.76840786083E+02  0.00000000000E+00 0.  1.
         13    1    3    3    0    0  0.41349255491E+02  0.50397486867E+01 -0.10074021521E+02  0.42856106987E+02  0.00000000000E+00 0. -1.
        -13    1    4    4    0    0  0.45312275477E+02 -0.14770711233E+02 -0.12420455268E+03  0.13303438324E+03  0.00000000000E+00 0.  1.
         13    1    4    4    0    0  0.22351770912E+02  0.83612823825E+02 -0.13952218075E+03  0.16418631153E+03  0.00000000000E+00 0. -1.
         21    1    1    2  502  501 -0.10904361972E+03 -0.20071057348E+02 -0.35359234965E+03  0.37056835817E+03  0.00000000000E+00 0. -1.
<scales pt_clust_5="13000.00000" pt_clust_6="13000.00000" pt_clust_7="13000.00000" pt_clust_8="13000.00000" pt_clust_9="110.87542"></scales>
<clustering>
<clus scale="   90.726">  5  6 -1 -1</clus>
<clus scale="   97.317">  7  8 -1 -1</clus>
<clus scale="  110.875">  2  9  1 -1</clus>
<clus scale="  107.982">  1  5  2 -1</clus>
<clus scale="  110.875">  2  5  1 -1</clus>
</clustering>
</event>
<event>
 9    1  0.1782981E-005  0.1281739E+03  0.7546771E-02  0.1230655E+00
         -2   -1    0    0    0  501 -0.00000000000E+00  0.00000000000E+00  0.70121920023E+02  0.70121920023E+02  0.00000000000E+00 0.  1.
          2   -1    0    0  502    0  0.00000000000E+00 -0.00000000000E+00 -0.46476132005E+03  0.46476132005E+03  0.00000000000E+00 0. -1.
         23    2    1    2    0    0 -0.53498285057E+02  0.99375905048E+02 -0.78522182767E+02  0.16612338180E+03  0.93239518375E+02 0.  0.
         23    2    1    2    0    0  0.27572387084E+01 -0.57666941809E+02 -0.12785100934E+03  0.16936463154E+03  0.94896887638E+02 0.  0.
        -13    1    4    4    0    0 -0.42127623194E+02 -0.18778246087E+02 -0.82957177686E+02  0.94917082191E+02  0.00000000000E+00 0. -1.
         13    1    4    4    0    0  0.44884861902E+02 -0.38888695722E+02 -0.44893831652E+02  0.74447549344E+02  0.00000000000E+00 0.  1.
        -13    1    3    3    0    0 -0.63999841895E+02  0.80231856016E+02 -0.94147970609E+02  0.13927300834E+03  0.00000000000E+00 0.  1.
         13    1    3    3    0    0  0.10501556838E+02  0.19144049033E+02  0.15625787842E+02  0.26850373462E+02  0.00000000000E+00 0. -1.
         21    1    1    2  502  501  0.50741046349E+02 -0.41708963239E+02 -0.18826620793E+03  0.19939522674E+03  0.00000000000E+00 0. -1.
<scales pt_clust_5="13000.00000" pt_clust_6="13000.00000" pt_clust_7="13000.00000" pt_clust_8="13000.00000" pt_clust_9="65.68327"></scales>
<clustering>
<clus scale="   65.683">  2  9  1 -1</clus>
<clus scale="   93.240">  7  8 -1 -1</clus>
<clus scale="   94.897">  5  6 -1 -1</clus>
<clus scale="  126.952">  1  7  2 -1</clus>
<clus scale="   65.683">  2  5  1 -1</clus>
</clustering>
</event>
<event>
 9    1  0.1782981E-005  0.1003225E+03  0.7546771E-02  0.1280206E+00
         -3   -1    0    0    0  501 -0.00000000000E+00  0.00000000000E+00  0.34249141729E+03  0.34249141729E+03  0.00000000000E+00 0.  1.
          3   -1    0    0  502    0  0.00000000000E+00 -0.00000000000E+00 -0.45638271607E+02  0.45638271607E+02  0.00000000000E+00 0. -1.
         23    2    1    2    0    0 -0.36398954117E+02 -0.25098753732E+02  0.15553874626E+03  0.18451524917E+03  0.88874879962E+02 0.  0.
         23    2    1    2    0    0  0.13417032415E+02  0.55766717919E+02  0.12173323542E+03  0.16057823711E+03  0.87615329940E+02 0.  0.
        -11    1    3    3    0    0 -0.48745029202E+02  0.40031840175E+01  0.14188868729E+03  0.15008165423E+03  0.00000000000E+00 0.  1.
         11    1    3    3    0    0  0.12346075085E+02 -0.29101937750E+02  0.13650058968E+02  0.34433594942E+02  0.00000000000E+00 0. -1.
        -13    1    4    4    0    0  0.28368302634E+02  0.71003730331E+02  0.11517805511E+03  0.13824715076E+03  0.00000000000E+00 0. -1.
         13    1    4    4    0    0 -0.14951270220E+02 -0.15237012411E+02  0.65551803086E+01  0.22331086343E+02  0.00000000000E+00 0.  1.
         21    1    1    2  502  501  0.22981921702E+02 -0.30667964187E+02  0.19581164011E+02  0.43036202627E+02  0.00000000000E+00 0. -1.
<scales pt_clust_5="13000.00000" pt_clust_6="13000.00000" pt_clust_7="13000.00000" pt_clust_8="13000.00000" pt_clust_9="38.32353"></scales>
<clustering>
<clus scale="   38.324">  2  9  1 -1</clus>
<clus scale="   87.615">  7  8 -1 -1</clus>
<clus scale="   88.875">  5  6 -1 -1</clus>
<clus scale="   99.208">  2  7  1 -1</clus>
<clus scale="   38.324">  2  5  1 -1</clus>
</clustering>
</event>
<event>
 9    1  0.1782981E-005  0.1632636E+03  0.7546771E-02  0.1186233E+00
          2   -1    0    0  502    0  0.00000000000E+00  0.00000000000E+00  0.36611954442E+03  0.36611954442E+03  0.00000000000E+00 0. -1.
         -2   -1    0    0    0  501 -0.00000000000E+00 -0.00000000000E+00 -0.15098565002E+03  0.15098565002E+03  0.00000000000E+00 0.  1.
         23    2    1    2    0    0 -0.27935970028E+02  0.12196110584E+03 -0.39856322750E+02  0.15982378445E+03  0.91105355796E+02 0.  0.
         23    2    1    2    0    0  0.48672643711E+02 -0.17126377085E+03  0.20605793460E+03  0.28478912979E+03  0.83334690147E+02 0.  0.
        -11    1    3    3    0    0 -0.54727894917E+02  0.43595410314E+02 -0.31011678745E+02  0.76533825862E+02  0.00000000000E+00 0.  1.
         11    1    3    3    0    0  0.26791924889E+02  0.78365695528E+02 -0.88446440049E+01  0.83289958593E+02  0.00000000000E+00 0. -1.
        -13    1    4    4    0    0  0.53879597184E+02 -0.15162890357E+03  0.13240921212E+03  0.20839034249E+03  0.00000000000E+00 0. -1.
         13    1    4    4    0    0 -0.52069534737E+01 -0.19634867289E+02  0.73648722480E+02  0.76398787300E+02  0.00000000000E+00 0.  1.
         21    1    1    2  502  501 -0.20736673683E+02  0.49302665013E+02  0.48932282539E+02  0.72492280191E+02  0.00000000000E+00 0.  1.
<scales pt_clust_5="13000.00000" pt_clust_6="13000.00000" pt_clust_7="13000.00000" pt_clust_8="13000.00000" pt_clust_9="53.48610"></scales>
<clustering>
<clus scale="   53.486">  1  9  2 -1</clus>
<clus scale="   83.335">  7  8 -1 -1</clus>
<clus scale="   91.105">  5  6 -1 -1</clus>
<clus scale="  159.058">  1  7  2 -1</clus>
<clus scale="   53.486">  1  5  2 -1</clus>
</clustering>
</event>
<event>
 9    1  0.1782981E-005  0.3816548E+03  0.7546771E-02  0.1050401E+00
          1   -1    0    0  502    0  0.00000000000E+00  0.00000000000E+00  0.11341094765E+03  0.11341094765E+03  0.00000000000E+00 0. -1.
         -1   -1    0    0    0  501 -0.00000000000E+00 -0.00000000000E+00 -0.16671700136E+04  0.16671700136E+04  0.00000000000E+00 0.  1.
         23    2    1    2    0    0 -0.33702722479E+03  0.90270631056E+02 -0.77310768236E+03  0.85298969056E+03  0.90331537075E+02 0.  0.
         23    2    1    2    0    0  0.39662240053E+03 -0.51391254354E+02 -0.73801889812E+03  0.84464116689E+03  0.93789216808E+02 0.  0.
        -11    1    4    4    0    0  0.87711911966E+02  0.66930373546E+00 -0.24789865854E+03  0.26295925991E+03  0.00000000000E+00 0.  1.
         11    1    4    4    0    0  0.30891048857E+03 -0.52060558089E+02 -0.49012023959E+03  0.58168190698E+03  0.00000000000E+00 0. -1.
        -13    1    3    3    0    0 -0.30077731692E+03  0.71653827362E+02 -0.73418978915E+03  0.79664039054E+03  0.00000000000E+00 0.  1.
         13    1    3    3    0    0 -0.36249907872E+02  0.18616803694E+02 -0.38917893215E+02  0.56349300020E+02  0.00000000000E+00 0. -1.
         21    1    1    2  502  501 -0.59595175742E+02 -0.38879376702E+02 -0.42632485467E+02  0.82950103807E+02  0.00000000000E+00 0. -1.
<scales pt_clust_5="13000.00000" pt_clust_6="13000.00000" pt_clust_7="13000.00000" pt_clust_8="13000.00000" pt_clust_9="71.15610"></scales>
<clustering>
<clus scale="   71.156">  1  9  2 -1</clus>
<clus scale="   90.332">  7  8 -1 -1</clus>
<clus scale="   93.789">  5  6 -1 -1</clus>
<clus scale="  380.820">  2  7  1 -1</clus>
<clus scale="   71.156">  1  5  2 -1</clus>
</clustering>
</event>
<event>
 9    1  0.1782981E-005  0.1154700E+03  0.7546771E-02  0.1253589E+00
         -1   -1    0    0    0  501 -0.00000000000E+00  0.00000000000E+00  0.58589463580E+02  0.58589463580E+02  0.00000000000E+00 0.  1.
          1   -1    0    0  502    0  0.00000000000E+00 -0.00000000000E+00 -0.32611927243E+03  0.32611927243E+03  0.00000000000E+00 0. -1.
         23    2    1    2    0    0 -0.33798270770E+02  0.55394963201E+02 -0.59489516124E+02  0.12923330009E+03  0.94611406653E+02 0.  0.
         23    2    1    2    0    0  0.56166573083E+02 -0.43327080493E+02 -0.12162495938E+03  0.16539999765E+03  0.86790602279E+02 0.  0.
        -11    1    4    4    0    0 -0.20440717547E+02 -0.23163243707E+02 -0.49030992825E+02  0.57951678580E+02  0.00000000000E+00 0. -1.
         11    1    4    4    0    0  0.76607290630E+02 -0.20163836786E+02 -0.72593966555E+02  0.10744831907E+03  0.00000000000E+00 0.  1.
        -13    1    3    3    0    0 -0.60811058459E+02  0.30689813304E+02 -0.11827183585E+02  0.69135604019E+02  0.00000000000E+00 0. -1.
         13    1    3    3    0    0  0.27012787689E+02  0.24705149896E+02 -0.47662332539E+02  0.60097696072E+02  0.00000000000E+00 0.  1.
         21    1    1    2  502  501 -0.22368302313E+02 -0.12067882707E+02 -0.86415333348E+02  0.90075438267E+02  0.00000000000E+00 0. -1.
<scales pt_clust_5="13000.00000" pt_clust_6="13000.00000" pt_clust_7="13000.00000" pt_clust_8="13000.00000" pt_clust_9="25.41603"></scales>
<clustering>
<clus scale="   25.416">  2  9  1 -1</clus>
<clus scale="   86.791">  5  6 -1 -1</clus>
<clus scale="   94.611">  7  8 -1 -1</clus>
<clus scale="  109.154">  2  5  1 -1</clus>
<clus scale="   25.416">  2  5  1 -1</clus>
</clustering>
</event>
<event>
 9    1  0.1782981E-005  0.9371840E+02  0.7546771E-02  0.1294741E+00
          2   -1    0    0  502    0  0.00000000000E+00  0.00000000000E+00  0.19491894328E+03  0.19491894328E+03  0.00000000000E+00 0. -1.
         -2   -1    0    0    0  501 -0.00000000000E+00 -0.00000000000E+00 -0.59937459262E+02  0.59937459262E+02  0.00000000000E+00 0.  1.
         23    2    1    2    0    0  0.30101427005E+01 -0.41772282961E+01  0.43040195799E+02  0.10145315822E+03  0.91726630070E+02 0.  0.
         23    2    1    2    0    0 -0.24880801808E+02 -0.10031966334E+02  0.70543643949E+02  0.11966771227E+03  0.92866899444E+02 0.  0.
        -11    1    3    3    0    0 -0.21623019523E+02 -0.40971265077E+02  0.13605384892E+02  0.48283600046E+02  0.00000000000E+00 0.  1.
         11    1    3    3    0    0  0.24633162223E+02  0.36794036781E+02  0.29434810907E+02  0.53169558179E+02  0.00000000000E+00 0. -1.
        -13    1    4    4    0    0 -0.51915286624E+02 -0.31037915342E+02  0.33172619326E+02  0.68985301673E+02  0.00000000000E+00 0.  1.
         13    1    4    4    0    0  0.27034484816E+02  0.21005949008E+02  0.37371024623E+02  0.50682410601E+02  0.00000000000E+00 0. -1.
         21    1    1    2  502  501  0.21870659107E+02  0.14209194631E+02  0.21397644268E+02  0.33735532041E+02  0.00000000000E+00 0. -1.
<scales pt_clust_5="13000.00000" pt_clust_6="13000.00000" pt_clust_7="13000.00000" pt_clust_8="13000.00000" pt_clust_9="26.08116"></scales>
<clustering>
<clus scale="   26.081">  1  9  2 -1</clus>
<clus scale="   91.727">  5  6 -1 -1</clus>
<clus scale="   92.589">  2  5  1 -1</clus>
<clus scale="   92.867">  7  8 -1 -1</clus>
<clus scale="   26.081">  1  5  2 -1</clus>
</clustering>
</event>
<event>
 9    1  0.1782981E-005  0.2383414E+03  0.7546771E-02  0.1121014E+00
         -1   -1    0    0    0  501 -0.00000000000E+00  0.00000000000E+00  0.12233721515E+03  0.12233721515E+03  0.00000000000E+00 0.  1.
          1   -1    0    0  502    0  0.00000000000E+00 -0.00000000000E+00 -0.10870803269E+04  0.10870803269E+04  0.00000000000E+00 0. -1.
         23    2    1    2    0    0 -0.22066508223E+03  0.52814391089E+02 -0.50040136249E+02  0.24944883573E+03  0.90764905066E+02 0.  0.
         23    2    1    2    0    0  0.19715891779E+03  0.17384383105E+02 -0.69918199312E+03  0.73208781305E+03  0.89012644501E+02 0.  0.
        -13    1    3    3    0    0 -0.51760779048E+02 -0.11801565423E+01  0.24273401700E+02  0.57181894400E+02  0.00000000000E+00 0. -1.
         13    1    3    3    0    0 -0.16890430318E+03  0.53994547631E+02 -0.74313537949E+02  0.19226694133E+03  0.00000000000E+00 0.  1.
        -13    1    4    4    0    0  0.34487790511E+02  0.33207673984E+02 -0.97762336128E+02  0.10885601348E+03  0.00000000000E+00 0.  1.
         13    1    4    4    0    0  0.16267112728E+03 -0.15823290879E+02 -0.60141965699E+03  0.62323179957E+03  0.00000000000E+00 0. -1.
         21    1    1    2  502  501  0.23506164438E+02 -0.70198774194E+02 -0.21552098235E+03  0.22788089322E+03  0.00000000000E+00 0.  1.
<scales pt_clust_5="13000.00000" pt_clust_6="13000.00000" pt_clust_7="13000.00000" pt_clust_8="13000.00000" pt_clust_9="74.02978"></scales>
<clustering>
<clus scale="   74.030">  2  9  1 -1</clus>
<clus scale="   89.013">  7  8 -1 -1</clus>
<clus scale="   90.765">  5  6 -1 -1</clus>
<clus scale="  237.680">  2  7  1 -1</clus>
<clus scale="   74.030">  2  5  1 -1</clus>
</clustering>
</event>
<event>
 9    1  0.1782981E-005  0.2328170E+03  0.7546771E-02  0.1124846E+00
          3   -1    0    0  502    0  0.00000000000E+00  0.00000000000E+00  0.20820121848E+03  0.20820121848E+03  0.00000000000E+00 0. -1.
         -3   -1    0    0    0  501 -0.00000000000E+00 -0.00000000000E+00 -0.42021784316E+03  0.42021784316E+03  0.00000000000E+00 0.  1.
         23    2    1    2    0    0  0.21561728683E+03  0.22204757040E+02 -0.17608084300E+03  0.29487808066E+03  0.94682382565E+02 0.  0.
         23    2    1    2    0    0 -0.20439819787E+03 -0.40346633409E+02 -0.11247547261E+03  0.25408457831E+03  0.92205026314E+02 0.  0.
        -13    1    3    3    0    0  0.18636788475E+03 -0.17483721870E+02 -0.14172123196E+03  0.23478410633E+03  0.00000000000E+00 0.  1.
         13    1    3    3    0    0  0.29249402079E+02  0.39688478910E+02 -0.34359611045E+02  0.60093974335E+02  0.00000000000E+00 0. -1.
        -13    1    4    4    0    0 -0.18425262534E+03 -0.52170186397E+01 -0.75305249710E+02  0.19911586542E+03  0.00000000000E+00 0. -1.
         13    1    4    4    0    0 -0.20145572527E+02 -0.35129614769E+02 -0.37170222904E+02  0.54968712893E+02  0.00000000000E+00 0.  1.
         21    1    1    2  502  501 -0.11219088967E+02  0.18141876369E+02  0.76539690935E+02  0.79456402661E+02  0.00000000000E+00 0. -1.
<scales pt_clust_5="13000.00000" pt_clust_6="13000.00000" pt_clust_7="13000.00000" pt_clust_8="13000.00000" pt_clust_9="21.33063"></scales>
<clustering>
<clus scale="   21.331">  1  9  2 -1</clus>
<clus scale="   92.205">  7  8 -1 -1</clus>
<clus scale="   94.682">  5  6 -1 -1</clus>
<clus scale="  231.821">  1  7  2 -1</clus>
<clus scale="   21.331">  1  5  2 -1</clus>
</clustering>
</event>
<event>
 9    1  0.1782981E-005  0.1393996E+03  0.7546771E-02  0.1227230E+00
         -2   -1    0    0    0  501 -0.00000000000E+00  0.00000000000E+00  0.32143823865E+03  0.32143823865E+03  0.00000000000E+00 0.  1.
          2   -1    0    0  502    0  0.00000000000E+00 -0.00000000000E+00 -0.37475396645E+03  0.37475396645E+03  0.00000000000E+00 0. -1.
         23    2    1    2    0    0  0.40694150995E+02  0.28574356767E+02  0.16137287071E+03  0.19303507972E+03  0.93535184881E+02 0.  0.
         23    2    1    2    0    0  0.14852665238E+02  0.64160501152E+02  0.11216065808E+03  0.15889612092E+03  0.91273174858E+02 0.  0.
        -11    1    3    3    0    0  0.64451909102E+02  0.15754612581E+02  0.14946429378E+03  0.16352929866E+03  0.00000000000E+00 0.  1.
         11    1    3    3    0    0 -0.23757758107E+02  0.12819744186E+02  0.11908576925E+02  0.29505781055E+02  0.00000000000E+00 0. -1.
        -13    1    4    4    0    0  0.46210423207E+02  0.27907543126E+02  0.25146818757E+02  0.59553309479E+02  0.00000000000E+00 0.  1.
         13    1    4    4    0    0 -0.31357757969E+02  0.36252958026E+02  0.87013839326E+02  0.99342811440E+02  0.00000000000E+00 0. -1.
         21    1    1    2  502  501 -0.55546816232E+02 -0.92734857919E+02 -0.32684925659E+03  0.34426100447E+03  0.00000000000E+00 0. -1.
<scales pt_clust_5="13000.00000" pt_clust_6="13000.00000" pt_clust_7="13000.00000" pt_clust_8="13000.00000" pt_clust_9="105.36342"></scales>
<clustering>
<clus scale="   91.273">  7  8 -1 -1</clus>
<clus scale="   93.535">  5  6 -1 -1</clus>
<clus scale="  105.931">  1  5  2 -1</clus>
<clus scale="  105.363">  2  9  1 -1</clus>
<clus scale="  105.363">  2  5  1 -1</clus>
</clustering>
</event>
<event>
 9    1  0.1782981E-005  0.9980684E+02  0.7546771E-02  0.1282754E+00
         -1   -1    0    0    0  501 -0.00000000000E+00  0.00000000000E+00  0.41151630968E+03  0.41151630968E+03  0.00000000000E+00 0.  1.
          1   -1    0    0  502    0  0.00000000000E+00 -0.00000000000E+00 -0.41394550436E+02  0.41394550436E+02  0.00000000000E+00 0. -1.
         23    2    1    2    0    0 -0.20856514138E+02  0.39274168854E+02  0.26895859508E+03  0.28681435447E+03  0.89141985290E+02 0.  0.
         23    2    1    2    0    0 -0.35042472717E+01 -0.19088189198E+02  0.93680973482E+02  0.13358645108E+03  0.93233987379E+02 0.  0.
        -11    1    4    4    0    0  0.34400696329E+02  0.30615133808E+01  0.80740521609E+02  0.87816926625E+02  0.00000000000E+00 0.  1.
         11    1    4    4    0    0 -0.37904943601E+02 -0.22149702579E+02  0.12940451873E+02  0.45769524450E+02  0.00000000000E+00 0. -1.
        -13    1    3    3    0    0  0.16927792997E+02  0.44043980848E+02  0.21883247211E+03  0.22386172803E+03  0.00000000000E+00 0.  1.
         13    1    3    3    0    0 -0.37784307136E+02 -0.47698119942E+01  0.50126122964E+02  0.62952626439E+02  0.00000000000E+00 0. -1.
         21    1    1    2  502  501  0.24360761410E+02 -0.20185979655E+02  0.74821906894E+01  0.32510054577E+02  0.00000000000E+00 0. -1.
<scales pt_clust_5="13000.00000" pt_clust_6="13000.00000" pt_clust_7="13000.00000" pt_clust_8="13000.00000" pt_clust_9="31.63733"></scales>
<clustering>
<clus scale="   31.637">  2  9  1 -1</clus>
<clus scale="   89.142">  7  8 -1 -1</clus>
<clus scale="   93.234">  5  6 -1 -1</clus>
<clus scale="   95.995">  1  7  2 -1</clus>
<clus scale="   31.637">  2  5  1 -1</clus>
</clustering>
</event>
<event>
 9    1  0.1782981E-005  0.9924444E+02  0.7546771E-02  0.1282239E+00
         -1   -1    0    0    0  501 -0.00000000000E+00  0.00000000000E+00  0.27385545071E+03  0.27385545071E+03  0.00000000000E+00 0.  1.
          1   -1    0    0  502    0  0.00000000000E+00 -0.00000000000E+00 -0.43214873854E+03  0.43214873854E+03  0.00000000000E+00 0. -1.
         23    2    1    2    0    0 -0.18152379143E+02 -0.36514700814E+02  0.24993164019E+03  0.26891968078E+03  0.90493854486E+02 0.  0.
         23    2    1    2    0    0  0.14867800474E+02 -0.21704540299E+02 -0.29220001785E+03  0.30723055869E+03  0.91201026319E+02 0.  0.
        -13    1    3    3    0    0  0.18154037108E+02 -0.51648052855E+02  0.10101817341E+03  0.11489891986E+03  0.00000000000E+00 0.  1.
         13    1    3    3    0    0 -0.36306416251E+02  0.15133352041E+02  0.14891346678E+03  0.15402076092E+03  0.00000000000E+00 0. -1.
        -13    1    4    4    0    0  0.72405654336E+01 -0.54580099202E+02 -0.22963830499E+03  0.23614648872E+03  0.00000000000E+00 0.  1.
         13    1    4    4    0    0  0.76272350399E+01  0.32875558903E+02 -0.62561712857E+02  0.71084069968E+02  0.00000000000E+00 0. -1.
         21    1    1    2  502  501  0.32845786695E+01  0.58219241114E+02 -0.11602491017E+03  0.12985394978E+03  0.00000000000E+00 0. -1.
<scales pt_clust_5="13000.00000" pt_clust_6="13000.00000" pt_clust_7="13000.00000" pt_clust_8="13000.00000" pt_clust_9="58.31182"></scales>
<clustering>
<clus scale="   58.312">  2  9  1 -1</clus>
<clus scale="   90.494">  5  6 -1 -1</clus>
<clus scale="   91.201">  7  8 -1 -1</clus>
<clus scale="   98.595">  1  5  2 -1</clus>
<clus scale="   58.312">  2  5  1 -1</clus>
</clustering>
</event>
<event>
 9    1  0.1782981E-005  0.1076619E+03  0.7546771E-02  0.1265209E+00
         -1   -1    0    0    0  501 -0.00000000000E+00  0.00000000000E+00  0.27199895165E+03  0.27199895165E+03  0.00000000000E+00 0.  1.
          1   -1    0    0  502    0  0.00000000000E+00 -0.00000000000E+00 -0.11038190425E+03  0.11038190425E+03  0.00000000000E+00 0. -1.
         23    2    1    2    0    0  0.63481883379E+02 -0.20704513301E+02  0.20107408123E+03  0.23061183650E+03  0.91062652076E+02 0.  0.
         23    2    1    2    0    0 -0.10686379658E+02  0.21286804713E+02 -0.29181171168E+02  0.97979637273E+02  0.90449664479E+02 0.  0.
        -11    1    3    3    0    0  0.86143165768E+02 -0.21290671949E+02  0.14329491336E+03  0.16854486024E+03  0.00000000000E+00 0.  1.
         11    1    3    3    0    0 -0.22661282389E+02  0.58615864781E+00  0.57779167874E+02  0.62066976257E+02  0.00000000000E+00 0. -1.
        -13    1    4    4    0    0 -0.21947029444E+02 -0.24221402540E+02 -0.38162230114E+02  0.50246435194E+02  0.00000000000E+00 0.  1.
         13    1    4    4    0    0  0.11260649786E+02  0.45508207253E+02  0.89810589464E+01  0.47733202080E+02  0.00000000000E+00 0. -1.
         21    1    1    2  502  501 -0.52795503722E+02 -0.58229141185E+00 -0.10275862664E+02  0.53789382131E+02  0.00000000000E+00 0. -1.
<scales pt_clust_5="13000.00000" pt_clust_6="13000.00000" pt_clust_7="13000.00000" pt_clust_8="13000.00000" pt_clust_9="52.79871"></scales>
<clustering>
<clus scale="   52.799">  2  9  1 -1</clus>
<clus scale="   90.450">  7  8 -1 -1</clus>
<clus scale="   91.063">  5  6 -1 -1</clus>
<clus scale="  107.144">  2  7  1 -1</clus>
<clus scale="   52.799">  2  5  1 -1</clus>
</clustering>
</event>
<event>
 9    1  0.1782981E-005  0.1144714E+03  0.7546771E-02  0.1254259E+00
         -2   -1    0    0    0  501 -0.00000000000E+00  0.00000000000E+00  0.67059064759E+02  0.67059064759E+02  0.00000000000E+00 0.  1.
          2   -1    0    0  502    0  0.00000000000E+00 -0.00000000000E+00 -0.46685730341E+03  0.46685730341E+03  0.00000000000E+00 0. -1.
         23    2    1    2    0    0  0.62050483523E+02 -0.10545149206E+01 -0.58554214281E+02  0.12067239258E+03  0.85333790572E+02 0.  0.
         23    2    1    2    0    0 -0.73830891909E+02  0.45962482358E+02 -0.81910231526E+02  0.14978711067E+03  0.90351215326E+02 0.  0.
        -11    1    3    3    0    0  0.41343244865E+02 -0.41014258975E+02 -0.45223512339E+02  0.73733299149E+02  0.00000000000E+00 0. -1.
         11    1    3    3    0    0  0.20707238658E+02  0.39959744054E+02 -0.13330701943E+02  0.46939093429E+02  0.00000000000E+00 0.  1.
        -13    1    4    4    0    0 -0.93372133508E+02  0.25091829696E+02 -0.60294824435E+02  0.11394481597E+03  0.00000000000E+00 0.  1.
         13    1    4    4    0    0  0.19541241599E+02  0.20870652662E+02 -0.21615407091E+02  0.35842294702E+02  0.00000000000E+00 0. -1.
         21    1    1    2  502  501  0.11780408386E+02 -0.44907967437E+02 -0.25933379284E+03  0.26345686491E+03  0.00000000000E+00 0. -1.
<scales pt_clust_5="13000.00000" pt_clust_6="13000.00000" pt_clust_7="13000.00000" pt_clust_8="13000.00000" pt_clust_9="46.42740"></scales>
<clustering>
<clus scale="   46.427">  2  9  1 -1</clus>
<clus scale="   85.334">  5  6 -1 -1</clus>
<clus scale="   90.351">  7  8 -1 -1</clus>
<clus scale="  110.554">  1  5  2 -1</clus>
<clus scale="   46.427">  2  5  1 -1</clus>
</clustering>
</event>
<event>
 9    1  0.1782981E-005  0.1816527E+03  0.7546771E-02  0.1186565E+00
         -2   -1    0    0    0  501 -0.00000000000E+00  0.00000000000E+00  0.35882024599E+02  0.35882024599E+02  0.00000000000E+00 0.  1.
          2   -1    0    0  502    0  0.00000000000E+00 -0.00000000000E+00 -0.15234045476E+04  0.15234045476E+04  0.00000000000E+00 0. -1.
         23    2    1    2    0    0 -0.24154642708E+02 -0.70082890057E+02 -0.35978736799E+03  0.37760679671E+03  0.87435030225E+02 0.  0.
         23    2    1    2    0    0  0.16804088978E+03  0.43016385029E+01 -0.52400462702E+03  0.55756361997E+03  0.89666584908E+02 0.  0.
        -11    1    4    4    0    0  0.79947201257E+02 -0.27626932751E+02 -0.15211434312E+03  0.17405049780E+03  0.00000000000E+00 0.  1.
         11    1    4    4    0    0  0.88093688520E+02  0.31928571253E+02 -0.37189028390E+03  0.38351312217E+03  0.00000000000E+00 0. -1.
        -13    1    3    3    0    0  0.25355196265E+02 -0.56733373277E+02 -0.16952380339E+03  0.18055437280E+03  0.00000000000E+00 0.  1.
         13    1    3    3    0    0 -0.49509838973E+02 -0.13349516781E+02 -0.19026356460E+03  0.19705242391E+03  0.00000000000E+00 0. -1.
         21    1    1    2  502  501 -0.14388624707E+03  0.65781251554E+02 -0.60373052799E+03  0.62411615552E+03  0.00000000000E+00 0. -1.
<scales pt_clust_5="13000.00000" pt_clust_6="13000.00000" pt_clust_7="13000.00000" pt_clust_8="13000.00000" pt_clust_9="157.97981"></scales>
<clustering>
<clus scale="   87.435">  7  8 -1 -1</clus>
<clus scale="   89.667">  5  6 -1 -1</clus>
<clus scale="  114.630">  1  7  2 -1</clus>
<clus scale="  157.980">  2  9  1 -1</clus>
<clus scale="  157.980">  2  5  1 -1</clus>
</clustering>
</event>
<event>
 9    1  0.1782981E-005  0.9918637E+02  0.7546771E-02  0.1284598E+00
         -1   -1    0    0    0  501 -0.00000000000E+00  0.00000000000E+00  0.35011501921E+03  0.35011501921E+03  0.00000000000E+00 0.  1.
          1   -1    0    0  502    0  0.00000000000E+00 -0.00000000000E+00 -0.44284074548E+02  0.44284074548E+02  0.00000000000E+00 0. -1.
         23    2    1    2    0    0 -0.19948226394E+01 -0.54143090107E+00  0.19228840224E+03  0.21456533799E+03  0.95179736105E+02 0.  0.
         23    2    1    2    0    0  0.39311481373E+02 -0.73598869965E+00  0.62521969774E+02  0.11660983899E+03  0.90238149345E+02 0.  0.
        -11    1    3    3    0    0 -0.12517039255E+02  0.27548726550E+02  0.17937204032E+03  0.18190639751E+03  0.00000000000E+00 0.  1.
         11    1    3    3    0    0  0.10522216615E+02 -0.28090157451E+02  0.12916361926E+02  0.32658940484E+02  0.00000000000E+00 0. -1.
        -13    1    4    4    0    0  0.61978180099E+02  0.14839565217E+02  0.21572695442E+02  0.67282157314E+02  0.00000000000E+00 0.  1.
         13    1    4    4    0    0 -0.22666698726E+02 -0.15575553917E+02  0.40949274332E+02  0.49327681674E+02  0.00000000000E+00 0. -1.
         21    1    1    2  502  501 -0.37316658733E+02  0.12774196007E+01  0.51020572645E+02  0.63223916779E+02  0.00000000000E+00 0.  1.
<scales pt_clust_5="13000.00000" pt_clust_6="13000.00000" pt_clust_7="13000.00000" pt_clust_8="13000.00000" pt_clust_9="37.33852"></scales>
<clustering>
<clus scale="   37.339">  1  9  2 -1</clus>
<clus scale="   90.238">  7  8 -1 -1</clus>
<clus scale="   94.455">  2  7  1 -1</clus>
<clus scale="   95.180">  5  6 -1 -1</clus>
<clus scale="   94.455">  2  5  1 -1</clus>
</clustering>
</event>
<event>
 9    1  0.1782981E-005  0.1457614E+03  0.7546771E-02  0.1206555E+00
          2   -1    0    0  502    0  0.00000000000E+00  0.00000000000E+00  0.29353023891E+03  0.29353023891E+03  0.00000000000E+00 0. -1.
         -2   -1    0    0    0  501 -0.00000000000E+00 -0.00000000000E+00 -0.92401118934E+02  0.92401118934E+02  0.00000000000E+00 0.  1.
         23    2    1    2    0    0  0.66976490434E+02  0.10474073242E+03  0.45265020567E+02  0.15828358670E+03  0.86880955529E+02 0.  0.
         23    2    1    2    0    0 -0.45880540836E+02 -0.99032071072E+02  0.14607308763E+03  0.20370008199E+03  0.90796483121E+02 0.  0.
        -11    1    4    4    0    0 -0.24205589701E+02  0.13048220515E+02  0.33950667496E+02  0.43689981172E+02  0.00000000000E+00 0.  1.
         11    1    4    4    0    0 -0.21674951135E+02 -0.11208029159E+03  0.11212242013E+03  0.16001010082E+03  0.00000000000E+00 0. -1.
        -13    1    3    3    0    0  0.66186976740E+02  0.59158233652E+02 -0.68580344502E+01  0.89036201263E+02  0.00000000000E+00 0.  1.
         13    1    3    3    0    0  0.78951369364E+00  0.45582498767E+02  0.52123055017E+02  0.69247385438E+02  0.00000000000E+00 0. -1.
         21    1    1    2  502  501 -0.21095949598E+02 -0.57086613472E+01  0.97910117813E+01  0.23947689148E+02  0.00000000000E+00 0.  1.
<scales pt_clust_5="13000.00000" pt_clust_6="13000.00000" pt_clust_7="13000.00000" pt_clust_8="13000.00000" pt_clust_9="21.85470"></scales>
<clustering>
<clus scale="   21.855">  2  9  1 -1</clus>
<clus scale="   86.881">  7  8 -1 -1</clus>
<clus scale="   90.796">  5  6 -1 -1</clus>
<clus scale="  143.355">  2  7  1 -1</clus>
<clus scale="  145.761">  1  5  2 -1</clus>
</clustering>
</event>
<event>
 9    1  0.1782981E-005  0.1714953E+03  0.7546771E-02  0.1194756E+00
         -2   -1    0    0    0  501 -0.00000000000E+00  0.00000000000E+00  0.57993201265E+03  0.57993201265E+03  0.00000000000E+00 0.  1.
          2   -1    0    0  502    0  0.00000000000E+00 -0.00000000000E+00 -0.14654465758E+03  0.14654465758E+03  0.00000000000E+00 0. -1.
         23    2    1    2    0    0 -0.15907547722E+02 -0.67604420905E+02  0.38537335537E+03  0.40179623488E+03  0.90023238878E+02 0.  0.
         23    2    1    2    0    0  0.12212060066E+03 -0.48695962340E+02  0.25177745719E+02  0.16553117756E+03  0.97375120084E+02 0.  0.
        -13    1    3    3    0    0  0.27833205774E+02 -0.49140414932E+02  0.12550318935E+03  0.13762455544E+03  0.00000000000E+00 0. -1.
         13    1    3    3    0    0 -0.43740753496E+02 -0.18464005973E+02  0.25987016601E+03  0.26417167944E+03  0.00000000000E+00 0.  1.
        -13    1    4    4    0    0  0.10110747595E+03 -0.77661694550E+02  0.23974252179E+02  0.12972596217E+03  0.00000000000E+00 0.  1.
         13    1    4    4    0    0  0.21013124714E+02  0.28965732210E+02  0.12034935402E+01  0.35805215394E+02  0.00000000000E+00 0. -1.
         21    1    1    2  502  501 -0.10621305294E+03  0.11630038325E+03  0.22836253991E+02  0.15914925779E+03  0.00000000000E+00 0. -1.
<scales pt_clust_5="13000.00000" pt_clust_6="13000.00000" pt_clust_7="13000.00000" pt_clust_8="13000.00000" pt_clust_9="141.16907"></scales>
<clustering>
<clus scale="   90.023">  5  6 -1 -1</clus>
<clus scale="   97.375">  7  8 -1 -1</clus>
<clus scale="  113.700">  1  5  2 -1</clus>
<clus scale="  141.169">  1  9  2 -1</clus>
<clus scale="  171.495">  2  5  1 -1</clus>
</clustering>
</event>
<event>
 9    1  0.1782981E-005  0.1093545E+03  0.7546771E-02  0.1261799E+00
         -1   -1    0    0    0  501 -0.00000000000E+00  0.00000000000E+00  0.86012484075E+02  0.86012484075E+02  0.00000000000E+00 0.  1.
          1   -1    0    0  502    0  0.00000000000E+00 -0.00000000000E+00 -0.44232363978E+03  0.44232363978E+03  0.00000000000E+00 0. -1.
         23    2    1    2    0    0 -0.65518888398E+02  0.32558837796E+02  0.98394681825E+01  0.11722605098E+03  0.91062227290E+02 0.  0.
         23    2    1    2    0    0 -0.16222278013E+00 -0.48172499915E+02 -0.13188519861E+03  0.16731080238E+03  0.90986718359E+02 0.  0.
        -11    1    3    3    0    0 -0.38500857308E+01 -0.25081812161E+02 -0.14690954170E+02  0.29321401669E+02  0.00000000000E+00 0. -1.
         11    1    3    3    0    0 -0.61668802668E+02  0.57640649956E+02  0.24530422353E+02  0.87904649312E+02  0.00000000000E+00 0.  1.
        -13    1    4    4    0    0 -0.25055856552E+02 -0.13276763652E+01 -0.10477322069E+03  0.10773572502E+03  0.00000000000E+00 0.  1.
         13    1    4    4    0    0  0.24893633772E+02 -0.46844823550E+02 -0.27111977914E+02  0.59575077358E+02  0.00000000000E+00 0. -1.
         21    1    1    2  502  501  0.65681111178E+02  0.15613662119E+02 -0.23426542528E+03  0.24379927049E+03  0.00000000000E+00 0. -1.
<scales pt_clust_5="13000.00000" pt_clust_6="13000.00000" pt_clust_7="13000.00000" pt_clust_8="13000.00000" pt_clust_9="67.51144"></scales>
<clustering>
<clus scale="   67.511">  2  9  1 -1</clus>
<clus scale="   90.987">  7  8 -1 -1</clus>
<clus scale="   91.062">  5  6 -1 -1</clus>
<clus scale="  109.292">  2  7  1 -1</clus>
<clus scale="   67.511">  2  5  1 -1</clus>
</clustering>
</event>
<event>
 9    1  0.1782981E-005  0.1436779E+03  0.7546771E-02  0.1226671E+00
         -2   -1    0    0    0  501 -0.00000000000E+00  0.00000000000E+00  0.66667665699E+02  0.66667665699E+02  0.00000000000E+00 0.  1.
          2   -1    0    0  502    0  0.00000000000E+00 -0.00000000000E+00 -0.68711528195E+03  0.68711528195E+03  0.00000000000E+00 0. -1.
         23    2    1    2    0    0 -0.59321413355E+02  0.96814832636E+02 -0.62825478382E+02  0.15922127667E+03  0.92261759735E+02 0.  0.
         23    2    1    2    0    0  0.44712094323E+02  0.88587638853E+01 -0.22842979977E+03  0.24851552281E+03  0.86614909661E+02 0.  0.
        -11    1    4    4    0    0 -0.17415402838E+02  0.27858853655E+02 -0.80663366132E+02  0.87097592496E+02  0.00000000000E+00 0.  1.
         11    1    4    4    0    0  0.62127497162E+02 -0.19000089770E+02 -0.14776643364E+03  0.16141793031E+03  0.00000000000E+00 0. -1.
        -11    1    3    3    0    0 -0.26503172234E+01  0.76776057172E+02 -0.69207743341E+01  0.77132899943E+02  0.00000000000E+00 0.  1.
         11    1    3    3    0    0 -0.56671096132E+02  0.20038775464E+02 -0.55904704048E+02  0.82088376726E+02  0.00000000000E+00 0. -1.
         21    1    1    2  502  501  0.14609319032E+02 -0.10567359652E+03 -0.32919233810E+03  0.34604614818E+03  0.00000000000E+00 0. -1.
<scales pt_clust_5="13000.00000" pt_clust_6="13000.00000" pt_clust_7="13000.00000" pt_clust_8="13000.00000" pt_clust_9="110.14133"></scales>
<clustering>
<clus scale="   86.615">  5  6 -1 -1</clus>
<clus scale="   92.262">  7  8 -1 -1</clus>
<clus scale="   97.876">  2  5  1 -1</clus>
<clus scale="  110.141">  2  9  1 -1</clus>
<clus scale="   97.876">  2  5  1 -1</clus>
</clustering>
</event>
<event>
 9    1  0.1782981E-005  0.1035662E+03  0.7546771E-02  0.1275066E+00
         -3   -1    0    0    0  501 -0.00000000000E+00  0.00000000000E+00  0.16630255979E+03  0.16630255979E+03  0.00000000000E+00 0.  1.
          3   -1    0    0  502    0  0.00000000000E+00 -0.00000000000E+00 -0.13926614116E+03  0.13926614116E+03  0.00000000000E+00 0. -1.
         23    2    1    2    0    0 -0.23309951454E+01 -0.44562915908E+02  0.11145019909E+03  0.15188551312E+03  0.93041792796E+02 0.  0.
         23    2    1    2    0    0 -0.17417983494E+02  0.49151918907E+02 -0.51152426483E+02  0.11472938475E+03  0.88470128910E+02 0.  0.
        -11    1    3    3    0    0  0.38465301674E+02 -0.10836780343E+02  0.16616264860E+02  0.43279504376E+02  0.00000000000E+00 0. -1.
         11    1    3    3    0    0 -0.40796296820E+02 -0.33726135565E+02  0.94833934230E+02  0.10860600875E+03  0.00000000000E+00 0.  1.
        -11    1    4    4    0    0  0.24742199895E+02  0.34368690553E+02 -0.55533667096E+02  0.69838181012E+02  0.00000000000E+00 0. -1.
         11    1    4    4    0    0 -0.42160183389E+02  0.14783228355E+02  0.43812406128E+01  0.44891203741E+02  0.00000000000E+00 0.  1.
         21    1    1    2  502  501  0.19748978639E+02 -0.45890029991E+01 -0.33261353980E+02  0.38953803080E+02  0.00000000000E+00 0. -1.
<scales pt_clust_5="13000.00000" pt_clust_6="13000.00000" pt_clust_7="13000.00000" pt_clust_8="13000.00000" pt_clust_9="20.27514"></scales>
<clustering>
<clus scale="   20.275">  2  9  1 -1</clus>
<clus scale="   88.470">  7  8 -1 -1</clus>
<clus scale="   93.042">  5  6 -1 -1</clus>
<clus scale="   99.479">  2  7  1 -1</clus>
<clus scale="   20.275">  2  5  1 -1</clus>
</clustering>
</event>
<event>
 9    1  0.1782981E-005  0.9764377E+02  0.7546771E-02  0.1287409E+00
         -1   -1    0    0    0  501 -0.00000000000E+00  0.00000000000E+00  0.10814235689E+03  0.10814235689E+03  0.00000000000E+00 0.  1.
          1   -1    0    0  502    0  0.00000000000E+00 -0.00000000000E+00 -0.37122609482E+03  0.37122609482E+03  0.00000000000E+00 0. -1.
         23    2    1    2    0    0  0.27647804390E+02 -0.18376274849E+02  0.74589661278E+02  0.12045689236E+03  0.88567244404E+02 0.  0.
         23    2    1    2    0    0 -0.13724342663E+02 -0.50737521564E+01 -0.24468751819E+03  0.26200882141E+03  0.92533995884E+02 0.  0.
        -11    1    3    3    0    0 -0.90254728840E+01 -0.25479132805E+02 -0.93328658541E+01  0.28596289171E+02  0.00000000000E+00 0.  1.
         11    1    3    3    0    0  0.36673277274E+02  0.71028579559E+01  0.83922527132E+02  0.91860603185E+02  0.00000000000E+00 0. -1.
        -11    1    4    4    0    0 -0.49296943884E+02  0.15587149152E+02 -0.11858474389E+03  0.12936571948E+03  0.00000000000E+00 0.  1.
         11    1    4    4    0    0  0.35572601222E+02 -0.20660901308E+02 -0.12610277430E+03  0.13264310192E+03  0.00000000000E+00 0. -1.
         21    1    1    2  502  501 -0.13923461727E+02  0.23450027006E+02 -0.92985881018E+02  0.96902737948E+02  0.00000000000E+00 0.  1.
<scales pt_clust_5="13000.00000" pt_clust_6="13000.00000" pt_clust_7="13000.00000" pt_clust_8="13000.00000" pt_clust_9="27.27208"></scales>
<clustering>
<clus scale="   27.272">  2  9  1 -1</clus>
<clus scale="   88.567">  5  6 -1 -1</clus>
<clus scale="   92.534">  7  8 -1 -1</clus>
<clus scale="   93.893">  1  5  2 -1</clus>
<clus scale="   27.272">  2  5  1 -1</clus>
</clustering>
</event>
<event>
 9    1  0.1782981E-005  0.1237600E+03  0.7546771E-02  0.1237595E+00
         -1   -1    0    0    0  501 -0.00000000000E+00  0.00000000000E+00  0.58866580151E+03  0.58866580151E+03  0.00000000000E+00 0.  1.
          1   -1    0    0  502    0  0.00000000000E+00 -0.00000000000E+00 -0.46683071540E+02  0.46683071540E+02  0.00000000000E+00 0. -1.
         23    2    1    2    0    0 -0.83296999930E+02  0.24146897257E+02  0.42270032606E+03  0.44119517352E+03  0.91957341406E+02 0.  0.
         23    2    1    2    0    0  0.58018671963E+02 -0.44838948483E+02  0.71740868784E+02  0.13647049218E+03  0.90004140925E+02 0.  0.
        -11    1    4    4    0    0  0.57555089444E+02  0.12258581912E+02  0.39840610631E+02  0.71064304730E+02  0.00000000000E+00 0.  1.
         11    1    4    4    0    0  0.46358251898E+00 -0.57097530395E+02  0.31900258153E+02  0.65406187446E+02  0.00000000000E+00 0. -1.
        -13    1    3    3    0    0 -0.90079438004E+02 -0.67003695490E+01  0.25448451584E+03  0.27003993946E+03  0.00000000000E+00 0.  1.
         13    1    3    3    0    0  0.67824380743E+01  0.30847266806E+02  0.16821581023E+03  0.17115523406E+03  0.00000000000E+00 0. -1.
         21    1    1    2  502  501  0.25278327967E+02  0.20692051226E+02  0.47541535123E+02  0.57683207354E+02  0.00000000000E+00 0. -1.
<scales pt_clust_5="13000.00000" pt_clust_6="13000.00000" pt_clust_7="13000.00000" pt_clust_8="13000.00000" pt_clust_9="32.66734"></scales>
<clustering>
<clus scale="   32.667">  2  9  1 -1</clus>
<clus scale="   90.004">  5  6 -1 -1</clus>
<clus scale="   91.957">  7  8 -1 -1</clus>
<clus scale="  122.316">  2  5  1 -1</clus>
<clus scale="   32.667">  2  5  1 -1</clus>
</clustering>
</event>
<event>
 9    1  0.1782981E-005  0.1004096E+03  0.7546771E-02  0.1280446E+00
         -1   -1    0    0    0  501 -0.00000000000E+00  0.00000000000E+00  0.25009216635E+02  0.25009216635E+02  0.00000000000E+00 0.  1.
          1   -1    0    0  502    0  0.00000000000E+00 -0.00000000000E+00 -0.10283581201E+04  0.10283581201E+04  0.00000000000E+00 0. -1.
         23    2    1    2    0    0  0.15308439122E+02 -0.45034777355E+02 -0.12870225777E+03  0.16398290275E+03  0.89797782605E+02 0.  0.
         23    2    1    2    0    0 -0.57866780886E+02  0.10881164109E+02 -0.52619644076E+03  0.53668735847E+03  0.87656502408E+02 0.  0.
        -11    1    3    3    0    0  0.49674210030E+02 -0.67460738032E+01 -0.65758623405E+02  0.82687563793E+02  0.00000000000E+00 0. -1.
         11    1    3    3    0    0 -0.34365770908E+02 -0.38288703552E+02 -0.62943634363E+02  0.81295338960E+02  0.00000000000E+00 0.  1.
        -13    1    4    4    0    0 -0.31797046431E+02  0.49189696642E+02 -0.32373469229E+03  0.32899062207E+03  0.00000000000E+00 0. -1.
         13    1    4    4    0    0 -0.26069734455E+02 -0.38308532533E+02 -0.20246174846E+03  0.20769673640E+03  0.00000000000E+00 0.  1.
         21    1    1    2  502  501  0.42558341764E+02  0.34153613247E+02 -0.34845020495E+03  0.35269707552E+03  0.00000000000E+00 0. -1.
<scales pt_clust_5="13000.00000" pt_clust_6="13000.00000" pt_clust_7="13000.00000" pt_clust_8="13000.00000" pt_clust_9="54.56814"></scales>
<clustering>
<clus scale="   54.568">  2  9  1 -1</clus>
<clus scale="   87.657">  7  8 -1 -1</clus>
<clus scale="   89.798">  5  6 -1 -1</clus>
<clus scale="   98.499">  2  7  1 -1</clus>
<clus scale="   54.568">  2  5  1 -1</clus>
</clustering>
</event>
<event>
 9    1  0.1782981E-005  0.9315006E+02  0.7546771E-02  0.1296381E+00
          2   -1    0    0  502    0  0.00000000000E+00  0.00000000000E+00  0.67308648325E+03  0.67308648325E+03  0.00000000000E+00 0. -1.
         -2   -1    0    0    0  501 -0.00000000000E+00 -0.00000000000E+00 -0.17729669052E+02  0.17729669052E+02  0.00000000000E+00 0.  1.
         23    2    1    2    0    0  0.27756327829E+02  0.78224191164E+01  0.25911884984E+03  0.27632621905E+03  0.91553246878E+02 0.  0.
         23    2    1    2    0    0  0.13073801961E+01 -0.13447406307E+02  0.27188070211E+03  0.28665774530E+03  0.89838771025E+02 0.  0.
        -11    1    4    4    0    0 -0.14221784653E+00  0.36737889519E+02  0.15776274553E+03  0.16198387768E+03  0.00000000000E+00 0. -1.
         11    1    4    4    0    0  0.14495980426E+01 -0.50185295826E+02  0.11411795658E+03  0.12467386762E+03  0.00000000000E+00 0.  1.
        -13    1    3    3    0    0  0.45759513680E+02  0.25777662136E+02  0.23660725734E+03  0.24236628310E+03  0.00000000000E+00 0. -1.
         13    1    3    3    0    0 -0.18003185850E+02 -0.17955243020E+02  0.22511592506E+02  0.33959935952E+02  0.00000000000E+00 0.  1.
         21    1    1    2  502  501 -0.29063708025E+02  0.56249871902E+01  0.12435726224E+03  0.12783218796E+03  0.00000000000E+00 0. -1.
<scales pt_clust_5="13000.00000" pt_clust_6="13000.00000" pt_clust_7="13000.00000" pt_clust_8="13000.00000" pt_clust_9="29.60303"></scales>
<clustering>
<clus scale="   29.603">  1  9  2 -1</clus>
<clus scale="   89.839">  5  6 -1 -1</clus>
<clus scale="   91.466">  1  5  2 -1</clus>
<clus scale="   91.553">  7  8 -1 -1</clus>
<clus scale="   29.603">  1  5  2 -1</clus>
</clustering>
</event>
<event>
 9    1  0.1782981E-005  0.1310505E+03  0.7546771E-02  0.1232544E+00
          2   -1    0    0  502    0  0.00000000000E+00  0.00000000000E+00  0.97449611067E+02  0.97449611067E+02  0.00000000000E+00 0. -1.
         -2   -1    0    0    0  501 -0.00000000000E+00 -0.00000000000E+00 -0.24041069768E+03  0.24041069768E+03  0.00000000000E+00 0.  1.
         23    2    1    2    0    0  0.44747954846E+02 -0.56334761117E+02 -0.10687929776E+03  0.15831593559E+03  0.92004165108E+02 0.  0.
         23    2    1    2    0    0 -0.54870510910E+02  0.32483622390E+02 -0.61759250562E+02  0.14306595488E+03  0.11219493627E+03 0.  0.
        -11    1    3    3    0    0  0.69559948395E+02 -0.55235145459E+02 -0.66692796772E+02  0.11107401521E+03  0.00000000000E+00 0. -1.
         11    1    3    3    0    0 -0.24811993550E+02 -0.10996156583E+01 -0.40186500992E+02  0.47241920372E+02  0.00000000000E+00 0.  1.
        -11    1    4    4    0    0 -0.56981810464E+02 -0.29397253771E+02 -0.46761801629E+02  0.79358624891E+02  0.00000000000E+00 0.  1.
         11    1    4    4    0    0  0.21112995534E+01  0.61880876161E+02 -0.14997448933E+02  0.63707329992E+02  0.00000000000E+00 0. -1.
         21    1    1    2  502  501  0.10122556064E+02  0.23851138728E+02  0.25677461713E+02  0.36478418276E+02  0.00000000000E+00 0.  1.
<scales pt_clust_5="13000.00000" pt_clust_6="13000.00000" pt_clust_7="13000.00000" pt_clust_8="13000.00000" pt_clust_9="25.91029"></scales>
<clustering>
<clus scale="   25.910">  1  9  2 -1</clus>
<clus scale="   92.004">  5  6 -1 -1</clus>
<clus scale="  112.195">  7  8 -1 -1</clus>
<clus scale="  114.242">  2  5  1 -1</clus>
<clus scale="   25.910">  1  5  2 -1</clus>
</clustering>
</event>
<event>
 9    1  0.1782981E-005  0.1374024E+03  0.7546771E-02  0.1217309E+00
         -2   -1    0    0    0  501 -0.00000000000E+00  0.00000000000E+00  0.57196231174E+02  0.57196231174E+02  0.00000000000E+00 0.  1.
          2   -1    0    0  502    0  0.00000000000E+00 -0.00000000000E+00 -0.54338464995E+03  0.54338464995E+03  0.00000000000E+00 0. -1.
         23    2    1    2    0    0 -0.96158889638E+02 -0.85026704187E+01 -0.71172798246E+02  0.15152148131E+03  0.92597865138E+02 0.  0.
         23    2    1    2    0    0  0.11644406070E+03  0.16349265276E+02 -0.34142343232E+03  0.37232044373E+03  0.90697491315E+02 0.  0.
        -13    1    3    3    0    0 -0.94344726263E+02 -0.38625633175E+02 -0.44456639187E+02  0.11121717349E+03  0.00000000000E+00 0.  1.
         13    1    3    3    0    0 -0.18141633749E+01  0.30122962756E+02 -0.26716159059E+02  0.40304307820E+02  0.00000000000E+00 0. -1.
        -13    1    4    4    0    0  0.29691198225E+02  0.31050402982E+02 -0.20872362289E+03  0.21309914483E+03  0.00000000000E+00 0.  1.
         13    1    4    4    0    0  0.86752862474E+02 -0.14701137706E+02 -0.13269980944E+03  0.15922129889E+03  0.00000000000E+00 0. -1.
         21    1    1    2  502  501 -0.20285171061E+02 -0.78465948574E+01 -0.73592188212E+02  0.76738956089E+02  0.00000000000E+00 0.  1.
<scales pt_clust_5="13000.00000" pt_clust_6="13000.00000" pt_clust_7="13000.00000" pt_clust_8="13000.00000" pt_clust_9="21.74988"></scales>
<clustering>
<clus scale="   21.750">  2  9  1 -1</clus>
<clus scale="   90.697">  7  8 -1 -1</clus>
<clus scale="   92.598">  5  6 -1 -1</clus>
<clus scale="  136.129">  2  7  1 -1</clus>
<clus scale="   21.750">  2  5  1 -1</clus>
</clustering>
</event>
<event>
 9    1  0.1782981E-005  0.1024706E+03  0.7546771E-02  0.1275839E+00
          1   -1    0    0  502    0  0.00000000000E+00  0.00000000000E+00  0.30427421030E+03  0.30427421030E+03  0.00000000000E+00 0. -1.
         -1   -1    0    0    0  501 -0.00000000000E+00 -0.00000000000E+00 -0.56703471814E+02  0.56703471814E+02  0.00000000000E+00 0.  1.
         23    2    1    2    0    0  0.65962207161E+02  0.16900388643E+02  0.10134736783E+03  0.15259979866E+03  0.91535641561E+02 0.  0.
         23    2    1    2    0    0 -0.26247127928E+02 -0.99061079540E+01  0.13542513804E+03  0.16663091579E+03  0.92945421548E+02 0.  0.
        -11    1    4    4    0    0 -0.59686812908E+02 -0.89183320835E+01  0.10647922999E+03  0.12239231471E+03  0.00000000000E+00 0. -1.
         11    1    4    4    0    0  0.33439684980E+02 -0.98777587048E+00  0.28945908049E+02  0.44238601080E+02  0.00000000000E+00 0.  1.
        -11    1    3    3    0    0  0.51810734573E+02 -0.48728020449E+01  0.43889221126E+01  0.52224123296E+02  0.00000000000E+00 0.  1.
         11    1    3    3    0    0  0.14151472588E+02  0.21773190688E+02  0.96958445720E+02  0.10037567537E+03  0.00000000000E+00 0. -1.
         21    1    1    2  502  501 -0.39715079232E+02 -0.69942806886E+01  0.10798232617E+02  0.41746967656E+02  0.00000000000E+00 0.  1.
<scales pt_clust_5="13000.00000" pt_clust_6="13000.00000" pt_clust_7="13000.00000" pt_clust_8="13000.00000" pt_clust_9="40.32626"></scales>
<clustering>
<clus scale="   40.326">  2  9  1 -1</clus>
<clus scale="   91.536">  7  8 -1 -1</clus>
<clus scale="   92.945">  5  6 -1 -1</clus>
<clus scale="  101.194">  2  7  1 -1</clus>
<clus scale="  102.471">  1  5  2 -1</clus>
</clustering>
</event>
<event>
 9    1  0.1782981E-005  0.1251135E+03  0.7546771E-02  0.1235091E+00
         -1   -1    0    0    0  501 -0.00000000000E+00  0.00000000000E+00  0.53712053647E+03  0.53712053647E+03  0.00000000000E+00 0.  1.
          1   -1    0    0  502    0  0.00000000000E+00 -0.00000000000E+00 -0.92953704971E+02  0.92953704971E+02  0.00000000000E+00 0. -1.
         23    2    1    2    0    0  0.27304515613E+02  0.85660537435E+02  0.45717385404E+03  0.47497929282E+03  0.92272051830E+02 0.  0.
         23    2    1    2    0    0 -0.29269313762E+02 -0.49197346265E+02  0.15052219842E+02  0.10904339245E+03  0.91579585651E+02 0.  0.
        -11    1    4    4    0    0  0.18823596560E+01  0.25693131089E+02  0.10453335673E+02  0.27802023123E+02  0.00000000000E+00 0.  1.
         11    1    4    4    0    0 -0.31151673418E+02 -0.74890477354E+02  0.45988841686E+01  0.81241369331E+02  0.00000000000E+00 0. -1.
        -11    1    3    3    0    0  0.30889442920E+02 -0.69113686148E+01  0.69161362574E+02  0.76060625643E+02  0.00000000000E+00 0. -1.
         11    1    3    3    0    0 -0.35849273077E+01  0.92571906050E+02  0.38801249146E+03  0.39891866718E+03  0.00000000000E+00 0.  1.
         21    1    1    2  502  501  0.19647981495E+01 -0.36463191170E+02 -0.28059242381E+02  0.46051556163E+02  0.00000000000E+00 0. -1.
<scales pt_clust_5="13000.00000" pt_clust_6="13000.00000" pt_clust_7="13000.00000" pt_clust_8="13000.00000" pt_clust_9="36.51609"></scales>
<clustering>
<clus scale="   36.516">  2  9  1 -1</clus>
<clus scale="   91.580">  5  6 -1 -1</clus>
<clus scale="   92.272">  7  8 -1 -1</clus>
<clus scale="  124.604">  2  5  1 -1</clus>
<clus scale="   36.516">  2  5  1 -1</clus>
</clustering>
</event>
<event>
 9    1  0.1782981E-005  0.1113734E+03  0.7546771E-02  0.1258415E+00
         -2   -1    0    0    0  501 -0.00000000000E+00  0.00000000000E+00  0.19922813504E+03  0.19922813504E+03  0.00000000000E+00 0.  1.
          2   -1    0    0  502    0  0.00000000000E+00 -0.00000000000E+00 -0.24486822223E+03  0.24486822223E+03  0.00000000000E+00 0. -1.
         23    2    1    2    0    0 -0.42482040091E+02 -0.33144868941E+02  0.94990662797E+02  0.14291102240E+03  0.92179326517E+02 0.  0.
         23    2    1    2    0    0  0.80419603139E+02  0.23041899797E+02  0.28964544116E+02  0.12710520258E+03  0.91206063346E+02 0.  0.
        -11    1    4    4    0    0  0.29475905210E+02  0.17426779033E+02 -0.32408008975E+02  0.47146586952E+02  0.00000000000E+00 0. -1.
         11    1    4    4    0    0  0.50943697929E+02  0.56151207640E+01  0.61372553091E+02  0.79958615626E+02  0.00000000000E+00 0.  1.
        -13    1    3    3    0    0  0.27177375470E+02 -0.12397991148E+02  0.47419471818E+02  0.56043966932E+02  0.00000000000E+00 0.  1.
         13    1    3    3    0    0 -0.69659415561E+02 -0.20746877793E+02  0.47571190979E+02  0.86867055467E+02  0.00000000000E+00 0. -1.
         21    1    1    2  502  501 -0.37937563048E+02  0.10102969144E+02 -0.16959529411E+03  0.17408013229E+03  0.00000000000E+00 0. -1.
<scales pt_clust_5="13000.00000" pt_clust_6="13000.00000" pt_clust_7="13000.00000" pt_clust_8="13000.00000" pt_clust_9="39.25976"></scales>
<clustering>
<clus scale="   39.260">  2  9  1 -1</clus>
<clus scale="   91.206">  5  6 -1 -1</clus>
<clus scale="   92.179">  7  8 -1 -1</clus>
<clus scale="  110.569">  2  5  1 -1</clus>
<clus scale="   39.260">  2  5  1 -1</clus>
</clustering>
</event>
<event>
 9    1  0.1782981E-005  0.1841922E+03  0.7546771E-02  0.1187899E+00
         -3   -1    0    0    0  501 -0.00000000000E+00  0.00000000000E+00  0.27885843727E+03  0.27885843727E+03  0.00000000000E+00 0.  1.
          3   -1    0    0  502    0  0.00000000000E+00 -0.00000000000E+00 -0.26620843528E+03  0.26620843528E+03  0.00000000000E+00 0. -1.
         23    2    1    2    0    0  0.14067694589E+03  0.44602424072E+02  0.12010259900E+03  0.21158845969E+03  0.92550865213E+02 0.  0.
         23    2    1    2    0    0  0.53269470989E+02  0.10047030362E+02 -0.36297986465E+01  0.10680475107E+03  0.91953793040E+02 0.  0.
        -11    1    3    3    0    0  0.92073098728E+02  0.73283589816E+02  0.84259341810E+02  0.14473277697E+03  0.00000000000E+00 0.  1.
         11    1    3    3    0    0  0.48603847158E+02 -0.28681165744E+02  0.35843257185E+02  0.66855682725E+02  0.00000000000E+00 0. -1.
        -13    1    4    4    0    0  0.22166510384E+02  0.41502223110E+02  0.25812687613E+02  0.53666409862E+02  0.00000000000E+00 0.  1.
         13    1    4    4    0    0  0.31102960605E+02 -0.31455192748E+02 -0.29442486259E+02  0.53138341208E+02  0.00000000000E+00 0. -1.
         21    1    1    2  502  501 -0.19394641688E+03 -0.54649454434E+02 -0.10382279836E+03  0.22667366179E+03  0.00000000000E+00 0. -1.
<scales pt_clust_5="13000.00000" pt_clust_6="13000.00000" pt_clust_7="13000.00000" pt_clust_8="13000.00000" pt_clust_9="159.25173"></scales>
<clustering>
<clus scale="   91.954">  7  8 -1 -1</clus>
<clus scale="   92.551">  5  6 -1 -1</clus>
<clus scale="  106.743">  2  7  1 -1</clus>
<clus scale="  159.252">  2  9  1 -1</clus>
<clus scale="  106.743">  2  5  1 -1</clus>
</clustering>
</event>
<event>
 9    1  0.1782981E-005  0.9471511E+02  0.7546771E-02  0.1292135E+00
          1   -1    0    0  502    0  0.00000000000E+00  0.00000000000E+00  0.12964998473E+03  0.12964998473E+03  0.00000000000E+00 0. -1.
         -1   -1    0    0    0  501 -0.00000000000E+00 -0.00000000000E+00 -0.17071627852E+03  0.17071627852E+03  0.00000000000E+00 0.  1.
         23    2    1    2    0    0  0.25632973943E+02  0.14574932672E+02 -0.11359923364E+03  0.14881385658E+03  0.91494808669E+02 0.  0.
         23    2    1    2    0    0 -0.80314614862E+01  0.18419651898E+02  0.64594203794E+02  0.11332310662E+03  0.90917145691E+02 0.  0.
        -11    1    3    3    0    0 -0.10526439219E+02 -0.33553135535E+02 -0.51173090751E+02  0.62091094722E+02  0.00000000000E+00 0.  1.
         11    1    3    3    0    0  0.36159413161E+02  0.48128068207E+02 -0.62426142885E+02  0.86722761862E+02  0.00000000000E+00 0. -1.
        -13    1    4    4    0    0  0.30250902600E+02 -0.17941753964E+02  0.82883306311E+01  0.36134748762E+02  0.00000000000E+00 0.  1.
         13    1    4    4    0    0 -0.38282364086E+02  0.36361405862E+02  0.56305873163E+02  0.77188357859E+02  0.00000000000E+00 0. -1.
         21    1    1    2  502  501 -0.17601512456E+02 -0.32994584570E+02  0.79387360492E+01  0.38229300043E+02  0.00000000000E+00 0.  1.
<scales pt_clust_5="13000.00000" pt_clust_6="13000.00000" pt_clust_7="13000.00000" pt_clust_8="13000.00000" pt_clust_9="37.39593"></scales>
<clustering>
<clus scale="   37.396">  1  9  2 -1</clus>
<clus scale="   90.917">  7  8 -1 -1</clus>
<clus scale="   91.495">  5  6 -1 -1</clus>
<clus scale="   94.157">  1  7  2 -1</clus>
<clus scale="   37.396">  1  5  2 -1</clus>
</clustering>
</event>
<event>
 9    1  0.1782981E-005  0.9400803E+02  0.7546771E-02  0.1294536E+00
          1   -1    0    0  502    0  0.00000000000E+00  0.00000000000E+00  0.10644421882E+03  0.10644421882E+03  0.00000000000E+00 0. -1.
         -1   -1    0    0    0  501 -0.00000000000E+00 -0.00000000000E+00 -0.11555448037E+03  0.11555448037E+03  0.00000000000E+00 0.  1.
         23    2    1    2    0    0  0.99761623442E+01 -0.41748720665E+01 -0.28725045620E+02  0.97567842796E+02  0.92614266343E+02 0.  0.
         23    2    1    2    0    0 -0.68260486937E+01  0.26661677813E+02  0.49864129860E+00  0.94749101675E+02  0.90662581148E+02 0.  0.
        -13    1    4    4    0    0 -0.27495663168E+02 -0.66088570819E+01 -0.32822765776E+02  0.43324617000E+02  0.00000000000E+00 0.  1.
         13    1    4    4    0    0  0.20669614475E+02  0.33270534895E+02  0.33321407074E+02  0.51424484675E+02  0.00000000000E+00 0. -1.
        -13    1    3    3    0    0 -0.32687606112E+02  0.14995184366E+02 -0.35231480380E+02  0.50344735149E+02  0.00000000000E+00 0.  1.
         13    1    3    3    0    0  0.42663768457E+02 -0.19170056433E+02  0.65064347598E+01  0.47223107647E+02  0.00000000000E+00 0. -1.
         21    1    1    2  502  501 -0.31501136506E+01 -0.22486805746E+02  0.19116142768E+02  0.29681754716E+02  0.00000000000E+00 0.  1.
<scales pt_clust_5="13000.00000" pt_clust_6="13000.00000" pt_clust_7="13000.00000" pt_clust_8="13000.00000" pt_clust_9="22.70638"></scales>
<clustering>
<clus scale="   22.706">  1  9  2 -1</clus>
<clus scale="   90.663">  5  6 -1 -1</clus>
<clus scale="   92.086">  1  5  2 -1</clus>
<clus scale="   92.614">  7  8 -1 -1</clus>
<clus scale="   22.706">  1  5  2 -1</clus>
</clustering>
</event>
<event>
 9    1  0.1782981E-005  0.2548469E+03  0.7546771E-02  0.1110401E+00
          1   -1    0    0  502    0  0.00000000000E+00  0.00000000000E+00  0.11197443624E+04  0.11197443624E+04  0.00000000000E+00 0. -1.
         -1   -1    0    0    0  501 -0.00000000000E+00 -0.00000000000E+00 -0.94037413477E+02  0.94037413477E+02  0.00000000000E+00 0.  1.
         23    2    1    2    0    0  0.88585185790E+02  0.23791905346E+03  0.21242410871E+03  0.34335872363E+03  0.91205262961E+02 0.  0.
         23    2    1    2    0    0 -0.11481192441E+02 -0.20754695909E+03  0.62757045434E+03  0.66705987915E+03  0.88975553919E+02 0.  0.
        -11    1    3    3    0    0 -0.18950361016E+02  0.28228774404E+02  0.23658850785E+02  0.41421263953E+02  0.00000000000E+00 0. -1.
         11    1    3    3    0    0  0.10753554681E+03  0.20969027905E+03  0.18876525792E+03  0.30193745967E+03  0.00000000000E+00 0.  1.
        -13    1    4    4    0    0 -0.39439599719E+02 -0.15611419721E+03  0.38085831523E+03  0.41349749803E+03  0.00000000000E+00 0.  1.
         13    1    4    4    0    0  0.27958407278E+02 -0.51432761879E+02  0.24671213911E+03  0.25356238112E+03  0.00000000000E+00 0. -1.
         21    1    1    2  502  501 -0.77103993349E+02 -0.30372094373E+02  0.18571238585E+03  0.20336317308E+03  0.00000000000E+00 0.  1.
<scales pt_clust_5="13000.00000" pt_clust_6="13000.00000" pt_clust_7="13000.00000" pt_clust_8="13000.00000" pt_clust_9="82.87032"></scales>
<clustering>
<clus scale="   82.870">  1  9  2 -1</clus>
<clus scale="   88.976">  7  8 -1 -1</clus>
<clus scale="   91.205">  5  6 -1 -1</clus>
<clus scale="  254.057">  1  7  2 -1</clus>
<clus scale="   82.870">  1  5  2 -1</clus>
</clustering>
</event>
<event>
 9    1  0.1782981E-005  0.9360244E+02  0.7546771E-02  0.1294462E+00
         -1   -1    0    0    0  501 -0.00000000000E+00  0.00000000000E+00  0.29022984984E+03  0.29022984984E+03  0.00000000000E+00 0.  1.
          1   -1    0    0  502    0  0.00000000000E+00 -0.00000000000E+00 -0.45038610631E+02  0.45038610631E+02  0.00000000000E+00 0. -1.
         23    2    1    2    0    0  0.39353992257E+01  0.12711819627E+02  0.15034791421E+03  0.17642977815E+03  0.91355862351E+02 0.  0.
         23    2    1    2    0    0 -0.20441522564E+02 -0.24659739404E+02  0.98670901643E+02  0.13810573180E+03  0.91166264224E+02 0.  0.
        -13    1    3    3    0    0  0.22768967115E+02 -0.14401674579E+02  0.50270569196E+01  0.27406302111E+02  0.00000000000E+00 0. -1.
         13    1    3    3    0    0 -0.18833567889E+02  0.27113494206E+02  0.14532085729E+03  0.14902347604E+03  0.00000000000E+00 0.  1.
        -13    1    4    4    0    0 -0.36291386832E+02 -0.47135528501E+02  0.92406479296E+02  0.10989895460E+03  0.00000000000E+00 0.  1.
         13    1    4    4    0    0  0.15849864268E+02  0.22475789097E+02  0.62644223469E+01  0.28206777204E+02  0.00000000000E+00 0. -1.
         21    1    1    2  502  501  0.16506123338E+02  0.11947919776E+02 -0.38275766378E+01  0.20732950527E+02  0.00000000000E+00 0. -1.
<scales pt_clust_5="13000.00000" pt_clust_6="13000.00000" pt_clust_7="13000.00000" pt_clust_8="13000.00000" pt_clust_9="20.37658"></scales>
<clustering>
<clus scale="   20.377">  2  9  1 -1</clus>
<clus scale="   91.166">  7  8 -1 -1</clus>
<clus scale="   91.356">  5  6 -1 -1</clus>
<clus scale="   93.417">  2  7  1 -1</clus>
<clus scale="   20.377">  2  5  1 -1</clus>
</clustering>
</event>
<event>
 9    1  0.1782981E-005  0.1080784E+03  0.7546771E-02  0.1264392E+00
         -1   -1    0    0    0  501 -0.00000000000E+00  0.00000000000E+00  0.10533323499E+03  0.10533323499E+03  0.00000000000E+00 0.  1.
          1   -1    0    0  502    0  0.00000000000E+00 -0.00000000000E+00 -0.18281564090E+03  0.18281564090E+03  0.00000000000E+00 0. -1.
         23    2    1    2    0    0  0.36227800450E+02 -0.43174438509E+02  0.26975920489E+02  0.11066998249E+03  0.91343631806E+02 0.  0.
         23    2    1    2    0    0 -0.18060218383E+02  0.62055521519E+02 -0.61849151237E+02  0.12745791639E+03  0.90791760107E+02 0.  0.
        -13    1    4    4    0    0 -0.49312377010E+02  0.30409042165E+02 -0.94047531656E+01  0.58693012819E+02  0.00000000000E+00 0. -1.
         13    1    4    4    0    0  0.31252158626E+02  0.31646479354E+02 -0.52444398072E+02  0.68764903573E+02  0.00000000000E+00 0.  1.
        -13    1    3    3    0    0  0.28960723760E+02 -0.70148875717E+02  0.31863246817E+02  0.82309506029E+02  0.00000000000E+00 0.  1.
         13    1    3    3    0    0  0.72670766897E+01  0.26974437208E+02 -0.48873263282E+01  0.28360476458E+02  0.00000000000E+00 0. -1.
         21    1    1    2  502  501 -0.18167582066E+02 -0.18881083010E+02 -0.42609175160E+02  0.50020977016E+02  0.00000000000E+00 0. -1.
<scales pt_clust_5="13000.00000" pt_clust_6="13000.00000" pt_clust_7="13000.00000" pt_clust_8="13000.00000" pt_clust_9="26.20222"></scales>
<clustering>
<clus scale="   26.202">  2  9  1 -1</clus>
<clus scale="   90.792">  5  6 -1 -1</clus>
<clus scale="   91.344">  7  8 -1 -1</clus>
<clus scale="  107.612">  2  5  1 -1</clus>
<clus scale="   26.202">  2  5  1 -1</clus>
</clustering>
</event>
<event>
 9    1  0.1782981E-005  0.1157788E+03  0.7546771E-02  0.1252450E+00
         -2   -1    0    0    0  501 -0.00000000000E+00  0.00000000000E+00  0.98000622347E+02  0.98000622347E+02  0.00000000000E+00 0.  1.
          2   -1    0    0  502    0  0.00000000000E+00 -0.00000000000E+00 -0.26887851717E+03  0.26887851717E+03  0.00000000000E+00 0. -1.
         23    2    1    2    0    0 -0.14443812836E+02 -0.71120804535E+02  0.24842209986E+02  0.11944433743E+03  0.91558843263E+02 0.  0.
         23    2    1    2    0    0  0.24910079602E+02  0.27688576197E+02 -0.11627185544E+03  0.15628697970E+03  0.97566932610E+02 0.  0.
        -11    1    3    3    0    0  0.90690388583E+01 -0.87396021218E+02  0.14603971094E+02  0.89070690815E+02  0.00000000000E+00 0.  1.
         11    1    3    3    0    0 -0.23512851694E+02  0.16275216684E+02  0.10238238891E+02  0.30373646612E+02  0.00000000000E+00 0. -1.
        -11    1    4    4    0    0 -0.32059906536E+02 -0.95590705189E+01 -0.56699610550E+02  0.65833572536E+02  0.00000000000E+00 0.  1.
         11    1    4    4    0    0  0.56969986138E+02  0.37247646716E+02 -0.59572244887E+02  0.90453407163E+02  0.00000000000E+00 0. -1.
         21    1    1    2  502  501 -0.10466266766E+02  0.43432228337E+02 -0.79448249368E+02  0.91147822387E+02  0.00000000000E+00 0.  1.
<scales pt_clust_5="13000.00000" pt_clust_6="13000.00000" pt_clust_7="13000.00000" pt_clust_8="13000.00000" pt_clust_9="44.67551"></scales>
<clustering>
<clus scale="   44.676">  2  9  1 -1</clus>
<clus scale="   91.559">  5  6 -1 -1</clus>
<clus scale="   97.567">  7  8 -1 -1</clus>
<clus scale="  110.763">  1  5  2 -1</clus>
<clus scale="   44.676">  2  5  1 -1</clus>
</clustering>
</event>
<event>
 9    1  0.1782981E-005  0.1171970E+03  0.7546771E-02  0.1248954E+00
          2   -1    0    0  502    0  0.00000000000E+00  0.00000000000E+00  0.80934034398E+03  0.80934034398E+03  0.00000000000E+00 0. -1.
         -2   -1    0    0    0  501 -0.00000000000E+00 -0.00000000000E+00 -0.36682870848E+02  0.36682870848E+02  0.00000000000E+00 0.  1.
         23    2    1    2    0    0 -0.23289077753E+02  0.18029810760E+02  0.10921227300E+03  0.14209128105E+03  0.85995094976E+02 0.  0.
         23    2    1    2    0    0  0.68262342889E+02 -0.67322555543E+02  0.59122512347E+03  0.60560539240E+03  0.89547030883E+02 0.  0.
        -11    1    4    4    0    0  0.23375143415E+02  0.21076939110E+02  0.11959235228E+03  0.12366472988E+03  0.00000000000E+00 0.  1.
         11    1    4    4    0    0  0.44887199474E+02 -0.88399494653E+02  0.47163277119E+03  0.48194066252E+03  0.00000000000E+00 0. -1.
        -13    1    3    3    0    0 -0.28059655281E+02  0.49177690429E+02  0.52507970369E+02  0.77219663576E+02  0.00000000000E+00 0.  1.
         13    1    3    3    0    0  0.47705775280E+01 -0.31147879669E+02  0.56704302628E+02  0.64871617479E+02  0.00000000000E+00 0. -1.
         21    1    1    2  502  501 -0.44973265136E+02  0.49292744783E+02  0.72220076667E+02  0.98326541376E+02  0.00000000000E+00 0.  1.
<scales pt_clust_5="13000.00000" pt_clust_6="13000.00000" pt_clust_7="13000.00000" pt_clust_8="13000.00000" pt_clust_9="66.72608"></scales>
<clustering>
<clus scale="   66.726">  2  9  1 -1</clus>
<clus scale="   85.995">  7  8 -1 -1</clus>
<clus scale="   89.547">  5  6 -1 -1</clus>
<clus scale="  114.506">  2  7  1 -1</clus>
<clus scale="  117.197">  1  5  2 -1</clus>
</clustering>
</event>
<event>
 9    1  0.1782981E-005  0.1202463E+03  0.7546771E-02  0.1243106E+00
          2   -1    0    0  502    0  0.00000000000E+00  0.00000000000E+00  0.35975173822E+02  0.35975173822E+02  0.00000000000E+00 0. -1.
         -2   -1    0    0    0  501 -0.00000000000E+00 -0.00000000000E+00 -0.11120910891E+04  0.11120910891E+04  0.00000000000E+00 0.  1.
         23    2    1    2    0    0 -0.84823860962E+02  0.50603502285E+00 -0.49992656697E+03  0.51482661710E+03  0.89019828395E+02 0.  0.
         23    2    1    2    0    0  0.53839271844E+02  0.87225171282E+02 -0.48329808575E+03  0.50176494871E+03  0.87659148794E+02 0.  0.
        -13    1    3    3    0    0 -0.53614030955E+02 -0.43474646117E+02 -0.28362022812E+03  0.29189885743E+03  0.00000000000E+00 0. -1.
         13    1    3    3    0    0 -0.31209830008E+02  0.43980681140E+02 -0.21630633885E+03  0.22292775967E+03  0.00000000000E+00 0.  1.
        -13    1    4    4    0    0  0.59367126996E+01  0.71252952029E+02 -0.38137240972E+03  0.38801693600E+03  0.00000000000E+00 0.  1.
         13    1    4    4    0    0  0.47902559145E+02  0.15972219254E+02 -0.10192567603E+03  0.11374801270E+03  0.00000000000E+00 0. -1.
         21    1    1    2  502  501  0.30984589118E+02 -0.87731206305E+02 -0.92891262565E+02  0.13147469712E+03  0.00000000000E+00 0. -1.
<scales pt_clust_5="13000.00000" pt_clust_6="13000.00000" pt_clust_7="13000.00000" pt_clust_8="13000.00000" pt_clust_9="93.04198"></scales>
<clustering>
<clus scale="   87.659">  7  8 -1 -1</clus>
<clus scale="   89.020">  5  6 -1 -1</clus>
<clus scale="   93.042">  1  9  2 -1</clus>
<clus scale="  119.243">  1  7  2 -1</clus>
<clus scale="   93.042">  1  5  2 -1</clus>
</clustering>
</event>
<event>
 9    1  0.1782981E-005  0.1540477E+03  0.7546771E-02  0.1204341E+00
          2   -1    0    0  502    0  0.00000000000E+00  0.00000000000E+00  0.39271151648E+03  0.39271151648E+03  0.00000000000E+00 0. -1.
         -2   -1    0    0    0  501 -0.00000000000E+00 -0.00000000000E+00 -0.17639932110E+03  0.17639932110E+03  0.00000000000E+00 0.  1.
         23    2    1    2    0    0  0.87374711319E+02  0.27753409364E+02 -0.17136261162E+02  0.12851698817E+03  0.88421563507E+02 0.  0.
         23    2    1    2    0    0  0.33017523090E+02 -0.86400057448E+02 -0.40314258648E+02  0.13583206758E+03  0.90939454446E+02 0.  0.
        -13    1    4    4    0    0  0.57567794387E+02 -0.72630447439E+02 -0.80680817415E+01  0.93028634242E+02  0.00000000000E+00 0.  1.
         13    1    4    4    0    0 -0.24550271297E+02 -0.13769610009E+02 -0.32246176907E+02  0.42803433340E+02  0.00000000000E+00 0. -1.
        -13    1    3    3    0    0  0.76312637856E+02 -0.77998433757E+01 -0.38244883212E+02  0.85715385697E+02  0.00000000000E+00 0. -1.
         13    1    3    3    0    0  0.11062073463E+02  0.35553252739E+02  0.21108622050E+02  0.42801602476E+02  0.00000000000E+00 0.  1.
         21    1    1    2  502  501 -0.12039223441E+03  0.58646648085E+02  0.27376271519E+03  0.30476178183E+03  0.00000000000E+00 0. -1.
<scales pt_clust_5="13000.00000" pt_clust_6="13000.00000" pt_clust_7="13000.00000" pt_clust_8="13000.00000" pt_clust_9="124.34109"></scales>
<clustering>
<clus scale="   88.422">  7  8 -1 -1</clus>
<clus scale="   90.939">  5  6 -1 -1</clus>
<clus scale="  127.369">  2  7  1 -1</clus>
<clus scale="  124.341">  1  9  2 -1</clus>
<clus scale="  124.341">  1  5  2 -1</clus>
</clustering>
</event>
<event>
 9    1  0.1782981E-005  0.1039942E+03  0.7546771E-02  0.1273535E+00
          1   -1    0    0  502    0  0.00000000000E+00  0.00000000000E+00  0.51804973889E+02  0.51804973889E+02  0.00000000000E+00 0. -1.
         -1   -1    0    0    0  501 -0.00000000000E+00 -0.00000000000E+00 -0.40528934204E+03  0.40528934204E+03  0.00000000000E+00 0.  1.
         23    2    1    2    0    0 -0.48499587140E+02  0.23164047948E+02 -0.28730531216E+03  0.30587489780E+03  0.90146145995E+02 0.  0.
         23    2    1    2    0    0  0.52542981880E+02  0.82713357103E+01 -0.61966232796E+02  0.11924630026E+03  0.86894684415E+02 0.  0.
        -11    1    4    4    0    0  0.28408989556E+02  0.45937123929E+02 -0.19100997631E+02  0.57289948097E+02  0.00000000000E+00 0. -1.
         11    1    4    4    0    0  0.24133992324E+02 -0.37665788219E+02 -0.42865235165E+02  0.61956352163E+02  0.00000000000E+00 0.  1.
        -13    1    3    3    0    0 -0.50277786924E+02 -0.21962614973E+02 -0.11020592003E+03  0.12310790845E+03  0.00000000000E+00 0.  1.
         13    1    3    3    0    0  0.17781997834E+01  0.45126662921E+02 -0.17709939214E+03  0.18276698935E+03  0.00000000000E+00 0. -1.
         21    1    1    2  502  501 -0.40433947399E+01 -0.31435383658E+02 -0.42128231883E+01  0.31973117864E+02  0.00000000000E+00 0.  1.
<scales pt_clust_5="13000.00000" pt_clust_6="13000.00000" pt_clust_7="13000.00000" pt_clust_8="13000.00000" pt_clust_9="31.69436"></scales>
<clustering>
<clus scale="   31.694">  1  9  2 -1</clus>
<clus scale="   86.895">  5  6 -1 -1</clus>
<clus scale="   90.146">  7  8 -1 -1</clus>
<clus scale="  101.189">  1  5  2 -1</clus>
<clus scale="   31.694">  1  5  2 -1</clus>
</clustering>
</event>
<event>
 9    1  0.1782981E-005  0.9278844E+02  0.7546771E-02  0.1296835E+00
          1   -1    0    0  502    0  0.00000000000E+00  0.00000000000E+00  0.20581591731E+03  0.20581591731E+03  0.00000000000E+00 0. -1.
         -1   -1    0    0    0  501 -0.00000000000E+00 -0.00000000000E+00 -0.78101627020E+02  0.78101627020E+02  0.00000000000E+00 0.  1.
         23    2    1    2    0    0 -0.20963627464E+02  0.39064825438E+00 -0.12610800328E+02  0.94742246387E+02  0.91528327216E+02 0.  0.
         23    2    1    2    0    0 -0.57530882179E+01 -0.21054983077E+02  0.10188911884E+03  0.13800771487E+03  0.90489372254E+02 0.  0.
        -11    1    4    4    0    0  0.37789577242E+02 -0.24042393214E+02  0.73075209835E+02  0.85709247529E+02  0.00000000000E+00 0.  1.
         11    1    4    4    0    0 -0.43542665460E+02  0.29874101371E+01  0.28813909002E+02  0.52298467345E+02  0.00000000000E+00 0. -1.
        -13    1    3    3    0    0 -0.38451497183E+02  0.36555935065E+02 -0.15587253398E+01  0.53078090101E+02  0.00000000000E+00 0. -1.
         13    1    3    3    0    0  0.17487869719E+02 -0.36165286811E+02 -0.11052074988E+02  0.41664156285E+02  0.00000000000E+00 0.  1.
         21    1    1    2  502  501  0.26716715682E+02  0.20664334822E+02  0.38435971783E+02  0.51167583072E+02  0.00000000000E+00 0.  1.
<scales pt_clust_5="13000.00000" pt_clust_6="13000.00000" pt_clust_7="13000.00000" pt_clust_8="13000.00000" pt_clust_9="33.77570"></scales>
<clustering>
<clus scale="   33.776">  1  9  2 -1</clus>
<clus scale="   90.489">  5  6 -1 -1</clus>
<clus scale="   91.528">  7  8 -1 -1</clus>
<clus scale="   91.764">  1  5  2 -1</clus>
<clus scale="   33.776">  1  5  2 -1</clus>
</clustering>
</event>
<event>
 9    1  0.1782981E-005  0.2239592E+03  0.7546771E-02  0.1132646E+00
          1   -1    0    0  502    0  0.00000000000E+00  0.00000000000E+00  0.64673303142E+03  0.64673303142E+03  0.00000000000E+00 0. -1.
         -1   -1    0    0    0  501 -0.00000000000E+00 -0.00000000000E+00 -0.58863060687E+03  0.58863060687E+03  0.00000000000E+00 0.  1.
         23    2    1    2    0    0  0.76831954025E+02  0.18158337525E+03 -0.54506978949E+03  0.58664326213E+03  0.90407799807E+02 0.  0.
         23    2    1    2    0    0 -0.67095168920E+02 -0.12560920964E+03  0.49124301508E+03  0.52319723973E+03  0.11016449767E+03 0.  0.
        -13    1    4    4    0    0  0.26321801738E+02 -0.40898165848E+02  0.86165454523E+02  0.98944341777E+02  0.00000000000E+00 0.  1.
         13    1    4    4    0    0 -0.93416970658E+02 -0.84711043794E+02  0.40507756056E+03  0.42425289795E+03  0.00000000000E+00 0. -1.
        -13    1    3    3    0    0  0.56396848130E+01  0.88813473014E+02 -0.14783522322E+03  0.17255402707E+03  0.00000000000E+00 0. -1.
         13    1    3    3    0    0  0.71192269212E+02  0.92769902240E+02 -0.39723456627E+03  0.41408923506E+03  0.00000000000E+00 0.  1.
         21    1    1    2  502  501 -0.97367851048E+01 -0.55974165612E+02  0.11192919895E+03  0.12552313643E+03  0.00000000000E+00 0. -1.
<scales pt_clust_5="13000.00000" pt_clust_6="13000.00000" pt_clust_7="13000.00000" pt_clust_8="13000.00000" pt_clust_9="56.81472"></scales>
<clustering>
<clus scale="   56.815">  1  9  2 -1</clus>
<clus scale="   90.408">  7  8 -1 -1</clus>
<clus scale="  110.164">  5  6 -1 -1</clus>
<clus scale="  214.930">  2  7  1 -1</clus>
<clus scale="   56.815">  1  5  2 -1</clus>
</clustering>
</event>
<event>
 9    1  0.1782981E-005  0.2420123E+03  0.7546771E-02  0.1118528E+00
          1   -1    0    0  502    0  0.00000000000E+00  0.00000000000E+00  0.43476372799E+03  0.43476372799E+03  0.00000000000E+00 0. -1.
         -1   -1    0    0    0  501 -0.00000000000E+00 -0.00000000000E+00 -0.10224553808E+04  0.10224553808E+04  0.00000000000E+00 0.  1.
         23    2    1    2    0    0 -0.73172002975E+02  0.22573975962E+03 -0.80935871759E+03  0.84861465643E+03  0.93662800991E+02 0.  0.
         23    2    1    2    0    0  0.22455888219E+03 -0.34577595729E+02  0.26754166411E+03  0.36048061442E+03  0.82130564609E+02 0.  0.
        -13    1    3    3    0    0 -0.51869466967E+02  0.53550910347E+02 -0.34346157925E+03  0.35145980997E+03  0.00000000000E+00 0.  1.
         13    1    3    3    0    0 -0.21302536007E+02  0.17218884927E+03 -0.46589713833E+03  0.49715484646E+03  0.00000000000E+00 0. -1.
        -13    1    4    4    0    0  0.30443134616E+02  0.23106416342E+02  0.31928320463E+02  0.49800688439E+02  0.00000000000E+00 0.  1.
         13    1    4    4    0    0  0.19411574757E+03 -0.57684012070E+02  0.23561334365E+03  0.31067992598E+03  0.00000000000E+00 0. -1.
         21    1    1    2  502  501 -0.15138687921E+03 -0.19116216389E+03 -0.45874599363E+02  0.24812383796E+03  0.00000000000E+00 0. -1.
<scales pt_clust_5="13000.00000" pt_clust_6="13000.00000" pt_clust_7="13000.00000" pt_clust_8="13000.00000" pt_clust_9="223.15293"></scales>
<clustering>
<clus scale="   82.131">  7  8 -1 -1</clus>
<clus scale="   93.663">  5  6 -1 -1</clus>
<clus scale="  241.594">  1  7  2 -1</clus>
<clus scale="  223.153">  1  9  2 -1</clus>
<clus scale="  241.594">  1  5  2 -1</clus>
</clustering>
</event>
<event>
 9    1  0.1782981E-005  0.1186711E+03  0.7546771E-02  0.1245900E+00
         -2   -1    0    0    0  501 -0.00000000000E+00  0.00000000000E+00  0.14962535002E+02  0.14962535002E+02  0.00000000000E+00 0.  1.
          2   -1    0    0  502    0  0.00000000000E+00 -0.00000000000E+00 -0.11439341722E+04  0.11439341722E+04  0.00000000000E+00 0. -1.
         23    2    1    2    0    0  0.47334514677E+02  0.50579959268E+02 -0.44134021209E+03  0.45592223367E+03  0.91022040117E+02 0.  0.
         23    2    1    2    0    0 -0.67531943454E+02 -0.51644511112E+02 -0.53469382396E+03  0.54870529565E+03  0.89175653504E+02 0.  0.
        -11    1    3    3    0    0  0.10268381327E+02  0.70635245678E+02 -0.24961719187E+03  0.25962187902E+03  0.00000000000E+00 0.  1.
         11    1    3    3    0    0  0.37066133350E+02 -0.20055286410E+02 -0.19172302022E+03  0.19630035465E+03  0.00000000000E+00 0. -1.
        -11    1    4    4    0    0 -0.86454007493E+02 -0.28420338430E+02 -0.44268660185E+03  0.45194406568E+03  0.00000000000E+00 0.  1.
         11    1    4    4    0    0  0.18922064039E+02 -0.23224172682E+02 -0.92007222108E+02  0.96761229965E+02  0.00000000000E+00 0. -1.
         21    1    1    2  502  501  0.20197428777E+02  0.10645518441E+01 -0.15293760110E+03  0.15426917784E+03  0.00000000000E+00 0. -1.
<scales pt_clust_5="13000.00000" pt_clust_6="13000.00000" pt_clust_7="13000.00000" pt_clust_8="13000.00000" pt_clust_9="20.22546"></scales>
<clustering>
<clus scale="   20.225">  2  9  1 -1</clus>
<clus scale="   89.176">  7  8 -1 -1</clus>
<clus scale="   91.022">  5  6 -1 -1</clus>
<clus scale="  117.261">  2  7  1 -1</clus>
<clus scale="   20.225">  2  5  1 -1</clus>
</clustering>
</event>
<event>
 9    1  0.1782981E-005  0.1155724E+03  0.7546771E-02  0.1251751E+00
         -2   -1    0    0    0  501 -0.00000000000E+00  0.00000000000E+00  0.84120677247E+02  0.84120677247E+02  0.00000000000E+00 0.  1.
          2   -1    0    0  502    0  0.00000000000E+00 -0.00000000000E+00 -0.27935920178E+03  0.27935920178E+03  0.00000000000E+00 0. -1.
         23    2    1    2    0    0  0.87843337789E+01  0.79912572224E+02 -0.33893987531E+02  0.12430627002E+03  0.88544128294E+02 0.  0.
         23    2    1    2    0    0 -0.34407233488E+02 -0.52557234670E+02 -0.50647398876E+02  0.12230315136E+03  0.91906371852E+02 0.  0.
        -11    1    3    3    0    0  0.26814813058E+02 -0.65082899931E+01 -0.21870519765E+02  0.35209539513E+02  0.00000000000E+00 0. -1.
         11    1    3    3    0    0 -0.18030479279E+02  0.86420862217E+02 -0.12023467766E+02  0.89096730504E+02  0.00000000000E+00 0.  1.
        -13    1    4    4    0    0 -0.61922352015E+02 -0.31596840642E+02 -0.12189301677E+02  0.70578446377E+02  0.00000000000E+00 0.  1.
         13    1    4    4    0    0  0.27515118527E+02 -0.20960394028E+02 -0.38458097199E+02  0.51724704982E+02  0.00000000000E+00 0. -1.
         21    1    1    2  502  501  0.25622899709E+02 -0.27355337554E+02 -0.11069713813E+03  0.11687045765E+03  0.00000000000E+00 0. -1.
<scales pt_clust_5="13000.00000" pt_clust_6="13000.00000" pt_clust_7="13000.00000" pt_clust_8="13000.00000" pt_clust_9="37.48130"></scales>
<clustering>
<clus scale="   37.481">  2  9  1 -1</clus>
<clus scale="   88.544">  5  6 -1 -1</clus>
<clus scale="   91.906">  7  8 -1 -1</clus>
<clus scale="  112.917">  1  5  2 -1</clus>
<clus scale="   37.481">  2  5  1 -1</clus>
</clustering>
</event>
<event>
 9    1  0.1782981E-005  0.1920937E+03  0.7546771E-02  0.1156752E+00
          2   -1    0    0  502    0  0.00000000000E+00  0.00000000000E+00  0.17322458344E+04  0.17322458344E+04  0.00000000000E+00 0. -1.
         -2   -1    0    0    0  501 -0.00000000000E+00 -0.00000000000E+00 -0.31926112137E+02  0.31926112137E+02  0.00000000000E+00 0.  1.
         23    2    1    2    0    0 -0.13601112747E+03  0.10815226116E+03  0.47207403806E+03  0.51097976185E+03  0.89724473956E+02 0.  0.
         23    2    1    2    0    0  0.15966622368E+03 -0.54936676965E+02  0.92519824822E+03  0.94459988012E+03  0.88123740015E+02 0.  0.
        -11    1    3    3    0    0 -0.49215237940E+02  0.55431684872E+02  0.95158841610E+02  0.12062344909E+03  0.00000000000E+00 0.  1.
         11    1    3    3    0    0 -0.86795889531E+02  0.52720576287E+02  0.37691519645E+03  0.39035631276E+03  0.00000000000E+00 0. -1.
        -13    1    4    4    0    0  0.90009549446E+02 -0.70820299252E+02  0.66408643795E+03  0.67389022166E+03  0.00000000000E+00 0. -1.
         13    1    4    4    0    0  0.69656674234E+02  0.15883622286E+02  0.26111181027E+03  0.27070965846E+03  0.00000000000E+00 0.  1.
         21    1    1    2  502  501 -0.23655096210E+02 -0.53215584194E+02  0.30304743596E+03  0.30859230454E+03  0.00000000000E+00 0.  1.
<scales pt_clust_5="13000.00000" pt_clust_6="13000.00000" pt_clust_7="13000.00000" pt_clust_8="13000.00000" pt_clust_9="58.23626"></scales>
<clustering>
<clus scale="   58.236">  1  9  2 -1</clus>
<clus scale="   88.124">  7  8 -1 -1</clus>
<clus scale="   89.724">  5  6 -1 -1</clus>
<clus scale="  191.351">  1  7  2 -1</clus>
<clus scale="   58.236">  1  5  2 -1</clus>
</clustering>
</event>
<event>
 9    1  0.1782981E-005  0.1112956E+03  0.7546771E-02  0.1258365E+00
          1   -1    0    0  502    0  0.00000000000E+00  0.00000000000E+00  0.42421955395E+03  0.42421955395E+03  0.00000000000E+00 0. -1.
         -1   -1    0    0    0  501 -0.00000000000E+00 -0.00000000000E+00 -0.51067138894E+02  0.51067138894E+02  0.00000000000E+00 0.  1.
         23    2    1    2    0    0 -0.71398119532E+02 -0.17218706537E+02  0.52991460969E+02  0.12772888356E+03  0.90068848286E+02 0.  0.
         23    2    1    2    0    0  0.37461526339E+02  0.18882475447E+02  0.26389232478E+03  0.28182639269E+03  0.89593764855E+02 0.  0.
        -13    1    3    3    0    0 -0.78861655868E+02  0.15600822913E+02  0.25703244757E+02  0.84399071279E+02  0.00000000000E+00 0.  1.
         13    1    3    3    0    0  0.74635363359E+01 -0.32819529450E+02  0.27288216212E+02  0.43329812277E+02  0.00000000000E+00 0. -1.
        -13    1    4    4    0    0  0.49794589611E+02  0.11407707219E+01  0.25256633953E+03  0.25743068654E+03  0.00000000000E+00 0. -1.
         13    1    4    4    0    0 -0.12333063272E+02  0.17741704725E+02  0.11325985257E+02  0.24395706144E+02  0.00000000000E+00 0.  1.
         21    1    1    2  502  501  0.33936593193E+02 -0.16637689105E+01  0.56268629304E+02  0.65731416601E+02  0.00000000000E+00 0.  1.
<scales pt_clust_5="13000.00000" pt_clust_6="13000.00000" pt_clust_7="13000.00000" pt_clust_8="13000.00000" pt_clust_9="33.97735"></scales>
<clustering>
<clus scale="   33.977">  1  9  2 -1</clus>
<clus scale="   89.594">  7  8 -1 -1</clus>
<clus scale="   90.069">  5  6 -1 -1</clus>
<clus scale="  110.911">  1  7  2 -1</clus>
<clus scale="   33.977">  1  5  2 -1</clus>
</clustering>
</event>
<event>
 9    1  0.1782981E-005  0.1010501E+03  0.7546771E-02  0.1291918E+00
          3   -1    0    0  502    0  0.00000000000E+00  0.00000000000E+00  0.12330497736E+03  0.12330497736E+03  0.00000000000E+00 0. -1.
         -3   -1    0    0    0  501 -0.00000000000E+00 -0.00000000000E+00 -0.11194641806E+03  0.11194641806E+03  0.00000000000E+00 0.  1.
         23    2    1    2    0    0 -0.89357261097E+01  0.98333581716E+01 -0.20301052344E+02  0.10166734502E+03  0.98729803921E+02 0.  0.
         23    2    1    2    0    0 -0.22108847923E+02 -0.38099337819E+02  0.28921730699E+02  0.91509982692E+02  0.74814769444E+02 0.  0.
        -11    1    3    3    0    0  0.28045358435E+02  0.47725157516E+01  0.28473096348E+02  0.40249673937E+02  0.00000000000E+00 0. -1.
         11    1    3    3    0    0 -0.36981084545E+02  0.50608424200E+01 -0.48774148692E+02  0.61417671079E+02  0.00000000000E+00 0.  1.
        -13    1    4    4    0    0 -0.10582928812E+02  0.18183851864E+02  0.26730189763E+02  0.34016964821E+02  0.00000000000E+00 0.  1.
         13    1    4    4    0    0 -0.11525919111E+02 -0.56283189683E+02  0.21915409360E+01  0.57493017871E+02  0.00000000000E+00 0. -1.
         21    1    1    2  502  501  0.31044574033E+02  0.28265979647E+02  0.27378809440E+01  0.42074067718E+02  0.00000000000E+00 0.  1.
<scales pt_clust_5="13000.00000" pt_clust_6="13000.00000" pt_clust_7="13000.00000" pt_clust_8="13000.00000" pt_clust_9="41.98489"></scales>
<clustering>
<clus scale="   41.985">  1  9  2 -1</clus>
<clus scale="   74.815">  7  8 -1 -1</clus>
<clus scale="   77.851">  1  7  2 -1</clus>
<clus scale="   98.730">  5  6 -1 -1</clus>
<clus scale="   41.985">  1  5  2 -1</clus>
</clustering>
</event>
<event>
 9    1  0.1782981E-005  0.1140174E+03  0.7546771E-02  0.1254149E+00
          2   -1    0    0  502    0  0.00000000000E+00  0.00000000000E+00  0.55012655488E+03  0.55012655488E+03  0.00000000000E+00 0. -1.
         -2   -1    0    0    0  501 -0.00000000000E+00 -0.00000000000E+00 -0.51675598881E+02  0.51675598881E+02  0.00000000000E+00 0.  1.
         23    2    1    2    0    0  0.55131447867E+02  0.29812918880E+02  0.35571357300E+02  0.11596947333E+03  0.90858739862E+02 0.  0.
         23    2    1    2    0    0 -0.77431994574E+02 -0.26227136966E+02  0.36865829887E+03  0.38894188851E+03  0.93184091024E+02 0.  0.
        -11    1    3    3    0    0 -0.12957923089E+02  0.39525760753E+02  0.13945802914E+02  0.43871163112E+02  0.00000000000E+00 0.  1.
         11    1    3    3    0    0  0.68089370956E+02 -0.97128418733E+01  0.21625554385E+02  0.72098310222E+02  0.00000000000E+00 0. -1.
        -13    1    4    4    0    0  0.12915067692E+02  0.18504483279E+02  0.83135708735E+02  0.86143838675E+02  0.00000000000E+00 0.  1.
         13    1    4    4    0    0 -0.90347062267E+02 -0.44731620245E+02  0.28552259013E+03  0.30279804984E+03  0.00000000000E+00 0. -1.
         21    1    1    2  502  501  0.22300546707E+02 -0.35857819136E+01  0.94221299831E+02  0.96890791911E+02  0.00000000000E+00 0. -1.
<scales pt_clust_5="13000.00000" pt_clust_6="13000.00000" pt_clust_7="13000.00000" pt_clust_8="13000.00000" pt_clust_9="22.58699"></scales>
<clustering>
<clus scale="   22.587">  1  9  2 -1</clus>
<clus scale="   90.859">  5  6 -1 -1</clus>
<clus scale="   93.184">  7  8 -1 -1</clus>
<clus scale="  112.125">  2  5  1 -1</clus>
<clus scale="   22.587">  1  5  2 -1</clus>
</clustering>
</event>
<event>
 9    1  0.1782981E-005  0.1152926E+03  0.7546771E-02  0.1260257E+00
          1   -1    0    0  502    0  0.00000000000E+00  0.00000000000E+00  0.36007362462E+03  0.36007362462E+03  0.00000000000E+00 0. -1.
         -1   -1    0    0    0  501 -0.00000000000E+00 -0.00000000000E+00 -0.81169519319E+02  0.81169519319E+02  0.00000000000E+00 0.  1.
         23    2    1    2    0    0 -0.34618065995E+02 -0.43184273422E+01 -0.16229715633E+02  0.11698337532E+03  0.11047464471E+03 0.  0.
         23    2    1    2    0    0  0.27545485832E+02 -0.16172214471E+02  0.15314887241E+03  0.18062964156E+03  0.90289512015E+02 0.  0.
        -11    1    3    3    0    0  0.32546463145E+02  0.26058161366E+02 -0.10801516757E+02  0.43069395182E+02  0.00000000000E+00 0. -1.
         11    1    3    3    0    0 -0.67164529141E+02 -0.30376588709E+02 -0.54281988766E+01  0.73913980134E+02  0.00000000000E+00 0.  1.
        -11    1    4    4    0    0 -0.22051715217E+02  0.36625675332E+01  0.46724583792E+01  0.22836908991E+02  0.00000000000E+00 0.  1.
         11    1    4    4    0    0  0.49597201049E+02 -0.19834782004E+02  0.14847641403E+03  0.15779273257E+03  0.00000000000E+00 0. -1.
         21    1    1    2  502  501  0.70725801635E+01  0.20490641813E+02  0.14198494853E+03  0.14363012707E+03  0.00000000000E+00 0. -1.
<scales pt_clust_5="13000.00000" pt_clust_6="13000.00000" pt_clust_7="13000.00000" pt_clust_8="13000.00000" pt_clust_9="21.67690"></scales>
<clustering>
<clus scale="   21.677">  1  9  2 -1</clus>
<clus scale="   90.290">  7  8 -1 -1</clus>
<clus scale="   96.125">  1  7  2 -1</clus>
<clus scale="  110.475">  5  6 -1 -1</clus>
<clus scale="   21.677">  1  5  2 -1</clus>
</clustering>
</event>
<event>
 9    1  0.1782981E-005  0.9891451E+02  0.7546771E-02  0.1283352E+00
          1   -1    0    0  502    0  0.00000000000E+00  0.00000000000E+00  0.14063298734E+03  0.14063298734E+03  0.00000000000E+00 0. -1.
         -1   -1    0    0    0  501 -0.00000000000E+00 -0.00000000000E+00 -0.12364939521E+03  0.12364939521E+03  0.00000000000E+00 0.  1.
         23    2    1    2    0    0  0.55118979793E+02  0.13002784396E+01 -0.83405706992E+01  0.10800502764E+03  0.92497179521E+02 0.  0.
         23    2    1    2    0    0 -0.62026136614E+01 -0.30930930684E+02  0.85803266963E+01  0.96685891789E+02  0.90990904906E+02 0.  0.
        -13    1    3    3    0    0  0.61299121021E+02  0.33339238542E+02  0.10130056174E+02  0.70510319121E+02  0.00000000000E+00 0. -1.
         13    1    3    3    0    0 -0.61801412276E+01 -0.32038960103E+02 -0.18470626874E+02  0.37494708522E+02  0.00000000000E+00 0.  1.
        -13    1    4    4    0    0 -0.35135747965E+02 -0.39569091136E+02 -0.18568433907E+02  0.56080482311E+02  0.00000000000E+00 0.  1.
         13    1    4    4    0    0  0.28933134304E+02  0.86381604520E+01  0.27148760603E+02  0.40605409479E+02  0.00000000000E+00 0. -1.
         21    1    1    2  502  501 -0.48916366132E+02  0.29630652244E+02  0.16743836139E+02  0.59591463119E+02  0.00000000000E+00 0.  1.
<scales pt_clust_5="13000.00000" pt_clust_6="13000.00000" pt_clust_7="13000.00000" pt_clust_8="13000.00000" pt_clust_9="57.19079"></scales>
<clustering>
<clus scale="   57.191">  1  9  2 -1</clus>
<clus scale="   90.991">  7  8 -1 -1</clus>
<clus scale="   92.497">  5  6 -1 -1</clus>
<clus scale="   97.507">  1  7  2 -1</clus>
<clus scale="   57.191">  1  5  2 -1</clus>
</clustering>
</event>
<event>
 9    1  0.1782981E-005  0.1830417E+03  0.7546771E-02  0.1164917E+00
          3   -1    0    0  502    0  0.00000000000E+00  0.00000000000E+00  0.44360189661E+03  0.44360189661E+03  0.00000000000E+00 0. -1.
         -3   -1    0    0    0  501 -0.00000000000E+00 -0.00000000000E+00 -0.12723446330E+03  0.12723446330E+03  0.00000000000E+00 0.  1.
         23    2    1    2    0    0 -0.77214925409E+02 -0.14321146976E+03 -0.14446659448E+02  0.18693550622E+03  0.90909338025E+02 0.  0.
         23    2    1    2    0    0  0.59357706011E+02  0.13275807626E+03  0.27263758523E+03  0.32215411492E+03  0.91126158717E+02 0.  0.
        -11    1    3    3    0    0 -0.53294694931E+02 -0.58965262535E+02 -0.48342956495E+02  0.93028319002E+02  0.00000000000E+00 0.  1.
         11    1    3    3    0    0 -0.23920230478E+02 -0.84246207227E+02  0.33896297047E+02  0.93907187221E+02  0.00000000000E+00 0. -1.
        -11    1    4    4    0    0 -0.69602547082E+00  0.10461732748E+03  0.18054584268E+03  0.20866736920E+03  0.00000000000E+00 0.  1.
         11    1    4    4    0    0  0.60053731482E+02  0.28140748775E+02  0.92091742552E+02  0.11348674571E+03  0.00000000000E+00 0. -1.
         21    1    1    2  502  501  0.17857219398E+02  0.10453393506E+02  0.58176507528E+02  0.61746738768E+02  0.00000000000E+00 0.  1.
<scales pt_clust_5="13000.00000" pt_clust_6="13000.00000" pt_clust_7="13000.00000" pt_clust_8="13000.00000" pt_clust_9="20.69188"></scales>
<clustering>
<clus scale="   20.692">  1  9  2 -1</clus>
<clus scale="   90.909">  5  6 -1 -1</clus>
<clus scale="   91.126">  7  8 -1 -1</clus>
<clus scale="  182.934">  2  5  1 -1</clus>
<clus scale="   20.692">  1  5  2 -1</clus>
</clustering>
</event>
<event>
 9    1  0.1782981E-005  0.9359632E+02  0.7546771E-02  0.1294974E+00
         -3   -1    0    0    0  501 -0.00000000000E+00  0.00000000000E+00  0.45386443454E+03  0.45386443454E+03  0.00000000000E+00 0.  1.
          3   -1    0    0  502    0  0.00000000000E+00 -0.00000000000E+00 -0.73410946735E+02  0.73410946735E+02  0.00000000000E+00 0. -1.
         23    2    1    2    0    0 -0.15042403222E+02  0.10487226897E+02  0.37182937157E+03  0.38320610359E+03  0.90849218184E+02 0.  0.
         23    2    1    2    0    0 -0.13507053991E+02 -0.34032064976E+02  0.27273976113E+02  0.10262958438E+03  0.91914851160E+02 0.  0.
        -11    1    3    3    0    0 -0.42740189436E+02  0.34290886373E+02  0.25414762971E+03  0.25998770426E+03  0.00000000000E+00 0. -1.
         11    1    3    3    0    0  0.27697786214E+02 -0.23803659476E+02  0.11768174187E+03  0.12321839933E+03  0.00000000000E+00 0.  1.
        -13    1    4    4    0    0  0.17235470983E+02 -0.54869234481E+02  0.17007977946E+01  0.57537701255E+02  0.00000000000E+00 0.  1.
         13    1    4    4    0    0 -0.30742524974E+02  0.20837169506E+02  0.25573178319E+02  0.45091883129E+02  0.00000000000E+00 0. -1.
         21    1    1    2  502  501  0.28549457213E+02  0.23544838078E+02 -0.18649859878E+02  0.41439693300E+02  0.00000000000E+00 0.  1.
<scales pt_clust_5="13000.00000" pt_clust_6="13000.00000" pt_clust_7="13000.00000" pt_clust_8="13000.00000" pt_clust_9="37.00582"></scales>
<clustering>
<clus scale="   37.006">  2  9  1 -1</clus>
<clus scale="   90.849">  5  6 -1 -1</clus>
<clus scale="   91.915">  7  8 -1 -1</clus>
<clus scale="   92.550">  1  5  2 -1</clus>
<clus scale="   37.006">  2  5  1 -1</clus>
</clustering>
</event>
<event>
 9    1  0.1782981E-005  0.1038876E+03  0.7546771E-02  0.1273162E+00
         -3   -1    0    0    0  501 -0.00000000000E+00  0.00000000000E+00  0.55730232388E+03  0.55730232388E+03  0.00000000000E+00 0.  1.
          3   -1    0    0  502    0  0.00000000000E+00 -0.00000000000E+00 -0.31440568501E+02  0.31440568501E+02  0.00000000000E+00 0. -1.
         23    2    1    2    0    0  0.49990466861E+02  0.15106975402E+02  0.35477376144E+03  0.36936862434E+03  0.88552195664E+02 0.  0.
         23    2    1    2    0    0 -0.35498085040E+02 -0.40695061503E+02  0.11445187242E+03  0.15555867792E+03  0.90460317849E+02 0.  0.
        -13    1    4    4    0    0  0.18042516134E+02 -0.43490087033E+02  0.31014416333E+02  0.56380972669E+02  0.00000000000E+00 0.  1.
         13    1    4    4    0    0 -0.53540601174E+02  0.27950255306E+01  0.83437456084E+02  0.99177705254E+02  0.00000000000E+00 0. -1.
        -13    1    3    3    0    0 -0.16366897416E+02 -0.19281286704E+02  0.13173431098E+03  0.13414012091E+03  0.00000000000E+00 0. -1.
         13    1    3    3    0    0  0.66357364278E+02  0.34388262106E+02  0.22303945046E+03  0.23522850343E+03  0.00000000000E+00 0.  1.
         21    1    1    2  502  501 -0.14492381822E+02  0.25588086100E+02  0.56636121517E+02  0.63815590115E+02  0.00000000000E+00 0. -1.
<scales pt_clust_5="13000.00000" pt_clust_6="13000.00000" pt_clust_7="13000.00000" pt_clust_8="13000.00000" pt_clust_9="29.40713"></scales>
<clustering>
<clus scale="   29.407">  2  9  1 -1</clus>
<clus scale="   88.552">  7  8 -1 -1</clus>
<clus scale="   90.460">  5  6 -1 -1</clus>
<clus scale="  102.230">  1  7  2 -1</clus>
<clus scale="   29.407">  2  5  1 -1</clus>
</clustering>
</event>
<event>
 9    1  0.1782981E-005  0.1031463E+03  0.7546771E-02  0.1275063E+00
          1   -1    0    0  502    0  0.00000000000E+00  0.00000000000E+00  0.19171637702E+03  0.19171637702E+03  0.00000000000E+00 0. -1.
         -1   -1    0    0    0  501 -0.00000000000E+00 -0.00000000000E+00 -0.83728088391E+02  0.83728088391E+02  0.00000000000E+00 0.  1.
         23    2    1    2    0    0 -0.24785744379E+01  0.48744686366E+02 -0.11536538518E+02  0.10657942032E+03  0.94041976447E+02 0.  0.
         23    2    1    2    0    0  0.46715882668E+01 -0.28009753691E+02  0.82299078302E+02  0.12619769083E+03  0.91358353988E+02 0.  0.
        -11    1    4    4    0    0  0.27268024959E+02 -0.29670931153E+02 -0.55491117538E+00  0.40301578964E+02  0.00000000000E+00 0. -1.
         11    1    4    4    0    0 -0.22596436692E+02  0.16611774618E+01  0.82853989478E+02  0.85896111868E+02  0.00000000000E+00 0.  1.
        -13    1    3    3    0    0  0.37296483071E+02  0.54088009008E+02 -0.96239543319E+01  0.66401512520E+02  0.00000000000E+00 0.  1.
         13    1    3    3    0    0 -0.39775057509E+02 -0.53433226425E+01 -0.19125841858E+01  0.40177907797E+02  0.00000000000E+00 0. -1.
         21    1    1    2  502  501 -0.21930138289E+01 -0.20734932675E+02  0.37225748847E+02  0.42667354265E+02  0.00000000000E+00 0. -1.
<scales pt_clust_5="13000.00000" pt_clust_6="13000.00000" pt_clust_7="13000.00000" pt_clust_8="13000.00000" pt_clust_9="20.85058"></scales>
<clustering>
<clus scale="   20.851">  1  9  2 -1</clus>
<clus scale="   91.358">  5  6 -1 -1</clus>
<clus scale="   94.042">  7  8 -1 -1</clus>
<clus scale="  100.706">  1  5  2 -1</clus>
<clus scale="   20.851">  1  5  2 -1</clus>
</clustering>
</event>
<event>
 9    1  0.1782981E-005  0.1116230E+03  0.7546771E-02  0.1257704E+00
         -1   -1    0    0    0  501 -0.00000000000E+00  0.00000000000E+00  0.15974585582E+03  0.15974585582E+03  0.00000000000E+00 0.  1.
          1   -1    0    0  502    0  0.00000000000E+00 -0.00000000000E+00 -0.12831318058E+03  0.12831318058E+03  0.00000000000E+00 0. -1.
         23    2    1    2    0    0 -0.64184462007E+02  0.11058765979E+02  0.80248433768E+02  0.13735148366E+03  0.90463680414E+02 0.  0.
         23    2    1    2    0    0  0.66727003566E+02  0.15066699038E+02 -0.50575600745E+02  0.12439973100E+03  0.90762895823E+02 0.  0.
        -11    1    3    3    0    0 -0.84752503985E+02  0.14751529771E+01  0.46494415655E+02  0.96679334375E+02  0.00000000000E+00 0.  1.
         11    1    3    3    0    0  0.20568041978E+02  0.95836130020E+01  0.33754018113E+02  0.40672149288E+02  0.00000000000E+00 0. -1.
        -13    1    4    4    0    0  0.36912420716E+02  0.52828181330E+02 -0.20361001024E+02  0.67586344098E+02  0.00000000000E+00 0.  1.
         13    1    4    4    0    0  0.29814582850E+02 -0.37761482292E+02 -0.30214599720E+02  0.56813386906E+02  0.00000000000E+00 0. -1.
         21    1    1    2  502  501 -0.25425415591E+01 -0.26125465017E+02  0.17598422143E+01  0.26307821737E+02  0.00000000000E+00 0. -1.
<scales pt_clust_5="13000.00000" pt_clust_6="13000.00000" pt_clust_7="13000.00000" pt_clust_8="13000.00000" pt_clust_9="26.24889"></scales>
<clustering>
<clus scale="   26.249">  2  9  1 -1</clus>
<clus scale="   90.464">  5  6 -1 -1</clus>
<clus scale="   90.763">  7  8 -1 -1</clus>
<clus scale="  111.380">  1  5  2 -1</clus>
<clus scale="   26.249">  2  5  1 -1</clus>
</clustering>
</event>
<event>
 9    1  0.1782981E-005  0.9721989E+02  0.7546771E-02  0.1286431E+00
         -1   -1    0    0    0  501 -0.00000000000E+00  0.00000000000E+00  0.45009120411E+02  0.45009120411E+02  0.00000000000E+00 0.  1.
          1   -1    0    0  502    0  0.00000000000E+00 -0.00000000000E+00 -0.34692077978E+03  0.34692077978E+03  0.00000000000E+00 0. -1.
         23    2    1    2    0    0  0.64071110048E+01 -0.52000804999E+02 -0.83362632505E+02  0.13383964743E+03  0.90656427979E+02 0.  0.
         23    2    1    2    0    0 -0.53603609057E+01  0.61962294208E+01 -0.15004381815E+03  0.17567594302E+03  0.91004191452E+02 0.  0.
        -11    1    4    4    0    0 -0.23502365841E+02  0.43271341823E+02 -0.93440100738E+02  0.10562112785E+03  0.00000000000E+00 0. -1.
         11    1    4    4    0    0  0.18142004935E+02 -0.37075112402E+02 -0.56603717416E+02  0.70054815166E+02  0.00000000000E+00 0.  1.
        -11    1    3    3    0    0 -0.11304604369E+02 -0.63398938904E+02 -0.90959737533E+02  0.11144906185E+03  0.00000000000E+00 0.  1.
         11    1    3    3    0    0  0.17711715374E+02  0.11398133906E+02  0.75971050276E+01  0.22390585584E+02  0.00000000000E+00 0. -1.
         21    1    1    2  502  501 -0.10467500991E+01  0.45804575578E+02 -0.68505208707E+02  0.82414309738E+02  0.00000000000E+00 0. -1.
<scales pt_clust_5="13000.00000" pt_clust_6="13000.00000" pt_clust_7="13000.00000" pt_clust_8="13000.00000" pt_clust_9="45.81653"></scales>
<clustering>
<clus scale="   45.817">  2  9  1 -1</clus>
<clus scale="   90.656">  7  8 -1 -1</clus>
<clus scale="   91.004">  5  6 -1 -1</clus>
<clus scale="   96.894">  1  7  2 -1</clus>
<clus scale="   45.817">  2  5  1 -1</clus>
</clustering>
</event>
<event>
 9    1  0.1782981E-005  0.1575402E+03  0.7546771E-02  0.1191634E+00
          1   -1    0    0  502    0  0.00000000000E+00  0.00000000000E+00  0.42976528474E+02  0.42976528474E+02  0.00000000000E+00 0. -1.
         -1   -1    0    0    0  501 -0.00000000000E+00 -0.00000000000E+00 -0.93109706288E+03  0.93109706288E+03  0.00000000000E+00 0.  1.
         23    2    1    2    0    0 -0.26267851192E+02  0.13231886902E+03 -0.65392056261E+03  0.67405897343E+03  0.92439787706E+02 0.  0.
         23    2    1    2    0    0  0.16695162701E+02 -0.10966838244E+03 -0.23423053985E+03  0.27542433851E+03  0.93213399672E+02 0.  0.
        -11    1    3    3    0    0  0.14622854460E+02  0.39091591715E+02 -0.71350003984E+02  0.82660773550E+02  0.00000000000E+00 0. -1.
         11    1    3    3    0    0 -0.40890705653E+02  0.93227277309E+02 -0.58257055863E+03  0.59139819988E+03  0.00000000000E+00 0.  1.
        -13    1    4    4    0    0  0.46074681005E+02 -0.10497192850E+03 -0.19479015477E+03  0.22602032298E+03  0.00000000000E+00 0. -1.
         13    1    4    4    0    0 -0.29379518304E+02 -0.46964539432E+01 -0.39440385080E+02  0.49404015532E+02  0.00000000000E+00 0.  1.
         21    1    1    2  502  501  0.95726884911E+01 -0.22650486581E+02  0.30568055345E-01  0.24590279415E+02  0.00000000000E+00 0. -1.
<scales pt_clust_5="13000.00000" pt_clust_6="13000.00000" pt_clust_7="13000.00000" pt_clust_8="13000.00000" pt_clust_9="24.59026"></scales>
<clustering>
<clus scale="   24.590">  1  9  2 -1</clus>
<clus scale="   92.440">  5  6 -1 -1</clus>
<clus scale="   93.213">  7  8 -1 -1</clus>
<clus scale="  157.084">  2  5  1 -1</clus>
<clus scale="   24.590">  1  5  2 -1</clus>
</clustering>
</event>
<event>
 9    1  0.1782981E-005  0.1154336E+03  0.7546771E-02  0.1251084E+00
          2   -1    0    0  502    0  0.00000000000E+00  0.00000000000E+00  0.61781500636E+03  0.61781500636E+03  0.00000000000E+00 0. -1.
         -2   -1    0    0    0  501 -0.00000000000E+00 -0.00000000000E+00 -0.44272293837E+02  0.44272293837E+02  0.00000000000E+00 0.  1.
         23    2    1    2    0    0  0.38612044424E+02  0.62952516165E+02  0.62255439283E+02  0.13213963126E+03  0.90173350622E+02 0.  0.
         23    2    1    2    0    0 -0.48768160620E+02 -0.40631154601E+02  0.36020107007E+03  0.37688418320E+03  0.90926632252E+02 0.  0.
        -11    1    3    3    0    0 -0.95650383393E+01  0.66900912543E+02  0.29443372774E+02  0.73716580617E+02  0.00000000000E+00 0.  1.
         11    1    3    3    0    0  0.48177082763E+02 -0.39483963783E+01  0.32812066509E+02  0.58423050640E+02  0.00000000000E+00 0. -1.
        -13    1    4    4    0    0 -0.50070852744E+02 -0.66777358601E+02  0.24795083687E+03  0.26162171817E+03  0.00000000000E+00 0.  1.
         13    1    4    4    0    0  0.13026921243E+01  0.26146204000E+02  0.11225023321E+03  0.11526246503E+03  0.00000000000E+00 0. -1.
         21    1    1    2  502  501  0.10156116196E+02 -0.22321361563E+02  0.15108620317E+03  0.15306348574E+03  0.00000000000E+00 0.  1.
<scales pt_clust_5="13000.00000" pt_clust_6="13000.00000" pt_clust_7="13000.00000" pt_clust_8="13000.00000" pt_clust_9="24.52325"></scales>
<clustering>
<clus scale="   24.523">  1  9  2 -1</clus>
<clus scale="   90.173">  5  6 -1 -1</clus>
<clus scale="   90.927">  7  8 -1 -1</clus>
<clus scale="  114.841">  2  5  1 -1</clus>
<clus scale="   24.523">  1  5  2 -1</clus>
</clustering>
</event>
<event>
 9    1  0.1782981E-005  0.1599356E+03  0.7546771E-02  0.1189052E+00
         -1   -1    0    0    0  501 -0.00000000000E+00  0.00000000000E+00  0.32745324167E+03  0.32745324167E+03  0.00000000000E+00 0.  1.
          1   -1    0    0  502    0  0.00000000000E+00 -0.00000000000E+00 -0.30247729284E+03  0.30247729284E+03  0.00000000000E+00 0. -1.
         23    2    1    2    0    0 -0.74707441656E+02  0.11601587617E+03  0.25481706055E+03  0.30342857145E+03  0.89979321289E+02 0.  0.
         23    2    1    2    0    0  0.48979283286E+02 -0.96320250715E+02 -0.57048541205E+02  0.15069773041E+03  0.88196989790E+02 0.  0.
        -11    1    3    3    0    0  0.88956418097E+00  0.76108884593E+02  0.14971289829E+03  0.16795030679E+03  0.00000000000E+00 0. -1.
         11    1    3    3    0    0 -0.75597005837E+02  0.39906991579E+02  0.10510416227E+03  0.13547826466E+03  0.00000000000E+00 0.  1.
        -11    1    4    4    0    0  0.59708865016E+02 -0.59109329814E+02 -0.28263621177E+01  0.84065746623E+02  0.00000000000E+00 0.  1.
         11    1    4    4    0    0 -0.10729581729E+02 -0.37210920901E+02 -0.54222179087E+02  0.66631983787E+02  0.00000000000E+00 0. -1.
         21    1    1    2  502  501  0.25728158370E+02 -0.19695625457E+02 -0.17279257052E+03  0.17580423266E+03  0.00000000000E+00 0.  1.
<scales pt_clust_5="13000.00000" pt_clust_6="13000.00000" pt_clust_7="13000.00000" pt_clust_8="13000.00000" pt_clust_9="32.40148"></scales>
<clustering>
<clus scale="   32.401">  2  9  1 -1</clus>
<clus scale="   88.197">  7  8 -1 -1</clus>
<clus scale="   89.979">  5  6 -1 -1</clus>
<clus scale="  158.940">  2  7  1 -1</clus>
<clus scale="   32.401">  2  5  1 -1</clus>
</clustering>
</event>
<event>
 9    1  0.1782981E-005  0.1021962E+03  0.7546771E-02  0.1277539E+00
         -2   -1    0    0    0  501 -0.00000000000E+00  0.00000000000E+00  0.11831685247E+03  0.11831685247E+03  0.00000000000E+00 0.  1.
          2   -1    0    0  502    0  0.00000000000E+00 -0.00000000000E+00 -0.12055995991E+03  0.12055995991E+03  0.00000000000E+00 0. -1.
         23    2    1    2    0    0 -0.31643405113E+02 -0.17449607940E+01  0.22098464763E+02  0.10157286703E+03  0.93938039136E+02 0.  0.
         23    2    1    2    0    0  0.41354658199E+02  0.19766347251E+02 -0.42708961791E+02  0.10980049453E+03  0.90173038894E+02 0.  0.
        -11    1    4    4    0    0  0.60726079054E+02  0.33569801746E+01 -0.82653905770E+00  0.60824412533E+02  0.00000000000E+00 0. -1.
         11    1    4    4    0    0 -0.19371420855E+02  0.16409367076E+02 -0.41882422733E+02  0.48976081997E+02  0.00000000000E+00 0.  1.
        -11    1    3    3    0    0 -0.14069455552E+00  0.37914990986E+02 -0.12853236443E+02  0.40034635298E+02  0.00000000000E+00 0. -1.
         11    1    3    3    0    0 -0.31502710558E+02 -0.39659951780E+02  0.34951701207E+02  0.61538231733E+02  0.00000000000E+00 0.  1.
         21    1    1    2  502  501 -0.97112530859E+01 -0.18021386457E+02  0.18367389589E+02  0.27503450814E+02  0.00000000000E+00 0.  1.
<scales pt_clust_5="13000.00000" pt_clust_6="13000.00000" pt_clust_7="13000.00000" pt_clust_8="13000.00000" pt_clust_9="20.47141"></scales>
<clustering>
<clus scale="   20.471">  1  9  2 -1</clus>
<clus scale="   90.173">  5  6 -1 -1</clus>
<clus scale="   93.938">  7  8 -1 -1</clus>
<clus scale="   98.747">  2  5  1 -1</clus>
<clus scale="   98.747">  2  5  1 -1</clus>
</clustering>
</event>
<event>
 9    1  0.1782981E-005  0.1113917E+03  0.7546771E-02  0.1258522E+00
          1   -1    0    0  502    0  0.00000000000E+00  0.00000000000E+00  0.23322550002E+02  0.23322550002E+02  0.00000000000E+00 0. -1.
         -1   -1    0    0    0  501 -0.00000000000E+00 -0.00000000000E+00 -0.73643067434E+03  0.73643067434E+03  0.00000000000E+00 0.  1.
         23    2    1    2    0    0 -0.46721345874E+02  0.46899285886E+02 -0.43567943622E+03  0.45064995607E+03  0.94267622166E+02 0.  0.
         23    2    1    2    0    0  0.51412251016E+02 -0.25180086089E+02 -0.19234345469E+03  0.22116451016E+03  0.92954180648E+02 0.  0.
        -13    1    3    3    0    0 -0.32604101572E+02  0.61875666277E+02 -0.41709936327E+03  0.42292257489E+03  0.00000000000E+00 0.  1.
         13    1    3    3    0    0 -0.14117244302E+02 -0.14976380391E+02 -0.18580072953E+02  0.27727381182E+02  0.00000000000E+00 0. -1.
        -13    1    4    4    0    0 -0.93229626119E+01 -0.40573599141E+02 -0.11056507704E+03  0.11814301012E+03  0.00000000000E+00 0.  1.
         13    1    4    4    0    0  0.60735213628E+02  0.15393513052E+02 -0.81778377648E+02  0.10302150003E+03  0.00000000000E+00 0. -1.
         21    1    1    2  502  501 -0.46909051413E+01 -0.21719199797E+02 -0.85085233432E+02  0.87938758116E+02  0.00000000000E+00 0. -1.
<scales pt_clust_5="13000.00000" pt_clust_6="13000.00000" pt_clust_7="13000.00000" pt_clust_8="13000.00000" pt_clust_9="22.22000"></scales>
<clustering>
<clus scale="   22.220">  2  9  1 -1</clus>
<clus scale="   92.954">  7  8 -1 -1</clus>
<clus scale="   94.268">  5  6 -1 -1</clus>
<clus scale="  110.282">  1  7  2 -1</clus>
<clus scale="  110.282">  1  5  2 -1</clus>
</clustering>
</event>
<event>
 9    1  0.1782981E-005  0.1105566E+03  0.7546771E-02  0.1260488E+00
         -2   -1    0    0    0  501 -0.00000000000E+00  0.00000000000E+00  0.20045531060E+03  0.20045531060E+03  0.00000000000E+00 0.  1.
          2   -1    0    0  502    0  0.00000000000E+00 -0.00000000000E+00 -0.14053601365E+03  0.14053601365E+03  0.00000000000E+00 0. -1.
         23    2    1    2    0    0 -0.13031591397E+02  0.58656610756E+02  0.14519024674E+03  0.18352907747E+03  0.94827707815E+02 0.  0.
         23    2    1    2    0    0  0.19629540376E+02 -0.34679397621E+02 -0.86265013034E+02  0.13257393944E+03  0.92445754198E+02 0.  0.
        -11    1    4    4    0    0  0.51372279125E+02 -0.30133475151E+02 -0.80269536492E+02  0.99951667699E+02  0.00000000000E+00 0. -1.
         11    1    4    4    0    0 -0.31742738749E+02 -0.45459224698E+01 -0.59954765424E+01  0.32622271738E+02  0.00000000000E+00 0.  1.
        -13    1    3    3    0    0  0.34140192591E+02 -0.18199949243E+01  0.58695050964E+02  0.67926240433E+02  0.00000000000E+00 0. -1.
         13    1    3    3    0    0 -0.47171783988E+02  0.60476605680E+02  0.86495195778E+02  0.11560283704E+03  0.00000000000E+00 0.  1.
         21    1    1    2  502  501 -0.65979489788E+01 -0.23977213135E+02  0.99406323668E+00  0.24888307338E+02  0.00000000000E+00 0.  1.
<scales pt_clust_5="13000.00000" pt_clust_6="13000.00000" pt_clust_7="13000.00000" pt_clust_8="13000.00000" pt_clust_9="24.86845"></scales>
<clustering>
<clus scale="   24.868">  2  9  1 -1</clus>
<clus scale="   92.446">  5  6 -1 -1</clus>
<clus scale="   94.828">  7  8 -1 -1</clus>
<clus scale="  108.520">  2  5  1 -1</clus>
<clus scale="   24.868">  2  5  1 -1</clus>
</clustering>
</event>
<event>
 9    1  0.1782981E-005  0.9273719E+02  0.7546771E-02  0.1296599E+00
          2   -1    0    0  502    0  0.00000000000E+00  0.00000000000E+00  0.35966339056E+02  0.35966339056E+02  0.00000000000E+00 0. -1.
         -2   -1    0    0    0  501 -0.00000000000E+00 -0.00000000000E+00 -0.32006479513E+03  0.32006479513E+03  0.00000000000E+00 0.  1.
         23    2    1    2    0    0  0.11661148864E+02 -0.11500119612E+02 -0.16490569543E+03  0.18864842897E+03  0.90144917915E+02 0.  0.
         23    2    1    2    0    0 -0.30001141462E+02 -0.55948739784E+00 -0.10012969371E+03  0.13831055410E+03  0.90573021902E+02 0.  0.
        -11    1    3    3    0    0 -0.30488330560E+02 -0.32471406877E+02 -0.79745621512E+02  0.91341637358E+02  0.00000000000E+00 0.  1.
         11    1    3    3    0    0  0.42149479424E+02  0.20971287265E+02 -0.85160073914E+02  0.97306791614E+02  0.00000000000E+00 0. -1.
        -13    1    4    4    0    0 -0.14515531104E+02  0.36881241995E+02 -0.12159362088E+02  0.41458132383E+02  0.00000000000E+00 0.  1.
         13    1    4    4    0    0 -0.15485610357E+02 -0.37440729392E+02 -0.87970331626E+02  0.96852421715E+02  0.00000000000E+00 0. -1.
         21    1    1    2  502  501  0.18339992598E+02  0.12059607010E+02 -0.19063066938E+02  0.29072151121E+02  0.00000000000E+00 0.  1.
<scales pt_clust_5="13000.00000" pt_clust_6="13000.00000" pt_clust_7="13000.00000" pt_clust_8="13000.00000" pt_clust_9="21.94970"></scales>
<clustering>
<clus scale="   21.950">  1  9  2 -1</clus>
<clus scale="   90.145">  5  6 -1 -1</clus>
<clus scale="   90.573">  7  8 -1 -1</clus>
<clus scale="   92.319">  2  5  1 -1</clus>
<clus scale="   21.950">  1  5  2 -1</clus>
</clustering>
</event>
<event>
 9    1  0.1782981E-005  0.1150459E+03  0.7546771E-02  0.1252832E+00
         -1   -1    0    0    0  501 -0.00000000000E+00  0.00000000000E+00  0.54783971447E+03  0.54783971447E+03  0.00000000000E+00 0.  1.
          1   -1    0    0  502    0  0.00000000000E+00 -0.00000000000E+00 -0.58083535196E+02  0.58083535196E+02  0.00000000000E+00 0. -1.
         23    2    1    2    0    0 -0.54730721047E+02 -0.26638911213E+02  0.30138037047E+03  0.32072246677E+03  0.91256175513E+02 0.  0.
         23    2    1    2    0    0  0.55449228886E+02  0.77090989203E+02  0.19547290650E+03  0.23424690941E+03  0.87431800815E+02 0.  0.
        -11    1    4    4    0    0  0.22110983704E+02 -0.46250605491E+01  0.10671375864E+03  0.10907847207E+03  0.00000000000E+00 0.  1.
         11    1    4    4    0    0  0.33338245182E+02  0.81716049752E+02  0.88759147862E+02  0.12516843735E+03  0.00000000000E+00 0. -1.
        -11    1    3    3    0    0  0.60756037062E+01 -0.45582344836E+02  0.12337313024E+03  0.13166469681E+03  0.00000000000E+00 0.  1.
         11    1    3    3    0    0 -0.60806324753E+02  0.18943433623E+02  0.17800724024E+03  0.18905776996E+03  0.00000000000E+00 0. -1.
         21    1    1    2  502  501 -0.71850783852E+00 -0.50452077990E+02 -0.70970976989E+01  0.50953873481E+02  0.00000000000E+00 0. -1.
<scales pt_clust_5="13000.00000" pt_clust_6="13000.00000" pt_clust_7="13000.00000" pt_clust_8="13000.00000" pt_clust_9="50.45719"></scales>
<clustering>
<clus scale="   50.457">  2  9  1 -1</clus>
<clus scale="   87.432">  5  6 -1 -1</clus>
<clus scale="   91.256">  7  8 -1 -1</clus>
<clus scale="  112.037">  2  5  1 -1</clus>
<clus scale="   50.457">  2  5  1 -1</clus>
</clustering>
</event>
<event>
 9    1  0.1782981E-005  0.1110074E+03  0.7546771E-02  0.1259905E+00
          1   -1    0    0  502    0  0.00000000000E+00  0.00000000000E+00  0.26597858223E+03  0.26597858223E+03  0.00000000000E+00 0. -1.
         -1   -1    0    0    0  501 -0.00000000000E+00 -0.00000000000E+00 -0.74003618658E+02  0.74003618658E+02  0.00000000000E+00 0.  1.
         23    2    1    2    0    0 -0.46221840174E+02  0.23763682177E+02  0.21616756586E+02  0.10635145936E+03  0.90234015995E+02 0.  0.
         23    2    1    2    0    0  0.80427756213E+02 -0.19347418501E+02  0.14200983408E+03  0.18898571579E+03  0.93305204705E+02 0.  0.
        -11    1    3    3    0    0 -0.52498079864E+02  0.50833473349E+02  0.27262758428E+02  0.77995822960E+02  0.00000000000E+00 0.  1.
         11    1    3    3    0    0  0.62762396904E+01 -0.27069791172E+02 -0.56460018426E+01  0.28355636398E+02  0.00000000000E+00 0. -1.
        -11    1    4    4    0    0  0.17320445732E+02  0.36491473214E+02  0.43878395844E+02  0.59640079473E+02  0.00000000000E+00 0.  1.
         11    1    4    4    0    0  0.63107310480E+02 -0.55838891715E+02  0.98131438235E+02  0.12934563632E+03  0.00000000000E+00 0. -1.
         21    1    1    2  502  501 -0.34205916039E+02 -0.44162636759E+01  0.28348372905E+02  0.44645025739E+02  0.00000000000E+00 0.  1.
<scales pt_clust_5="13000.00000" pt_clust_6="13000.00000" pt_clust_7="13000.00000" pt_clust_8="13000.00000" pt_clust_9="34.48983"></scales>
<clustering>
<clus scale="   34.490">  1  9  2 -1</clus>
<clus scale="   90.234">  5  6 -1 -1</clus>
<clus scale="   93.305">  7  8 -1 -1</clus>
<clus scale="  108.439">  2  5  1 -1</clus>
<clus scale="   34.490">  1  5  2 -1</clus>
</clustering>
</event>
<event>
 9    1  0.1782981E-005  0.1107557E+03  0.7546771E-02  0.1259466E+00
          1   -1    0    0  502    0  0.00000000000E+00  0.00000000000E+00  0.73629640082E+02  0.73629640082E+02  0.00000000000E+00 0. -1.
         -1   -1    0    0    0  501 -0.00000000000E+00 -0.00000000000E+00 -0.40174160218E+03  0.40174160218E+03  0.00000000000E+00 0.  1.
         23    2    1    2    0    0  0.61825300384E+02 -0.26241942147E+02 -0.33266188748E+03  0.35125212128E+03  0.90571044073E+02 0.  0.
         23    2    1    2    0    0 -0.41721569932E+02  0.13925351522E+02  0.78940862709E+01  0.10030648159E+03  0.89802387705E+02 0.  0.
        -13    1    4    4    0    0  0.27506113086E+02  0.81960944991E+01  0.11088374656E+02  0.30768722344E+02  0.00000000000E+00 0.  1.
         13    1    4    4    0    0 -0.69227683018E+02  0.57292570228E+01 -0.31942883854E+01  0.69537759242E+02  0.00000000000E+00 0. -1.
        -13    1    3    3    0    0  0.68560124221E+02 -0.51318867796E+02 -0.27470399282E+03  0.28774363677E+03  0.00000000000E+00 0.  1.
         13    1    3    3    0    0 -0.67348238368E+01  0.25076925649E+02 -0.57957894660E+02  0.63508484516E+02  0.00000000000E+00 0. -1.
         21    1    1    2  502  501 -0.20103730452E+02  0.12316590625E+02 -0.33441608801E+01  0.23812639390E+02  0.00000000000E+00 0. -1.
<scales pt_clust_5="13000.00000" pt_clust_6="13000.00000" pt_clust_7="13000.00000" pt_clust_8="13000.00000" pt_clust_9="23.57665"></scales>
<clustering>
<clus scale="   23.577">  1  9  2 -1</clus>
<clus scale="   89.802">  5  6 -1 -1</clus>
<clus scale="   90.571">  7  8 -1 -1</clus>
<clus scale="  110.128">  1  5  2 -1</clus>
<clus scale="   23.577">  1  5  2 -1</clus>
</clustering>
</event>
<event>
 9    1  0.1782981E-005  0.1897893E+03  0.7546771E-02  0.1159387E+00
         -1   -1    0    0    0  501 -0.00000000000E+00  0.00000000000E+00  0.26333201912E+03  0.26333201912E+03  0.00000000000E+00 0.  1.
          1   -1    0    0  502    0  0.00000000000E+00 -0.00000000000E+00 -0.23379775858E+03  0.23379775858E+03  0.00000000000E+00 0. -1.
         23    2    1    2    0    0  0.77668733182E+02 -0.15252887098E+03  0.16668266199E+03  0.25564665227E+03  0.90964896605E+02 0.  0.
         23    2    1    2    0    0 -0.64223467962E+02  0.13665221476E+03 -0.10204507842E+03  0.20067765204E+03  0.84022856202E+02 0.  0.
        -13    1    4    4    0    0  0.90185064801E+01  0.25238817603E+02 -0.51556565431E+02  0.58106891262E+02  0.00000000000E+00 0.  1.
         13    1    4    4    0    0 -0.73241974442E+02  0.11141339715E+03 -0.50488512993E+02  0.14257076078E+03  0.00000000000E+00 0. -1.
        -13    1    3    3    0    0  0.37299952462E+02 -0.31590879537E+01  0.20002850393E+02  0.42442670913E+02  0.00000000000E+00 0. -1.
         13    1    3    3    0    0  0.40368780720E+02 -0.14936978303E+03  0.14667981160E+03  0.21320398136E+03  0.00000000000E+00 0.  1.
         21    1    1    2  502  501 -0.13445265220E+02  0.15876656224E+02 -0.35103323027E+02  0.40805473373E+02  0.00000000000E+00 0.  1.
<scales pt_clust_5="13000.00000" pt_clust_6="13000.00000" pt_clust_7="13000.00000" pt_clust_8="13000.00000" pt_clust_9="20.80489"></scales>
<clustering>
<clus scale="   20.805">  2  9  1 -1</clus>
<clus scale="   84.023">  5  6 -1 -1</clus>
<clus scale="   90.965">  7  8 -1 -1</clus>
<clus scale="  186.562">  2  5  1 -1</clus>
<clus scale="   20.805">  2  5  1 -1</clus>
</clustering>
</event>
<event>
 9    1  0.1782981E-005  0.1015840E+03  0.7546771E-02  0.1278287E+00
          1   -1    0    0  502    0  0.00000000000E+00  0.00000000000E+00  0.23342096278E+03  0.23342096278E+03  0.00000000000E+00 0. -1.
         -1   -1    0    0    0  501 -0.00000000000E+00 -0.00000000000E+00 -0.86486340143E+02  0.86486340143E+02  0.00000000000E+00 0.  1.
         23    2    1    2    0    0  0.42901963672E+01  0.47180767447E+02  0.62452834497E+01  0.10044978025E+03  0.88355668670E+02 0.  0.
         23    2    1    2    0    0  0.19316519984E+02 -0.41080235033E+02  0.30016593542E+02  0.10613078186E+03  0.91115494383E+02 0.  0.
        -11    1    4    4    0    0 -0.33778047312E+02 -0.30917948765E+02  0.35165560019E+01  0.45926486934E+02  0.00000000000E+00 0.  1.
         11    1    4    4    0    0  0.53094567295E+02 -0.10162286268E+02  0.26500037540E+02  0.60204294930E+02  0.00000000000E+00 0. -1.
        -13    1    3    3    0    0 -0.10909585949E+02  0.67679099371E+02 -0.11304636237E+02  0.69478589204E+02  0.00000000000E+00 0.  1.
         13    1    3    3    0    0  0.15199782316E+02 -0.20498331924E+02  0.17549919687E+02  0.30971191051E+02  0.00000000000E+00 0. -1.
         21    1    1    2  502  501 -0.23606716351E+02 -0.61005324141E+01  0.11067274565E+03  0.11332674081E+03  0.00000000000E+00 0.  1.
<scales pt_clust_5="13000.00000" pt_clust_6="13000.00000" pt_clust_7="13000.00000" pt_clust_8="13000.00000" pt_clust_9="24.38224"></scales>
<clustering>
<clus scale="   24.382">  1  9  2 -1</clus>
<clus scale="   88.356">  7  8 -1 -1</clus>
<clus scale="   91.115">  5  6 -1 -1</clus>
<clus scale="   99.116">  2  7  1 -1</clus>
<clus scale="   24.382">  1  5  2 -1</clus>
</clustering>
</event>
<event>
 9    1  0.1782981E-005  0.9639716E+02  0.7546771E-02  0.1289768E+00
          2   -1    0    0  502    0  0.00000000000E+00  0.00000000000E+00  0.32521563589E+03  0.32521563589E+03  0.00000000000E+00 0. -1.
         -2   -1    0    0    0  501 -0.00000000000E+00 -0.00000000000E+00 -0.39815408861E+02  0.39815408861E+02  0.00000000000E+00 0.  1.
         23    2    1    2    0    0  0.10443721402E+02  0.14752268150E+02  0.78832937606E+02  0.12062630920E+03  0.89495104265E+02 0.  0.
         23    2    1    2    0    0 -0.24850742593E+02 -0.29853067255E+02  0.12587956052E+03  0.16106143354E+03  0.92662595406E+02 0.  0.
        -13    1    4    4    0    0 -0.45946251779E+02 -0.36663317837E+02  0.36994766431E+02  0.69454083182E+02  0.00000000000E+00 0.  1.
         13    1    4    4    0    0  0.21095509185E+02  0.68102505827E+01  0.88884794085E+02  0.91607350361E+02  0.00000000000E+00 0. -1.
        -13    1    3    3    0    0  0.39325486064E+02 -0.17667977426E+02  0.20049633189E+02  0.47546178307E+02  0.00000000000E+00 0.  1.
         13    1    3    3    0    0 -0.28881764662E+02  0.32420245576E+02  0.58783304416E+02  0.73080130893E+02  0.00000000000E+00 0. -1.
         21    1    1    2  502  501  0.14407021191E+02  0.15100799105E+02  0.80687728910E+02  0.83343302010E+02  0.00000000000E+00 0. -1.
<scales pt_clust_5="13000.00000" pt_clust_6="13000.00000" pt_clust_7="13000.00000" pt_clust_8="13000.00000" pt_clust_9="20.87095"></scales>
<clustering>
<clus scale="   20.871">  1  9  2 -1</clus>
<clus scale="   89.495">  7  8 -1 -1</clus>
<clus scale="   92.663">  5  6 -1 -1</clus>
<clus scale="   93.356">  2  7  1 -1</clus>
<clus scale="   20.871">  1  5  2 -1</clus>
</clustering>
</event>
<event>
 9    1  0.1782981E-005  0.1046688E+03  0.7546771E-02  0.1274037E+00
          1   -1    0    0  502    0  0.00000000000E+00  0.00000000000E+00  0.14089803122E+03  0.14089803122E+03  0.00000000000E+00 0. -1.
         -1   -1    0    0    0  501 -0.00000000000E+00 -0.00000000000E+00 -0.46829853897E+03  0.46829853897E+03  0.00000000000E+00 0.  1.
         23    2    1    2    0    0  0.28604368604E+02  0.17837742748E+02 -0.30748226851E+03  0.32381953104E+03  0.95798477346E+02 0.  0.
         23    2    1    2    0    0 -0.64265583079E+02 -0.13029239961E+02 -0.12943141156E+03  0.17010354337E+03  0.88785690892E+02 0.  0.
        -11    1    3    3    0    0 -0.29910037302E+02  0.21041081069E+02 -0.17764243867E+03  0.18136750933E+03  0.00000000000E+00 0.  1.
         11    1    3    3    0    0  0.58514405906E+02 -0.32033383215E+01 -0.12983982984E+03  0.14245202171E+03  0.00000000000E+00 0. -1.
        -13    1    4    4    0    0 -0.58446190653E+02  0.18750342658E+02 -0.35806125121E+02  0.71060616011E+02  0.00000000000E+00 0. -1.
         13    1    4    4    0    0 -0.58193924263E+01 -0.31779582619E+02 -0.93625286441E+02  0.99042927364E+02  0.00000000000E+00 0.  1.
         21    1    1    2  502  501  0.35661214476E+02 -0.48085027870E+01  0.10951317233E+03  0.11527349578E+03  0.00000000000E+00 0. -1.
<scales pt_clust_5="13000.00000" pt_clust_6="13000.00000" pt_clust_7="13000.00000" pt_clust_8="13000.00000" pt_clust_9="35.98394"></scales>
<clustering>
<clus scale="   35.984">  1  9  2 -1</clus>
<clus scale="   88.786">  7  8 -1 -1</clus>
<clus scale="   95.798">  5  6 -1 -1</clus>
<clus scale="   98.291">  1  7  2 -1</clus>
<clus scale="   35.984">  1  5  2 -1</clus>
</clustering>
</event>
<event>
 9    1  0.1782981E-005  0.1153954E+03  0.7546771E-02  0.1251257E+00
         -2   -1    0    0    0  501 -0.00000000000E+00  0.00000000000E+00  0.11662900525E+03  0.11662900525E+03  0.00000000000E+00 0.  1.
          2   -1    0    0  502    0  0.00000000000E+00 -0.00000000000E+00 -0.42948789435E+03  0.42948789435E+03  0.00000000000E+00 0. -1.
         23    2    1    2    0    0  0.19721585206E+02 -0.44362740648E+02 -0.18899977498E+02  0.10410311000E+03  0.90129100087E+02 0.  0.
         23    2    1    2    0    0  0.31027252614E+02  0.10413871870E+03 -0.28444375965E+01  0.14052374155E+03  0.89057666583E+02 0.  0.
        -11    1    3    3    0    0  0.45634069662E+02 -0.77589278752E+01  0.14138419654E+02  0.48400043244E+02  0.00000000000E+00 0.  1.
         11    1    3    3    0    0 -0.25912484456E+02 -0.36603812773E+02 -0.33038397152E+02  0.55703066761E+02  0.00000000000E+00 0. -1.
        -13    1    4    4    0    0  0.59852874597E+02  0.88406318958E+02  0.45637827725E+01  0.10685912194E+03  0.00000000000E+00 0.  1.
         13    1    4    4    0    0 -0.28825621983E+02  0.15732399741E+02 -0.74082203690E+01  0.33664619608E+02  0.00000000000E+00 0. -1.
         21    1    1    2  502  501 -0.50748837821E+02 -0.59775978052E+02 -0.29111447401E+03  0.30149004804E+03  0.00000000000E+00 0. -1.
<scales pt_clust_5="13000.00000" pt_clust_6="13000.00000" pt_clust_7="13000.00000" pt_clust_8="13000.00000" pt_clust_9="78.41309"></scales>
<clustering>
<clus scale="   78.413">  2  9  1 -1</clus>
<clus scale="   89.058">  7  8 -1 -1</clus>
<clus scale="   90.129">  5  6 -1 -1</clus>
<clus scale="  114.561">  2  7  1 -1</clus>
<clus scale="   78.413">  2  5  1 -1</clus>
</clustering>
</event>
<event>
 9    1  0.1782981E-005  0.1164317E+03  0.7546771E-02  0.1249572E+00
          1   -1    0    0  502    0  0.00000000000E+00  0.00000000000E+00  0.70724884474E+03  0.70724884474E+03  0.00000000000E+00 0. -1.
         -1   -1    0    0    0  501 -0.00000000000E+00 -0.00000000000E+00 -0.27803166206E+02  0.27803166206E+02  0.00000000000E+00 0.  1.
         23    2    1    2    0    0  0.79926306374E+02 -0.21070026170E+02  0.19151166148E+03  0.22741569439E+03  0.90603648487E+02 0.  0.
         23    2    1    2    0    0 -0.52516947072E+02  0.10858870756E+02  0.32211294828E+03  0.33925529767E+03  0.91986198649E+02 0.  0.
        -11    1    4    4    0    0 -0.67248527824E+01 -0.19089075845E+02  0.10358549243E+02  0.22735786857E+02  0.00000000000E+00 0.  1.
         11    1    4    4    0    0 -0.45792094290E+02  0.29947946601E+02  0.31175439904E+03  0.31651951081E+03  0.00000000000E+00 0. -1.
        -13    1    3    3    0    0 -0.71656194722E+01  0.23656753341E+02  0.40220132662E+02  0.47208549569E+02  0.00000000000E+00 0. -1.
         13    1    3    3    0    0  0.87091925846E+02 -0.44726779510E+02  0.15129152882E+03  0.18020714483E+03  0.00000000000E+00 0.  1.
         21    1    1    2  502  501 -0.27409359301E+02  0.10211155414E+02  0.16582106877E+03  0.16838101888E+03  0.00000000000E+00 0. -1.
<scales pt_clust_5="13000.00000" pt_clust_6="13000.00000" pt_clust_7="13000.00000" pt_clust_8="13000.00000" pt_clust_9="29.24963"></scales>
<clustering>
<clus scale="   29.250">  1  9  2 -1</clus>
<clus scale="   90.604">  7  8 -1 -1</clus>
<clus scale="   91.986">  5  6 -1 -1</clus>
<clus scale="  115.342">  2  7  1 -1</clus>
<clus scale="   29.250">  1  5  2 -1</clus>
</clustering>
</event>
<event>
 9    1  0.1782981E-005  0.1379211E+03  0.7546771E-02  0.1217176E+00
         -1   -1    0    0    0  501 -0.00000000000E+00  0.00000000000E+00  0.48939588929E+02  0.48939588929E+02  0.00000000000E+00 0.  1.
          1   -1    0    0  502    0  0.00000000000E+00 -0.00000000000E+00 -0.57566601141E+03  0.57566601141E+03  0.00000000000E+00 0. -1.
         23    2    1    2    0    0  0.39730402459E+02  0.10222581379E+03 -0.12708458107E+03  0.19328943182E+03  0.95821144954E+02 0.  0.
         23    2    1    2    0    0 -0.49710935944E+02 -0.65429220163E+02 -0.28225293500E+03  0.30789106695E+03  0.91531578077E+02 0.  0.
        -13    1    3    3    0    0 -0.76082652175E+01  0.51487827423E+02 -0.11019986461E+03  0.12187244246E+03  0.00000000000E+00 0. -1.
         13    1    3    3    0    0  0.47338667676E+02  0.50737986372E+02 -0.16884716466E+02  0.71416989355E+02  0.00000000000E+00 0.  1.
        -13    1    4    4    0    0  0.17487370759E+01  0.20488078382E+02 -0.28958305155E+02  0.35516233958E+02  0.00000000000E+00 0.  1.
         13    1    4    4    0    0 -0.51459673020E+02 -0.85917298544E+02 -0.25329462985E+03  0.27237483299E+03  0.00000000000E+00 0. -1.
         21    1    1    2  502  501  0.99805334853E+01 -0.36796593631E+02 -0.11738890640E+03  0.12342510157E+03  0.00000000000E+00 0. -1.
<scales pt_clust_5="13000.00000" pt_clust_6="13000.00000" pt_clust_7="13000.00000" pt_clust_8="13000.00000" pt_clust_9="38.12611"></scales>
<clustering>
<clus scale="   38.126">  2  9  1 -1</clus>
<clus scale="   91.532">  7  8 -1 -1</clus>
<clus scale="   95.821">  5  6 -1 -1</clus>
<clus scale="  134.976">  2  7  1 -1</clus>
<clus scale="   38.126">  2  5  1 -1</clus>
</clustering>
</event>
<event>
 9    1  0.1782981E-005  0.9579366E+02  0.7546771E-02  0.1290594E+00
          1   -1    0    0  502    0  0.00000000000E+00  0.00000000000E+00  0.41119937685E+03  0.41119937685E+03  0.00000000000E+00 0. -1.
         -1   -1    0    0    0  501 -0.00000000000E+00 -0.00000000000E+00 -0.55363996778E+02  0.55363996778E+02  0.00000000000E+00 0.  1.
         23    2    1    2    0    0 -0.30759272624E+02  0.13767472994E+02  0.16821196999E+02  0.99975458163E+02  0.92609197175E+02 0.  0.
         23    2    1    2    0    0 -0.63055454402E+01 -0.56490656831E+01  0.16355817419E+03  0.18707602079E+03  0.90412882739E+02 0.  0.
        -11    1    3    3    0    0 -0.32790498901E+02 -0.11486872338E+02 -0.30543088845E+02  0.46260623974E+02  0.00000000000E+00 0.  1.
         11    1    3    3    0    0  0.20312262764E+01  0.25254345332E+02  0.47364285845E+02  0.53714834189E+02  0.00000000000E+00 0. -1.
        -13    1    4    4    0    0  0.13359902197E+02 -0.44631585004E+02  0.94747899309E+02  0.10558233654E+03  0.00000000000E+00 0. -1.
         13    1    4    4    0    0 -0.19665447637E+02  0.38982519321E+02  0.68810274881E+02  0.81493684250E+02  0.00000000000E+00 0.  1.
         21    1    1    2  502  501  0.37064818065E+02 -0.81184073110E+01  0.17545600888E+03  0.17951189467E+03  0.00000000000E+00 0. -1.
<scales pt_clust_5="13000.00000" pt_clust_6="13000.00000" pt_clust_7="13000.00000" pt_clust_8="13000.00000" pt_clust_9="37.94350"></scales>
<clustering>
<clus scale="   37.944">  1  9  2 -1</clus>
<clus scale="   90.413">  7  8 -1 -1</clus>
<clus scale="   92.609">  5  6 -1 -1</clus>
<clus scale="   93.672">  1  7  2 -1</clus>
<clus scale="   37.944">  1  5  2 -1</clus>
</clustering>
</event>
<event>
 9    1  0.1782981E-005  0.9543362E+02  0.7546771E-02  0.1290241E+00
          1   -1    0    0  502    0  0.00000000000E+00  0.00000000000E+00  0.14803235655E+03  0.14803235655E+03  0.00000000000E+00 0. -1.
         -1   -1    0    0    0  501 -0.00000000000E+00 -0.00000000000E+00 -0.10191555479E+03  0.10191555479E+03  0.00000000000E+00 0.  1.
         23    2    1    2    0    0 -0.41284295117E+02  0.32400760764E+01 -0.12399870029E+02  0.99009539307E+02  0.89074356471E+02 0.  0.
         23    2    1    2    0    0  0.13855837532E+02 -0.33851053249E+02  0.30036644384E+02  0.10093373055E+03  0.89148975976E+02 0.  0.
        -11    1    3    3    0    0  0.16061056113E+02  0.23535189693E+02 -0.23793053530E+02  0.37121046235E+02  0.00000000000E+00 0. -1.
         11    1    3    3    0    0 -0.57345351230E+02 -0.20295113616E+02  0.11393183500E+02  0.61888493072E+02  0.00000000000E+00 0.  1.
        -13    1    4    4    0    0  0.37511415258E+02 -0.52232720875E+02  0.30036875803E+02  0.70975892475E+02  0.00000000000E+00 0.  1.
         13    1    4    4    0    0 -0.23655577726E+02  0.18381667625E+02 -0.23141912802E-03  0.29957838078E+02  0.00000000000E+00 0. -1.
         21    1    1    2  502  501  0.27428457584E+02  0.30610977173E+02  0.28480027399E+02  0.50004641481E+02  0.00000000000E+00 0. -1.
<scales pt_clust_5="13000.00000" pt_clust_6="13000.00000" pt_clust_7="13000.00000" pt_clust_8="13000.00000" pt_clust_9="41.10173"></scales>
<clustering>
<clus scale="   41.102">  1  9  2 -1</clus>
<clus scale="   89.074">  5  6 -1 -1</clus>
<clus scale="   89.149">  7  8 -1 -1</clus>
<clus scale="   95.364">  2  5  1 -1</clus>
<clus scale="   41.102">  1  5  2 -1</clus>
</clustering>
</event>
<event>
 9    1  0.1782981E-005  0.1532008E+03  0.7546771E-02  0.1196750E+00
          2   -1    0    0  502    0  0.00000000000E+00  0.00000000000E+00  0.10543356859E+04  0.10543356859E+04  0.00000000000E+00 0. -1.
         -2   -1    0    0    0  501 -0.00000000000E+00 -0.00000000000E+00 -0.95669623109E+02  0.95669623109E+02  0.00000000000E+00 0.  1.
         23    2    1    2    0    0 -0.10450470025E+03  0.63470101181E+02 -0.12427308193E+02  0.15281699029E+03  0.90823501449E+02 0.  0.
         23    2    1    2    0    0  0.77156666960E+02 -0.11632583181E+03  0.72937826302E+03  0.74825492079E+03  0.91694740935E+02 0.  0.
        -11    1    4    4    0    0 -0.19039711601E+02 -0.38540537542E+02  0.16868410538E+03  0.17407530284E+03  0.00000000000E+00 0.  1.
         11    1    4    4    0    0  0.96196378562E+02 -0.77785294272E+02  0.56069415764E+03  0.57417961795E+03  0.00000000000E+00 0. -1.
        -13    1    3    3    0    0 -0.72871826120E+02  0.85603956656E+02 -0.17855993521E+02  0.11382959607E+03  0.00000000000E+00 0.  1.
         13    1    3    3    0    0 -0.31632874127E+02 -0.22133855475E+02  0.54286853277E+01  0.38987394221E+02  0.00000000000E+00 0. -1.
         21    1    1    2  502  501  0.27348033287E+02  0.52855730633E+02  0.24171510797E+03  0.24893339793E+03  0.00000000000E+00 0. -1.
<scales pt_clust_5="13000.00000" pt_clust_6="13000.00000" pt_clust_7="13000.00000" pt_clust_8="13000.00000" pt_clust_9="59.51171"></scales>
<clustering>
<clus scale="   59.512">  1  9  2 -1</clus>
<clus scale="   90.824">  7  8 -1 -1</clus>
<clus scale="   91.695">  5  6 -1 -1</clus>
<clus scale="  152.681">  2  7  1 -1</clus>
<clus scale="   59.512">  1  5  2 -1</clus>
</clustering>
</event>
<event>
 9    1  0.1782981E-005  0.1811108E+03  0.7546771E-02  0.1167053E+00
          1   -1    0    0  502    0  0.00000000000E+00  0.00000000000E+00  0.26753962417E+03  0.26753962417E+03  0.00000000000E+00 0. -1.
         -1   -1    0    0    0  501 -0.00000000000E+00 -0.00000000000E+00 -0.18688622933E+03  0.18688622933E+03  0.00000000000E+00 0.  1.
         23    2    1    2    0    0  0.11286685381E+03  0.55195278241E+02  0.45611956733E+02  0.16177343971E+03  0.91130399814E+02 0.  0.
         23    2    1    2    0    0 -0.14143108463E+03 -0.12723803171E+03  0.15032094722E+02  0.21261212749E+03  0.93731982110E+02 0.  0.
        -13    1    4    4    0    0 -0.30058275358E+02 -0.92732647579E+01 -0.30805212188E+02  0.44027882697E+02  0.00000000000E+00 0.  1.
         13    1    4    4    0    0 -0.11137280927E+03 -0.11796476695E+03  0.45837306910E+02  0.16858424479E+03  0.00000000000E+00 0. -1.
        -13    1    3    3    0    0  0.87847310076E+02  0.68781189510E+02  0.43663363480E+01  0.11165602004E+03  0.00000000000E+00 0.  1.
         13    1    3    3    0    0  0.25019543732E+02 -0.13585911269E+02  0.41245620385E+02  0.50117419671E+02  0.00000000000E+00 0. -1.
         21    1    1    2  502  501  0.28564230821E+02  0.72042753468E+02  0.20009343387E+02  0.80040286309E+02  0.00000000000E+00 0.  1.
<scales pt_clust_5="13000.00000" pt_clust_6="13000.00000" pt_clust_7="13000.00000" pt_clust_8="13000.00000" pt_clust_9="77.49886"></scales>
<clustering>
<clus scale="   77.499">  1  9  2 -1</clus>
<clus scale="   91.130">  7  8 -1 -1</clus>
<clus scale="   93.732">  5  6 -1 -1</clus>
<clus scale="  179.778">  2  7  1 -1</clus>
<clus scale="   77.499">  1  5  2 -1</clus>
</clustering>
</event>
<event>
 9    1  0.1782981E-005  0.9993305E+02  0.7546771E-02  0.1280719E+00
         -1   -1    0    0    0  501 -0.00000000000E+00  0.00000000000E+00  0.27329997251E+02  0.27329997251E+02  0.00000000000E+00 0.  1.
          1   -1    0    0  502    0  0.00000000000E+00 -0.00000000000E+00 -0.53801674970E+03  0.53801674970E+03  0.00000000000E+00 0. -1.
         23    2    1    2    0    0 -0.19151145425E+02  0.53451681705E+02 -0.17769403170E+03  0.20847989334E+03  0.93085167317E+02 0.  0.
         23    2    1    2    0    0  0.93700854885E+01 -0.23528591805E+02 -0.26810905363E+03  0.28474923648E+03  0.92510917759E+02 0.  0.
        -11    1    4    4    0    0 -0.15478647346E+02 -0.46062915496E+02 -0.79461166957E+02  0.93142137413E+02  0.00000000000E+00 0. -1.
         11    1    4    4    0    0  0.24848732835E+02  0.22534323691E+02 -0.18864788667E+03  0.19160709907E+03  0.00000000000E+00 0.  1.
        -13    1    3    3    0    0 -0.45113671437E+02 -0.36645261630E+01 -0.60610602316E+02  0.75645999336E+02  0.00000000000E+00 0. -1.
         13    1    3    3    0    0  0.25962526012E+02  0.57116207868E+02 -0.11708342939E+03  0.13283389400E+03  0.00000000000E+00 0.  1.
         21    1    1    2  502  501  0.97810599366E+01 -0.29923089899E+02 -0.64883667119E+02  0.72117617136E+02  0.00000000000E+00 0. -1.
<scales pt_clust_5="13000.00000" pt_clust_6="13000.00000" pt_clust_7="13000.00000" pt_clust_8="13000.00000" pt_clust_9="31.48111"></scales>
<clustering>
<clus scale="   31.481">  1  9  2 -1</clus>
<clus scale="   92.511">  5  6 -1 -1</clus>
<clus scale="   93.085">  7  8 -1 -1</clus>
<clus scale="   99.398">  2  5  1 -1</clus>
<clus scale="   99.398">  2  5  1 -1</clus>
</clustering>
</event>
<event>
 9    1  0.1782981E-005  0.9843002E+02  0.7546771E-02  0.1288208E+00
          2   -1    0    0  502    0  0.00000000000E+00  0.00000000000E+00  0.11455425154E+03  0.11455425154E+03  0.00000000000E+00 0. -1.
         -2   -1    0    0    0  501 -0.00000000000E+00 -0.00000000000E+00 -0.13023718613E+03  0.13023718613E+03  0.00000000000E+00 0.  1.
         23    2    1    2    0    0 -0.55313914738E+02  0.85059742374E+01 -0.16854449377E+02  0.10995674930E+03  0.93136638820E+02 0.  0.
         23    2    1    2    0    0  0.17319792703E+02 -0.10451435301E+02  0.24422342124E+02  0.90248377705E+02  0.84493261059E+02 0.  0.
        -11    1    3    3    0    0 -0.38473298019E+02 -0.41052988928E+02 -0.10431648839E+02  0.57222039965E+02  0.00000000000E+00 0.  1.
         11    1    3    3    0    0 -0.16840616719E+02  0.49558963165E+02 -0.64228005379E+01  0.52734709331E+02  0.00000000000E+00 0. -1.
        -11    1    4    4    0    0 -0.33247996778E+02 -0.10970129432E+02  0.17706852094E+02  0.39233985785E+02  0.00000000000E+00 0. -1.
         11    1    4    4    0    0  0.50567789481E+02  0.51869413086E+00  0.67154900300E+01  0.51014391920E+02  0.00000000000E+00 0.  1.
         21    1    1    2  502  501  0.37994122034E+02  0.19454610635E+01 -0.23250827337E+02  0.44586310677E+02  0.00000000000E+00 0.  1.
<scales pt_clust_5="13000.00000" pt_clust_6="13000.00000" pt_clust_7="13000.00000" pt_clust_8="13000.00000" pt_clust_9="38.04390"></scales>
<clustering>
<clus scale="   38.044">  2  9  1 -1</clus>
<clus scale="   84.493">  7  8 -1 -1</clus>
<clus scale="   90.295">  1  7  2 -1</clus>
<clus scale="   93.137">  5  6 -1 -1</clus>
<clus scale="   90.295">  1  5  2 -1</clus>
</clustering>
</event>
<event>
 9    1  0.1782981E-005  0.1564157E+03  0.7546771E-02  0.1217788E+00
          2   -1    0    0  502    0  0.00000000000E+00  0.00000000000E+00  0.71887634842E+03  0.71887634842E+03  0.00000000000E+00 0. -1.
         -2   -1    0    0    0  501 -0.00000000000E+00 -0.00000000000E+00 -0.58805955552E+02  0.58805955552E+02  0.00000000000E+00 0.  1.
         23    2    1    2    0    0 -0.14678400166E+02 -0.26969077658E+01  0.10564795294E+03  0.13966435481E+03  0.90121658346E+02 0.  0.
         23    2    1    2    0    0 -0.11780142589E+03 -0.33795355250E+02  0.41553200919E+03  0.44263846885E+03  0.90789104371E+02 0.  0.
        -11    1    4    4    0    0 -0.78016197007E+01  0.22446483944E+02  0.11986694068E+03  0.12219980924E+03  0.00000000000E+00 0.  1.
         11    1    4    4    0    0 -0.10999980619E+03 -0.56241839193E+02  0.29566506851E+03  0.32043865961E+03  0.00000000000E+00 0. -1.
        -11    1    3    3    0    0 -0.31273270235E+02  0.32977747877E+02  0.30181566427E+02  0.54557091548E+02  0.00000000000E+00 0.  1.
         11    1    3    3    0    0  0.16594870069E+02 -0.35674655642E+02  0.75466386510E+02  0.85107263266E+02  0.00000000000E+00 0. -1.
         21    1    1    2  502  501  0.13247982605E+03  0.36492263015E+02  0.13889043074E+03  0.19537948030E+03  0.00000000000E+00 0.  1.
<scales pt_clust_5="13000.00000" pt_clust_6="13000.00000" pt_clust_7="13000.00000" pt_clust_8="13000.00000" pt_clust_9="127.37032"></scales>
<clustering>
<clus scale="   90.122">  7  8 -1 -1</clus>
<clus scale="   90.789">  5  6 -1 -1</clus>
<clus scale="   91.349">  2  7  1 -1</clus>
<clus scale="  127.370">  2  9  1 -1</clus>
<clus scale="  156.416">  1  5  2 -1</clus>
</clustering>
</event>
<event>
 9    1  0.1782981E-005  0.9716815E+02  0.7546771E-02  0.1289330E+00
         -1   -1    0    0    0  501 -0.00000000000E+00  0.00000000000E+00  0.11341679734E+03  0.11341679734E+03  0.00000000000E+00 0.  1.
          1   -1    0    0  502    0  0.00000000000E+00 -0.00000000000E+00 -0.26153033583E+03  0.26153033583E+03  0.00000000000E+00 0. -1.
         23    2    1    2    0    0 -0.75951133409E+01 -0.36887767254E+02  0.70808604469E+02  0.12118607124E+03  0.90850494094E+02 0.  0.
         23    2    1    2    0    0  0.25109714297E+02  0.11690369344E+02 -0.11723930205E+03  0.14754867920E+03  0.85196222343E+02 0.  0.
        -11    1    4    4    0    0 -0.13203797899E+02  0.32431401290E+02 -0.18451062099E+02  0.39580017195E+02  0.00000000000E+00 0.  1.
         11    1    4    4    0    0  0.38313512196E+02 -0.20741031946E+02 -0.98788239949E+02  0.10796866200E+03  0.00000000000E+00 0. -1.
        -13    1    3    3    0    0 -0.27214183497E+02 -0.54398979441E+02  0.72736641045E+02  0.94818140132E+02  0.00000000000E+00 0.  1.
         13    1    3    3    0    0  0.19619070156E+02  0.17511212187E+02 -0.19280365761E+01  0.26367931112E+02  0.00000000000E+00 0. -1.
         21    1    1    2  502  501 -0.17514600956E+02  0.25197397910E+02 -0.10168284091E+03  0.10621238272E+03  0.00000000000E+00 0.  1.
<scales pt_clust_5="13000.00000" pt_clust_6="13000.00000" pt_clust_7="13000.00000" pt_clust_8="13000.00000" pt_clust_9="30.68664"></scales>
<clustering>
<clus scale="   30.687">  2  9  1 -1</clus>
<clus scale="   85.196">  5  6 -1 -1</clus>
<clus scale="   90.850">  7  8 -1 -1</clus>
<clus scale="   91.903">  2  5  1 -1</clus>
<clus scale="   30.687">  2  5  1 -1</clus>
</clustering>
</event>
<event>
 9    1  0.1782981E-005  0.2595440E+03  0.7546771E-02  0.1107613E+00
          2   -1    0    0  502    0  0.00000000000E+00  0.00000000000E+00  0.51823710813E+03  0.51823710813E+03  0.00000000000E+00 0. -1.
         -2   -1    0    0    0  501 -0.00000000000E+00 -0.00000000000E+00 -0.23771472107E+03  0.23771472107E+03  0.00000000000E+00 0.  1.
         23    2    1    2    0    0 -0.26429909803E+03  0.26119423747E+02 -0.71840923200E+02  0.29015402505E+03  0.92152061778E+02 0.  0.
         23    2    1    2    0    0  0.23551840550E+03 -0.30719929247E+02  0.35537862125E+03  0.43649618281E+03  0.88443879282E+02 0.  0.
        -11    1    3    3    0    0 -0.12157047078E+03  0.34030243861E+02  0.78615882674E+01  0.12648810787E+03  0.00000000000E+00 0.  1.
         11    1    3    3    0    0 -0.14272862725E+03 -0.79108201136E+01 -0.79702511468E+02  0.16366591718E+03  0.00000000000E+00 0. -1.
        -11    1    4    4    0    0  0.80241150977E+02 -0.32010858250E+02  0.68363761075E+02  0.11016778651E+03  0.00000000000E+00 0.  1.
         11    1    4    4    0    0  0.15527725452E+03  0.12909290038E+01  0.28701486018E+03  0.32632839630E+03  0.00000000000E+00 0. -1.
         21    1    1    2  502  501  0.28780692528E+02  0.46005054992E+01 -0.30153109874E+01  0.29301621348E+02  0.00000000000E+00 0. -1.
<scales pt_clust_5="13000.00000" pt_clust_6="13000.00000" pt_clust_7="13000.00000" pt_clust_8="13000.00000" pt_clust_9="29.14606"></scales>
<clustering>
<clus scale="   29.146">  2  9  1 -1</clus>
<clus scale="   88.444">  7  8 -1 -1</clus>
<clus scale="   92.152">  5  6 -1 -1</clus>
<clus scale="  258.251">  1  7  2 -1</clus>
<clus scale="  258.251">  1  5  2 -1</clus>
</clustering>
</event>
<event>
 9    1  0.1782981E-005  0.1936299E+03  0.7546771E-02  0.1155451E+00
         -1   -1    0    0    0  501 -0.00000000000E+00  0.00000000000E+00  0.71433452284E+03  0.71433452284E+03  0.00000000000E+00 0.  1.
          1   -1    0    0  502    0  0.00000000000E+00 -0.00000000000E+00 -0.11521931219E+03  0.11521931219E+03  0.00000000000E+00 0. -1.
         23    2    1    2    0    0  0.40070160752E+02  0.18041741899E+03  0.57243712283E+03  0.60823302334E+03  0.90039370397E+02 0.  0.
         23    2    1    2    0    0 -0.25787914331E+02 -0.10970149360E+03  0.38284565766E+01  0.14564498785E+03  0.92186610650E+02 0.  0.
        -11    1    3    3    0    0  0.63276207574E+02  0.14824111850E+03  0.39919476347E+03  0.43050640744E+03  0.00000000000E+00 0.  1.
         11    1    3    3    0    0 -0.23206046823E+02  0.32176300484E+02  0.17324235936E+03  0.17772661590E+03  0.00000000000E+00 0. -1.
        -13    1    4    4    0    0 -0.58777504575E+02 -0.60138478232E+02 -0.95192080029E+01  0.84628877631E+02  0.00000000000E+00 0.  1.
         13    1    4    4    0    0  0.32989590244E+02 -0.49563015364E+02  0.13347664580E+02  0.61016110218E+02  0.00000000000E+00 0. -1.
         21    1    1    2  502  501 -0.14282246420E+02 -0.70715925391E+02  0.22849631241E+02  0.75675823845E+02  0.00000000000E+00 0. -1.
<scales pt_clust_5="13000.00000" pt_clust_6="13000.00000" pt_clust_7="13000.00000" pt_clust_8="13000.00000" pt_clust_9="72.14378"></scales>
<clustering>
<clus scale="   72.144">  2  9  1 -1</clus>
<clus scale="   90.039">  5  6 -1 -1</clus>
<clus scale="   92.187">  7  8 -1 -1</clus>
<clus scale="  192.617">  1  5  2 -1</clus>
<clus scale="   72.144">  2  5  1 -1</clus>
</clustering>
</event>
<event>
 9    1  0.1782981E-005  0.1171976E+03  0.7546771E-02  0.1249694E+00
          2   -1    0    0  502    0  0.00000000000E+00  0.00000000000E+00  0.48008775214E+02  0.48008775214E+02  0.00000000000E+00 0. -1.
         -2   -1    0    0    0  501 -0.00000000000E+00 -0.00000000000E+00 -0.45693620920E+03  0.45693620920E+03  0.00000000000E+00 0.  1.
         23    2    1    2    0    0 -0.67334114142E+02 -0.21202253025E+02 -0.26428394184E+03  0.28700938765E+03  0.86861776533E+02 0.  0.
         23    2    1    2    0    0  0.59287937224E+02  0.52711955752E+02 -0.13914948253E+03  0.18495398870E+03  0.92475886961E+02 0.  0.
        -11    1    3    3    0    0 -0.10346903543E+02 -0.39422269903E+02 -0.17393768565E+03  0.17864907575E+03  0.00000000000E+00 0.  1.
         11    1    3    3    0    0 -0.56987210599E+02  0.18220016878E+02 -0.90346256192E+02  0.10836031190E+03  0.00000000000E+00 0. -1.
        -11    1    4    4    0    0  0.17731203414E+02  0.32559571581E+02  0.13084315015E+01  0.37097618105E+02  0.00000000000E+00 0. -1.
         11    1    4    4    0    0  0.41556733810E+02  0.20152384171E+02 -0.14045791403E+03  0.14785637059E+03  0.00000000000E+00 0.  1.
         21    1    1    2  502  501  0.80461769182E+01 -0.31509702727E+02 -0.54940096216E+01  0.32981608067E+02  0.00000000000E+00 0. -1.
<scales pt_clust_5="13000.00000" pt_clust_6="13000.00000" pt_clust_7="13000.00000" pt_clust_8="13000.00000" pt_clust_9="32.52080"></scales>
<clustering>
<clus scale="   32.521">  1  9  2 -1</clus>
<clus scale="   86.862">  5  6 -1 -1</clus>
<clus scale="   92.476">  7  8 -1 -1</clus>
<clus scale="  112.820">  2  5  1 -1</clus>
<clus scale="   32.521">  1  5  2 -1</clus>
</clustering>
</event>
<event>
 9    1  0.1782981E-005  0.1384128E+03  0.7546771E-02  0.1218195E+00
          1   -1    0    0  502    0  0.00000000000E+00  0.00000000000E+00  0.61415107581E+03  0.61415107581E+03  0.00000000000E+00 0. -1.
         -1   -1    0    0    0  501 -0.00000000000E+00 -0.00000000000E+00 -0.46206776570E+02  0.46206776570E+02  0.00000000000E+00 0.  1.
         23    2    1    2    0    0 -0.60360339532E+02 -0.91440048072E+02  0.17981027286E+03  0.23384815358E+03  0.10172792993E+03 0.  0.
         23    2    1    2    0    0  0.52721161883E+02  0.58695242661E+02  0.18583403294E+03  0.22143442807E+03  0.90962990921E+02 0.  0.
        -11    1    4    4    0    0  0.56647521836E+02  0.30905865760E+01  0.13315914589E+03  0.14474063559E+03  0.00000000000E+00 0.  1.
         11    1    4    4    0    0 -0.39263599532E+01  0.55604656085E+02  0.52674887046E+02  0.76693792487E+02  0.00000000000E+00 0. -1.
        -11    1    3    3    0    0  0.14817611931E+02 -0.68751107913E+02  0.95897248456E+02  0.11892249040E+03  0.00000000000E+00 0. -1.
         11    1    3    3    0    0 -0.75177951463E+02 -0.22688940160E+02  0.83913024406E+02  0.11492566318E+03  0.00000000000E+00 0.  1.
         21    1    1    2  502  501  0.76391776495E+01  0.32744805412E+02  0.20229999344E+03  0.20507527073E+03  0.00000000000E+00 0.  1.
<scales pt_clust_5="13000.00000" pt_clust_6="13000.00000" pt_clust_7="13000.00000" pt_clust_8="13000.00000" pt_clust_9="33.62409"></scales>
<clustering>
<clus scale="   33.624">  1  9  2 -1</clus>
<clus scale="   90.963">  5  6 -1 -1</clus>
<clus scale="  101.728">  7  8 -1 -1</clus>
<clus scale="  130.705">  1  5  2 -1</clus>
<clus scale="   33.624">  1  5  2 -1</clus>
</clustering>
</event>
<event>
 9    1  0.1782981E-005  0.1350078E+03  0.7546771E-02  0.1222766E+00
         -2   -1    0    0    0  501 -0.00000000000E+00  0.00000000000E+00  0.52798399405E+02  0.52798399405E+02  0.00000000000E+00 0.  1.
          2   -1    0    0  502    0  0.00000000000E+00 -0.00000000000E+00 -0.64729121490E+03  0.64729121490E+03  0.00000000000E+00 0. -1.
         23    2    1    2    0    0  0.59409052820E+02 -0.82552569303E+02 -0.88665599894E+02  0.16756705682E+03  0.99361801868E+02 0.  0.
         23    2    1    2    0    0 -0.21832162041E+02  0.67955496299E+02 -0.27014497579E+03  0.29341752738E+03  0.89559726733E+02 0.  0.
        -11    1    4    4    0    0  0.25326022441E+02 -0.64076296770E+01 -0.52695719185E+02  0.58815847789E+02  0.00000000000E+00 0.  1.
         11    1    4    4    0    0 -0.47158184483E+02  0.74363125976E+02 -0.21744925661E+03  0.23460167959E+03  0.00000000000E+00 0. -1.
        -13    1    3    3    0    0  0.64775847961E+02 -0.94983430605E+01 -0.60327676291E+02  0.89025600400E+02  0.00000000000E+00 0. -1.
         13    1    3    3    0    0 -0.53667951409E+01 -0.73054226243E+02 -0.28337923603E+02  0.78541456417E+02  0.00000000000E+00 0.  1.
         21    1    1    2  502  501 -0.37576890778E+02  0.14597073004E+02 -0.23568223981E+03  0.23910503011E+03  0.00000000000E+00 0. -1.
<scales pt_clust_5="13000.00000" pt_clust_6="13000.00000" pt_clust_7="13000.00000" pt_clust_8="13000.00000" pt_clust_9="40.31250"></scales>
<clustering>
<clus scale="   40.312">  2  9  1 -1</clus>
<clus scale="   89.560">  5  6 -1 -1</clus>
<clus scale="   99.362">  7  8 -1 -1</clus>
<clus scale="  127.966">  2  5  1 -1</clus>
<clus scale="   40.312">  2  5  1 -1</clus>
</clustering>
</event>
<event>
 9    1  0.1782981E-005  0.2761448E+03  0.7546771E-02  0.1098035E+00
          1   -1    0    0  502    0  0.00000000000E+00  0.00000000000E+00  0.62841085056E+03  0.62841085056E+03  0.00000000000E+00 0. -1.
         -1   -1    0    0    0  501 -0.00000000000E+00 -0.00000000000E+00 -0.24245592607E+03  0.24245592607E+03  0.00000000000E+00 0.  1.
         23    2    1    2    0    0  0.26088048233E+03 -0.19130651589E+02 -0.73690845357E+02  0.28528039979E+03  0.86775330138E+02 0.  0.
         23    2    1    2    0    0 -0.25320415212E+03  0.55672856413E+02  0.24682408809E+03  0.36951387279E+03  0.91687306264E+02 0.  0.
        -13    1    4    4    0    0 -0.16018465766E+03  0.34636693061E+02  0.92748700168E+02  0.18831130194E+03  0.00000000000E+00 0. -1.
         13    1    4    4    0    0 -0.93019494458E+02  0.21036163351E+02  0.15407538792E+03  0.18120257085E+03  0.00000000000E+00 0.  1.
        -13    1    3    3    0    0  0.53622475809E+02 -0.15559369014E+02 -0.52962664416E+02  0.76957830648E+02  0.00000000000E+00 0. -1.
         13    1    3    3    0    0  0.20725800653E+03 -0.35712825753E+01 -0.20728180942E+02  0.20832256914E+03  0.00000000000E+00 0.  1.
         21    1    1    2  502  501 -0.76763302156E+01 -0.36542204823E+02  0.21282168175E+03  0.21607250404E+03  0.00000000000E+00 0. -1.
<scales pt_clust_5="13000.00000" pt_clust_6="13000.00000" pt_clust_7="13000.00000" pt_clust_8="13000.00000" pt_clust_9="37.33977"></scales>
<clustering>
<clus scale="   37.340">  1  9  2 -1</clus>
<clus scale="   86.775">  7  8 -1 -1</clus>
<clus scale="   91.687">  5  6 -1 -1</clus>
<clus scale="  274.553">  2  7  1 -1</clus>
<clus scale="   37.340">  1  5  2 -1</clus>
</clustering>
</event>
<event>
 9    1  0.1782981E-005  0.1559114E+03  0.7546771E-02  0.1193596E+00
         -2   -1    0    0    0  501 -0.00000000000E+00  0.00000000000E+00  0.29854280961E+03  0.29854280961E+03  0.00000000000E+00 0.  1.
          2   -1    0    0  502    0  0.00000000000E+00 -0.00000000000E+00 -0.13678589533E+03  0.13678589533E+03  0.00000000000E+00 0. -1.
         23    2    1    2    0    0  0.33442508752E+02  0.12437452693E+03  0.18682400278E+03  0.24463564054E+03  0.91410963609E+02 0.  0.
         23    2    1    2    0    0 -0.63873084221E+02 -0.10437862987E+03 -0.26160696000E+02  0.15426434221E+03  0.90213280620E+02 0.  0.
        -11    1    3    3    0    0 -0.23693832358E+02  0.34844926393E+02  0.19454044824E+02  0.46411490465E+02  0.00000000000E+00 0. -1.
         11    1    3    3    0    0  0.57136341110E+02  0.89529600537E+02  0.16736995795E+03  0.19822415008E+03  0.00000000000E+00 0.  1.
        -11    1    4    4    0    0  0.17352777495E+02 -0.50234018269E+02  0.20987537516E+00  0.53147149745E+02  0.00000000000E+00 0.  1.
         11    1    4    4    0    0 -0.81225861716E+02 -0.54144611597E+02 -0.26370571376E+02  0.10111719246E+03  0.00000000000E+00 0. -1.
         21    1    1    2  502  501  0.30430575468E+02 -0.19995897064E+02  0.10936075024E+01  0.36428722186E+02  0.00000000000E+00 0. -1.
<scales pt_clust_5="13000.00000" pt_clust_6="13000.00000" pt_clust_7="13000.00000" pt_clust_8="13000.00000" pt_clust_9="36.41230"></scales>
<clustering>
<clus scale="   36.412">  2  9  1 -1</clus>
<clus scale="   90.213">  7  8 -1 -1</clus>
<clus scale="   91.411">  5  6 -1 -1</clus>
<clus scale="  155.212">  2  7  1 -1</clus>
<clus scale="   36.412">  2  5  1 -1</clus>
</clustering>
</event>
<event>
 9    1  0.1782981E-005  0.1031110E+03  0.7546771E-02  0.1273956E+00
         -1   -1    0    0    0  501 -0.00000000000E+00  0.00000000000E+00  0.81665386467E+02  0.81665386467E+02  0.00000000000E+00 0.  1.
          1   -1    0    0  502    0  0.00000000000E+00 -0.00000000000E+00 -0.18982738759E+03  0.18982738759E+03  0.00000000000E+00 0. -1.
         23    2    1    2    0    0 -0.70106337416E+01  0.38723098691E+02 -0.81363740187E+01  0.99792187472E+02  0.91343597151E+02 0.  0.
         23    2    1    2    0    0  0.23042753369E+02 -0.60734913327E+02 -0.75371378149E+02  0.13496666718E+03  0.91189135458E+02 0.  0.
        -13    1    3    3    0    0 -0.35611094958E+01  0.67166170886E+02 -0.17763337293E+02  0.69566602361E+02  0.00000000000E+00 0. -1.
         13    1    3    3    0    0 -0.34495242458E+01 -0.28443072195E+02  0.96269632741E+01  0.30225585111E+02  0.00000000000E+00 0.  1.
        -13    1    4    4    0    0  0.53535756791E+02 -0.45190249485E+02 -0.25656017723E+02  0.74608760539E+02  0.00000000000E+00 0. -1.
         13    1    4    4    0    0 -0.30493003422E+02 -0.15544663842E+02 -0.49715360426E+02  0.60357906640E+02  0.00000000000E+00 0.  1.
         21    1    1    2  502  501 -0.16032119628E+02  0.22011814637E+02 -0.24654248954E+02  0.36733919404E+02  0.00000000000E+00 0.  1.
<scales pt_clust_5="13000.00000" pt_clust_6="13000.00000" pt_clust_7="13000.00000" pt_clust_8="13000.00000" pt_clust_9="27.23139"></scales>
<clustering>
<clus scale="   27.231">  2  9  1 -1</clus>
<clus scale="   91.189">  7  8 -1 -1</clus>
<clus scale="   91.344">  5  6 -1 -1</clus>
<clus scale="  102.974">  2  7  1 -1</clus>
<clus scale="   27.231">  2  5  1 -1</clus>
</clustering>
</event>
<event>
 9    1  0.1782981E-005  0.1172708E+03  0.7546771E-02  0.1257128E+00
          2   -1    0    0  502    0  0.00000000000E+00  0.00000000000E+00  0.18438110503E+03  0.18438110503E+03  0.00000000000E+00 0. -1.
         -2   -1    0    0    0  501 -0.00000000000E+00 -0.00000000000E+00 -0.78275131302E+02  0.78275131302E+02  0.00000000000E+00 0.  1.
         23    2    1    2    0    0 -0.27404768315E+02 -0.16512625783E+02  0.27871923050E+02  0.10080846029E+03  0.91442951804E+02 0.  0.
         23    2    1    2    0    0  0.14913267082E+02  0.35179288225E+02  0.61659878568E+02  0.13393388934E+03  0.11258933446E+03 0.  0.
        -13    1    3    3    0    0 -0.41537687452E+02  0.19677762954E+02 -0.94612669242E+01  0.46926638550E+02  0.00000000000E+00 0.  1.
         13    1    3    3    0    0  0.14132919138E+02 -0.36190388737E+02  0.37333189974E+02  0.53881821739E+02  0.00000000000E+00 0. -1.
        -13    1    4    4    0    0 -0.13767218572E+02  0.45496647736E+02 -0.16281211677E+02  0.50244990955E+02  0.00000000000E+00 0.  1.
         13    1    4    4    0    0  0.28680485654E+02 -0.10317359510E+02  0.77941090245E+02  0.83688898386E+02  0.00000000000E+00 0. -1.
         21    1    1    2  502  501  0.12491501233E+02 -0.18666662443E+02  0.16574172114E+02  0.27913886706E+02  0.00000000000E+00 0. -1.
<scales pt_clust_5="13000.00000" pt_clust_6="13000.00000" pt_clust_7="13000.00000" pt_clust_8="13000.00000" pt_clust_9="22.46067"></scales>
<clustering>
<clus scale="   22.461">  1  9  2 -1</clus>
<clus scale="   91.443">  5  6 -1 -1</clus>
<clus scale="   97.149">  2  5  1 -1</clus>
<clus scale="  112.589">  7  8 -1 -1</clus>
<clus scale="   22.461">  1  5  2 -1</clus>
</clustering>
</event>
<event>
 9    1  0.1782981E-005  0.1098769E+03  0.7546771E-02  0.1262942E+00
          1   -1    0    0  502    0  0.00000000000E+00  0.00000000000E+00  0.87990884361E+02  0.87990884361E+02  0.00000000000E+00 0. -1.
         -1   -1    0    0    0  501 -0.00000000000E+00 -0.00000000000E+00 -0.17565090063E+03  0.17565090063E+03  0.00000000000E+00 0.  1.
         23    2    1    2    0    0 -0.37833461687E+02 -0.28802598603E+02 -0.40122104001E+02  0.11157820043E+03  0.92622627218E+02 0.  0.
         23    2    1    2    0    0  0.20389955676E+02  0.53479150530E+02 -0.44512982508E+02  0.12169323196E+03  0.97734677871E+02 0.  0.
        -11    1    4    4    0    0  0.35737589874E+02 -0.14668923486E+02 -0.33181756400E+02  0.50925255070E+02  0.00000000000E+00 0.  1.
         11    1    4    4    0    0 -0.15347634198E+02  0.68148074016E+02 -0.11331226109E+02  0.70767976887E+02  0.00000000000E+00 0. -1.
        -13    1    3    3    0    0  0.17936195131E+02  0.20385532446E+02 -0.14905575003E+00  0.27153254805E+02  0.00000000000E+00 0.  1.
         13    1    3    3    0    0 -0.55769656818E+02 -0.49188131049E+02 -0.39973048251E+02  0.84424945627E+02  0.00000000000E+00 0. -1.
         21    1    1    2  502  501  0.17443506011E+02 -0.24676551927E+02 -0.30249297570E+01  0.30370352599E+02  0.00000000000E+00 0.  1.
<scales pt_clust_5="13000.00000" pt_clust_6="13000.00000" pt_clust_7="13000.00000" pt_clust_8="13000.00000" pt_clust_9="30.21933"></scales>
<clustering>
<clus scale="   30.219">  1  9  2 -1</clus>
<clus scale="   92.623">  7  8 -1 -1</clus>
<clus scale="   97.735">  5  6 -1 -1</clus>
<clus scale="  105.356">  2  7  1 -1</clus>
<clus scale="   30.219">  1  5  2 -1</clus>
</clustering>
</event>
<event>
 9    1  0.1782981E-005  0.9980269E+02  0.7546771E-02  0.1281599E+00
         -1   -1    0    0    0  501 -0.00000000000E+00  0.00000000000E+00  0.22538134891E+03  0.22538134891E+03  0.00000000000E+00 0.  1.
          1   -1    0    0  502    0  0.00000000000E+00 -0.00000000000E+00 -0.59198183304E+02  0.59198183304E+02  0.00000000000E+00 0. -1.
         23    2    1    2    0    0 -0.27334206748E+02 -0.42184677867E+02  0.11201260125E+03  0.15303380175E+03  0.91355436258E+02 0.  0.
         23    2    1    2    0    0  0.77867581484E+01  0.25911032611E+02  0.49016853209E+02  0.10559394796E+03  0.89528848612E+02 0.  0.
        -11    1    3    3    0    0 -0.27575925476E+02 -0.69252534002E+02  0.96147926101E+02  0.12165841042E+03  0.00000000000E+00 0.  1.
         11    1    3    3    0    0  0.24171872761E+00  0.27067856135E+02  0.15864675147E+02  0.31375391332E+02  0.00000000000E+00 0. -1.
        -13    1    4    4    0    0 -0.19745361378E+02  0.16966835847E+02  0.66749025125E+02  0.71646250214E+02  0.00000000000E+00 0. -1.
         13    1    4    4    0    0  0.27532119527E+02  0.89441967639E+01 -0.17732171916E+02  0.33947697746E+02  0.00000000000E+00 0.  1.
         21    1    1    2  502  501  0.19547448600E+02  0.16273645257E+02  0.51537111503E+01  0.25951782507E+02  0.00000000000E+00 0. -1.
<scales pt_clust_5="13000.00000" pt_clust_6="13000.00000" pt_clust_7="13000.00000" pt_clust_8="13000.00000" pt_clust_9="25.43490"></scales>
<clustering>
<clus scale="   25.435">  2  9  1 -1</clus>
<clus scale="   89.529">  7  8 -1 -1</clus>
<clus scale="   91.355">  5  6 -1 -1</clus>
<clus scale="   98.133">  2  7  1 -1</clus>
<clus scale="   25.435">  2  5  1 -1</clus>
</clustering>
</event>
<event>
 9    1  0.1782981E-005  0.1070808E+03  0.7546771E-02  0.1270824E+00
          1   -1    0    0  502    0  0.00000000000E+00  0.00000000000E+00  0.74445367701E+03  0.74445367701E+03  0.00000000000E+00 0. -1.
         -1   -1    0    0    0  501 -0.00000000000E+00 -0.00000000000E+00 -0.19702574707E+02  0.19702574707E+02  0.00000000000E+00 0.  1.
         23    2    1    2    0    0 -0.17833732224E+01 -0.45872284031E+02  0.30267491149E+03  0.31989947812E+03  0.92823096213E+02 0.  0.
         23    2    1    2    0    0  0.34761357299E+02  0.54589643411E+02  0.30680065244E+03  0.32404034571E+03  0.81774838304E+02 0.  0.
        -11    1    4    4    0    0 -0.22682848402E+02  0.38378364661E+02  0.12825025626E+03  0.13577753392E+03  0.00000000000E+00 0.  1.
         11    1    4    4    0    0  0.57444205702E+02  0.16211278750E+02  0.17855039618E+03  0.18826281179E+03  0.00000000000E+00 0. -1.
        -11    1    3    3    0    0  0.24154490176E+02  0.13759902949E+02  0.36411766974E+02  0.45810382000E+02  0.00000000000E+00 0. -1.
         11    1    3    3    0    0 -0.25937863398E+02 -0.59632186980E+02  0.26626314452E+03  0.27408909612E+03  0.00000000000E+00 0.  1.
         21    1    1    2  502  501 -0.32977984077E+02 -0.87173593795E+01  0.11527553837E+03  0.12021642789E+03  0.00000000000E+00 0.  1.
<scales pt_clust_5="13000.00000" pt_clust_6="13000.00000" pt_clust_7="13000.00000" pt_clust_8="13000.00000" pt_clust_9="34.11070"></scales>
<clustering>
<clus scale="   34.111">  1  9  2 -1</clus>
<clus scale="   81.775">  5  6 -1 -1</clus>
<clus scale="   92.823">  7  8 -1 -1</clus>
<clus scale="   97.659">  1  5  2 -1</clus>
<clus scale="   34.111">  1  5  2 -1</clus>
</clustering>
</event>
<event>
 9    1  0.1782981E-005  0.9107539E+02  0.7546771E-02  0.1302063E+00
         -3   -1    0    0    0  501 -0.00000000000E+00  0.00000000000E+00  0.37689248931E+02  0.37689248931E+02  0.00000000000E+00 0.  1.
          3   -1    0    0  502    0  0.00000000000E+00 -0.00000000000E+00 -0.32960026069E+03  0.32960026069E+03  0.00000000000E+00 0. -1.
         23    2    1    2    0    0 -0.15072135099E+02  0.16317206779E+02 -0.12988311983E+03  0.15952513509E+03  0.89917870385E+02 0.  0.
         23    2    1    2    0    0 -0.22399554359E+02 -0.11586170033E+02 -0.12905801426E+03  0.15762932638E+03  0.86919814309E+02 0.  0.
        -13    1    4    4    0    0  0.19516921276E+02 -0.28548749138E+02 -0.94764892401E+02  0.10087777815E+03  0.00000000000E+00 0. -1.
         13    1    4    4    0    0 -0.41916475635E+02  0.16962579105E+02 -0.34293121861E+02  0.56751548231E+02  0.00000000000E+00 0.  1.
        -13    1    3    3    0    0  0.34098728927E+02 -0.64195513494E+01 -0.29874907340E+02  0.45786941834E+02  0.00000000000E+00 0. -1.
         13    1    3    3    0    0 -0.49170864026E+02  0.22736758128E+02 -0.10000821249E+03  0.11373819325E+03  0.00000000000E+00 0.  1.
         21    1    1    2  502  501  0.37471689457E+02 -0.47310367460E+01 -0.32969877665E+02  0.50135048147E+02  0.00000000000E+00 0.  1.
<scales pt_clust_5="13000.00000" pt_clust_6="13000.00000" pt_clust_7="13000.00000" pt_clust_8="13000.00000" pt_clust_9="37.76917"></scales>
<clustering>
<clus scale="   37.769">  1  9  2 -1</clus>
<clus scale="   86.920">  5  6 -1 -1</clus>
<clus scale="   88.117">  2  5  1 -1</clus>
<clus scale="   89.918">  7  8 -1 -1</clus>
<clus scale="   88.117">  2  5  1 -1</clus>
</clustering>
</event>
<event>
 9    1  0.1782981E-005  0.1259555E+03  0.7546771E-02  0.1233702E+00
         -2   -1    0    0    0  501 -0.00000000000E+00  0.00000000000E+00  0.77449337574E+02  0.77449337574E+02  0.00000000000E+00 0.  1.
          2   -1    0    0  502    0  0.00000000000E+00 -0.00000000000E+00 -0.28145776721E+03  0.28145776721E+03  0.00000000000E+00 0. -1.
         23    2    1    2    0    0  0.65024790862E+02  0.26462738393E+02 -0.64249895125E+02  0.13262061398E+03  0.92367084387E+02 0.  0.
         23    2    1    2    0    0 -0.99501148102E+02 -0.37130889544E+02 -0.10192600579E+03  0.17400141754E+03  0.92781470223E+02 0.  0.
        -11    1    3    3    0    0  0.17154501172E+02  0.21361880796E+02  0.21133259535E+02  0.34600889008E+02  0.00000000000E+00 0.  1.
         11    1    3    3    0    0  0.47870289690E+02  0.51008575967E+01 -0.85383154660E+02  0.98019724969E+02  0.00000000000E+00 0. -1.
        -13    1    4    4    0    0 -0.14492357237E+02  0.24131462278E+02 -0.47532678195E+00  0.28152829796E+02  0.00000000000E+00 0.  1.
         13    1    4    4    0    0 -0.85008790865E+02 -0.61262351822E+02 -0.10145067901E+03  0.14584858774E+03  0.00000000000E+00 0. -1.
         21    1    1    2  502  501  0.34476357240E+02  0.10668151151E+02 -0.37832528724E+02  0.52285073273E+02  0.00000000000E+00 0.  1.
<scales pt_clust_5="13000.00000" pt_clust_6="13000.00000" pt_clust_7="13000.00000" pt_clust_8="13000.00000" pt_clust_9="36.08918"></scales>
<clustering>
<clus scale="   36.089">  2  9  1 -1</clus>
<clus scale="   92.367">  5  6 -1 -1</clus>
<clus scale="   92.781">  7  8 -1 -1</clus>
<clus scale="  125.651">  1  5  2 -1</clus>
<clus scale="   36.089">  2  5  1 -1</clus>
</clustering>
</event>
<event>
 9    1  0.1782981E-005  0.9368449E+02  0.7546771E-02  0.1294410E+00
          1   -1    0    0  502    0  0.00000000000E+00  0.00000000000E+00  0.54662620178E+03  0.54662620178E+03  0.00000000000E+00 0. -1.
         -1   -1    0    0    0  501 -0.00000000000E+00 -0.00000000000E+00 -0.23714721308E+02  0.23714721308E+02  0.00000000000E+00 0.  1.
         23    2    1    2    0    0 -0.13330132669E+02 -0.10636374742E+02  0.15384390987E+03  0.17952578209E+03  0.90943570005E+02 0.  0.
         23    2    1    2    0    0  0.81796644406E+00  0.37057077243E+02  0.25650600773E+03  0.27451934030E+03  0.90507680089E+02 0.  0.
        -11    1    3    3    0    0 -0.45683973934E+01 -0.40715922662E+02  0.27474321043E+02  0.49330466547E+02  0.00000000000E+00 0.  1.
         11    1    3    3    0    0 -0.87617352754E+01  0.30079547920E+02  0.12636958883E+03  0.13019531554E+03  0.00000000000E+00 0. -1.
        -11    1    4    4    0    0  0.44563174004E+02  0.29191052299E+02  0.13415463686E+03  0.14434493619E+03  0.00000000000E+00 0. -1.
         11    1    4    4    0    0 -0.43745207560E+02  0.78660249442E+01  0.12235137087E+03  0.13017440411E+03  0.00000000000E+00 0.  1.
         21    1    1    2  502  501  0.12512166225E+02 -0.26420702501E+02  0.11256156287E+03  0.11629580070E+03  0.00000000000E+00 0. -1.
<scales pt_clust_5="13000.00000" pt_clust_6="13000.00000" pt_clust_7="13000.00000" pt_clust_8="13000.00000" pt_clust_9="29.23368"></scales>
<clustering>
<clus scale="   29.234">  1  9  2 -1</clus>
<clus scale="   90.508">  7  8 -1 -1</clus>
<clus scale="   90.944">  5  6 -1 -1</clus>
<clus scale="   93.261">  1  7  2 -1</clus>
<clus scale="   29.234">  1  5  2 -1</clus>
</clustering>
</event>
<event>
 9    1  0.1782981E-005  0.9497274E+02  0.7546771E-02  0.1291466E+00
          3   -1    0    0  502    0  0.00000000000E+00  0.00000000000E+00  0.12267617128E+03  0.12267617128E+03  0.00000000000E+00 0. -1.
         -3   -1    0    0    0  501 -0.00000000000E+00 -0.00000000000E+00 -0.92675556863E+02  0.92675556863E+02  0.00000000000E+00 0.  1.
         23    2    1    2    0    0  0.31397539405E+02  0.14034644274E+02  0.32367427920E+01  0.97212420517E+02  0.90868044319E+02 0.  0.
         23    2    1    2    0    0 -0.22432865584E+02  0.53157613467E+01  0.17865891290E+02  0.95031351669E+02  0.90444883500E+02 0.  0.
        -11    1    4    4    0    0 -0.35536310778E+02 -0.29332312759E+02  0.31215429124E+02  0.55656239281E+02  0.00000000000E+00 0. -1.
         11    1    4    4    0    0  0.13103445195E+02  0.34648074105E+02 -0.13349537834E+02  0.39375112388E+02  0.00000000000E+00 0.  1.
        -13    1    3    3    0    0  0.63153347591E+02  0.16583990954E+02  0.16668919734E+01  0.65315791328E+02  0.00000000000E+00 0.  1.
         13    1    3    3    0    0 -0.31755808186E+02 -0.25493466803E+01  0.15698508186E+01  0.31896629189E+02  0.00000000000E+00 0. -1.
         21    1    1    2  502  501 -0.89646738214E+01 -0.19350405620E+02  0.88979803327E+01  0.23107955955E+02  0.00000000000E+00 0. -1.
<scales pt_clust_5="13000.00000" pt_clust_6="13000.00000" pt_clust_7="13000.00000" pt_clust_8="13000.00000" pt_clust_9="21.32612"></scales>
<clustering>
<clus scale="   21.326">  1  9  2 -1</clus>
<clus scale="   90.445">  5  6 -1 -1</clus>
<clus scale="   90.868">  7  8 -1 -1</clus>
<clus scale="   94.568">  1  5  2 -1</clus>
<clus scale="   21.326">  1  5  2 -1</clus>
</clustering>
</event>
<event>
 9    1  0.1782981E-005  0.9590000E+02  0.7546771E-02  0.1291659E+00
          1   -1    0    0  502    0  0.00000000000E+00  0.00000000000E+00  0.10984317540E+03  0.10984317540E+03  0.00000000000E+00 0. -1.
         -1   -1    0    0    0  501 -0.00000000000E+00 -0.00000000000E+00 -0.12093002824E+03  0.12093002824E+03  0.00000000000E+00 0.  1.
         23    2    1    2    0    0 -0.17941613835E+02  0.20116390006E+02 -0.41866037659E+02  0.99669159354E+02  0.86340057698E+02 0.  0.
         23    2    1    2    0    0  0.41241865153E+01 -0.41706575641E+02  0.15749027337E+02  0.10138935015E+03  0.90968791876E+02 0.  0.
        -11    1    3    3    0    0 -0.20368100497E+02 -0.31601207583E+02 -0.25270174867E+02  0.45299862874E+02  0.00000000000E+00 0.  1.
         11    1    3    3    0    0  0.24264866624E+01  0.51717597590E+02 -0.16595862791E+02  0.54369296480E+02  0.00000000000E+00 0. -1.
        -11    1    4    4    0    0 -0.11465824596E+02  0.27196064862E+02  0.45671041048E+01  0.29865523895E+02  0.00000000000E+00 0. -1.
         11    1    4    4    0    0  0.15590011112E+02 -0.68902640503E+02  0.11181923232E+02  0.71523826253E+02  0.00000000000E+00 0.  1.
         21    1    1    2  502  501  0.13817427319E+02  0.21590185635E+02  0.15030157487E+02  0.29714694135E+02  0.00000000000E+00 0. -1.
<scales pt_clust_5="13000.00000" pt_clust_6="13000.00000" pt_clust_7="13000.00000" pt_clust_8="13000.00000" pt_clust_9="25.63313"></scales>
<clustering>
<clus scale="   25.633">  1  9  2 -1</clus>
<clus scale="   86.340">  5  6 -1 -1</clus>
<clus scale="   90.969">  7  8 -1 -1</clus>
<clus scale="   91.521">  2  5  1 -1</clus>
<clus scale="   25.633">  1  5  2 -1</clus>
</clustering>
</event>
<event>
 9    1  0.1782981E-005  0.1301439E+03  0.7546771E-02  0.1237116E+00
          1   -1    0    0  502    0  0.00000000000E+00  0.00000000000E+00  0.11341755764E+03  0.11341755764E+03  0.00000000000E+00 0. -1.
         -1   -1    0    0    0  501 -0.00000000000E+00 -0.00000000000E+00 -0.20792053146E+03  0.20792053146E+03  0.00000000000E+00 0.  1.
         23    2    1    2    0    0  0.60241269090E+02 -0.90697385877E+01 -0.11403158486E+03  0.15811635626E+03  0.91029166266E+02 0.  0.
         23    2    1    2    0    0 -0.30389352782E+02  0.29338821125E+02  0.94493078433E+01  0.12575755038E+03  0.11807367561E+03 0.  0.
        -11    1    4    4    0    0  0.17322664700E+02 -0.37587405943E+02 -0.68910398512E+01  0.41956813845E+02  0.00000000000E+00 0.  1.
         11    1    4    4    0    0 -0.47712017481E+02  0.66926227067E+02  0.16340347695E+02  0.83800736538E+02  0.00000000000E+00 0. -1.
        -13    1    3    3    0    0  0.28092014116E+01 -0.31727890959E+02 -0.83235688205E+02  0.89121997667E+02  0.00000000000E+00 0.  1.
         13    1    3    3    0    0  0.57432067678E+02  0.22658152371E+02 -0.30795896657E+02  0.68994358592E+02  0.00000000000E+00 0. -1.
         21    1    1    2  502  501 -0.29851916308E+02 -0.20269082537E+02  0.10079303203E+02  0.37464182458E+02  0.00000000000E+00 0. -1.
<scales pt_clust_5="13000.00000" pt_clust_6="13000.00000" pt_clust_7="13000.00000" pt_clust_8="13000.00000" pt_clust_9="36.08286"></scales>
<clustering>
<clus scale="   36.083">  1  9  2 -1</clus>
<clus scale="   91.029">  7  8 -1 -1</clus>
<clus scale="  106.218">  2  7  1 -1</clus>
<clus scale="  118.074">  5  6 -1 -1</clus>
<clus scale="   36.083">  1  5  2 -1</clus>
</clustering>
</event>
<event>
 9    1  0.3820909E-005  0.4099309E+03  0.7546771E-02  0.1040454E+00
          2   -1    0    0  502    0  0.00000000000E+00  0.00000000000E+00  0.65618888780E+03  0.65618888780E+03  0.00000000000E+00 0. -1.
         -2   -1    0    0    0  501 -0.00000000000E+00 -0.00000000000E+00 -0.47948030398E+03  0.47948030398E+03  0.00000000000E+00 0.  1.
         23    2    1    2    0    0  0.15511087897E+03  0.37633407555E+03 -0.28388689397E+03  0.50485086410E+03  0.92714104739E+02 0.  0.
         23    2    1    2    0    0 -0.16465988783E+03 -0.32594278214E+03  0.42959318567E+03  0.57088830066E+03  0.89507378283E+02 0.  0.
        -11    1    4    4    0    0  0.56191535554E+01 -0.39595709606E+02  0.70505731540E+02  0.81058332612E+02  0.00000000000E+00 0. -1.
         11    1    4    4    0    0 -0.17027904139E+03 -0.28634707253E+03  0.35908745413E+03  0.48982996805E+03  0.00000000000E+00 0.  1.
        -13    1    3    3    0    0  0.47796293770E+02  0.22938102536E+03 -0.17864724413E+03  0.29464381603E+03  0.00000000000E+00 0.  1.
         13    1    3    3    0    0  0.10731458520E+03  0.14695305019E+03 -0.10523964985E+03  0.21020704807E+03  0.00000000000E+00 0. -1.
         21    1    1    2  502  501  0.95490088648E+01 -0.50391293416E+02  0.31002292116E+02  0.59930027022E+02  0.00000000000E+00 0. -1.
<scales pt_clust_5="13000.00000" pt_clust_6="13000.00000" pt_clust_7="13000.00000" pt_clust_8="13000.00000" pt_clust_9="51.28807"></scales>
<clustering>
<clus scale="   51.288">  1  9  2 -1</clus>
<clus scale="   89.507">  5  6 -1 -1</clus>
<clus scale="   92.714">  7  8 -1 -1</clus>
<clus scale="  409.218">  1  5  2 -1</clus>
<clus scale="   51.288">  1  5  2 -1</clus>
</clustering>
</event>
<event>
 9    1  0.1782981E-005  0.1250590E+03  0.7546771E-02  0.1236146E+00
         -2   -1    0    0    0  501 -0.00000000000E+00  0.00000000000E+00  0.19055667035E+03  0.19055667035E+03  0.00000000000E+00 0.  1.
          2   -1    0    0  502    0  0.00000000000E+00 -0.00000000000E+00 -0.12013122012E+03  0.12013122012E+03  0.00000000000E+00 0. -1.
         23    2    1    2    0    0 -0.70201827959E+02  0.50385546620E+02  0.10670548612E+03  0.16503091376E+03  0.91554037444E+02 0.  0.
         23    2    1    2    0    0  0.61397261221E+02 -0.28430678867E+02 -0.25968523812E+02  0.11985263803E+03  0.95458700110E+02 0.  0.
        -11    1    3    3    0    0 -0.50067250398E+02  0.71657949992E+02  0.10363604699E+03  0.13558031419E+03  0.00000000000E+00 0. -1.
         11    1    3    3    0    0 -0.20134577561E+02 -0.21272403372E+02  0.30694391307E+01  0.29450599576E+02  0.00000000000E+00 0.  1.
        -13    1    4    4    0    0  0.47063976409E+02  0.27962013714E+02 -0.28288120895E+02  0.61620693523E+02  0.00000000000E+00 0. -1.
         13    1    4    4    0    0  0.14333284812E+02 -0.56392692581E+02  0.23195970834E+01  0.58231944504E+02  0.00000000000E+00 0.  1.
         21    1    1    2  502  501  0.88045667378E+01 -0.21954867754E+02 -0.10311512081E+02  0.25804338684E+02  0.00000000000E+00 0.  1.
<scales pt_clust_5="13000.00000" pt_clust_6="13000.00000" pt_clust_7="13000.00000" pt_clust_8="13000.00000" pt_clust_9="23.65453"></scales>
<clustering>
<clus scale="   23.655">  2  9  1 -1</clus>
<clus scale="   91.554">  5  6 -1 -1</clus>
<clus scale="   95.459">  7  8 -1 -1</clus>
<clus scale="  122.105">  1  5  2 -1</clus>
<clus scale="   23.655">  2  5  1 -1</clus>
</clustering>
</event>
<event>
 9    1  0.1782981E-005  0.1019467E+03  0.7546771E-02  0.1277222E+00
          2   -1    0    0  502    0  0.00000000000E+00  0.00000000000E+00  0.55162072634E+03  0.55162072634E+03  0.00000000000E+00 0. -1.
         -2   -1    0    0    0  501 -0.00000000000E+00 -0.00000000000E+00 -0.75008116422E+02  0.75008116422E+02  0.00000000000E+00 0.  1.
         23    2    1    2    0    0  0.40828538616E+02 -0.97569350102E+01 -0.59792311562E+01  0.99634696356E+02  0.90161822111E+02 0.  0.
         23    2    1    2    0    0 -0.26225082433E+02  0.87473060533E+02  0.34020291611E+03  0.36412099622E+03  0.92232231299E+02 0.  0.
        -11    1    3    3    0    0  0.54251788626E+02 -0.27419415334E+02  0.21356571576E+02  0.64429683034E+02  0.00000000000E+00 0.  1.
         11    1    3    3    0    0 -0.13423250009E+02  0.17662480324E+02 -0.27335802733E+02  0.35205013322E+02  0.00000000000E+00 0. -1.
        -13    1    4    4    0    0  0.18764476059E+02  0.11155128388E+02  0.13608494303E+02  0.25724182559E+02  0.00000000000E+00 0.  1.
         13    1    4    4    0    0 -0.44989558492E+02  0.76317932145E+02  0.32659442180E+03  0.33839681366E+03  0.00000000000E+00 0. -1.
         21    1    1    2  502  501 -0.14603456184E+02 -0.77716125523E+02  0.14238892496E+03  0.16287315018E+03  0.00000000000E+00 0.  1.
<scales pt_clust_5="13000.00000" pt_clust_6="13000.00000" pt_clust_7="13000.00000" pt_clust_8="13000.00000" pt_clust_9="79.07627"></scales>
<clustering>
<clus scale="   79.076">  1  9  2 -1</clus>
<clus scale="   90.162">  5  6 -1 -1</clus>
<clus scale="   92.232">  7  8 -1 -1</clus>
<clus scale="  100.077">  2  5  1 -1</clus>
<clus scale="   79.076">  1  5  2 -1</clus>
</clustering>
</event>
<event>
 9    1  0.1782981E-005  0.1233402E+03  0.7546771E-02  0.1237957E+00
          1   -1    0    0  502    0  0.00000000000E+00  0.00000000000E+00  0.33324353814E+03  0.33324353814E+03  0.00000000000E+00 0. -1.
         -1   -1    0    0    0  501 -0.00000000000E+00 -0.00000000000E+00 -0.70923202003E+02  0.70923202003E+02  0.00000000000E+00 0.  1.
         23    2    1    2    0    0 -0.95964742426E+02 -0.18329985907E+02  0.64215006076E+02  0.14712591797E+03  0.89315444130E+02 0.  0.
         23    2    1    2    0    0  0.69023152410E+02 -0.14040886238E+02  0.10711796428E+03  0.15677904796E+03  0.90244498747E+02 0.  0.
        -13    1    4    4    0    0  0.39343042704E+01 -0.33663824538E+02  0.73500830706E+02  0.80938890202E+02  0.00000000000E+00 0.  1.
         13    1    4    4    0    0  0.65088848139E+02  0.19622938300E+02  0.33617133572E+02  0.75840157761E+02  0.00000000000E+00 0. -1.
        -13    1    3    3    0    0 -0.60556026788E+02 -0.35365467393E+02 -0.19713610515E+01  0.70154365001E+02  0.00000000000E+00 0.  1.
         13    1    3    3    0    0 -0.35408715638E+02  0.17035481486E+02  0.66186367127E+02  0.76971552967E+02  0.00000000000E+00 0. -1.
         21    1    1    2  502  501  0.26941590017E+02  0.32370872145E+02  0.90987365788E+02  0.10026177422E+03  0.00000000000E+00 0. -1.
<scales pt_clust_5="13000.00000" pt_clust_6="13000.00000" pt_clust_7="13000.00000" pt_clust_8="13000.00000" pt_clust_9="42.11559"></scales>
<clustering>
<clus scale="   42.116">  1  9  2 -1</clus>
<clus scale="   89.315">  7  8 -1 -1</clus>
<clus scale="   90.244">  5  6 -1 -1</clus>
<clus scale="  122.662">  2  7  1 -1</clus>
<clus scale="   42.116">  1  5  2 -1</clus>
</clustering>
</event>
<event>
 9    1  0.1782981E-005  0.9753250E+02  0.7546771E-02  0.1290387E+00
          2   -1    0    0  502    0  0.00000000000E+00  0.00000000000E+00  0.16149705839E+03  0.16149705839E+03  0.00000000000E+00 0. -1.
         -2   -1    0    0    0  501 -0.00000000000E+00 -0.00000000000E+00 -0.86541900451E+02  0.86541900451E+02  0.00000000000E+00 0.  1.
         23    2    1    2    0    0  0.27381412091E+01  0.21421556502E+02 -0.10773019090E+02  0.96312764541E+02  0.93240067423E+02 0.  0.
         23    2    1    2    0    0  0.10050945277E+02 -0.45353939192E+02  0.76707890528E+02  0.12313099815E+03  0.84375001830E+02 0.  0.
        -11    1    3    3    0    0 -0.12077681901E+02  0.56270336179E+02 -0.10150468443E+02  0.58440167209E+02  0.00000000000E+00 0.  1.
         11    1    3    3    0    0  0.14815823110E+02 -0.34848779677E+02 -0.62255064637E+00  0.37872597333E+02  0.00000000000E+00 0. -1.
        -11    1    4    4    0    0  0.40160608946E+02  0.14423847776E+01  0.38321499582E+02  0.55529202362E+02  0.00000000000E+00 0. -1.
         11    1    4    4    0    0 -0.30109663668E+02 -0.46796323970E+02  0.38386390947E+02  0.67601795784E+02  0.00000000000E+00 0.  1.
         21    1    1    2  502  501 -0.12789086487E+02  0.23932382690E+02  0.90202864970E+01  0.28595196150E+02  0.00000000000E+00 0.  1.
<scales pt_clust_5="13000.00000" pt_clust_6="13000.00000" pt_clust_7="13000.00000" pt_clust_8="13000.00000" pt_clust_9="27.13521"></scales>
<clustering>
<clus scale="   27.135">  1  9  2 -1</clus>
<clus scale="   84.375">  7  8 -1 -1</clus>
<clus scale="   89.096">  1  7  2 -1</clus>
<clus scale="   93.240">  5  6 -1 -1</clus>
<clus scale="   27.135">  1  5  2 -1</clus>
</clustering>
</event>
<event>
 9    1  0.1782981E-005  0.1332929E+03  0.7546771E-02  0.1228293E+00
         -1   -1    0    0    0  501 -0.00000000000E+00  0.00000000000E+00  0.88141144277E+02  0.88141144277E+02  0.00000000000E+00 0.  1.
          1   -1    0    0  502    0  0.00000000000E+00 -0.00000000000E+00 -0.41847785286E+03  0.41847785286E+03  0.00000000000E+00 0. -1.
         23    2    1    2    0    0 -0.23398244452E+02 -0.26600324013E+02 -0.61706027049E+01  0.10638538581E+03  0.10012351819E+03 0.  0.
         23    2    1    2    0    0  0.81288832862E+02  0.61668789333E+02 -0.30281354743E+03  0.32926143904E+03  0.79411188162E+02 0.  0.
        -13    1    3    3    0    0 -0.35031939483E+02 -0.56848841376E+02 -0.22014530738E+02  0.70311216128E+02  0.00000000000E+00 0.  1.
         13    1    3    3    0    0  0.11633695032E+02  0.30248517363E+02  0.15843928033E+02  0.36074169682E+02  0.00000000000E+00 0. -1.
        -13    1    4    4    0    0  0.11053837128E+01  0.40673853946E+02 -0.58407671246E+02  0.71183146379E+02  0.00000000000E+00 0.  1.
         13    1    4    4    0    0  0.80183449149E+02  0.20994935386E+02 -0.24440587619E+03  0.25807829266E+03  0.00000000000E+00 0. -1.
         21    1    1    2  502  501 -0.57890588410E+02 -0.35068465320E+02 -0.21352558442E+02  0.70972172282E+02  0.00000000000E+00 0.  1.
<scales pt_clust_5="13000.00000" pt_clust_6="13000.00000" pt_clust_7="13000.00000" pt_clust_8="13000.00000" pt_clust_9="67.68395"></scales>
<clustering>
<clus scale="   67.684">  1  9  2 -1</clus>
<clus scale="   79.411">  7  8 -1 -1</clus>
<clus scale="  100.124">  5  6 -1 -1</clus>
<clus scale="  118.526">  2  7  1 -1</clus>
<clus scale="  118.526">  2  5  1 -1</clus>
</clustering>
</event>
<event>
 9    1  0.1782981E-005  0.1321012E+03  0.7546771E-02  0.1224371E+00
          2   -1    0    0  502    0  0.00000000000E+00  0.00000000000E+00  0.15562422488E+03  0.15562422488E+03  0.00000000000E+00 0. -1.
         -2   -1    0    0    0  501 -0.00000000000E+00 -0.00000000000E+00 -0.17134725364E+03  0.17134725364E+03  0.00000000000E+00 0.  1.
         23    2    1    2    0    0 -0.10110670981E+03  0.63695815839E+01 -0.83455713980E+02  0.15962124263E+03  0.90834721142E+02 0.  0.
         23    2    1    2    0    0  0.83941786747E+02  0.13351294578E+02  0.43743617954E+02  0.13186752336E+03  0.90835339908E+02 0.  0.
        -11    1    3    3    0    0  0.11641772546E+02 -0.17263627426E+02 -0.11307459812E+02  0.23694352646E+02  0.00000000000E+00 0. -1.
         11    1    3    3    0    0 -0.11274848235E+03  0.23633209010E+02 -0.72148254168E+02  0.13592688998E+03  0.00000000000E+00 0.  1.
        -13    1    4    4    0    0  0.15573633714E+02  0.45165630371E+02  0.80887360220E+01  0.48455132693E+02  0.00000000000E+00 0.  1.
         13    1    4    4    0    0  0.68368153033E+02 -0.31814335793E+02  0.35654881932E+02  0.83412390666E+02  0.00000000000E+00 0. -1.
         21    1    1    2  502  501  0.17164923059E+02 -0.19720876162E+02  0.23989067265E+02  0.35482712529E+02  0.00000000000E+00 0. -1.
<scales pt_clust_5="13000.00000" pt_clust_6="13000.00000" pt_clust_7="13000.00000" pt_clust_8="13000.00000" pt_clust_9="26.14474"></scales>
<clustering>
<clus scale="   26.145">  1  9  2 -1</clus>
<clus scale="   90.835">  5  6 -1 -1</clus>
<clus scale="   90.835">  7  8 -1 -1</clus>
<clus scale="  132.101">  2  5  1 -1</clus>
<clus scale="   26.145">  1  5  2 -1</clus>
</clustering>
</event>
<event>
 9    1  0.1782981E-005  0.9995390E+02  0.7546771E-02  0.1287114E+00
          3   -1    0    0  502    0  0.00000000000E+00  0.00000000000E+00  0.15421453947E+03  0.15421453947E+03  0.00000000000E+00 0. -1.
         -3   -1    0    0    0  501 -0.00000000000E+00 -0.00000000000E+00 -0.82671262404E+02  0.82671262404E+02  0.00000000000E+00 0.  1.
         23    2    1    2    0    0  0.31171698962E+02 -0.37145711707E+02 -0.69634676979E+01  0.92193195400E+02  0.78100042775E+02 0.  0.
         23    2    1    2    0    0 -0.18653632714E+02  0.18829439718E+02  0.46808150766E+02  0.10600166873E+03  0.91339175503E+02 0.  0.
        -11    1    4    4    0    0 -0.36433031325E+02  0.94355174760E+00  0.65264017664E+02  0.74750572326E+02  0.00000000000E+00 0. -1.
         11    1    4    4    0    0  0.17779398610E+02  0.17885887970E+02 -0.18455866898E+02  0.31251096403E+02  0.00000000000E+00 0.  1.
        -11    1    3    3    0    0  0.29460640254E+02 -0.59662429240E+02  0.48348670570E+01  0.66715146155E+02  0.00000000000E+00 0.  1.
         11    1    3    3    0    0  0.17110587073E+01  0.22516717533E+02 -0.11798334755E+02  0.25478049246E+02  0.00000000000E+00 0. -1.
         21    1    1    2  502  501 -0.12518066248E+02  0.18316271989E+02  0.31698593999E+02  0.38690937746E+02  0.00000000000E+00 0. -1.
<scales pt_clust_5="13000.00000" pt_clust_6="13000.00000" pt_clust_7="13000.00000" pt_clust_8="13000.00000" pt_clust_9="22.18531"></scales>
<clustering>
<clus scale="   22.185">  1  9  2 -1</clus>
<clus scale="   78.100">  7  8 -1 -1</clus>
<clus scale="   88.020">  2  7  1 -1</clus>
<clus scale="   91.339">  5  6 -1 -1</clus>
<clus scale="   22.185">  1  5  2 -1</clus>
</clustering>
</event>
<event>
 9    1  0.1782981E-005  0.1214016E+03  0.7546771E-02  0.1241960E+00
          1   -1    0    0  502    0  0.00000000000E+00  0.00000000000E+00  0.96952410138E+02  0.96952410138E+02  0.00000000000E+00 0. -1.
         -1   -1    0    0    0  501 -0.00000000000E+00 -0.00000000000E+00 -0.23619717103E+03  0.23619717103E+03  0.00000000000E+00 0.  1.
         23    2    1    2    0    0  0.61434078191E+02  0.40972351714E+02 -0.85664289004E+02  0.14567854244E+03  0.91820410303E+02 0.  0.
         23    2    1    2    0    0 -0.86101295236E+02  0.28625546311E+01 -0.46318578904E+02  0.13665071110E+03  0.95427348448E+02 0.  0.
        -13    1    3    3    0    0  0.70788223101E+02  0.61789640720E+02 -0.60746406691E+02  0.11188859708E+03  0.00000000000E+00 0.  1.
         13    1    3    3    0    0 -0.93541449098E+01 -0.20817289005E+02 -0.24917882313E+02  0.33789945361E+02  0.00000000000E+00 0. -1.
        -13    1    4    4    0    0 -0.18562614789E+02 -0.42369774462E+02 -0.86444138452E+01  0.47058414195E+02  0.00000000000E+00 0.  1.
         13    1    4    4    0    0 -0.67538680446E+02  0.45232329094E+02 -0.37674165059E+02  0.89592296904E+02  0.00000000000E+00 0. -1.
         21    1    1    2  502  501  0.24667217045E+02 -0.43834906345E+02 -0.72618929872E+01  0.50820327634E+02  0.00000000000E+00 0.  1.
<scales pt_clust_5="13000.00000" pt_clust_6="13000.00000" pt_clust_7="13000.00000" pt_clust_8="13000.00000" pt_clust_9="50.29881"></scales>
<clustering>
<clus scale="   50.299">  1  9  2 -1</clus>
<clus scale="   91.820">  5  6 -1 -1</clus>
<clus scale="   95.427">  7  8 -1 -1</clus>
<clus scale="  118.587">  2  5  1 -1</clus>
<clus scale="   50.299">  1  5  2 -1</clus>
</clustering>
</event>
<event>
 9    1  0.1782981E-005  0.3117406E+03  0.7546771E-02  0.1093515E+00
         -2   -1    0    0    0  501 -0.00000000000E+00  0.00000000000E+00  0.55280730745E+03  0.55280730745E+03  0.00000000000E+00 0.  1.
          2   -1    0    0  502    0  0.00000000000E+00 -0.00000000000E+00 -0.15009743865E+04  0.15009743865E+04  0.00000000000E+00 0. -1.
         23    2    1    2    0    0  0.32055808599E+02 -0.19203423561E+03  0.11062265208E+03  0.24159415910E+03  0.90695336389E+02 0.  0.
         23    2    1    2    0    0 -0.24692900416E+03  0.38944446792E+03  0.20690558399E+03  0.51329342034E+03  0.89550477343E+02 0.  0.
        -11    1    4    4    0    0 -0.22449405134E+03  0.28484667444E+03  0.16397574435E+03  0.39802418489E+03  0.00000000000E+00 0.  1.
         11    1    4    4    0    0 -0.22434952817E+02  0.10459779348E+03  0.42929839646E+02  0.11526923545E+03  0.00000000000E+00 0. -1.
        -11    1    3    3    0    0 -0.17849463752E+02 -0.10763652451E+03  0.26199537784E+02  0.11220802353E+03  0.00000000000E+00 0.  1.
         11    1    3    3    0    0  0.49905272351E+02 -0.84397711101E+02  0.84423114300E+02  0.12938613556E+03  0.00000000000E+00 0. -1.
         21    1    1    2  502  501  0.21487319556E+03 -0.19741023230E+03 -0.12656953152E+04  0.12988941145E+04  0.00000000000E+00 0. -1.
<scales pt_clust_5="13000.00000" pt_clust_6="13000.00000" pt_clust_7="13000.00000" pt_clust_8="13000.00000" pt_clust_9="298.60163"></scales>
<clustering>
<clus scale="   89.550">  5  6 -1 -1</clus>
<clus scale="   90.695">  7  8 -1 -1</clus>
<clus scale="  214.780">  1  7  2 -1</clus>
<clus scale="  298.602">  2  9  1 -1</clus>
<clus scale="  298.602">  2  5  1 -1</clus>
</clustering>
</event>
<event>
 9    1  0.1782981E-005  0.1198005E+03  0.7546771E-02  0.1245963E+00
         -2   -1    0    0    0  501 -0.00000000000E+00  0.00000000000E+00  0.26462974392E+03  0.26462974392E+03  0.00000000000E+00 0.  1.
          2   -1    0    0  502    0  0.00000000000E+00 -0.00000000000E+00 -0.98761571262E+02  0.98761571262E+02  0.00000000000E+00 0. -1.
         23    2    1    2    0    0  0.86487909025E+02 -0.65758314058E+02  0.10379683571E+03  0.17501218066E+03  0.89728289868E+02 0.  0.
         23    2    1    2    0    0 -0.52499090828E+02  0.97646439384E+01  0.27230717546E+02  0.11418749337E+03  0.97189345377E+02 0.  0.
        -13    1    3    3    0    0  0.66567072030E+02 -0.31633353278E+01  0.82294244715E+02  0.10589393034E+03  0.00000000000E+00 0.  1.
         13    1    3    3    0    0  0.19920836995E+02 -0.62594978730E+02  0.21502590990E+02  0.69118250326E+02  0.00000000000E+00 0. -1.
        -13    1    4    4    0    0 -0.39242379266E+02  0.50040442566E+02  0.32575577762E+02  0.71450531763E+02  0.00000000000E+00 0.  1.
         13    1    4    4    0    0 -0.13256711562E+02 -0.40275798628E+02 -0.53448602154E+01  0.42736961606E+02  0.00000000000E+00 0. -1.
         21    1    1    2  502  501 -0.33988818197E+02  0.55993670119E+02  0.34840619404E+02  0.74191641149E+02  0.00000000000E+00 0.  1.
<scales pt_clust_5="13000.00000" pt_clust_6="13000.00000" pt_clust_7="13000.00000" pt_clust_8="13000.00000" pt_clust_9="65.50214"></scales>
<clustering>
<clus scale="   65.502">  1  9  2 -1</clus>
<clus scale="   89.728">  5  6 -1 -1</clus>
<clus scale="   97.189">  7  8 -1 -1</clus>
<clus scale="  113.831">  1  5  2 -1</clus>
<clus scale="  119.801">  2  5  1 -1</clus>
</clustering>
</event>
<event>
 9    1  0.1782981E-005  0.1042389E+03  0.7546771E-02  0.1271923E+00
         -2   -1    0    0    0  501 -0.00000000000E+00  0.00000000000E+00  0.11241199166E+03  0.11241199166E+03  0.00000000000E+00 0.  1.
          2   -1    0    0  502    0  0.00000000000E+00 -0.00000000000E+00 -0.15164839433E+03  0.15164839433E+03  0.00000000000E+00 0. -1.
         23    2    1    2    0    0 -0.37868589565E+02  0.14108535320E+02  0.18056058866E+02  0.10317815021E+03  0.93202084609E+02 0.  0.
         23    2    1    2    0    0  0.37687487069E+02 -0.51258688471E+02 -0.35325452264E+02  0.11772304007E+03  0.92536623886E+02 0.  0.
        -11    1    3    3    0    0 -0.59729513893E+02  0.27774906537E+02 -0.82009059451E+01  0.66380080757E+02  0.00000000000E+00 0.  1.
         11    1    3    3    0    0  0.21860924328E+02 -0.13666371217E+02  0.26256964811E+02  0.36798069457E+02  0.00000000000E+00 0. -1.
        -13    1    4    4    0    0  0.57249880928E+02 -0.35513347316E+01 -0.32851601939E+02  0.66101350929E+02  0.00000000000E+00 0.  1.
         13    1    4    4    0    0 -0.19562393859E+02 -0.47707353739E+02 -0.24738503249E+01  0.51621689141E+02  0.00000000000E+00 0. -1.
         21    1    1    2  502  501  0.18110249645E+00  0.37150153151E+02 -0.21967009272E+02  0.43159195702E+02  0.00000000000E+00 0.  1.
<scales pt_clust_5="13000.00000" pt_clust_6="13000.00000" pt_clust_7="13000.00000" pt_clust_8="13000.00000" pt_clust_9="37.15059"></scales>
<clustering>
<clus scale="   37.151">  2  9  1 -1</clus>
<clus scale="   92.537">  7  8 -1 -1</clus>
<clus scale="   93.202">  5  6 -1 -1</clus>
<clus scale="  103.644">  2  7  1 -1</clus>
<clus scale="   37.151">  2  5  1 -1</clus>
</clustering>
</event>
<event>
 9    1  0.1782981E-005  0.9758524E+02  0.7546771E-02  0.1285567E+00
         -3   -1    0    0    0  501 -0.00000000000E+00  0.00000000000E+00  0.29119667247E+02  0.29119667247E+02  0.00000000000E+00 0.  1.
          3   -1    0    0  502    0  0.00000000000E+00 -0.00000000000E+00 -0.66595053657E+03  0.66595053657E+03  0.00000000000E+00 0. -1.
         23    2    1    2    0    0 -0.12853355085E+02  0.24651931677E+02 -0.10976411100E+03  0.14413511501E+03  0.89184330703E+02 0.  0.
         23    2    1    2    0    0  0.35370760325E+02 -0.59737769912E+02 -0.30998651344E+03  0.32988784883E+03  0.88964388669E+02 0.  0.
        -11    1    4    4    0    0 -0.20189767544E+02 -0.34031486775E+02 -0.20124229081E+03  0.20509565675E+03  0.00000000000E+00 0. -1.
         11    1    4    4    0    0  0.55560527869E+02 -0.25706283136E+02 -0.10874422262E+03  0.12479219208E+03  0.00000000000E+00 0.  1.
        -13    1    3    3    0    0  0.26581877810E+01  0.57205891620E+02 -0.70391344721E+02  0.90744263785E+02  0.00000000000E+00 0.  1.
         13    1    3    3    0    0 -0.15511542866E+02 -0.32553959943E+02 -0.39372766283E+02  0.53390851228E+02  0.00000000000E+00 0. -1.
         21    1    1    2  502  501 -0.22517405240E+02  0.35085838235E+02 -0.21708024488E+03  0.22104723998E+03  0.00000000000E+00 0. -1.
<scales pt_clust_5="13000.00000" pt_clust_6="13000.00000" pt_clust_7="13000.00000" pt_clust_8="13000.00000" pt_clust_9="41.68992"></scales>
<clustering>
<clus scale="   41.690">  2  9  1 -1</clus>
<clus scale="   88.964">  5  6 -1 -1</clus>
<clus scale="   89.184">  7  8 -1 -1</clus>
<clus scale="   97.384">  2  5  1 -1</clus>
<clus scale="   41.690">  2  5  1 -1</clus>
</clustering>
</event>
<event>
 9    1  0.1782981E-005  0.9623197E+02  0.7546771E-02  0.1289489E+00
         -1   -1    0    0    0  501 -0.00000000000E+00  0.00000000000E+00  0.70224081264E+02  0.70224081264E+02  0.00000000000E+00 0.  1.
          1   -1    0    0  502    0  0.00000000000E+00 -0.00000000000E+00 -0.33053388838E+03  0.33053388838E+03  0.00000000000E+00 0. -1.
         23    2    1    2    0    0 -0.48851929929E+01 -0.27467693093E+02 -0.95423378872E+01  0.91846167854E+02  0.86984613942E+02 0.  0.
         23    2    1    2    0    0 -0.43805196408E+02  0.60221068081E+02 -0.12772195924E+03  0.17258962780E+03  0.89043857051E+02 0.  0.
        -11    1    3    3    0    0 -0.73277756142E+01 -0.58774253423E+02 -0.11687008570E+02  0.60371312146E+02  0.00000000000E+00 0.  1.
         11    1    3    3    0    0  0.24425826214E+01  0.31306560329E+02  0.21446706832E+01  0.31474855708E+02  0.00000000000E+00 0. -1.
        -13    1    4    4    0    0 -0.11917747143E+02 -0.18765741969E+02 -0.59305884889E+02  0.63335406773E+02  0.00000000000E+00 0.  1.
         13    1    4    4    0    0 -0.31887449266E+02  0.78986810050E+02 -0.68416074353E+02  0.10925422103E+03  0.00000000000E+00 0. -1.
         21    1    1    2  502  501  0.48690389401E+02 -0.32753374988E+02 -0.12304550999E+03  0.13632217399E+03  0.00000000000E+00 0. -1.
<scales pt_clust_5="13000.00000" pt_clust_6="13000.00000" pt_clust_7="13000.00000" pt_clust_8="13000.00000" pt_clust_9="58.68166"></scales>
<clustering>
<clus scale="   58.682">  2  9  1 -1</clus>
<clus scale="   86.985">  5  6 -1 -1</clus>
<clus scale="   89.044">  7  8 -1 -1</clus>
<clus scale="   94.330">  1  5  2 -1</clus>
<clus scale="   58.682">  2  5  1 -1</clus>
</clustering>
</event>
<event>
 9    1  0.1782981E-005  0.1035452E+03  0.7546771E-02  0.1274007E+00
          2   -1    0    0  502    0  0.00000000000E+00  0.00000000000E+00  0.23851023394E+03  0.23851023394E+03  0.00000000000E+00 0. -1.
         -2   -1    0    0    0  501 -0.00000000000E+00 -0.00000000000E+00 -0.75125214760E+02  0.75125214760E+02  0.00000000000E+00 0.  1.
         23    2    1    2    0    0  0.15496214987E+02  0.47975636417E+02  0.22084599969E+02  0.10698492478E+03  0.91740123206E+02 0.  0.
         23    2    1    2    0    0  0.19049251303E+02 -0.48029246221E+02  0.62947798076E+02  0.12102035777E+03  0.89519937699E+02 0.  0.
        -11    1    4    4    0    0 -0.85663405848E+01 -0.56726880099E+02  0.70699224450E+02  0.91047797637E+02  0.00000000000E+00 0. -1.
         11    1    4    4    0    0  0.27615591888E+02  0.86976338785E+01 -0.77514263734E+01  0.29972560138E+02  0.00000000000E+00 0.  1.
        -13    1    3    3    0    0  0.44683772867E+02  0.14897563402E+02  0.37550591742E+02  0.60238060170E+02  0.00000000000E+00 0.  1.
         13    1    3    3    0    0 -0.29187557879E+02  0.33078073016E+02 -0.15465991773E+02  0.46746864610E+02  0.00000000000E+00 0. -1.
         21    1    1    2  502  501 -0.34545466290E+02  0.53609803239E-01  0.78352621132E+02  0.85630166142E+02  0.00000000000E+00 0. -1.
<scales pt_clust_5="13000.00000" pt_clust_6="13000.00000" pt_clust_7="13000.00000" pt_clust_8="13000.00000" pt_clust_9="34.54551"></scales>
<clustering>
<clus scale="   34.546">  1  9  2 -1</clus>
<clus scale="   89.520">  5  6 -1 -1</clus>
<clus scale="   91.740">  7  8 -1 -1</clus>
<clus scale="  101.583">  1  5  2 -1</clus>
<clus scale="   34.546">  1  5  2 -1</clus>
</clustering>
</event>
<event>
 9    1  0.1782981E-005  0.1078496E+03  0.7546771E-02  0.1265821E+00
          1   -1    0    0  502    0  0.00000000000E+00  0.00000000000E+00  0.38661995361E+03  0.38661995361E+03  0.00000000000E+00 0. -1.
         -1   -1    0    0    0  501 -0.00000000000E+00 -0.00000000000E+00 -0.24799054155E+03  0.24799054155E+03  0.00000000000E+00 0.  1.
         23    2    1    2    0    0 -0.33397117453E+02 -0.44982193875E+02 -0.21059128488E+03  0.23578365130E+03  0.90035969090E+02 0.  0.
         23    2    1    2    0    0  0.68453541716E+02 -0.86142615885E+01  0.14950771536E+03  0.18909652194E+03  0.92977657441E+02 0.  0.
        -11    1    3    3    0    0 -0.35230456854E+01 -0.68066242877E+02 -0.14109427309E+03  0.15669403042E+03  0.00000000000E+00 0.  1.
         11    1    3    3    0    0 -0.29874071768E+02  0.23084049002E+02 -0.69497011798E+02  0.79089620882E+02  0.00000000000E+00 0. -1.
        -11    1    4    4    0    0  0.74409691586E+02 -0.34205682128E+02  0.78739356223E+02  0.11360773350E+03  0.00000000000E+00 0.  1.
         11    1    4    4    0    0 -0.59561498696E+01  0.25591420540E+02  0.70768359134E+02  0.75488788446E+02  0.00000000000E+00 0. -1.
         21    1    1    2  502  501 -0.35056424263E+02  0.53596455463E+02  0.19971298159E+03  0.20973032193E+03  0.00000000000E+00 0. -1.
<scales pt_clust_5="13000.00000" pt_clust_6="13000.00000" pt_clust_7="13000.00000" pt_clust_8="13000.00000" pt_clust_9="64.04321"></scales>
<clustering>
<clus scale="   64.043">  1  9  2 -1</clus>
<clus scale="   90.036">  5  6 -1 -1</clus>
<clus scale="   92.978">  7  8 -1 -1</clus>
<clus scale="  105.324">  2  5  1 -1</clus>
<clus scale="   64.043">  1  5  2 -1</clus>
</clustering>
</event>
<event>
 9    1  0.1782981E-005  0.1594460E+03  0.7546771E-02  0.1189365E+00
          1   -1    0    0  502    0  0.00000000000E+00  0.00000000000E+00  0.10190546871E+03  0.10190546871E+03  0.00000000000E+00 0. -1.
         -1   -1    0    0    0  501 -0.00000000000E+00 -0.00000000000E+00 -0.32594876393E+03  0.32594876393E+03  0.00000000000E+00 0.  1.
         23    2    1    2    0    0 -0.11583797641E+03 -0.83432906072E+02 -0.17502894802E+03  0.24395721586E+03  0.92198177484E+02 0.  0.
         23    2    1    2    0    0  0.93816214294E+02  0.58541782310E+02 -0.43167433933E+02  0.15015220320E+03  0.91943648137E+02 0.  0.
        -11    1    4    4    0    0 -0.22974932834E+01  0.42781390179E+02  0.17882916782E+01  0.42880342911E+02  0.00000000000E+00 0. -1.
         11    1    4    4    0    0  0.96113707577E+02  0.15760392131E+02 -0.44955725612E+02  0.10727186029E+03  0.00000000000E+00 0.  1.
        -13    1    3    3    0    0 -0.86214396887E+02 -0.97873733878E+02 -0.10829284374E+03  0.16952737248E+03  0.00000000000E+00 0. -1.
         13    1    3    3    0    0 -0.29623579526E+02  0.14440827806E+02 -0.66736104286E+02  0.74429843389E+02  0.00000000000E+00 0.  1.
         21    1    1    2  502  501  0.22021762120E+02  0.24891123762E+02 -0.58469132677E+01  0.33744813584E+02  0.00000000000E+00 0.  1.
<scales pt_clust_5="13000.00000" pt_clust_6="13000.00000" pt_clust_7="13000.00000" pt_clust_8="13000.00000" pt_clust_9="33.23441"></scales>
<clustering>
<clus scale="   33.234">  1  9  2 -1</clus>
<clus scale="   91.944">  5  6 -1 -1</clus>
<clus scale="   92.198">  7  8 -1 -1</clus>
<clus scale="  159.299">  1  5  2 -1</clus>
<clus scale="   33.234">  1  5  2 -1</clus>
</clustering>
</event>
<event>
 9    1  0.1782981E-005  0.1187563E+03  0.7546771E-02  0.1245298E+00
         -2   -1    0    0    0  501 -0.00000000000E+00  0.00000000000E+00  0.84376361573E+02  0.84376361573E+02  0.00000000000E+00 0.  1.
          2   -1    0    0  502    0  0.00000000000E+00 -0.00000000000E+00 -0.39877760362E+03  0.39877760362E+03  0.00000000000E+00 0. -1.
         23    2    1    2    0    0 -0.44416991183E+02  0.68273775443E+02  0.12391021531E+02  0.12280897959E+03  0.91073215248E+02 0.  0.
         23    2    1    2    0    0  0.52397561783E+01 -0.55017194838E+02 -0.26970156183E+03  0.28984717784E+03  0.90653776970E+02 0.  0.
        -11    1    3    3    0    0 -0.25223391183E+02  0.40830178212E+02 -0.38746336202E+02  0.61681451706E+02  0.00000000000E+00 0. -1.
         11    1    3    3    0    0 -0.19193600000E+02  0.27443597231E+02  0.51137357732E+02  0.61127527888E+02  0.00000000000E+00 0.  1.
        -11    1    4    4    0    0 -0.39664132615E+02 -0.28951080193E+02 -0.86898673184E+02  0.99813765892E+02  0.00000000000E+00 0.  1.
         11    1    4    4    0    0  0.44903888793E+02 -0.26066114645E+02 -0.18280288864E+03  0.19003341195E+03  0.00000000000E+00 0. -1.
         21    1    1    2  502  501  0.39177235005E+02 -0.13256580605E+02 -0.57090701755E+02  0.70497807759E+02  0.00000000000E+00 0.  1.
<scales pt_clust_5="13000.00000" pt_clust_6="13000.00000" pt_clust_7="13000.00000" pt_clust_8="13000.00000" pt_clust_9="41.35931"></scales>
<clustering>
<clus scale="   41.359">  2  9  1 -1</clus>
<clus scale="   90.654">  7  8 -1 -1</clus>
<clus scale="   91.073">  5  6 -1 -1</clus>
<clus scale="  118.435">  2  7  1 -1</clus>
<clus scale="   41.359">  2  5  1 -1</clus>
</clustering>
</event>
<event>
 9    1  0.1782981E-005  0.1174961E+03  0.7546771E-02  0.1247529E+00
          1   -1    0    0  502    0  0.00000000000E+00  0.00000000000E+00  0.28763825324E+03  0.28763825324E+03  0.00000000000E+00 0. -1.
         -1   -1    0    0    0  501 -0.00000000000E+00 -0.00000000000E+00 -0.87474973093E+02  0.87474973093E+02  0.00000000000E+00 0.  1.
         23    2    1    2    0    0 -0.23190774730E+02  0.66424126189E+02 -0.91389040978E+01  0.11567762888E+03  0.91366392524E+02 0.  0.
         23    2    1    2    0    0  0.48349597713E+02 -0.74417866971E+02  0.17577990454E+03  0.21676699656E+03  0.90629208501E+02 0.  0.
        -11    1    3    3    0    0 -0.52449283145E+02  0.50593729189E+02  0.15219649948E+02  0.74446561238E+02  0.00000000000E+00 0.  1.
         11    1    3    3    0    0  0.29258508415E+02  0.15830397001E+02 -0.24358554045E+02  0.41231067643E+02  0.00000000000E+00 0. -1.
        -13    1    4    4    0    0  0.26938617149E+02 -0.49226384836E+00  0.11662354582E+03  0.11969537526E+03  0.00000000000E+00 0.  1.
         13    1    4    4    0    0  0.21410980564E+02 -0.73925603123E+02  0.59156358722E+02  0.97071621306E+02  0.00000000000E+00 0. -1.
         21    1    1    2  502  501 -0.25158822983E+02  0.79937407816E+01  0.33522279703E+02  0.42668600892E+02  0.00000000000E+00 0.  1.
<scales pt_clust_5="13000.00000" pt_clust_6="13000.00000" pt_clust_7="13000.00000" pt_clust_8="13000.00000" pt_clust_9="26.39822"></scales>
<clustering>
<clus scale="   26.398">  1  9  2 -1</clus>
<clus scale="   90.629">  7  8 -1 -1</clus>
<clus scale="   91.366">  5  6 -1 -1</clus>
<clus scale="  116.924">  1  7  2 -1</clus>
<clus scale="   26.398">  1  5  2 -1</clus>
</clustering>
</event>
<event>
 9    1  0.1782981E-005  0.1077229E+03  0.7546771E-02  0.1265977E+00
         -1   -1    0    0    0  501 -0.00000000000E+00  0.00000000000E+00  0.12686913428E+03  0.12686913428E+03  0.00000000000E+00 0.  1.
          1   -1    0    0  502    0  0.00000000000E+00 -0.00000000000E+00 -0.11990735242E+03  0.11990735242E+03  0.00000000000E+00 0. -1.
         23    2    1    2    0    0  0.34374554123E+02 -0.40391625969E+02  0.39066451703E+02  0.11407870936E+03  0.93137913121E+02 0.  0.
         23    2    1    2    0    0 -0.19643614166E+02  0.55196780481E+02 -0.29121486766E+02  0.11160056015E+03  0.90410551821E+02 0.  0.
        -11    1    3    3    0    0 -0.20138486291E+02 -0.37872706577E+02 -0.59906360334E+01  0.43310371202E+02  0.00000000000E+00 0. -1.
         11    1    3    3    0    0  0.54513040415E+02 -0.25189193926E+01  0.45057087737E+02  0.70768338157E+02  0.00000000000E+00 0.  1.
        -13    1    4    4    0    0 -0.54020671691E+02  0.43664452199E+02 -0.29178734172E+02  0.75340665538E+02  0.00000000000E+00 0. -1.
         13    1    4    4    0    0  0.34377057526E+02  0.11532328282E+02  0.57247406555E-01  0.36259894608E+02  0.00000000000E+00 0.  1.
         21    1    1    2  502  501 -0.14730939958E+02 -0.14805154512E+02 -0.29831830811E+01  0.21097217197E+02  0.00000000000E+00 0. -1.
<scales pt_clust_5="13000.00000" pt_clust_6="13000.00000" pt_clust_7="13000.00000" pt_clust_8="13000.00000" pt_clust_9="20.88524"></scales>
<clustering>
<clus scale="   20.885">  2  9  1 -1</clus>
<clus scale="   90.411">  7  8 -1 -1</clus>
<clus scale="   93.138">  5  6 -1 -1</clus>
<clus scale="  105.374">  2  7  1 -1</clus>
<clus scale="   20.885">  2  5  1 -1</clus>
</clustering>
</event>
<event>
 9    1  0.1782981E-005  0.9853342E+02  0.7546771E-02  0.1284486E+00
         -1   -1    0    0    0  501 -0.00000000000E+00  0.00000000000E+00  0.15013220828E+03  0.15013220828E+03  0.00000000000E+00 0.  1.
          1   -1    0    0  502    0  0.00000000000E+00 -0.00000000000E+00 -0.10584247414E+03  0.10584247414E+03  0.00000000000E+00 0. -1.
         23    2    1    2    0    0  0.10272108084E+02 -0.52712223371E+01  0.42349570233E+02  0.98571668680E+02  0.88258630048E+02 0.  0.
         23    2    1    2    0    0 -0.52703962572E+02  0.22082585221E+02 -0.16395389330E+02  0.10821687026E+03  0.90425295003E+02 0.  0.
        -13    1    3    3    0    0 -0.28546551520E+02  0.27699086365E+01  0.50522104086E+02  0.58095275185E+02  0.00000000000E+00 0.  1.
         13    1    3    3    0    0  0.38818659603E+02 -0.80411309736E+01 -0.81725338534E+01  0.40476393495E+02  0.00000000000E+00 0. -1.
        -13    1    4    4    0    0 -0.29948869184E+02 -0.28503059485E+02  0.15591637295E+02  0.44186630545E+02  0.00000000000E+00 0.  1.
         13    1    4    4    0    0 -0.22755093388E+02  0.50585644706E+02 -0.31987026625E+02  0.64030239713E+02  0.00000000000E+00 0. -1.
         21    1    1    2  502  501  0.42431854489E+02 -0.16811362884E+02  0.18335553237E+02  0.49186143474E+02  0.00000000000E+00 0. -1.
<scales pt_clust_5="13000.00000" pt_clust_6="13000.00000" pt_clust_7="13000.00000" pt_clust_8="13000.00000" pt_clust_9="45.64082"></scales>
<clustering>
<clus scale="   45.641">  1  9  2 -1</clus>
<clus scale="   88.259">  5  6 -1 -1</clus>
<clus scale="   90.425">  7  8 -1 -1</clus>
<clus scale="   96.549">  1  5  2 -1</clus>
<clus scale="   98.533">  2  5  1 -1</clus>
</clustering>
</event>
<event>
 9    1  0.1782981E-005  0.1294975E+03  0.7546771E-02  0.1228782E+00
          2   -1    0    0  502    0  0.00000000000E+00  0.00000000000E+00  0.57099169227E+03  0.57099169227E+03  0.00000000000E+00 0. -1.
         -2   -1    0    0    0  501 -0.00000000000E+00 -0.00000000000E+00 -0.44479619239E+02  0.44479619239E+02  0.00000000000E+00 0.  1.
         23    2    1    2    0    0 -0.71936785897E+02  0.57946296946E+02  0.12916724939E+03  0.18443027845E+03  0.93795921012E+02 0.  0.
         23    2    1    2    0    0  0.39880631738E+02 -0.78399588548E+02  0.33147584574E+03  0.35498410434E+03  0.91654338434E+02 0.  0.
        -11    1    4    4    0    0  0.57742151071E+02 -0.26475788078E+02  0.24026436668E+03  0.24851979652E+03  0.00000000000E+00 0. -1.
         11    1    4    4    0    0 -0.17861519334E+02 -0.51923800470E+02  0.91211479055E+02  0.10646430782E+03  0.00000000000E+00 0.  1.
        -13    1    3    3    0    0 -0.60221326152E+02 -0.48623012580E+01  0.32631875443E+02  0.68666508517E+02  0.00000000000E+00 0.  1.
         13    1    3    3    0    0 -0.11715459745E+02  0.62808598204E+02  0.96535373951E+02  0.11576376993E+03  0.00000000000E+00 0. -1.
         21    1    1    2  502  501  0.32056154159E+02  0.20453291602E+02  0.65868977901E+02  0.76056928722E+02  0.00000000000E+00 0. -1.
<scales pt_clust_5="13000.00000" pt_clust_6="13000.00000" pt_clust_7="13000.00000" pt_clust_8="13000.00000" pt_clust_9="38.02544"></scales>
<clustering>
<clus scale="   38.025">  1  9  2 -1</clus>
<clus scale="   91.654">  5  6 -1 -1</clus>
<clus scale="   93.796">  7  8 -1 -1</clus>
<clus scale="  127.955">  1  5  2 -1</clus>
<clus scale="   38.025">  1  5  2 -1</clus>
</clustering>
</event>
<event>
 9    1  0.1782981E-005  0.2081577E+03  0.7546771E-02  0.1166735E+00
         -1   -1    0    0    0  501 -0.00000000000E+00  0.00000000000E+00  0.25673748682E+03  0.25673748682E+03  0.00000000000E+00 0.  1.
          1   -1    0    0  502    0  0.00000000000E+00 -0.00000000000E+00 -0.76519846913E+03  0.76519846913E+03  0.00000000000E+00 0. -1.
         23    2    1    2    0    0  0.19390505439E+03  0.18111331096E+02  0.17850932151E+03  0.27726628411E+03  0.84165456124E+02 0.  0.
         23    2    1    2    0    0 -0.43633015339E+02 -0.64414710377E+02 -0.19922335980E+03  0.23220233625E+03  0.90415059185E+02 0.  0.
        -13    1    4    4    0    0 -0.62761352448E+02 -0.14493660228E+02 -0.12635915983E+03  0.14182979525E+03  0.00000000000E+00 0.  1.
         13    1    4    4    0    0  0.19128337110E+02 -0.49921050150E+02 -0.72864199969E+02  0.90372540994E+02  0.00000000000E+00 0. -1.
        -13    1    3    3    0    0  0.34555044661E+02  0.38228531433E+02  0.44624344708E+02  0.68167469277E+02  0.00000000000E+00 0. -1.
         13    1    3    3    0    0  0.15935000973E+03 -0.20117200337E+02  0.13388497680E+03  0.20909881483E+03  0.00000000000E+00 0.  1.
         21    1    1    2  502  501 -0.15027203905E+03  0.46303379281E+02 -0.48774694402E+03  0.51246733560E+03  0.00000000000E+00 0. -1.
<scales pt_clust_5="13000.00000" pt_clust_6="13000.00000" pt_clust_7="13000.00000" pt_clust_8="13000.00000" pt_clust_9="190.38328"></scales>
<clustering>
<clus scale="   84.165">  7  8 -1 -1</clus>
<clus scale="   90.415">  5  6 -1 -1</clus>
<clus scale="  119.281">  2  5  1 -1</clus>
<clus scale="  190.383">  2  9  1 -1</clus>
<clus scale="  119.281">  2  5  1 -1</clus>
</clustering>
</event>
<event>
 9    1  0.1782981E-005  0.1075063E+03  0.7546771E-02  0.1273045E+00
          1   -1    0    0  502    0  0.00000000000E+00  0.00000000000E+00  0.91772558174E+02  0.91772558174E+02  0.00000000000E+00 0. -1.
         -1   -1    0    0    0  501 -0.00000000000E+00 -0.00000000000E+00 -0.29564597510E+03  0.29564597510E+03  0.00000000000E+00 0.  1.
         23    2    1    2    0    0 -0.78579308071E+01 -0.25564665486E+02 -0.23095948682E+03  0.24851918787E+03  0.87773589359E+02 0.  0.
         23    2    1    2    0    0  0.14357433073E+02  0.45981936151E+02  0.27647004984E+02  0.11746518763E+03  0.10350477808E+03 0.  0.
        -11    1    3    3    0    0  0.31379411270E+02  0.15372413179E+02 -0.82196057076E+02  0.89315006227E+02  0.00000000000E+00 0. -1.
         11    1    3    3    0    0 -0.39237342077E+02 -0.40937078665E+02 -0.14876342974E+03  0.15920418164E+03  0.00000000000E+00 0.  1.
        -11    1    4    4    0    0  0.51741049244E+02  0.54246608439E+02  0.25250993889E+02  0.79104003668E+02  0.00000000000E+00 0. -1.
         11    1    4    4    0    0 -0.37383616171E+02 -0.82646722878E+01  0.23960110950E+01  0.38361183965E+02  0.00000000000E+00 0.  1.
         21    1    1    2  502  501 -0.64995022655E+01 -0.20417270665E+02 -0.56093508827E+00  0.21434157770E+02  0.00000000000E+00 0. -1.
<scales pt_clust_5="13000.00000" pt_clust_6="13000.00000" pt_clust_7="13000.00000" pt_clust_8="13000.00000" pt_clust_9="21.42682"></scales>
<clustering>
<clus scale="   21.427">  1  9  2 -1</clus>
<clus scale="   87.774">  5  6 -1 -1</clus>
<clus scale="   92.458">  2  5  1 -1</clus>
<clus scale="  103.505">  7  8 -1 -1</clus>
<clus scale="   21.427">  1  5  2 -1</clus>
</clustering>
</event>
<event>
 9    1  0.1782981E-005  0.1205523E+03  0.7546771E-02  0.1242508E+00
          1   -1    0    0  502    0  0.00000000000E+00  0.00000000000E+00  0.30612601309E+03  0.30612601309E+03  0.00000000000E+00 0. -1.
         -1   -1    0    0    0  501 -0.00000000000E+00 -0.00000000000E+00 -0.25629427440E+03  0.25629427440E+03  0.00000000000E+00 0.  1.
         23    2    1    2    0    0 -0.11192523132E+03 -0.21324581666E+01 -0.16196508085E+03  0.21716822647E+03  0.91638127378E+02 0.  0.
         23    2    1    2    0    0  0.20799348654E+02 -0.29052868727E+02 -0.13514880222E+02  0.10021775086E+03  0.92651300661E+02 0.  0.
        -11    1    3    3    0    0 -0.26595245865E+02 -0.27132796390E+02 -0.71863600723E+01  0.38667033940E+02  0.00000000000E+00 0. -1.
         11    1    3    3    0    0 -0.85329985457E+02  0.25000338224E+02 -0.15477872078E+03  0.17850119253E+03  0.00000000000E+00 0.  1.
        -13    1    4    4    0    0  0.21441004339E+02 -0.60918857394E+02  0.23301945460E+01  0.64623940300E+02  0.00000000000E+00 0. -1.
         13    1    4    4    0    0 -0.64165568476E+00  0.31865988667E+02 -0.15845074768E+02  0.35593810559E+02  0.00000000000E+00 0.  1.
         21    1    1    2  502  501  0.91125882668E+02  0.31185326894E+02  0.22531169976E+03  0.24503431016E+03  0.00000000000E+00 0. -1.
<scales pt_clust_5="13000.00000" pt_clust_6="13000.00000" pt_clust_7="13000.00000" pt_clust_8="13000.00000" pt_clust_9="96.31433"></scales>
<clustering>
<clus scale="   91.638">  5  6 -1 -1</clus>
<clus scale="   92.651">  7  8 -1 -1</clus>
<clus scale="   96.314">  1  9  2 -1</clus>
<clus scale="  119.775">  2  5  1 -1</clus>
<clus scale="   96.314">  1  5  2 -1</clus>
</clustering>
</event>
<event>
 9    1  0.1782981E-005  0.1255222E+03  0.7546771E-02  0.1238185E+00
         -2   -1    0    0    0  501 -0.00000000000E+00  0.00000000000E+00  0.67196382821E+02  0.67196382821E+02  0.00000000000E+00 0.  1.
          2   -1    0    0  502    0  0.00000000000E+00 -0.00000000000E+00 -0.32655067039E+03  0.32655067039E+03  0.00000000000E+00 0. -1.
         23    2    1    2    0    0  0.38456780331E+02  0.70790028940E+02 -0.47527898302E+02  0.13873535495E+03  0.10246192193E+03 0.  0.
         23    2    1    2    0    0 -0.27036178683E+02 -0.53628091414E+02 -0.12379124076E+03  0.16459516430E+03  0.90334764485E+02 0.  0.
        -11    1    3    3    0    0 -0.20282136348E+02  0.64425354311E+02 -0.88533822995E+01  0.68120288542E+02  0.00000000000E+00 0.  1.
         11    1    3    3    0    0  0.58738916678E+02  0.63646746289E+01 -0.38674516002E+02  0.70615066407E+02  0.00000000000E+00 0. -1.
        -13    1    4    4    0    0 -0.26298430222E+02 -0.26498445948E+02 -0.13124416935E+03  0.13645074957E+03  0.00000000000E+00 0. -1.
         13    1    4    4    0    0 -0.73774846083E+00 -0.27129645466E+02  0.74529285877E+01  0.28144414729E+02  0.00000000000E+00 0.  1.
         21    1    1    2  502  501 -0.11420601647E+02 -0.17161937527E+02 -0.88035148502E+02  0.90416533961E+02  0.00000000000E+00 0. -1.
<scales pt_clust_5="13000.00000" pt_clust_6="13000.00000" pt_clust_7="13000.00000" pt_clust_8="13000.00000" pt_clust_9="20.61461"></scales>
<clustering>
<clus scale="   20.615">  2  9  1 -1</clus>
<clus scale="   90.335">  7  8 -1 -1</clus>
<clus scale="  102.462">  5  6 -1 -1</clus>
<clus scale="  115.835">  2  7  1 -1</clus>
<clus scale="   20.615">  2  5  1 -1</clus>
</clustering>
</event>
<event>
 9    1  0.1782981E-005  0.1060328E+03  0.7546771E-02  0.1268769E+00
         -2   -1    0    0    0  501 -0.00000000000E+00  0.00000000000E+00  0.30798912854E+02  0.30798912854E+02  0.00000000000E+00 0.  1.
          2   -1    0    0  502    0  0.00000000000E+00 -0.00000000000E+00 -0.55117341884E+03  0.55117341884E+03  0.00000000000E+00 0. -1.
         23    2    1    2    0    0  0.47515130515E+02  0.20879382961E+02 -0.17612934815E+03  0.20519604172E+03  0.91598209588E+02 0.  0.
         23    2    1    2    0    0 -0.57652229179E+02  0.21351612219E+02 -0.26197320659E+03  0.28374461963E+03  0.90007651488E+02 0.  0.
        -11    1    3    3    0    0  0.64501807847E+02  0.38182991450E+02 -0.97930094953E+02  0.12332366987E+03  0.00000000000E+00 0. -1.
         11    1    3    3    0    0 -0.16986677333E+02 -0.17303608489E+02 -0.78199253193E+02  0.81872371857E+02  0.00000000000E+00 0.  1.
        -13    1    4    4    0    0 -0.14178511879E+02  0.46100353602E+02 -0.19045581373E+03  0.19646803757E+03  0.00000000000E+00 0. -1.
         13    1    4    4    0    0 -0.43473717299E+02 -0.24748741383E+02 -0.71517392854E+02  0.87276582062E+02  0.00000000000E+00 0.  1.
         21    1    1    2  502  501  0.10137098664E+02 -0.42230995180E+02 -0.82271951259E+02  0.93031670345E+02  0.00000000000E+00 0. -1.
<scales pt_clust_5="13000.00000" pt_clust_6="13000.00000" pt_clust_7="13000.00000" pt_clust_8="13000.00000" pt_clust_9="43.43061"></scales>
<clustering>
<clus scale="   43.431">  1  9  2 -1</clus>
<clus scale="   90.008">  7  8 -1 -1</clus>
<clus scale="   91.598">  5  6 -1 -1</clus>
<clus scale="  104.662">  2  7  1 -1</clus>
<clus scale="  104.662">  2  5  1 -1</clus>
</clustering>
</event>
<event>
 9    1  0.1782981E-005  0.9990210E+02  0.7546771E-02  0.1283845E+00
         -2   -1    0    0    0  501 -0.00000000000E+00  0.00000000000E+00  0.38729055733E+02  0.38729055733E+02  0.00000000000E+00 0.  1.
          2   -1    0    0  502    0  0.00000000000E+00 -0.00000000000E+00 -0.65789533116E+03  0.65789533116E+03  0.00000000000E+00 0. -1.
         23    2    1    2    0    0  0.34938850160E+01  0.50770198710E+02 -0.10765464262E+03  0.15288362693E+03  0.95885666269E+02 0.  0.
         23    2    1    2    0    0 -0.25865355651E+02  0.81387050730E+01 -0.14979918092E+03  0.17658052316E+03  0.89474194104E+02 0.  0.
        -11    1    3    3    0    0 -0.22987045443E+02  0.32439205537E+02 -0.11340082506E+03  0.12016843778E+03  0.00000000000E+00 0. -1.
         11    1    3    3    0    0  0.26480930459E+02  0.18330993173E+02  0.57461824368E+01  0.32715189152E+02  0.00000000000E+00 0.  1.
        -13    1    4    4    0    0 -0.16818835206E+02  0.47998688459E+02 -0.99697579152E+02  0.11192119817E+03  0.00000000000E+00 0.  1.
         13    1    4    4    0    0 -0.90465204449E+01 -0.39859983386E+02 -0.50101601768E+02  0.64659324984E+02  0.00000000000E+00 0. -1.
         21    1    1    2  502  501  0.22371470635E+02 -0.58908903783E+02 -0.36171245189E+03  0.36716023681E+03  0.00000000000E+00 0. -1.
<scales pt_clust_5="13000.00000" pt_clust_6="13000.00000" pt_clust_7="13000.00000" pt_clust_8="13000.00000" pt_clust_9="63.01382"></scales>
<clustering>
<clus scale="   63.014">  2  9  1 -1</clus>
<clus scale="   89.474">  7  8 -1 -1</clus>
<clus scale="   93.766">  2  7  1 -1</clus>
<clus scale="   95.886">  5  6 -1 -1</clus>
<clus scale="   63.014">  2  5  1 -1</clus>
</clustering>
</event>
<event>
 9    1  0.1782981E-005  0.9599426E+02  0.7546771E-02  0.1288970E+00
          1   -1    0    0  502    0  0.00000000000E+00  0.00000000000E+00  0.24562217197E+03  0.24562217197E+03  0.00000000000E+00 0. -1.
         -1   -1    0    0    0  501 -0.00000000000E+00 -0.00000000000E+00 -0.87527771247E+02  0.87527771247E+02  0.00000000000E+00 0.  1.
         23    2    1    2    0    0  0.98388857582E+01 -0.49346622877E+02  0.71855921630E+01  0.10492631994E+03  0.91793284168E+02 0.  0.
         23    2    1    2    0    0 -0.24140383743E+02 -0.22263094340E+02  0.76280734558E+02  0.12381177590E+03  0.91827021567E+02 0.  0.
        -13    1    3    3    0    0  0.12613475812E+02  0.20684799664E+02  0.22636797054E+02  0.33156979507E+02  0.00000000000E+00 0.  1.
         13    1    3    3    0    0 -0.27745900534E+01 -0.70031422541E+02 -0.15451204890E+02  0.71769340430E+02  0.00000000000E+00 0. -1.
        -13    1    4    4    0    0  0.33934151074E+01  0.32614234706E+02  0.42679001829E+02  0.53821006760E+02  0.00000000000E+00 0.  1.
         13    1    4    4    0    0 -0.27533798850E+02 -0.54877329046E+02  0.33601732729E+02  0.69990769139E+02  0.00000000000E+00 0. -1.
         21    1    1    2  502  501  0.14301497984E+02  0.71609717217E+02  0.74628074004E+02  0.10441184738E+03  0.00000000000E+00 0.  1.
<scales pt_clust_5="13000.00000" pt_clust_6="13000.00000" pt_clust_7="13000.00000" pt_clust_8="13000.00000" pt_clust_9="73.02386"></scales>
<clustering>
<clus scale="   73.024">  1  9  2 -1</clus>
<clus scale="   91.793">  5  6 -1 -1</clus>
<clus scale="   91.827">  7  8 -1 -1</clus>
<clus scale="   95.962">  2  5  1 -1</clus>
<clus scale="   73.024">  1  5  2 -1</clus>
</clustering>
</event>
<event>
 9    1  0.1782981E-005  0.1350137E+03  0.7546771E-02  0.1220352E+00
          1   -1    0    0  502    0  0.00000000000E+00  0.00000000000E+00  0.66395118848E+03  0.66395118848E+03  0.00000000000E+00 0. -1.
         -1   -1    0    0    0  501 -0.00000000000E+00 -0.00000000000E+00 -0.46407864134E+02  0.46407864134E+02  0.00000000000E+00 0.  1.
         23    2    1    2    0    0  0.95112942105E+02  0.21847884541E+02  0.10591794136E+03  0.17075705163E+03  0.91736353572E+02 0.  0.
         23    2    1    2    0    0 -0.10440994630E+03 -0.23523091289E+01  0.34837985611E+03  0.37493380795E+03  0.91103600159E+02 0.  0.
        -13    1    4    4    0    0 -0.50282034953E+02 -0.33025009436E+02  0.25989380487E+03  0.26676529778E+03  0.00000000000E+00 0. -1.
         13    1    4    4    0    0 -0.54127911345E+02  0.30672700307E+02  0.88486051231E+02  0.10816851017E+03  0.00000000000E+00 0.  1.
        -13    1    3    3    0    0 -0.17031833543E+02  0.11584419765E+02  0.10321063519E+02  0.23039237993E+02  0.00000000000E+00 0. -1.
         13    1    3    3    0    0  0.11214477565E+03  0.10263464776E+02  0.95596877840E+02  0.14771781364E+03  0.00000000000E+00 0.  1.
         21    1    1    2  502  501  0.92970041927E+01 -0.19495575412E+02  0.16324552688E+03  0.16466819302E+03  0.00000000000E+00 0. -1.
<scales pt_clust_5="13000.00000" pt_clust_6="13000.00000" pt_clust_7="13000.00000" pt_clust_8="13000.00000" pt_clust_9="21.59888"></scales>
<clustering>
<clus scale="   21.599">  1  9  2 -1</clus>
<clus scale="   91.104">  5  6 -1 -1</clus>
<clus scale="   91.736">  7  8 -1 -1</clus>
<clus scale="  134.585">  1  5  2 -1</clus>
<clus scale="   21.599">  1  5  2 -1</clus>
</clustering>
</event>
<event>
 9    1  0.1782981E-005  0.9801576E+02  0.7546771E-02  0.1285922E+00
         -1   -1    0    0    0  501 -0.00000000000E+00  0.00000000000E+00  0.59309510461E+02  0.59309510461E+02  0.00000000000E+00 0.  1.
          1   -1    0    0  502    0  0.00000000000E+00 -0.00000000000E+00 -0.27990929616E+03  0.27990929616E+03  0.00000000000E+00 0. -1.
         23    2    1    2    0    0 -0.26189391374E+02  0.97999895382E+01 -0.50171916513E+02  0.10980070468E+03  0.93579108383E+02 0.  0.
         23    2    1    2    0    0  0.15999296364E+02 -0.30667927466E+02 -0.55122164636E+02  0.11179703932E+03  0.90904486733E+02 0.  0.
        -11    1    3    3    0    0 -0.48316580341E+02  0.33173867274E+02 -0.50870799783E+02  0.77606930594E+02  0.00000000000E+00 0. -1.
         11    1    3    3    0    0  0.22127188967E+02 -0.23373877735E+02  0.69888327008E+00  0.32193774084E+02  0.00000000000E+00 0.  1.
        -11    1    4    4    0    0 -0.14647954406E+02 -0.52496058847E+02 -0.49742530133E+02  0.73788332864E+02  0.00000000000E+00 0. -1.
         11    1    4    4    0    0  0.30647250770E+02  0.21828131382E+02 -0.53796345032E+01  0.38008706460E+02  0.00000000000E+00 0.  1.
         21    1    1    2  502  501  0.10190095010E+02  0.20867937927E+02 -0.11530570455E+03  0.11762106262E+03  0.00000000000E+00 0.  1.
<scales pt_clust_5="13000.00000" pt_clust_6="13000.00000" pt_clust_7="13000.00000" pt_clust_8="13000.00000" pt_clust_9="23.22302"></scales>
<clustering>
<clus scale="   23.223">  2  9  1 -1</clus>
<clus scale="   90.904">  7  8 -1 -1</clus>
<clus scale="   93.579">  5  6 -1 -1</clus>
<clus scale="   95.466">  2  7  1 -1</clus>
<clus scale="   23.223">  2  5  1 -1</clus>
</clustering>
</event>
<event>
 9    1  0.1782981E-005  0.1578371E+03  0.7546771E-02  0.1191371E+00
          1   -1    0    0  502    0  0.00000000000E+00  0.00000000000E+00  0.33138610615E+03  0.33138610615E+03  0.00000000000E+00 0. -1.
         -1   -1    0    0    0  501 -0.00000000000E+00 -0.00000000000E+00 -0.12911748970E+03  0.12911748970E+03  0.00000000000E+00 0.  1.
         23    2    1    2    0    0 -0.31745284786E+02 -0.13116297091E+03 -0.25835970533E+02  0.16439568898E+03  0.90260495999E+02 0.  0.
         23    2    1    2    0    0  0.54298415715E+01  0.11736059841E+03  0.14056874897E+03  0.20366586571E+03  0.88978752683E+02 0.  0.
        -11    1    4    4    0    0  0.41057005870E+02  0.24698115966E+02  0.50654246237E+02  0.69724653640E+02  0.00000000000E+00 0. -1.
         11    1    4    4    0    0 -0.35627164299E+02  0.92662482445E+02  0.89914502729E+02  0.13394121207E+03  0.00000000000E+00 0.  1.
        -13    1    3    3    0    0  0.24377199785E+02 -0.80091351574E+01 -0.12076979698E+02  0.28359258699E+02  0.00000000000E+00 0.  1.
         13    1    3    3    0    0 -0.56122484572E+02 -0.12315383575E+03 -0.13758990835E+02  0.13603643028E+03  0.00000000000E+00 0. -1.
         21    1    1    2  502  501  0.26315443215E+02  0.13802372497E+02  0.87535838014E+02  0.92442041166E+02  0.00000000000E+00 0. -1.
<scales pt_clust_5="13000.00000" pt_clust_6="13000.00000" pt_clust_7="13000.00000" pt_clust_8="13000.00000" pt_clust_9="29.71545"></scales>
<clustering>
<clus scale="   29.715">  1  9  2 -1</clus>
<clus scale="   88.979">  5  6 -1 -1</clus>
<clus scale="   90.260">  7  8 -1 -1</clus>
<clus scale="  157.108">  1  5  2 -1</clus>
<clus scale="   29.715">  1  5  2 -1</clus>
</clustering>
</event>
<event>
 9    1  0.1782981E-005  0.2156601E+03  0.7546771E-02  0.1137578E+00
          1   -1    0    0  502    0  0.00000000000E+00  0.00000000000E+00  0.13817571948E+04  0.13817571948E+04  0.00000000000E+00 0. -1.
         -1   -1    0    0    0  501 -0.00000000000E+00 -0.00000000000E+00 -0.10412735326E+03  0.10412735326E+03  0.00000000000E+00 0.  1.
         23    2    1    2    0    0  0.62240162440E+02  0.27054357424E+03  0.28493637717E+03  0.40842307745E+03  0.92482472810E+02 0.  0.
         23    2    1    2    0    0 -0.10618888385E+03 -0.14860155021E+03  0.88817314614E+03  0.91095067737E+03  0.87298907698E+02 0.  0.
        -11    1    3    3    0    0  0.80012261051E+02  0.17262706053E+03  0.15931354181E+03  0.24815895823E+03  0.00000000000E+00 0.  1.
         11    1    3    3    0    0 -0.17772098611E+02  0.97916513717E+02  0.12562283536E+03  0.16026411922E+03  0.00000000000E+00 0. -1.
        -13    1    4    4    0    0  0.15445069022E+02 -0.21849775752E+02  0.11939911317E+03  0.12236057814E+03  0.00000000000E+00 0.  1.
         13    1    4    4    0    0 -0.12163395287E+03 -0.12675177446E+03  0.76877403298E+03  0.78859009923E+03  0.00000000000E+00 0. -1.
         21    1    1    2  502  501  0.43948721410E+02 -0.12194202404E+03  0.10452031822E+03  0.16651079322E+03  0.00000000000E+00 0.  1.
<scales pt_clust_5="13000.00000" pt_clust_6="13000.00000" pt_clust_7="13000.00000" pt_clust_8="13000.00000" pt_clust_9="129.62001"></scales>
<clustering>
<clus scale="   87.299">  7  8 -1 -1</clus>
<clus scale="   92.482">  5  6 -1 -1</clus>
<clus scale="  129.620">  2  9  1 -1</clus>
<clus scale="  213.489">  1  7  2 -1</clus>
<clus scale="  213.489">  1  5  2 -1</clus>
</clustering>
</event>
<event>
 9    1  0.1782981E-005  0.1252196E+03  0.7546771E-02  0.1235351E+00
          4   -1    0    0  502    0  0.00000000000E+00  0.00000000000E+00  0.82124229839E+02  0.82124229839E+02  0.00000000000E+00 0. -1.
         -4   -1    0    0    0  501 -0.00000000000E+00 -0.00000000000E+00 -0.32341291519E+03  0.32341291519E+03  0.00000000000E+00 0.  1.
         23    2    1    2    0    0 -0.85883557120E+02  0.26139155903E+02 -0.21810753620E+03  0.25399242646E+03  0.94244440150E+02 0.  0.
         23    2    1    2    0    0  0.63580231194E+02  0.18328805318E+01 -0.66759673579E+01  0.11214555366E+03  0.92120852226E+02 0.  0.
        -11    1    3    3    0    0 -0.36146934573E+02  0.41282368726E+02 -0.18352057495E+03  0.19154799992E+03  0.00000000000E+00 0.  1.
         11    1    3    3    0    0 -0.49736622547E+02 -0.15143212823E+02 -0.34586961252E+02  0.62444426538E+02  0.00000000000E+00 0. -1.
        -11    1    4    4    0    0  0.78348394200E+02  0.26867449030E+02 -0.34180696107E+01  0.82897610888E+02  0.00000000000E+00 0. -1.
         11    1    4    4    0    0 -0.14768163005E+02 -0.25034568498E+02 -0.32578977472E+01  0.29247942768E+02  0.00000000000E+00 0.  1.
         21    1    1    2  502  501  0.22303325926E+02 -0.27972036434E+02 -0.16505181795E+02  0.39399164912E+02  0.00000000000E+00 0.  1.
<scales pt_clust_5="13000.00000" pt_clust_6="13000.00000" pt_clust_7="13000.00000" pt_clust_8="13000.00000" pt_clust_9="35.77532"></scales>
<clustering>
<clus scale="   35.775">  1  9  2 -1</clus>
<clus scale="   92.121">  7  8 -1 -1</clus>
<clus scale="   94.244">  5  6 -1 -1</clus>
<clus scale="  123.629">  1  7  2 -1</clus>
<clus scale="   35.775">  1  5  2 -1</clus>
</clustering>
</event>
<event>
 9    1  0.1782981E-005  0.1405063E+03  0.7546771E-02  0.1213162E+00
         -1   -1    0    0    0  501 -0.00000000000E+00  0.00000000000E+00  0.11060835173E+03  0.11060835173E+03  0.00000000000E+00 0.  1.
          1   -1    0    0  502    0  0.00000000000E+00 -0.00000000000E+00 -0.28970825623E+03  0.28970825623E+03  0.00000000000E+00 0. -1.
         23    2    1    2    0    0  0.49449503418E+02 -0.10274861433E+03 -0.19258078139E+02  0.14673685844E+03  0.90323313243E+02 0.  0.
         23    2    1    2    0    0 -0.27830242343E+02  0.92278625181E+02 -0.52580382200E+02  0.14366145930E+03  0.92650155111E+02 0.  0.
        -11    1    3    3    0    0  0.63495048825E+00 -0.78653874466E+02  0.18102146842E+02  0.80712594128E+02  0.00000000000E+00 0. -1.
         11    1    3    3    0    0  0.48814552930E+02 -0.24094739864E+02 -0.37360224981E+02  0.66024264309E+02  0.00000000000E+00 0.  1.
        -11    1    4    4    0    0 -0.35945351893E+02  0.62847383898E+01 -0.43546636001E+02  0.56814397527E+02  0.00000000000E+00 0. -1.
         11    1    4    4    0    0  0.81151095496E+01  0.85993886792E+02 -0.90337461991E+01  0.86847061775E+02  0.00000000000E+00 0.  1.
         21    1    1    2  502  501 -0.21619261075E+02  0.10469989149E+02 -0.10726144416E+03  0.10991829023E+03  0.00000000000E+00 0.  1.
<scales pt_clust_5="13000.00000" pt_clust_6="13000.00000" pt_clust_7="13000.00000" pt_clust_8="13000.00000" pt_clust_9="24.02110"></scales>
<clustering>
<clus scale="   24.021">  2  9  1 -1</clus>
<clus scale="   90.323">  5  6 -1 -1</clus>
<clus scale="   92.650">  7  8 -1 -1</clus>
<clus scale="  138.983">  1  5  2 -1</clus>
<clus scale="   24.021">  2  5  1 -1</clus>
</clustering>
</event>
<event>
 9    1  0.1782981E-005  0.8994775E+02  0.7546771E-02  0.1303711E+00
         -2   -1    0    0    0  501 -0.00000000000E+00  0.00000000000E+00  0.10428750601E+03  0.10428750601E+03  0.00000000000E+00 0.  1.
          2   -1    0    0  502    0  0.00000000000E+00 -0.00000000000E+00 -0.15137380437E+03  0.15137380437E+03  0.00000000000E+00 0. -1.
         23    2    1    2    0    0 -0.93183539366E+01 -0.17986260725E+02  0.43095801975E+02  0.10106693828E+03  0.89145614416E+02 0.  0.
         23    2    1    2    0    0  0.33797310797E+01 -0.12388595253E+02 -0.44424861770E+02  0.99352865977E+02  0.87934769915E+02 0.  0.
        -11    1    3    3    0    0 -0.26532534571E+02  0.25181030213E+02 -0.15648413807E+01  0.36612954017E+02  0.00000000000E+00 0.  1.
         11    1    3    3    0    0  0.17214180635E+02 -0.43167290937E+02  0.44660643356E+02  0.64453984258E+02  0.00000000000E+00 0. -1.
        -11    1    4    4    0    0  0.22369012734E+02 -0.39104091443E+02 -0.11478140867E+01  0.45064622216E+02  0.00000000000E+00 0.  1.
         11    1    4    4    0    0 -0.18989281654E+02  0.26715496190E+02 -0.43277047684E+02  0.54288243761E+02  0.00000000000E+00 0. -1.
         21    1    1    2  502  501  0.59386228569E+01  0.30374855978E+02 -0.45757238568E+02  0.55241506120E+02  0.00000000000E+00 0. -1.
<scales pt_clust_5="13000.00000" pt_clust_6="13000.00000" pt_clust_7="13000.00000" pt_clust_8="13000.00000" pt_clust_9="30.94995"></scales>
<clustering>
<clus scale="   30.950">  2  9  1 -1</clus>
<clus scale="   87.935">  7  8 -1 -1</clus>
<clus scale="   88.748">  2  7  1 -1</clus>
<clus scale="   89.146">  5  6 -1 -1</clus>
<clus scale="   30.950">  2  5  1 -1</clus>
</clustering>
</event>
<event>
 9    1  0.1782981E-005  0.9193625E+02  0.7546771E-02  0.1298337E+00
          1   -1    0    0  502    0  0.00000000000E+00  0.00000000000E+00  0.26510274997E+02  0.26510274997E+02  0.00000000000E+00 0. -1.
         -1   -1    0    0    0  501 -0.00000000000E+00 -0.00000000000E+00 -0.53125418924E+03  0.53125418924E+03  0.00000000000E+00 0.  1.
         23    2    1    2    0    0  0.13328569828E+02 -0.13388306991E+02 -0.32264008721E+03  0.33591968732E+03  0.91588825289E+02 0.  0.
         23    2    1    2    0    0  0.94041202458E+01 -0.95057226194E+01 -0.15108845230E+03  0.17709139425E+03  0.91404842653E+02 0.  0.
        -11    1    4    4    0    0  0.33245079509E+02 -0.40812861004E+02 -0.78355342026E+02  0.94395363016E+02  0.00000000000E+00 0.  1.
         11    1    4    4    0    0 -0.23840959264E+02  0.31307138385E+02 -0.72733110271E+02  0.82696031236E+02  0.00000000000E+00 0. -1.
        -11    1    3    3    0    0 -0.32564385794E+02 -0.30357348043E+02 -0.16009121249E+03  0.16616619427E+03  0.00000000000E+00 0. -1.
         11    1    3    3    0    0  0.45892955622E+02  0.16969041051E+02 -0.16254887472E+03  0.16975349305E+03  0.00000000000E+00 0.  1.
         21    1    1    2  502  501 -0.22732690073E+02  0.22894029611E+02 -0.31015374739E+02  0.44753382666E+02  0.00000000000E+00 0. -1.
<scales pt_clust_5="13000.00000" pt_clust_6="13000.00000" pt_clust_7="13000.00000" pt_clust_8="13000.00000" pt_clust_9="32.26316"></scales>
<clustering>
<clus scale="   32.263">  1  9  2 -1</clus>
<clus scale="   91.405">  5  6 -1 -1</clus>
<clus scale="   91.589">  7  8 -1 -1</clus>
<clus scale="   91.753">  1  5  2 -1</clus>
<clus scale="   32.263">  1  5  2 -1</clus>
</clustering>
</event>
<event>
 9    1  0.1782981E-005  0.1203682E+03  0.7546771E-02  0.1247525E+00
          1   -1    0    0  502    0  0.00000000000E+00  0.00000000000E+00  0.55324316180E+03  0.55324316180E+03  0.00000000000E+00 0. -1.
         -1   -1    0    0    0  501 -0.00000000000E+00 -0.00000000000E+00 -0.32951317272E+02  0.32951317272E+02  0.00000000000E+00 0.  1.
         23    2    1    2    0    0 -0.38296757102E+02 -0.42875282412E+02  0.17923986698E+03  0.20845748155E+03  0.89569304186E+02 0.  0.
         23    2    1    2    0    0  0.28574809009E+02  0.61541211352E+02  0.20004198062E+03  0.23516507738E+03  0.10335366083E+03 0.  0.
        -11    1    3    3    0    0 -0.46161442847E+01 -0.39046057577E+02  0.16830988592E+03  0.17284131768E+03  0.00000000000E+00 0. -1.
         11    1    3    3    0    0 -0.33680612817E+02 -0.38292248346E+01  0.10929981062E+02  0.35616163867E+02  0.00000000000E+00 0.  1.
        -13    1    4    4    0    0  0.28680587424E+02 -0.10408579059E+02  0.13423719697E+03  0.13766095911E+03  0.00000000000E+00 0.  1.
         13    1    4    4    0    0 -0.10577841487E+00  0.71949790411E+02  0.65804783649E+02  0.97504118274E+02  0.00000000000E+00 0. -1.
         21    1    1    2  502  501  0.97219480927E+01 -0.18665928940E+02  0.14100999693E+03  0.14257192014E+03  0.00000000000E+00 0.  1.
<scales pt_clust_5="13000.00000" pt_clust_6="13000.00000" pt_clust_7="13000.00000" pt_clust_8="13000.00000" pt_clust_9="21.04598"></scales>
<clustering>
<clus scale="   21.046">  1  9  2 -1</clus>
<clus scale="   89.569">  5  6 -1 -1</clus>
<clus scale="  103.354">  7  8 -1 -1</clus>
<clus scale="  108.762">  2  5  1 -1</clus>
<clus scale="   21.046">  1  5  2 -1</clus>
</clustering>
</event>
<event>
 9    1  0.1782981E-005  0.9576366E+02  0.7546771E-02  0.1289846E+00
         -1   -1    0    0    0  501 -0.00000000000E+00  0.00000000000E+00  0.83134499126E+02  0.83134499126E+02  0.00000000000E+00 0.  1.
          1   -1    0    0  502    0  0.00000000000E+00 -0.00000000000E+00 -0.17324338801E+03  0.17324338801E+03  0.00000000000E+00 0. -1.
         23    2    1    2    0    0  0.16266447633E+02 -0.35697390238E+02 -0.88679381816E+01  0.99218998084E+02  0.90702085229E+02 0.  0.
         23    2    1    2    0    0 -0.23511396713E+02  0.17347398860E+01 -0.38164975409E+02  0.10182815118E+03  0.91414506106E+02 0.  0.
        -11    1    4    4    0    0  0.14354010406E+02  0.18405285566E+02  0.19803441733E+02  0.30609940477E+02  0.00000000000E+00 0.  1.
         11    1    4    4    0    0 -0.37865407119E+02 -0.16670545680E+02 -0.57968417142E+02  0.71218210702E+02  0.00000000000E+00 0. -1.
        -11    1    3    3    0    0 -0.21500471624E+02  0.21249601931E+02 -0.60486157835E+01  0.30828584385E+02  0.00000000000E+00 0.  1.
         11    1    3    3    0    0  0.37766919257E+02 -0.56946992168E+02 -0.28193223982E+01  0.68390413699E+02  0.00000000000E+00 0. -1.
         21    1    1    2  502  501  0.72449490804E+01  0.33962650352E+02 -0.43075975292E+02  0.55330737872E+02  0.00000000000E+00 0.  1.
<scales pt_clust_5="13000.00000" pt_clust_6="13000.00000" pt_clust_7="13000.00000" pt_clust_8="13000.00000" pt_clust_9="34.72680"></scales>
<clustering>
<clus scale="   34.727">  2  9  1 -1</clus>
<clus scale="   90.702">  7  8 -1 -1</clus>
<clus scale="   91.415">  5  6 -1 -1</clus>
<clus scale="   95.084">  1  7  2 -1</clus>
<clus scale="   34.727">  2  5  1 -1</clus>
</clustering>
</event>
<event>
 9    1  0.1782981E-005  0.1385956E+03  0.7546771E-02  0.1216423E+00
         -1   -1    0    0    0  501 -0.00000000000E+00  0.00000000000E+00  0.48997363984E+02  0.48997363984E+02  0.00000000000E+00 0.  1.
          1   -1    0    0  502    0  0.00000000000E+00 -0.00000000000E+00 -0.86332919622E+03  0.86332919622E+03  0.00000000000E+00 0. -1.
         23    2    1    2    0    0 -0.39024465452E+02 -0.82600608751E+02 -0.13327052919E+03  0.18692768368E+03  0.93995507891E+02 0.  0.
         23    2    1    2    0    0 -0.94498747478E+01  0.13547708399E+03 -0.33825398314E+03  0.37516675083E+03  0.88831263631E+02 0.  0.
        -13    1    4    4    0    0  0.31574672654E+02  0.90311549682E+02 -0.25168840041E+03  0.26925858734E+03  0.00000000000E+00 0. -1.
         13    1    4    4    0    0 -0.41024547402E+02  0.45165534308E+02 -0.86565582737E+02  0.10590816349E+03  0.00000000000E+00 0.  1.
        -13    1    3    3    0    0 -0.30174339729E+02 -0.27855951462E+02  0.16038401663E+01  0.41097653378E+02  0.00000000000E+00 0.  1.
         13    1    3    3    0    0 -0.88501257234E+01 -0.54744657289E+02 -0.13487436936E+03  0.14583003030E+03  0.00000000000E+00 0. -1.
         21    1    1    2  502  501  0.48474340200E+02 -0.52876475238E+02 -0.34280731991E+03  0.35023212570E+03  0.00000000000E+00 0.  1.
<scales pt_clust_5="13000.00000" pt_clust_6="13000.00000" pt_clust_7="13000.00000" pt_clust_8="13000.00000" pt_clust_9="71.73342"></scales>
<clustering>
<clus scale="   71.733">  2  9  1 -1</clus>
<clus scale="   88.831">  5  6 -1 -1</clus>
<clus scale="   93.996">  7  8 -1 -1</clus>
<clus scale="  135.147">  2  5  1 -1</clus>
<clus scale="   71.733">  2  5  1 -1</clus>
</clustering>
</event>
<event>
 9    1  0.1782981E-005  0.1517220E+03  0.7546771E-02  0.1198613E+00
         -1   -1    0    0    0  501 -0.00000000000E+00  0.00000000000E+00  0.37771150209E+03  0.37771150209E+03  0.00000000000E+00 0.  1.
          1   -1    0    0  502    0  0.00000000000E+00 -0.00000000000E+00 -0.93313229555E+02  0.93313229555E+02  0.00000000000E+00 0. -1.
         23    2    1    2    0    0  0.91412155058E+02 -0.59932198442E+02  0.18896950685E+03  0.23686014521E+03  0.91897787602E+02 0.  0.
         23    2    1    2    0    0 -0.10770321547E+03  0.90857079189E+02  0.10372543306E+03  0.19823992098E+03  0.93193934054E+02 0.  0.
        -11    1    4    4    0    0 -0.66667095597E+02  0.28405723040E+02  0.99899279982E+02  0.12341496213E+03  0.00000000000E+00 0.  1.
         11    1    4    4    0    0 -0.41036119876E+02  0.62451356149E+02  0.38261530776E+01  0.74824958849E+02  0.00000000000E+00 0. -1.
        -13    1    3    3    0    0  0.20410817602E+02 -0.64034970954E+02  0.62571172402E+02  0.91827177872E+02  0.00000000000E+00 0.  1.
         13    1    3    3    0    0  0.71001337456E+02  0.41027725117E+01  0.12639833445E+03  0.14503296734E+03  0.00000000000E+00 0. -1.
         21    1    1    2  502  501  0.16291060416E+02 -0.30924880747E+02 -0.82966673763E+01  0.35924665457E+02  0.00000000000E+00 0. -1.
<scales pt_clust_5="13000.00000" pt_clust_6="13000.00000" pt_clust_7="13000.00000" pt_clust_8="13000.00000" pt_clust_9="34.95350"></scales>
<clustering>
<clus scale="   34.953">  2  9  1 -1</clus>
<clus scale="   91.898">  7  8 -1 -1</clus>
<clus scale="   93.194">  5  6 -1 -1</clus>
<clus scale="  150.929">  1  7  2 -1</clus>
<clus scale="   34.953">  2  5  1 -1</clus>
</clustering>
</event>
<event>
 9    1  0.1782981E-005  0.1072176E+03  0.7546771E-02  0.1266706E+00
         -2   -1    0    0    0  501 -0.00000000000E+00  0.00000000000E+00  0.60069012614E+02  0.60069012614E+02  0.00000000000E+00 0.  1.
          2   -1    0    0  502    0  0.00000000000E+00 -0.00000000000E+00 -0.29119746045E+03  0.29119746045E+03  0.00000000000E+00 0. -1.
         23    2    1    2    0    0  0.25415904132E+02  0.67174300386E+02 -0.69404918902E+02  0.13476354452E+03  0.90475495841E+02 0.  0.
         23    2    1    2    0    0  0.40089915783E+01 -0.45423340958E+02 -0.82150537164E+02  0.12891988371E+03  0.88273856504E+02 0.  0.
        -13    1    4    4    0    0 -0.39503764729E+02 -0.92674305371E+01 -0.21277224512E+02  0.45816514265E+02  0.00000000000E+00 0.  1.
         13    1    4    4    0    0  0.43512756307E+02 -0.36155910421E+02 -0.60873312652E+02  0.83103369444E+02  0.00000000000E+00 0. -1.
        -13    1    3    3    0    0  0.42373428737E+02  0.31900367791E+02  0.22823505251E+01  0.53088134757E+02  0.00000000000E+00 0.  1.
         13    1    3    3    0    0 -0.16957524605E+02  0.35273932595E+02 -0.71687269428E+02  0.81675409760E+02  0.00000000000E+00 0. -1.
         21    1    1    2  502  501 -0.29424895710E+02 -0.21750959428E+02 -0.79572991767E+02  0.87583044834E+02  0.00000000000E+00 0.  1.
<scales pt_clust_5="13000.00000" pt_clust_6="13000.00000" pt_clust_7="13000.00000" pt_clust_8="13000.00000" pt_clust_9="36.59137"></scales>
<clustering>
<clus scale="   36.591">  2  9  1 -1</clus>
<clus scale="   88.274">  5  6 -1 -1</clus>
<clus scale="   90.475">  7  8 -1 -1</clus>
<clus scale="  105.366">  2  5  1 -1</clus>
<clus scale="   36.591">  2  5  1 -1</clus>
</clustering>
</event>
<event>
 9    1  0.1782981E-005  0.1049687E+03  0.7546771E-02  0.1271984E+00
         -2   -1    0    0    0  501 -0.00000000000E+00  0.00000000000E+00  0.32383353969E+03  0.32383353969E+03  0.00000000000E+00 0.  1.
          2   -1    0    0  502    0  0.00000000000E+00 -0.00000000000E+00 -0.78204688797E+02  0.78204688797E+02  0.00000000000E+00 0. -1.
         23    2    1    2    0    0  0.15590191404E+02 -0.49986326014E+02  0.23570084585E+03  0.25572052524E+03  0.84240200842E+02 0.  0.
         23    2    1    2    0    0 -0.22088043517E+02  0.76174086411E+02  0.55987060190E+01  0.11899072561E+03  0.88527250972E+02 0.  0.
        -11    1    4    4    0    0 -0.53169475324E+02  0.65640572663E+02  0.12675200134E+02  0.85418607950E+02  0.00000000000E+00 0. -1.
         11    1    4    4    0    0  0.31081431807E+02  0.10533513749E+02 -0.70764941148E+01  0.33572117658E+02  0.00000000000E+00 0.  1.
        -11    1    3    3    0    0  0.28577939037E+02  0.62062855966E+01  0.14726277401E+03  0.15013840678E+03  0.00000000000E+00 0.  1.
         11    1    3    3    0    0 -0.12987747633E+02 -0.56192611611E+02  0.88438071843E+02  0.10558211846E+03  0.00000000000E+00 0. -1.
         21    1    1    2  502  501  0.64978521129E+01 -0.26187760397E+02  0.43292990213E+01  0.27326977636E+02  0.00000000000E+00 0.  1.
<scales pt_clust_5="13000.00000" pt_clust_6="13000.00000" pt_clust_7="13000.00000" pt_clust_8="13000.00000" pt_clust_9="26.98186"></scales>
<clustering>
<clus scale="   26.982">  2  9  1 -1</clus>
<clus scale="   84.240">  7  8 -1 -1</clus>
<clus scale="   88.527">  5  6 -1 -1</clus>
<clus scale="  101.379">  1  7  2 -1</clus>
<clus scale="   26.982">  2  5  1 -1</clus>
</clustering>
</event>
<event>
 9    1  0.1782981E-005  0.1427089E+03  0.7546771E-02  0.1210001E+00
         -1   -1    0    0    0  501 -0.00000000000E+00  0.00000000000E+00  0.59135291917E+02  0.59135291917E+02  0.00000000000E+00 0.  1.
          1   -1    0    0  502    0  0.00000000000E+00 -0.00000000000E+00 -0.61303424981E+03  0.61303424981E+03  0.00000000000E+00 0. -1.
         23    2    1    2    0    0 -0.90848275250E+02 -0.63678639939E+02 -0.73932153724E+02  0.16036753651E+03  0.89125782528E+02 0.  0.
         23    2    1    2    0    0  0.10691676638E+03  0.34549429207E+02 -0.39889605782E+03  0.42417111318E+03  0.90433457985E+02 0.  0.
        -11    1    4    4    0    0  0.62738072288E+02  0.21240281371E+02 -0.35275131999E+03  0.35891601946E+03  0.00000000000E+00 0. -1.
         11    1    4    4    0    0  0.44178694095E+02  0.13309147836E+02 -0.46144737828E+02  0.65255093726E+02  0.00000000000E+00 0.  1.
        -13    1    3    3    0    0 -0.26202722759E+02 -0.62579294690E+02 -0.66985570443E+02  0.95340534148E+02  0.00000000000E+00 0. -1.
         13    1    3    3    0    0 -0.64645552491E+02 -0.10993452486E+01 -0.69465832804E+01  0.65027002361E+02  0.00000000000E+00 0.  1.
         21    1    1    2  502  501 -0.16068491133E+02  0.29129210732E+02 -0.81070746349E+02  0.87630892035E+02  0.00000000000E+00 0. -1.
<scales pt_clust_5="13000.00000" pt_clust_6="13000.00000" pt_clust_7="13000.00000" pt_clust_8="13000.00000" pt_clust_9="33.26721"></scales>
<clustering>
<clus scale="   33.267">  2  9  1 -1</clus>
<clus scale="   89.126">  7  8 -1 -1</clus>
<clus scale="   90.433">  5  6 -1 -1</clus>
<clus scale="  141.884">  1  7  2 -1</clus>
<clus scale="   33.267">  2  5  1 -1</clus>
</clustering>
</event>
<event>
 9    1  0.1782981E-005  0.2010171E+03  0.7546771E-02  0.1149031E+00
          3   -1    0    0  502    0  0.00000000000E+00  0.00000000000E+00  0.98869096980E+02  0.98869096980E+02  0.00000000000E+00 0. -1.
         -3   -1    0    0    0  501 -0.00000000000E+00 -0.00000000000E+00 -0.58973044035E+03  0.58973044035E+03  0.00000000000E+00 0.  1.
         23    2    1    2    0    0 -0.18487613615E+03  0.36459832786E+01 -0.36455447956E+03  0.41906809082E+03  0.92334269156E+02 0.  0.
         23    2    1    2    0    0  0.16766029176E+03  0.72303400774E+01 -0.14672342063E+03  0.24069543603E+03  0.90798014918E+02 0.  0.
        -11    1    4    4    0    0  0.31823607123E+02  0.10267348660E+02 -0.85233931951E+02  0.91558634626E+02  0.00000000000E+00 0.  1.
         11    1    4    4    0    0  0.13583668464E+03 -0.30370085829E+01 -0.61489488678E+02  0.14913680140E+03  0.00000000000E+00 0. -1.
        -11    1    3    3    0    0 -0.78045799709E+02 -0.37858987749E+02 -0.20518335772E+03  0.22276593117E+03  0.00000000000E+00 0. -1.
         11    1    3    3    0    0 -0.10683033644E+03  0.41504971028E+02 -0.15937112184E+03  0.19630215965E+03  0.00000000000E+00 0.  1.
         21    1    1    2  502  501  0.17215844388E+02 -0.10876323356E+02  0.20416556824E+02  0.28836010478E+02  0.00000000000E+00 0.  1.
<scales pt_clust_5="13000.00000" pt_clust_6="13000.00000" pt_clust_7="13000.00000" pt_clust_8="13000.00000" pt_clust_9="20.36369"></scales>
<clustering>
<clus scale="   20.364">  1  9  2 -1</clus>
<clus scale="   90.798">  5  6 -1 -1</clus>
<clus scale="   92.334">  7  8 -1 -1</clus>
<clus scale="  200.316">  1  5  2 -1</clus>
<clus scale="   20.364">  1  5  2 -1</clus>
</clustering>
</event>
<event>
 9    1  0.1782981E-005  0.9517053E+02  0.7546771E-02  0.1294171E+00
          1   -1    0    0  502    0  0.00000000000E+00  0.00000000000E+00  0.35395594456E+03  0.35395594456E+03  0.00000000000E+00 0. -1.
         -1   -1    0    0    0  501 -0.00000000000E+00 -0.00000000000E+00 -0.73070185951E+02  0.73070185951E+02  0.00000000000E+00 0.  1.
         23    2    1    2    0    0 -0.18633090231E+01  0.10773022754E+02  0.11177910042E+02  0.92693455383E+02  0.91365207044E+02 0.  0.
         23    2    1    2    0    0 -0.51313674163E+02 -0.46150458881E+02  0.84688970967E+02  0.13859984805E+03  0.85292075040E+02 0.  0.
        -11    1    4    4    0    0 -0.31753783445E+01 -0.22408843287E+02  0.81771718032E+02  0.84846055624E+02  0.00000000000E+00 0. -1.
         11    1    4    4    0    0 -0.48138295818E+02 -0.23741615595E+02  0.29172529348E+01  0.53753792425E+02  0.00000000000E+00 0.  1.
        -11    1    3    3    0    0 -0.45681144211E+02 -0.23933523985E+01  0.66809933250E+00  0.45748676799E+02  0.00000000000E+00 0.  1.
         11    1    3    3    0    0  0.43817835187E+02  0.13166375153E+02  0.10509810709E+02  0.46944778584E+02  0.00000000000E+00 0. -1.
         21    1    1    2  502  501  0.53176983186E+02  0.35377436127E+02  0.18501887760E+03  0.19573282708E+03  0.00000000000E+00 0. -1.
<scales pt_clust_5="13000.00000" pt_clust_6="13000.00000" pt_clust_7="13000.00000" pt_clust_8="13000.00000" pt_clust_9="63.86982"></scales>
<clustering>
<clus scale="   63.870">  1  9  2 -1</clus>
<clus scale="   85.292">  5  6 -1 -1</clus>
<clus scale="   89.356">  1  5  2 -1</clus>
<clus scale="   91.365">  7  8 -1 -1</clus>
<clus scale="   63.870">  1  5  2 -1</clus>
</clustering>
</event>
<event>
 9    1  0.1782981E-005  0.9795940E+02  0.7546771E-02  0.1285511E+00
          2   -1    0    0  502    0  0.00000000000E+00  0.00000000000E+00  0.73864796632E+03  0.73864796632E+03  0.00000000000E+00 0. -1.
         -2   -1    0    0    0  501 -0.00000000000E+00 -0.00000000000E+00 -0.61862271407E+02  0.61862271407E+02  0.00000000000E+00 0.  1.
         23    2    1    2    0    0  0.33617996934E+02 -0.16426286990E+02  0.46852508233E+01  0.98331944749E+02  0.90814245362E+02 0.  0.
         23    2    1    2    0    0  0.44546888536E+02  0.40126969565E+02  0.49538047637E+03  0.50749542607E+03  0.92494281735E+02 0.  0.
        -11    1    4    4    0    0  0.23313928060E+02  0.65346637037E+02  0.41258149942E+03  0.41837449239E+03  0.00000000000E+00 0. -1.
         11    1    4    4    0    0  0.21232960477E+02 -0.25219667472E+02  0.82798976945E+02  0.89120933686E+02  0.00000000000E+00 0.  1.
        -11    1    3    3    0    0  0.38630828010E+02 -0.36873333323E+02  0.33203744238E+02  0.62884594413E+02  0.00000000000E+00 0.  1.
         11    1    3    3    0    0 -0.50128310757E+01  0.20447046333E+02 -0.28518493415E+02  0.35447350335E+02  0.00000000000E+00 0. -1.
         21    1    1    2  502  501 -0.78164885471E+02 -0.23700682576E+02  0.17671996772E+03  0.19468286691E+03  0.00000000000E+00 0.  1.
<scales pt_clust_5="13000.00000" pt_clust_6="13000.00000" pt_clust_7="13000.00000" pt_clust_8="13000.00000" pt_clust_9="81.67908"></scales>
<clustering>
<clus scale="   81.679">  1  9  2 -1</clus>
<clus scale="   90.814">  7  8 -1 -1</clus>
<clus scale="   92.494">  5  6 -1 -1</clus>
<clus scale="   96.375">  2  7  1 -1</clus>
<clus scale="   81.679">  1  5  2 -1</clus>
</clustering>
</event>
<event>
 9    1  0.1782981E-005  0.1013567E+03  0.7546771E-02  0.1277928E+00
         -2   -1    0    0    0  501 -0.00000000000E+00  0.00000000000E+00  0.55806981794E+02  0.55806981794E+02  0.00000000000E+00 0.  1.
          2   -1    0    0  502    0  0.00000000000E+00 -0.00000000000E+00 -0.57442063826E+03  0.57442063826E+03  0.00000000000E+00 0. -1.
         23    2    1    2    0    0 -0.29808408676E+02  0.59707679882E+01 -0.22423897431E+02  0.10090474631E+03  0.93566796217E+02 0.  0.
         23    2    1    2    0    0  0.81806376466E+02  0.11425155184E+02 -0.27959197553E+03  0.30589278039E+03  0.92606171019E+02 0.  0.
        -13    1    3    3    0    0 -0.17728628445E+02 -0.19752704554E+02 -0.52930342228E+02  0.59212285314E+02  0.00000000000E+00 0. -1.
         13    1    3    3    0    0 -0.12079780230E+02  0.25723472542E+02  0.30506444797E+02  0.41692460999E+02  0.00000000000E+00 0.  1.
        -13    1    4    4    0    0 -0.63148347758E+01  0.24517003249E+02 -0.12438014255E+03  0.12693061273E+03  0.00000000000E+00 0.  1.
         13    1    4    4    0    0  0.88121211241E+02 -0.13091848065E+02 -0.15521183298E+03  0.17896216766E+03  0.00000000000E+00 0. -1.
         21    1    1    2  502  501 -0.51997967790E+02 -0.17395923172E+02 -0.21659778350E+03  0.22343009335E+03  0.00000000000E+00 0.  1.
<scales pt_clust_5="13000.00000" pt_clust_6="13000.00000" pt_clust_7="13000.00000" pt_clust_8="13000.00000" pt_clust_9="54.83071"></scales>
<clustering>
<clus scale="   54.831">  2  9  1 -1</clus>
<clus scale="   92.606">  7  8 -1 -1</clus>
<clus scale="   93.567">  5  6 -1 -1</clus>
<clus scale="  100.471">  2  7  1 -1</clus>
<clus scale="   54.831">  2  5  1 -1</clus>
</clustering>
</event>
<event>
 9    1  0.1782981E-005  0.9074277E+02  0.7546771E-02  0.1302456E+00
         -2   -1    0    0    0  501 -0.00000000000E+00  0.00000000000E+00  0.14541685762E+03  0.14541685762E+03  0.00000000000E+00 0.  1.
          2   -1    0    0  502    0  0.00000000000E+00 -0.00000000000E+00 -0.12859590717E+03  0.12859590717E+03  0.00000000000E+00 0. -1.
         23    2    1    2    0    0 -0.12648895308E+02  0.82583790401E+01  0.44249357786E+02  0.10198313171E+03  0.90633096118E+02 0.  0.
         23    2    1    2    0    0 -0.17020721832E+02  0.17814780700E+02  0.34997220129E+02  0.98157752068E+02  0.88334973206E+02 0.  0.
        -11    1    3    3    0    0 -0.72297574262E+01  0.49085735466E+02  0.16358910149E+02  0.52242633547E+02  0.00000000000E+00 0.  1.
         11    1    3    3    0    0 -0.54191378816E+01 -0.40827356426E+02  0.27890447637E+02  0.49740498163E+02  0.00000000000E+00 0. -1.
        -13    1    4    4    0    0 -0.52937467121E+02  0.13749982348E+02  0.27596922125E+02  0.61261958428E+02  0.00000000000E+00 0.  1.
         13    1    4    4    0    0  0.35916745289E+02  0.40647983518E+01  0.74002980043E+01  0.36895793640E+02  0.00000000000E+00 0. -1.
         21    1    1    2  502  501  0.29669617140E+02 -0.26073159740E+02 -0.62425627469E+02  0.73871881016E+02  0.00000000000E+00 0. -1.
<scales pt_clust_5="13000.00000" pt_clust_6="13000.00000" pt_clust_7="13000.00000" pt_clust_8="13000.00000" pt_clust_9="39.49805"></scales>
<clustering>
<clus scale="   39.498">  2  9  1 -1</clus>
<clus scale="   88.335">  7  8 -1 -1</clus>
<clus scale="   88.447">  2  7  1 -1</clus>
<clus scale="   90.633">  5  6 -1 -1</clus>
<clus scale="   39.498">  2  5  1 -1</clus>
</clustering>
</event>
<event>
 9    1  0.5329441E-005  0.1669182E+03  0.7546771E-02  0.1182772E+00
          2   -1    0    0  502    0  0.00000000000E+00  0.00000000000E+00  0.93285291656E+03  0.93285291656E+03  0.00000000000E+00 0. -1.
         -2   -1    0    0    0  501 -0.00000000000E+00 -0.00000000000E+00 -0.15509286443E+03  0.15509286443E+03  0.00000000000E+00 0.  1.
         23    2    1    2    0    0  0.12128246740E+03  0.70839116524E+02 -0.99474054173E+02  0.18916421090E+03  0.78488176844E+02 0.  0.
         23    2    1    2    0    0 -0.13070835523E+03 -0.49451226524E+02  0.82402699269E+03  0.84066714726E+03  0.90391757824E+02 0.  0.
        -13    1    3    3    0    0  0.10555356152E+03  0.25678164965E+02 -0.88453700172E+02  0.14008918438E+03  0.00000000000E+00 0.  1.
         13    1    3    3    0    0  0.15728905874E+02  0.45160951559E+02 -0.11020354002E+02  0.49075026521E+02  0.00000000000E+00 0. -1.
        -13    1    4    4    0    0 -0.10601004249E+03  0.54618970679E+01  0.53765429627E+03  0.54803294036E+03  0.00000000000E+00 0.  1.
         13    1    4    4    0    0 -0.24698312743E+02 -0.54913123592E+02  0.28637269642E+03  0.29263420690E+03  0.00000000000E+00 0. -1.
         21    1    1    2  502  501  0.94258878298E+01 -0.21387890001E+02  0.53207113621E+02  0.58114422822E+02  0.00000000000E+00 0. -1.
<scales pt_clust_5="13000.00000" pt_clust_6="13000.00000" pt_clust_7="13000.00000" pt_clust_8="13000.00000" pt_clust_9="23.37283"></scales>
<clustering>
<clus scale="   23.373">  1  9  2 -1</clus>
<clus scale="   78.488">  5  6 -1 -1</clus>
<clus scale="   90.392">  7  8 -1 -1</clus>
<clus scale="  160.784">  2  5  1 -1</clus>
<clus scale="   23.373">  1  5  2 -1</clus>
</clustering>
</event>
<event>
 9    1  0.1782981E-005  0.1102888E+03  0.7546771E-02  0.1260304E+00
          1   -1    0    0  502    0  0.00000000000E+00  0.00000000000E+00  0.16826879355E+03  0.16826879355E+03  0.00000000000E+00 0. -1.
         -1   -1    0    0    0  501 -0.00000000000E+00 -0.00000000000E+00 -0.18633115020E+03  0.18633115020E+03  0.00000000000E+00 0.  1.
         23    2    1    2    0    0 -0.10017838377E+02  0.60234598135E+02 -0.12572065473E+03  0.16687041548E+03  0.91167366084E+02 0.  0.
         23    2    1    2    0    0 -0.15983063129E+02 -0.68884986711E+02  0.52747241418E+02  0.12636096756E+03  0.90466695223E+02 0.  0.
        -11    1    3    3    0    0 -0.31599171392E+02  0.28819558799E+02 -0.12115770752E+03  0.12848449204E+03  0.00000000000E+00 0.  1.
         11    1    3    3    0    0  0.21581333015E+02  0.31415039335E+02 -0.45629472035E+01  0.38385923440E+02  0.00000000000E+00 0. -1.
        -11    1    4    4    0    0  0.33235189837E+02 -0.35677395423E+02  0.29138299313E+01  0.48846133855E+02  0.00000000000E+00 0. -1.
         11    1    4    4    0    0 -0.49218252966E+02 -0.33207591288E+02  0.49833411487E+02  0.77514833707E+02  0.00000000000E+00 0.  1.
         21    1    1    2  502  501  0.26000901506E+02  0.86503885763E+01  0.54911056648E+02  0.61368560712E+02  0.00000000000E+00 0. -1.
<scales pt_clust_5="13000.00000" pt_clust_6="13000.00000" pt_clust_7="13000.00000" pt_clust_8="13000.00000" pt_clust_9="27.40212"></scales>
<clustering>
<clus scale="   27.402">  1  9  2 -1</clus>
<clus scale="   90.467">  7  8 -1 -1</clus>
<clus scale="   91.167">  5  6 -1 -1</clus>
<clus scale="  109.710">  1  7  2 -1</clus>
<clus scale="   27.402">  1  5  2 -1</clus>
</clustering>
</event>
<event>
 9    1  0.1782981E-005  0.9776460E+02  0.7546771E-02  0.1286041E+00
          1   -1    0    0  502    0  0.00000000000E+00  0.00000000000E+00  0.77903398285E+02  0.77903398285E+02  0.00000000000E+00 0. -1.
         -1   -1    0    0    0  501 -0.00000000000E+00 -0.00000000000E+00 -0.20537445500E+03  0.20537445500E+03  0.00000000000E+00 0.  1.
         23    2    1    2    0    0  0.19860247832E+02  0.10184060255E+02 -0.91860169122E+02  0.13267701785E+03  0.93095412707E+02 0.  0.
         23    2    1    2    0    0 -0.21894547148E+02 -0.38065217914E+02 -0.56278044470E+02  0.11583549783E+03  0.91226708027E+02 0.  0.
        -11    1    3    3    0    0  0.56360141926E+02 -0.33629741588E+01 -0.59803260831E+02  0.82244788279E+02  0.00000000000E+00 0.  1.
         11    1    3    3    0    0 -0.36499894094E+02  0.13547034414E+02 -0.32056908290E+02  0.50432229570E+02  0.00000000000E+00 0. -1.
        -11    1    4    4    0    0 -0.38915900655E+02 -0.56296657358E+01  0.95842174090E+01  0.40472184071E+02  0.00000000000E+00 0. -1.
         11    1    4    4    0    0  0.17021353507E+02 -0.32435552178E+02 -0.65862261879E+02  0.75363313755E+02  0.00000000000E+00 0.  1.
         21    1    1    2  502  501  0.20342993165E+01  0.27881157659E+02  0.20667156874E+02  0.34765337613E+02  0.00000000000E+00 0. -1.
<scales pt_clust_5="13000.00000" pt_clust_6="13000.00000" pt_clust_7="13000.00000" pt_clust_8="13000.00000" pt_clust_9="27.95527"></scales>
<clustering>
<clus scale="   27.955">  1  9  2 -1</clus>
<clus scale="   91.227">  7  8 -1 -1</clus>
<clus scale="   93.095">  5  6 -1 -1</clus>
<clus scale="   95.987">  1  7  2 -1</clus>
<clus scale="   27.955">  1  5  2 -1</clus>
</clustering>
</event>
<event>
 9    1  0.1782981E-005  0.1179037E+03  0.7546771E-02  0.1246659E+00
         -1   -1    0    0    0  501 -0.00000000000E+00  0.00000000000E+00  0.53507494152E+02  0.53507494152E+02  0.00000000000E+00 0.  1.
          1   -1    0    0  502    0  0.00000000000E+00 -0.00000000000E+00 -0.53077106602E+03  0.53077106602E+03  0.00000000000E+00 0. -1.
         23    2    1    2    0    0 -0.68421104573E+02  0.25915005077E+02 -0.41054838336E+02  0.12451847218E+03  0.92012581339E+02 0.  0.
         23    2    1    2    0    0  0.62624361084E+02 -0.48445112871E+02 -0.38174343206E+03  0.40053444273E+03  0.91820761966E+02 0.  0.
        -11    1    3    3    0    0 -0.72046826926E+02 -0.40383809912E+01  0.17113019747E+01  0.72180207437E+02  0.00000000000E+00 0. -1.
         11    1    3    3    0    0  0.36257223531E+01  0.29953386068E+02 -0.42766140311E+02  0.52338264746E+02  0.00000000000E+00 0.  1.
        -13    1    4    4    0    0  0.58620978980E+02  0.10034023746E+02 -0.23756163228E+03  0.24489309900E+03  0.00000000000E+00 0.  1.
         13    1    4    4    0    0  0.40033821039E+01 -0.58479136618E+02 -0.14418179978E+03  0.15564134373E+03  0.00000000000E+00 0. -1.
         21    1    1    2  502  501  0.57967434896E+01  0.22530107794E+02 -0.54465301470E+02  0.59225645261E+02  0.00000000000E+00 0.  1.
<scales pt_clust_5="13000.00000" pt_clust_6="13000.00000" pt_clust_7="13000.00000" pt_clust_8="13000.00000" pt_clust_9="23.26388"></scales>
<clustering>
<clus scale="   23.264">  2  9  1 -1</clus>
<clus scale="   91.821">  7  8 -1 -1</clus>
<clus scale="   92.013">  5  6 -1 -1</clus>
<clus scale="  117.754">  2  7  1 -1</clus>
<clus scale="   23.264">  2  5  1 -1</clus>
</clustering>
</event>
<event>
 9    1  0.1782981E-005  0.1214947E+03  0.7546771E-02  0.1241262E+00
         -1   -1    0    0    0  501 -0.00000000000E+00  0.00000000000E+00  0.34256429956E+02  0.34256429956E+02  0.00000000000E+00 0.  1.
          1   -1    0    0  502    0  0.00000000000E+00 -0.00000000000E+00 -0.95723736091E+03  0.95723736091E+03  0.00000000000E+00 0. -1.
         23    2    1    2    0    0 -0.50518848391E+02  0.58950566430E+02 -0.10596580018E+03  0.16007980493E+03  0.91484806466E+02 0.  0.
         23    2    1    2    0    0  0.73656099861E+02 -0.56384831858E+02 -0.63780751997E+03  0.65070072364E+03  0.89490384422E+02 0.  0.
        -11    1    3    3    0    0 -0.16808539799E+02 -0.17565796947E+02  0.97525112788E+00  0.24331776494E+02  0.00000000000E+00 0. -1.
         11    1    3    3    0    0 -0.33710308592E+02  0.76516363377E+02 -0.10694105131E+03  0.13574802844E+03  0.00000000000E+00 0.  1.
        -11    1    4    4    0    0  0.35572283235E+02  0.18728034979E+02 -0.13391019958E+03  0.13981440620E+03  0.00000000000E+00 0. -1.
         11    1    4    4    0    0  0.38083816626E+02 -0.75112866838E+02 -0.50389732039E+03  0.51088631744E+03  0.00000000000E+00 0.  1.
         21    1    1    2  502  501 -0.23137251470E+02 -0.25657345715E+01 -0.17920761079E+03  0.18071326228E+03  0.00000000000E+00 0.  1.
<scales pt_clust_5="13000.00000" pt_clust_6="13000.00000" pt_clust_7="13000.00000" pt_clust_8="13000.00000" pt_clust_9="23.27908"></scales>
<clustering>
<clus scale="   23.279">  2  9  1 -1</clus>
<clus scale="   89.490">  7  8 -1 -1</clus>
<clus scale="   91.485">  5  6 -1 -1</clus>
<clus scale="  120.000">  2  7  1 -1</clus>
<clus scale="   23.279">  2  5  1 -1</clus>
</clustering>
</event>
<event>
 9    1  0.1782981E-005  0.9666323E+02  0.7546771E-02  0.1287619E+00
         -1   -1    0    0    0  501 -0.00000000000E+00  0.00000000000E+00  0.12512440700E+03  0.12512440700E+03  0.00000000000E+00 0.  1.
          1   -1    0    0  502    0  0.00000000000E+00 -0.00000000000E+00 -0.15332564452E+03  0.15332564452E+03  0.00000000000E+00 0. -1.
         23    2    1    2    0    0 -0.89234232520E+01 -0.29900801257E+02  0.70526915409E+02  0.12009102624E+03  0.92055001970E+02 0.  0.
         23    2    1    2    0    0  0.28747799861E+02  0.12631751814E+02 -0.83410229977E+02  0.12793099970E+03  0.91777323286E+02 0.  0.
        -11    1    3    3    0    0  0.31748321916E+02 -0.41096284437E+02  0.23757437856E+02  0.57107586120E+02  0.00000000000E+00 0.  1.
         11    1    3    3    0    0 -0.40671745168E+02  0.11195483180E+02  0.46769477553E+02  0.62983440119E+02  0.00000000000E+00 0. -1.
        -13    1    4    4    0    0  0.44337822369E+02 -0.42884663830E+01 -0.33952640463E+01  0.44673943796E+02  0.00000000000E+00 0.  1.
         13    1    4    4    0    0 -0.15590022507E+02  0.16920218197E+02 -0.80014965930E+02  0.83257055908E+02  0.00000000000E+00 0. -1.
         21    1    1    2  502  501 -0.19824376609E+02  0.17269049443E+02 -0.15317922961E+02  0.30428025576E+02  0.00000000000E+00 0.  1.
<scales pt_clust_5="13000.00000" pt_clust_6="13000.00000" pt_clust_7="13000.00000" pt_clust_8="13000.00000" pt_clust_9="26.29118"></scales>
<clustering>
<clus scale="   26.291">  2  9  1 -1</clus>
<clus scale="   91.777">  7  8 -1 -1</clus>
<clus scale="   92.055">  5  6 -1 -1</clus>
<clus scale="   96.399">  2  7  1 -1</clus>
<clus scale="   26.291">  2  5  1 -1</clus>
</clustering>
</event>
<event>
 9    1  0.1782981E-005  0.1001015E+03  0.7546771E-02  0.1281657E+00
         -2   -1    0    0    0  501 -0.00000000000E+00  0.00000000000E+00  0.16426086420E+03  0.16426086420E+03  0.00000000000E+00 0.  1.
          2   -1    0    0  502    0  0.00000000000E+00 -0.00000000000E+00 -0.11671094509E+03  0.11671094509E+03  0.00000000000E+00 0. -1.
         23    2    1    2    0    0  0.27796994514E+02 -0.26897297680E+01  0.94795753033E+02  0.13442851486E+03  0.91131132243E+02 0.  0.
         23    2    1    2    0    0 -0.51951911343E+02  0.68928116806E+01 -0.19658386717E+02  0.10963539354E+03  0.94270649745E+02 0.  0.
        -11    1    4    4    0    0 -0.63187500813E+01 -0.35000942052E+02  0.15058488133E+02  0.38623187491E+02  0.00000000000E+00 0.  1.
         11    1    4    4    0    0 -0.45633161262E+02  0.41893753733E+02 -0.34716874851E+02  0.71012206049E+02  0.00000000000E+00 0. -1.
        -11    1    3    3    0    0  0.58840320785E+02 -0.15290120596E+02  0.70205178682E+02  0.92869468889E+02  0.00000000000E+00 0.  1.
         11    1    3    3    0    0 -0.31043326272E+02  0.12600390828E+02  0.24590574352E+02  0.41559045971E+02  0.00000000000E+00 0. -1.
         21    1    1    2  502  501  0.24154916829E+02 -0.42030819125E+01 -0.27587447213E+02  0.36907900893E+02  0.00000000000E+00 0. -1.
<scales pt_clust_5="13000.00000" pt_clust_6="13000.00000" pt_clust_7="13000.00000" pt_clust_8="13000.00000" pt_clust_9="24.51787"></scales>
<clustering>
<clus scale="   24.518">  2  9  1 -1</clus>
<clus scale="   91.131">  7  8 -1 -1</clus>
<clus scale="   94.271">  5  6 -1 -1</clus>
<clus scale="   97.151">  1  7  2 -1</clus>
<clus scale="   24.518">  2  5  1 -1</clus>
</clustering>
</event>
<event>
 9    1  0.1782981E-005  0.1234619E+03  0.7546771E-02  0.1241726E+00
         -2   -1    0    0    0  501 -0.00000000000E+00  0.00000000000E+00  0.62759427780E+02  0.62759427780E+02  0.00000000000E+00 0.  1.
          2   -1    0    0  502    0  0.00000000000E+00 -0.00000000000E+00 -0.54503309017E+03  0.54503309017E+03  0.00000000000E+00 0. -1.
         23    2    1    2    0    0 -0.35764343783E+02  0.71243833849E+02 -0.80682172366E+02  0.15350288196E+03  0.10343476052E+03 0.  0.
         23    2    1    2    0    0  0.51048969225E+02 -0.31633658791E+02 -0.94608277902E+02  0.14438436294E+03  0.91046320001E+02 0.  0.
        -11    1    3    3    0    0 -0.55608645617E+02  0.34741722555E+02 -0.89580216243E+02  0.11101316992E+03  0.00000000000E+00 0. -1.
         11    1    3    3    0    0  0.19844301834E+02  0.36502111294E+02  0.88980438762E+01  0.42489712037E+02  0.00000000000E+00 0.  1.
        -13    1    4    4    0    0  0.37844832086E+02  0.27914958521E+02 -0.31402559907E+02  0.56547298729E+02  0.00000000000E+00 0. -1.
         13    1    4    4    0    0  0.13204137138E+02 -0.59548617312E+02 -0.63205717995E+02  0.87837064208E+02  0.00000000000E+00 0.  1.
         21    1    1    2  502  501 -0.15284625442E+02 -0.39610175058E+02 -0.30698321212E+03  0.30990527306E+03  0.00000000000E+00 0. -1.
<scales pt_clust_5="13000.00000" pt_clust_6="13000.00000" pt_clust_7="13000.00000" pt_clust_8="13000.00000" pt_clust_9="42.45687"></scales>
<clustering>
<clus scale="   42.457">  2  9  1 -1</clus>
<clus scale="   91.046">  7  8 -1 -1</clus>
<clus scale="  103.435">  5  6 -1 -1</clus>
<clus scale="  113.285">  2  7  1 -1</clus>
<clus scale="   42.457">  2  5  1 -1</clus>
</clustering>
</event>
<event>
 9    1  0.1782981E-005  0.9814881E+02  0.7546771E-02  0.1284816E+00
          2   -1    0    0  502    0  0.00000000000E+00  0.00000000000E+00  0.10863252180E+03  0.10863252180E+03  0.00000000000E+00 0. -1.
         -2   -1    0    0    0  501 -0.00000000000E+00 -0.00000000000E+00 -0.12246552333E+03  0.12246552333E+03  0.00000000000E+00 0.  1.
         23    2    1    2    0    0 -0.19575932663E+02 -0.28516686409E+02 -0.32136090995E+02  0.10189505394E+03  0.90296484588E+02 0.  0.
         23    2    1    2    0    0 -0.31142483897E+01  0.42880293804E+02  0.14604009720E+02  0.10209504541E+03  0.91442348271E+02 0.  0.
        -11    1    3    3    0    0 -0.49403602713E+02 -0.24130587082E+02  0.36492104742E+01  0.55102794222E+02  0.00000000000E+00 0. -1.
         11    1    3    3    0    0  0.29827670051E+02 -0.43860993270E+01 -0.35785301469E+02  0.46792259715E+02  0.00000000000E+00 0.  1.
        -13    1    4    4    0    0  0.31231764472E+01 -0.28851981065E+02  0.51532295164E+01  0.29474511309E+02  0.00000000000E+00 0.  1.
         13    1    4    4    0    0 -0.62374248369E+01  0.71732274869E+02  0.94507802032E+01  0.72620534099E+02  0.00000000000E+00 0. -1.
         21    1    1    2  502  501  0.22690181052E+02 -0.14363607395E+02  0.36990797426E+01  0.27107945782E+02  0.00000000000E+00 0. -1.
<scales pt_clust_5="13000.00000" pt_clust_6="13000.00000" pt_clust_7="13000.00000" pt_clust_8="13000.00000" pt_clust_9="26.85438"></scales>
<clustering>
<clus scale="   26.854">  1  9  2 -1</clus>
<clus scale="   90.296">  5  6 -1 -1</clus>
<clus scale="   91.442">  7  8 -1 -1</clus>
<clus scale="   97.082">  2  5  1 -1</clus>
<clus scale="   26.854">  1  5  2 -1</clus>
</clustering>
</event>
<event>
 9    1  0.1782981E-005  0.9559248E+02  0.7546771E-02  0.1292542E+00
          1   -1    0    0  502    0  0.00000000000E+00  0.00000000000E+00  0.52807993516E+03  0.52807993516E+03  0.00000000000E+00 0. -1.
         -1   -1    0    0    0  501 -0.00000000000E+00 -0.00000000000E+00 -0.36033270668E+02  0.36033270668E+02  0.00000000000E+00 0.  1.
         23    2    1    2    0    0  0.12890414637E+02  0.91100757329E+01  0.64954498932E+02  0.11071238296E+03  0.88255246530E+02 0.  0.
         23    2    1    2    0    0 -0.67454392893E+01 -0.43078866805E+02  0.21256979934E+03  0.23611878242E+03  0.93085284049E+02 0.  0.
        -11    1    3    3    0    0 -0.34227610727E+02 -0.68589238525E+01  0.45371569028E+02  0.57246427387E+02  0.00000000000E+00 0. -1.
         11    1    3    3    0    0  0.47118025363E+02  0.15968999585E+02  0.19582929904E+02  0.53465955575E+02  0.00000000000E+00 0.  1.
        -13    1    4    4    0    0 -0.33972278494E+02 -0.29448117487E+02  0.19672012738E+03  0.20179225913E+03  0.00000000000E+00 0.  1.
         13    1    4    4    0    0  0.27226839204E+02 -0.13630749318E+02  0.15849671956E+02  0.34326523290E+02  0.00000000000E+00 0. -1.
         21    1    1    2  502  501 -0.61449753476E+01  0.33968791072E+02  0.21452236622E+03  0.21728204044E+03  0.00000000000E+00 0.  1.
<scales pt_clust_5="13000.00000" pt_clust_6="13000.00000" pt_clust_7="13000.00000" pt_clust_8="13000.00000" pt_clust_9="34.52013"></scales>
<clustering>
<clus scale="   34.520">  1  9  2 -1</clus>
<clus scale="   88.255">  5  6 -1 -1</clus>
<clus scale="   90.896">  2  5  1 -1</clus>
<clus scale="   93.085">  7  8 -1 -1</clus>
<clus scale="   34.520">  1  5  2 -1</clus>
</clustering>
</event>
<event>
 9    1  0.1789457E-005  0.1166260E+03  0.7546771E-02  0.1248983E+00
         -1   -1    0    0    0  501 -0.00000000000E+00  0.00000000000E+00  0.79396106712E+02  0.79396106712E+02  0.00000000000E+00 0.  1.
          1   -1    0    0  502    0  0.00000000000E+00 -0.00000000000E+00 -0.50741461850E+03  0.50741461850E+03  0.00000000000E+00 0. -1.
         23    2    1    2    0    0 -0.14977447867E+02  0.74805838386E+02  0.90419248104E+01  0.11962388292E+03  0.91694490337E+02 0.  0.
         23    2    1    2    0    0  0.36575177711E+02 -0.60997883265E+02 -0.42123791272E+03  0.43706253615E+03  0.92324406332E+02 0.  0.
        -11    1    4    4    0    0  0.66823231412E+02 -0.31746503209E+02 -0.28716472854E+03  0.29654133951E+03  0.00000000000E+00 0. -1.
         11    1    4    4    0    0 -0.30248053701E+02 -0.29251380056E+02 -0.13407318418E+03  0.14052119664E+03  0.00000000000E+00 0.  1.
        -13    1    3    3    0    0 -0.47254056027E+02  0.72132075546E+02  0.12167121671E+02  0.87086284702E+02  0.00000000000E+00 0.  1.
         13    1    3    3    0    0  0.32276608160E+02  0.26737628407E+01 -0.31251968605E+01  0.32537598213E+02  0.00000000000E+00 0. -1.
         21    1    1    2  502  501 -0.21597729844E+02 -0.13807955122E+02 -0.15822523878E+02  0.30124306149E+02  0.00000000000E+00 0. -1.
<scales pt_clust_5="13000.00000" pt_clust_6="13000.00000" pt_clust_7="13000.00000" pt_clust_8="13000.00000" pt_clust_9="25.63438"></scales>
<clustering>
<clus scale="   25.634">  1  9  2 -1</clus>
<clus scale="   91.694">  7  8 -1 -1</clus>
<clus scale="   92.324">  5  6 -1 -1</clus>
<clus scale="  116.128">  1  7  2 -1</clus>
<clus scale="  116.626">  2  5  1 -1</clus>
</clustering>
</event>
<event>
 9    1  0.1782981E-005  0.9898833E+02  0.7546771E-02  0.1284173E+00
          3   -1    0    0  502    0  0.00000000000E+00  0.00000000000E+00  0.30615244341E+02  0.30615244341E+02  0.00000000000E+00 0. -1.
         -3   -1    0    0    0  501 -0.00000000000E+00 -0.00000000000E+00 -0.47375963174E+03  0.47375963174E+03  0.00000000000E+00 0.  1.
         23    2    1    2    0    0  0.24741675479E+02  0.17363097517E+02 -0.24901604553E+03  0.26742184055E+03  0.92692082786E+02 0.  0.
         23    2    1    2    0    0 -0.10894695560E+02 -0.48223262908E+02 -0.14643419819E+03  0.17848235911E+03  0.89268138965E+02 0.  0.
        -11    1    4    4    0    0  0.38469008130E+02 -0.32130360907E+02 -0.71489276316E+02  0.87309457143E+02  0.00000000000E+00 0.  1.
         11    1    4    4    0    0 -0.49363703690E+02 -0.16092902001E+02 -0.74944921879E+02  0.91172901963E+02  0.00000000000E+00 0. -1.
        -13    1    3    3    0    0 -0.19551115277E+02 -0.27960415352E+02 -0.85794023303E+02  0.92329006112E+02  0.00000000000E+00 0. -1.
         13    1    3    3    0    0  0.44292790756E+02  0.45323512869E+02 -0.16322202222E+03  0.17509283444E+03  0.00000000000E+00 0.  1.
         21    1    1    2  502  501 -0.13846979920E+02  0.30860165391E+02 -0.47694143679E+02  0.58470676430E+02  0.00000000000E+00 0. -1.
<scales pt_clust_5="13000.00000" pt_clust_6="13000.00000" pt_clust_7="13000.00000" pt_clust_8="13000.00000" pt_clust_9="33.82438"></scales>
<clustering>
<clus scale="   33.824">  1  9  2 -1</clus>
<clus scale="   89.268">  5  6 -1 -1</clus>
<clus scale="   92.692">  7  8 -1 -1</clus>
<clus scale="   95.790">  1  5  2 -1</clus>
<clus scale="   33.824">  1  5  2 -1</clus>
</clustering>
</event>
<event>
 9    1  0.1782981E-005  0.9413413E+02  0.7546771E-02  0.1293462E+00
         -3   -1    0    0    0  501 -0.00000000000E+00  0.00000000000E+00  0.93701715873E+02  0.93701715873E+02  0.00000000000E+00 0.  1.
          3   -1    0    0  502    0  0.00000000000E+00 -0.00000000000E+00 -0.34375895080E+03  0.34375895080E+03  0.00000000000E+00 0. -1.
         23    2    1    2    0    0  0.23694135549E+02 -0.14851875042E+02  0.54506259729E+02  0.10909465673E+03  0.90270269329E+02 0.  0.
         23    2    1    2    0    0 -0.15114449815E+01  0.21794847220E+02 -0.27872480569E+03  0.29361094599E+03  0.89680379485E+02 0.  0.
        -11    1    4    4    0    0  0.24837875858E+02 -0.24866845755E+02 -0.15221110206E+03  0.15621619534E+03  0.00000000000E+00 0.  1.
         11    1    4    4    0    0 -0.26349320839E+02  0.46661692976E+02 -0.12651370363E+03  0.13739475065E+03  0.00000000000E+00 0. -1.
        -13    1    3    3    0    0  0.31993466261E+01 -0.47649482774E+02  0.51604089626E+02  0.70311386656E+02  0.00000000000E+00 0.  1.
         13    1    3    3    0    0  0.20494788923E+02  0.32797607732E+02  0.29021701033E+01  0.38783270069E+02  0.00000000000E+00 0. -1.
         21    1    1    2  502  501 -0.22182690568E+02 -0.69429721783E+01 -0.25838688965E+02  0.34755063961E+02  0.00000000000E+00 0.  1.
<scales pt_clust_5="13000.00000" pt_clust_6="13000.00000" pt_clust_7="13000.00000" pt_clust_8="13000.00000" pt_clust_9="23.24385"></scales>
<clustering>
<clus scale="   23.244">  2  9  1 -1</clus>
<clus scale="   89.680">  5  6 -1 -1</clus>
<clus scale="   90.270">  7  8 -1 -1</clus>
<clus scale="   93.569">  2  5  1 -1</clus>
<clus scale="   23.244">  2  5  1 -1</clus>
</clustering>
</event>
<event>
 9    1  0.1782981E-005  0.9389101E+02  0.7546771E-02  0.1294459E+00
         -1   -1    0    0    0  501 -0.00000000000E+00  0.00000000000E+00  0.34919178159E+03  0.34919178159E+03  0.00000000000E+00 0.  1.
          1   -1    0    0  502    0  0.00000000000E+00 -0.00000000000E+00 -0.78974629161E+02  0.78974629161E+02  0.00000000000E+00 0. -1.
         23    2    1    2    0    0 -0.99226082657E+01 -0.10852884496E+02  0.27812097410E+03  0.29376598989E+03  0.93439484838E+02 0.  0.
         23    2    1    2    0    0 -0.15315239072E+02 -0.17123107636E+02  0.36307785398E+01  0.94996714485E+02  0.92105569035E+02 0.  0.
        -13    1    4    4    0    0 -0.11416680847E+02 -0.54174375501E+02  0.12370617589E+02  0.56729496226E+02  0.00000000000E+00 0. -1.
         13    1    4    4    0    0 -0.38985582248E+01  0.37051267865E+02 -0.87398390495E+01  0.38267218259E+02  0.00000000000E+00 0.  1.
        -13    1    3    3    0    0 -0.33885459518E+02 -0.41896550421E+02  0.13464368363E+03  0.14502574545E+03  0.00000000000E+00 0.  1.
         13    1    3    3    0    0  0.23962851253E+02  0.31043665924E+02  0.14347729047E+03  0.14874024444E+03  0.00000000000E+00 0. -1.
         21    1    1    2  502  501  0.25237847338E+02  0.27975992132E+02 -0.11534600210E+02  0.39403706374E+02  0.00000000000E+00 0. -1.
<scales pt_clust_5="13000.00000" pt_clust_6="13000.00000" pt_clust_7="13000.00000" pt_clust_8="13000.00000" pt_clust_9="37.67765"></scales>
<clustering>
<clus scale="   37.678">  2  9  1 -1</clus>
<clus scale="   92.106">  5  6 -1 -1</clus>
<clus scale="   92.564">  2  5  1 -1</clus>
<clus scale="   93.439">  7  8 -1 -1</clus>
<clus scale="   37.678">  2  5  1 -1</clus>
</clustering>
</event>
<event>
 9    1  0.1782981E-005  0.1197539E+03  0.7546771E-02  0.1243661E+00
         -3   -1    0    0    0  501 -0.00000000000E+00  0.00000000000E+00  0.51973070506E+03  0.51973070506E+03  0.00000000000E+00 0.  1.
          3   -1    0    0  502    0  0.00000000000E+00 -0.00000000000E+00 -0.57500877957E+02  0.57500877957E+02  0.00000000000E+00 0. -1.
         23    2    1    2    0    0 -0.40240005282E+02 -0.69197315585E+02  0.40500607940E+03  0.42307387307E+03  0.92488113907E+02 0.  0.
         23    2    1    2    0    0  0.42055126954E+02  0.43625957865E+02  0.63365031585E+02  0.12779667109E+03  0.92978513711E+02 0.  0.
        -13    1    4    4    0    0  0.69809997119E+02  0.42311238325E+02  0.37490191947E+02  0.89828676260E+02  0.00000000000E+00 0. -1.
         13    1    4    4    0    0 -0.27754870165E+02  0.13147195399E+01  0.25874839638E+02  0.37967994833E+02  0.00000000000E+00 0.  1.
        -13    1    3    3    0    0  0.22386422667E+02  0.56132195173E+01  0.10854639336E+03  0.11097287806E+03  0.00000000000E+00 0. -1.
         13    1    3    3    0    0 -0.62626427949E+02 -0.74810535102E+02  0.29645968603E+03  0.31210099500E+03  0.00000000000E+00 0.  1.
         21    1    1    2  502  501 -0.18151216719E+01  0.25571357720E+02 -0.61412838735E+01  0.26361038863E+02  0.00000000000E+00 0. -1.
<scales pt_clust_5="13000.00000" pt_clust_6="13000.00000" pt_clust_7="13000.00000" pt_clust_8="13000.00000" pt_clust_9="25.63570"></scales>
<clustering>
<clus scale="   25.636">  2  9  1 -1</clus>
<clus scale="   92.488">  7  8 -1 -1</clus>
<clus scale="   92.979">  5  6 -1 -1</clus>
<clus scale="  119.374">  1  7  2 -1</clus>
<clus scale="   25.636">  2  5  1 -1</clus>
</clustering>
</event>
<event>
 9    1  0.1782981E-005  0.1124716E+03  0.7546771E-02  0.1256374E+00
         -1   -1    0    0    0  501 -0.00000000000E+00  0.00000000000E+00  0.83871211658E+02  0.83871211658E+02  0.00000000000E+00 0.  1.
          1   -1    0    0  502    0  0.00000000000E+00 -0.00000000000E+00 -0.25697907723E+03  0.25697907723E+03  0.00000000000E+00 0. -1.
         23    2    1    2    0    0  0.51083760450E+02  0.29576238852E+02 -0.18338592418E+02  0.10976505668E+03  0.90706996481E+02 0.  0.
         23    2    1    2    0    0 -0.54884192919E+02 -0.52448347384E+02 -0.59418660820E+02  0.13295615441E+03  0.91562317396E+02 0.  0.
        -11    1    4    4    0    0  0.19993093333E+02  0.80369926764E+01 -0.40921197063E+01  0.21933136483E+02  0.00000000000E+00 0.  1.
         11    1    4    4    0    0 -0.74877286252E+02 -0.60485340060E+02 -0.55326541114E+02  0.11102301793E+03  0.00000000000E+00 0. -1.
        -13    1    3    3    0    0  0.66003978647E+02  0.85697527538E+01  0.14405414633E+02  0.68099058953E+02  0.00000000000E+00 0.  1.
         13    1    3    3    0    0 -0.14920218197E+02  0.21006486098E+02 -0.32744007050E+02  0.41665997731E+02  0.00000000000E+00 0. -1.
         21    1    1    2  502  501  0.38004324692E+01  0.22872108532E+02 -0.95350612335E+02  0.98129077792E+02  0.00000000000E+00 0. -1.
<scales pt_clust_5="13000.00000" pt_clust_6="13000.00000" pt_clust_7="13000.00000" pt_clust_8="13000.00000" pt_clust_9="23.18570"></scales>
<clustering>
<clus scale="   23.186">  2  9  1 -1</clus>
<clus scale="   90.707">  7  8 -1 -1</clus>
<clus scale="   91.562">  5  6 -1 -1</clus>
<clus scale="  111.776">  1  7  2 -1</clus>
<clus scale="   23.186">  2  5  1 -1</clus>
</clustering>
</event>
<event>
 9    1  0.1782981E-005  0.1642001E+03  0.7546771E-02  0.1210165E+00
         -2   -1    0    0    0  501 -0.00000000000E+00  0.00000000000E+00  0.10017081194E+03  0.10017081194E+03  0.00000000000E+00 0.  1.
          2   -1    0    0  502    0  0.00000000000E+00 -0.00000000000E+00 -0.45088390854E+03  0.45088390854E+03  0.00000000000E+00 0. -1.
         23    2    1    2    0    0 -0.71226041230E+02 -0.11117150302E+03 -0.52481396627E+02  0.16858093987E+03  0.90735793726E+02 0.  0.
         23    2    1    2    0    0  0.43342707281E-01 -0.15454447548E+02 -0.13667119078E+03  0.16521148278E+03  0.91525831467E+02 0.  0.
        -11    1    3    3    0    0 -0.80655679186E+02 -0.91521141292E+02 -0.11966143094E+02  0.12257506463E+03  0.00000000000E+00 0. -1.
         11    1    3    3    0    0  0.94296379559E+01 -0.19650361730E+02 -0.40515253533E+02  0.46005875244E+02  0.00000000000E+00 0.  1.
        -13    1    4    4    0    0  0.28786878679E+02 -0.53921814949E+01 -0.45657967381E+01  0.29641297293E+02  0.00000000000E+00 0.  1.
         13    1    4    4    0    0 -0.28743535972E+02 -0.10062266053E+02 -0.13210539404E+03  0.13557018549E+03  0.00000000000E+00 0. -1.
         21    1    1    2  502  501  0.71182698523E+02  0.12662595057E+03 -0.16156050920E+03  0.21726229783E+03  0.00000000000E+00 0.  1.
<scales pt_clust_5="13000.00000" pt_clust_6="13000.00000" pt_clust_7="13000.00000" pt_clust_8="13000.00000" pt_clust_9="136.85274"></scales>
<clustering>
<clus scale="   90.736">  5  6 -1 -1</clus>
<clus scale="   91.526">  7  8 -1 -1</clus>
<clus scale="   92.821">  2  7  1 -1</clus>
<clus scale="  136.853">  2  9  1 -1</clus>
<clus scale="   92.821">  2  5  1 -1</clus>
</clustering>
</event>
<event>
 9    1  0.1782981E-005  0.9897589E+02  0.7546771E-02  0.1282493E+00
         -2   -1    0    0    0  501 -0.00000000000E+00  0.00000000000E+00  0.17346822311E+03  0.17346822311E+03  0.00000000000E+00 0.  1.
          2   -1    0    0  502    0  0.00000000000E+00 -0.00000000000E+00 -0.19962379808E+03  0.19962379808E+03  0.00000000000E+00 0. -1.
         23    2    1    2    0    0 -0.41300861278E+02 -0.67815294215E+01  0.13366497163E+03  0.16701228449E+03  0.90967182255E+02 0.  0.
         23    2    1    2    0    0  0.21108246534E+02  0.23178672373E+00 -0.78516578689E+02  0.12205012276E+03  0.91026191503E+02 0.  0.
        -11    1    3    3    0    0 -0.14486148491E+02 -0.18489598711E+02  0.13566626766E+03  0.13768460313E+03  0.00000000000E+00 0.  1.
         11    1    3    3    0    0 -0.26814712787E+02  0.11708069290E+02 -0.20012960298E+01  0.29327681364E+02  0.00000000000E+00 0. -1.
        -13    1    4    4    0    0  0.48414476956E+02  0.16156501164E+02 -0.18630211446E+02  0.54333036794E+02  0.00000000000E+00 0. -1.
         13    1    4    4    0    0 -0.27306230422E+02 -0.15924714440E+02 -0.59886367244E+02  0.67717085964E+02  0.00000000000E+00 0.  1.
         21    1    1    2  502  501  0.20192614745E+02  0.65497426977E+01 -0.81303967916E+02  0.84029613938E+02  0.00000000000E+00 0. -1.
<scales pt_clust_5="13000.00000" pt_clust_6="13000.00000" pt_clust_7="13000.00000" pt_clust_8="13000.00000" pt_clust_9="21.22830"></scales>
<clustering>
<clus scale="   21.228">  2  9  1 -1</clus>
<clus scale="   90.967">  5  6 -1 -1</clus>
<clus scale="   91.026">  7  8 -1 -1</clus>
<clus scale="   98.922">  1  5  2 -1</clus>
<clus scale="   21.228">  2  5  1 -1</clus>
</clustering>
</event>
<event>
 9    1  0.1782981E-005  0.1125076E+03  0.7546771E-02  0.1256946E+00
          1   -1    0    0  502    0  0.00000000000E+00  0.00000000000E+00  0.83511156770E+02  0.83511156770E+02  0.00000000000E+00 0. -1.
         -1   -1    0    0    0  501 -0.00000000000E+00 -0.00000000000E+00 -0.21422872706E+03  0.21422872706E+03  0.00000000000E+00 0.  1.
         23    2    1    2    0    0  0.23969041970E+02 -0.56504350962E+02 -0.10885389434E+03  0.15390268917E+03  0.89831012292E+02 0.  0.
         23    2    1    2    0    0 -0.71297212502E+01  0.72749209646E+02 -0.11920408017E+02  0.11841423785E+03  0.92393480122E+02 0.  0.
        -11    1    3    3    0    0 -0.83361748330E+00 -0.59119303892E+02 -0.11401543393E+03  0.12843405384E+03  0.00000000000E+00 0.  1.
         11    1    3    3    0    0  0.24802659454E+02  0.26149529296E+01  0.51615395871E+01  0.25468635333E+02  0.00000000000E+00 0. -1.
        -11    1    4    4    0    0  0.27222159696E+02 -0.43029682356E+01 -0.19425644430E+02  0.33718202438E+02  0.00000000000E+00 0.  1.
         11    1    4    4    0    0 -0.34351880946E+02  0.77052177882E+02  0.75052364128E+01  0.84696035412E+02  0.00000000000E+00 0. -1.
         21    1    1    2  502  501 -0.16839320720E+02 -0.16244858684E+02 -0.99432679337E+01  0.25422956814E+02  0.00000000000E+00 0. -1.
<scales pt_clust_5="13000.00000" pt_clust_6="13000.00000" pt_clust_7="13000.00000" pt_clust_8="13000.00000" pt_clust_9="23.39782"></scales>
<clustering>
<clus scale="   23.398">  1  9  2 -1</clus>
<clus scale="   89.831">  5  6 -1 -1</clus>
<clus scale="   92.393">  7  8 -1 -1</clus>
<clus scale="  110.413">  2  5  1 -1</clus>
<clus scale="   23.398">  1  5  2 -1</clus>
</clustering>
</event>
<event>
 9    1  0.1782981E-005  0.1423037E+03  0.7546771E-02  0.1210382E+00
         -1   -1    0    0    0  501 -0.00000000000E+00  0.00000000000E+00  0.16747162204E+03  0.16747162204E+03  0.00000000000E+00 0.  1.
          1   -1    0    0  502    0  0.00000000000E+00 -0.00000000000E+00 -0.27988881305E+03  0.27988881305E+03  0.00000000000E+00 0. -1.
         23    2    1    2    0    0 -0.41049213988E+02 -0.52299024484E+02 -0.23518421535E+02  0.11601448516E+03  0.92119589042E+02 0.  0.
         23    2    1    2    0    0  0.73216760924E+02  0.15966564080E+03 -0.18397975301E+02  0.19893483501E+03  0.91557480066E+02 0.  0.
        -11    1    4    4    0    0  0.64003475290E+02  0.92760240668E+02  0.29067738634E+02  0.11638659943E+03  0.00000000000E+00 0.  1.
         11    1    4    4    0    0  0.92132856338E+01  0.66905400128E+02 -0.47465713935E+02  0.82548235582E+02  0.00000000000E+00 0. -1.
        -13    1    3    3    0    0 -0.51504220962E+01 -0.71874253906E+02 -0.20962121840E+02  0.75045624618E+02  0.00000000000E+00 0. -1.
         13    1    3    3    0    0 -0.35898791892E+02  0.19575229423E+02 -0.25562996951E+01  0.40968860545E+02  0.00000000000E+00 0.  1.
         21    1    1    2  502  501 -0.32167546936E+02 -0.10736661631E+03 -0.70500794175E+02  0.13241111492E+03  0.00000000000E+00 0. -1.
<scales pt_clust_5="13000.00000" pt_clust_6="13000.00000" pt_clust_7="13000.00000" pt_clust_8="13000.00000" pt_clust_9="112.08185"></scales>
<clustering>
<clus scale="   91.557">  5  6 -1 -1</clus>
<clus scale="   92.120">  7  8 -1 -1</clus>
<clus scale="  112.082">  2  9  1 -1</clus>
<clus scale="  141.940">  2  5  1 -1</clus>
<clus scale="  112.082">  2  5  1 -1</clus>
</clustering>
</event>
<event>
 9    1  0.1782981E-005  0.1269952E+03  0.7546771E-02  0.1233806E+00
          1   -1    0    0  502    0  0.00000000000E+00  0.00000000000E+00  0.11600096027E+03  0.11600096027E+03  0.00000000000E+00 0. -1.
         -1   -1    0    0    0  501 -0.00000000000E+00 -0.00000000000E+00 -0.27494689500E+03  0.27494689500E+03  0.00000000000E+00 0.  1.
         23    2    1    2    0    0  0.62645903972E+02  0.54619061169E+02 -0.16278462492E+03  0.20398260170E+03  0.90566641524E+02 0.  0.
         23    2    1    2    0    0 -0.10549542608E+03 -0.41072519679E+02 -0.57101915678E+01  0.14102212053E+03  0.83895145234E+02 0.  0.
        -13    1    3    3    0    0  0.22112636126E+02  0.35112170228E+02 -0.15222179214E+03  0.15777612993E+03  0.00000000000E+00 0.  1.
         13    1    3    3    0    0  0.40533267846E+02  0.19506890941E+02 -0.10562832781E+02  0.46206471763E+02  0.00000000000E+00 0. -1.
        -13    1    4    4    0    0 -0.87650196320E+02  0.85101625449E+01 -0.44500172340E+00  0.88063487372E+02  0.00000000000E+00 0.  1.
         13    1    4    4    0    0 -0.17845229760E+02 -0.49582682224E+02 -0.52651898444E+01  0.52958633156E+02  0.00000000000E+00 0. -1.
         21    1    1    2  502  501  0.42849522108E+02 -0.13546541490E+02  0.95488817590E+01  0.45943133046E+02  0.00000000000E+00 0. -1.
<scales pt_clust_5="13000.00000" pt_clust_6="13000.00000" pt_clust_7="13000.00000" pt_clust_8="13000.00000" pt_clust_9="44.93985"></scales>
<clustering>
<clus scale="   44.940">  1  9  2 -1</clus>
<clus scale="   83.895">  7  8 -1 -1</clus>
<clus scale="   90.567">  5  6 -1 -1</clus>
<clus scale="  122.327">  1  7  2 -1</clus>
<clus scale="   44.940">  1  5  2 -1</clus>
</clustering>
</event>
<event>
 9    1  0.1782981E-005  0.1713154E+03  0.7546771E-02  0.1176485E+00
          2   -1    0    0  502    0  0.00000000000E+00  0.00000000000E+00  0.26385444968E+03  0.26385444968E+03  0.00000000000E+00 0. -1.
         -2   -1    0    0    0  501 -0.00000000000E+00 -0.00000000000E+00 -0.18055452627E+03  0.18055452627E+03  0.00000000000E+00 0.  1.
         23    2    1    2    0    0 -0.12581745873E+03 -0.23959224945E+01 -0.59883706423E-01  0.15569860863E+03  0.91685766501E+02 0.  0.
         23    2    1    2    0    0  0.16641383496E+03  0.31635510954E+02  0.13109334796E+01  0.19261126763E+03  0.91667943413E+02 0.  0.
        -13    1    3    3    0    0 -0.99430338034E+02  0.35283450977E+02 -0.16624689677E+02  0.10680680850E+03  0.00000000000E+00 0. -1.
         13    1    3    3    0    0 -0.26387120694E+02 -0.37679373472E+02  0.16564805970E+02  0.48891800136E+02  0.00000000000E+00 0.  1.
        -13    1    4    4    0    0  0.11088482890E+03  0.27010175203E+02 -0.42443761916E+02  0.12176398388E+03  0.00000000000E+00 0.  1.
         13    1    4    4    0    0  0.55529006069E+02  0.46253357516E+01  0.43754695396E+02  0.70847283751E+02  0.00000000000E+00 0. -1.
         21    1    1    2  502  501 -0.40596376237E+02 -0.29239588460E+02  0.82048873629E+02  0.96099099688E+02  0.00000000000E+00 0. -1.
<scales pt_clust_5="13000.00000" pt_clust_6="13000.00000" pt_clust_7="13000.00000" pt_clust_8="13000.00000" pt_clust_9="50.03018"></scales>
<clustering>
<clus scale="   50.030">  1  9  2 -1</clus>
<clus scale="   91.668">  7  8 -1 -1</clus>
<clus scale="   91.686">  5  6 -1 -1</clus>
<clus scale="  171.306">  1  7  2 -1</clus>
<clus scale="   50.030">  1  5  2 -1</clus>
</clustering>
</event>
<event>
 9    1  0.1782981E-005  0.1114876E+03  0.7546771E-02  0.1258084E+00
         -1   -1    0    0    0  501 -0.00000000000E+00  0.00000000000E+00  0.13945419216E+03  0.13945419216E+03  0.00000000000E+00 0.  1.
          1   -1    0    0  502    0  0.00000000000E+00 -0.00000000000E+00 -0.12334748742E+03  0.12334748742E+03  0.00000000000E+00 0. -1.
         23    2    1    2    0    0 -0.19136008370E+02 -0.44411639535E+02  0.93497709031E+01  0.10365715547E+03  0.91207494876E+02 0.  0.
         23    2    1    2    0    0  0.37993875322E+02  0.72316388585E+02  0.18764263953E+02  0.12338882328E+03  0.90551142945E+02 0.  0.
        -13    1    3    3    0    0  0.19141163096E+02 -0.14099963876E+02  0.39623015947E+02  0.46207970078E+02  0.00000000000E+00 0.  1.
         13    1    3    3    0    0 -0.38277171466E+02 -0.30311675659E+02 -0.30273245044E+02  0.57449185392E+02  0.00000000000E+00 0. -1.
        -13    1    4    4    0    0  0.60592074322E+02  0.18405834740E+02  0.64794229378E+01  0.63656556181E+02  0.00000000000E+00 0. -1.
         13    1    4    4    0    0 -0.22598199001E+02  0.53910553845E+02  0.12284841015E+02  0.59732267098E+02  0.00000000000E+00 0.  1.
         21    1    1    2  502  501 -0.18857866952E+02 -0.27904749050E+02 -0.12007330118E+02  0.35755700833E+02  0.00000000000E+00 0. -1.
<scales pt_clust_5="13000.00000" pt_clust_6="13000.00000" pt_clust_7="13000.00000" pt_clust_8="13000.00000" pt_clust_9="33.67928"></scales>
<clustering>
<clus scale="   33.679">  2  9  1 -1</clus>
<clus scale="   90.551">  7  8 -1 -1</clus>
<clus scale="   91.207">  5  6 -1 -1</clus>
<clus scale="  110.951">  2  7  1 -1</clus>
<clus scale="   33.679">  2  5  1 -1</clus>
</clustering>
</event>
<event>
 9    1  0.1782981E-005  0.1151947E+03  0.7546771E-02  0.1254335E+00
         -1   -1    0    0    0  501 -0.00000000000E+00  0.00000000000E+00  0.17477265620E+03  0.17477265620E+03  0.00000000000E+00 0.  1.
          1   -1    0    0  502    0  0.00000000000E+00 -0.00000000000E+00 -0.40005835221E+03  0.40005835221E+03  0.00000000000E+00 0. -1.
         23    2    1    2    0    0 -0.53981983250E+02 -0.37474761560E+02  0.14389961029E+03  0.18006372227E+03  0.86008336616E+02 0.  0.
         23    2    1    2    0    0  0.43867849714E+02  0.56084058651E+02 -0.30362105464E+03  0.32586683091E+03  0.94517917852E+02 0.  0.
        -13    1    3    3    0    0  0.57680142617E+01 -0.47281015964E+02  0.66315046011E+02  0.81648329968E+02  0.00000000000E+00 0.  1.
         13    1    3    3    0    0 -0.59749997512E+02  0.98062544036E+01  0.77584564277E+02  0.98415392303E+02  0.00000000000E+00 0. -1.
        -13    1    4    4    0    0  0.17185206202E+02 -0.13407634761E+02 -0.11972077166E+02  0.24868184770E+02  0.00000000000E+00 0.  1.
         13    1    4    4    0    0  0.26682643512E+02  0.69491693412E+02 -0.29164897747E+03  0.30099864614E+03  0.00000000000E+00 0. -1.
         21    1    1    2  502  501  0.10114133536E+02 -0.18609297091E+02 -0.65564251661E+02  0.68900455233E+02  0.00000000000E+00 0. -1.
<scales pt_clust_5="13000.00000" pt_clust_6="13000.00000" pt_clust_7="13000.00000" pt_clust_8="13000.00000" pt_clust_9="21.18022"></scales>
<clustering>
<clus scale="   21.180">  2  9  1 -1</clus>
<clus scale="   86.008">  5  6 -1 -1</clus>
<clus scale="   94.518">  7  8 -1 -1</clus>
<clus scale="  108.322">  1  5  2 -1</clus>
<clus scale="   21.180">  2  5  1 -1</clus>
</clustering>
</event>
<event>
 9    1  0.1782981E-005  0.2059193E+03  0.7546771E-02  0.1179426E+00
          1   -1    0    0  502    0  0.00000000000E+00  0.00000000000E+00  0.15007291199E+03  0.15007291199E+03  0.00000000000E+00 0. -1.
         -1   -1    0    0    0  501 -0.00000000000E+00 -0.00000000000E+00 -0.58745349220E+03  0.58745349220E+03  0.00000000000E+00 0.  1.
         23    2    1    2    0    0 -0.16860882301E+02 -0.12897927662E+01 -0.27020710368E+03  0.28554085002E+03  0.90751006814E+02 0.  0.
         23    2    1    2    0    0 -0.21884326476E+02  0.18203851864E+03 -0.43770131218E+01  0.20566466263E+03  0.93069056057E+02 0.  0.
        -11    1    3    3    0    0 -0.35988811220E+02  0.30358979536E+02 -0.89929396255E+02  0.10150940096E+03  0.00000000000E+00 0. -1.
         11    1    3    3    0    0  0.19127928919E+02 -0.31648772303E+02 -0.18027770742E+03  0.18403144907E+03  0.00000000000E+00 0.  1.
        -13    1    4    4    0    0 -0.40830612302E+02  0.25948951439E+02 -0.15927978920E+01  0.48404793015E+02  0.00000000000E+00 0.  1.
         13    1    4    4    0    0  0.18946285826E+02  0.15608956720E+03 -0.27842152298E+01  0.15725986961E+03  0.00000000000E+00 0. -1.
         21    1    1    2  502  501  0.38745208777E+02 -0.18074872587E+03 -0.16279646341E+03  0.24632089153E+03  0.00000000000E+00 0.  1.
<scales pt_clust_5="13000.00000" pt_clust_6="13000.00000" pt_clust_7="13000.00000" pt_clust_8="13000.00000" pt_clust_9="183.68697"></scales>
<clustering>
<clus scale="   90.751">  5  6 -1 -1</clus>
<clus scale="   92.313">  2  5  1 -1</clus>
<clus scale="   93.069">  7  8 -1 -1</clus>
<clus scale="  183.687">  2  9  1 -1</clus>
<clus scale="  205.919">  1  5  2 -1</clus>
</clustering>
</event>
<event>
 9    1  0.1782981E-005  0.1178316E+03  0.7546771E-02  0.1247850E+00
         -2   -1    0    0    0  501 -0.00000000000E+00  0.00000000000E+00  0.30734928068E+03  0.30734928068E+03  0.00000000000E+00 0.  1.
          2   -1    0    0  502    0  0.00000000000E+00 -0.00000000000E+00 -0.88228778880E+02  0.88228778880E+02  0.00000000000E+00 0. -1.
         23    2    1    2    0    0 -0.13215138258E+02 -0.74346835101E+02  0.21095093566E+03  0.24324545850E+03  0.94688774720E+02 0.  0.
         23    2    1    2    0    0 -0.21288602604E+02  0.57707203497E+02  0.20607711256E+02  0.11205738625E+03  0.91372064185E+02 0.  0.
        -11    1    4    4    0    0 -0.30079915849E+02  0.83242173791E+01  0.46193867322E+02  0.55749146277E+02  0.00000000000E+00 0.  1.
         11    1    4    4    0    0  0.87913132447E+01  0.49382986118E+02 -0.25586156066E+02  0.56308239972E+02  0.00000000000E+00 0. -1.
        -13    1    3    3    0    0 -0.53507163801E+02 -0.53812705656E+02  0.13286928405E+03  0.15301330175E+03  0.00000000000E+00 0. -1.
         13    1    3    3    0    0  0.40292025543E+02 -0.20534129445E+02  0.78081651614E+02  0.90232156758E+02  0.00000000000E+00 0.  1.
         21    1    1    2  502  501  0.34503740862E+02  0.16639631604E+02 -0.12438145120E+02  0.40275214803E+02  0.00000000000E+00 0. -1.
<scales pt_clust_5="13000.00000" pt_clust_6="13000.00000" pt_clust_7="13000.00000" pt_clust_8="13000.00000" pt_clust_9="38.30647"></scales>
<clustering>
<clus scale="   38.306">  2  9  1 -1</clus>
<clus scale="   91.372">  5  6 -1 -1</clus>
<clus scale="   94.689">  7  8 -1 -1</clus>
<clus scale="  115.183">  2  5  1 -1</clus>
<clus scale="   38.306">  2  5  1 -1</clus>
</clustering>
</event>
<event>
 9    1  0.1782981E-005  0.1461068E+03  0.7546771E-02  0.1214489E+00
         -1   -1    0    0    0  501 -0.00000000000E+00  0.00000000000E+00  0.48711634889E+02  0.48711634889E+02  0.00000000000E+00 0.  1.
          1   -1    0    0  502    0  0.00000000000E+00 -0.00000000000E+00 -0.56445640697E+03  0.56445640697E+03  0.00000000000E+00 0. -1.
         23    2    1    2    0    0 -0.46335398108E+01  0.82969276414E+02 -0.81595696886E+02  0.14863802095E+03  0.92358177774E+02 0.  0.
         23    2    1    2    0    0 -0.19099753266E+01 -0.55949360896E+02 -0.37934598750E+03  0.40307864301E+03  0.12423781722E+03 0.  0.
        -13    1    3    3    0    0  0.30787714669E+02  0.71042700713E+02 -0.79845780972E+02  0.11122183885E+03  0.00000000000E+00 0.  1.
         13    1    3    3    0    0 -0.35421254480E+02  0.11926575702E+02 -0.17499159141E+01  0.37416182096E+02  0.00000000000E+00 0. -1.
        -13    1    4    4    0    0  0.57552795943E+02 -0.16792292108E+02 -0.12007950807E+03  0.13421398457E+03  0.00000000000E+00 0.  1.
         13    1    4    4    0    0 -0.59462771270E+02 -0.39157068788E+02 -0.25926647943E+03  0.26886465844E+03  0.00000000000E+00 0. -1.
         21    1    1    2  502  501  0.65435151374E+01 -0.27019915519E+02 -0.54803087700E+02  0.61451377905E+02  0.00000000000E+00 0. -1.
<scales pt_clust_5="13000.00000" pt_clust_6="13000.00000" pt_clust_7="13000.00000" pt_clust_8="13000.00000" pt_clust_9="27.80096"></scales>
<clustering>
<clus scale="   27.801">  2  9  1 -1</clus>
<clus scale="   92.358">  5  6 -1 -1</clus>
<clus scale="  120.176">  1  5  2 -1</clus>
<clus scale="  124.238">  7  8 -1 -1</clus>
<clus scale="   27.801">  2  5  1 -1</clus>
</clustering>
</event>
<event>
 9    1  0.1782981E-005  0.9891247E+02  0.7546771E-02  0.1283131E+00
         -1   -1    0    0    0  501 -0.00000000000E+00  0.00000000000E+00  0.32024685114E+03  0.32024685114E+03  0.00000000000E+00 0.  1.
          1   -1    0    0  502    0  0.00000000000E+00 -0.00000000000E+00 -0.86490658094E+02  0.86490658094E+02  0.00000000000E+00 0. -1.
         23    2    1    2    0    0 -0.20269600838E+02  0.43194227426E+02  0.23754903111E+03  0.25903552335E+03  0.91614748677E+02 0.  0.
         23    2    1    2    0    0 -0.14125633976E+02  0.65645673314E+00  0.20598695380E+01  0.91664776234E+02  0.90544042702E+02 0.  0.
        -11    1    4    4    0    0 -0.96039132254E+01  0.27050185204E+02  0.37512856673E+02  0.47235178464E+02  0.00000000000E+00 0.  1.
         11    1    4    4    0    0 -0.45217207511E+01 -0.26393728470E+02 -0.35452987135E+02  0.44429597769E+02  0.00000000000E+00 0. -1.
        -11    1    3    3    0    0 -0.31819650591E+02 -0.19645921982E+02  0.11345183102E+03  0.11945614416E+03  0.00000000000E+00 0. -1.
         11    1    3    3    0    0  0.11550049753E+02  0.62840149407E+02  0.12409720009E+03  0.13957937920E+03  0.00000000000E+00 0.  1.
         21    1    1    2  502  501  0.34395234814E+02 -0.43850684159E+02 -0.58527076015E+01  0.56037209650E+02  0.00000000000E+00 0. -1.
<scales pt_clust_5="13000.00000" pt_clust_6="13000.00000" pt_clust_7="13000.00000" pt_clust_8="13000.00000" pt_clust_9="55.73073"></scales>
<clustering>
<clus scale="   55.731">  2  9  1 -1</clus>
<clus scale="   90.544">  5  6 -1 -1</clus>
<clus scale="   91.615">  7  8 -1 -1</clus>
<clus scale="   97.922">  2  5  1 -1</clus>
<clus scale="   55.731">  2  5  1 -1</clus>
</clustering>
</event>
<event>
 9    1  0.1782981E-005  0.1762875E+03  0.7546771E-02  0.1171687E+00
          2   -1    0    0  502    0  0.00000000000E+00  0.00000000000E+00  0.94526086230E+03  0.94526086230E+03  0.00000000000E+00 0.  1.
         -2   -1    0    0    0  501 -0.00000000000E+00 -0.00000000000E+00 -0.91011359614E+02  0.91011359614E+02  0.00000000000E+00 0. -1.
         23    2    1    2    0    0 -0.11856655073E+03  0.96235170543E+02  0.45004406213E+02  0.18316668068E+03  0.90583670344E+02 0.  0.
         23    2    1    2    0    0  0.56969537419E+02 -0.14506554535E+03  0.44508422817E+03  0.48055791266E+03  0.92446723102E+02 0.  0.
        -13    1    3    3    0    0 -0.67700679377E+02  0.99480450666E+02  0.53156065727E+02  0.13154964605E+03  0.00000000000E+00 0. -1.
         13    1    3    3    0    0 -0.50865871349E+02 -0.32452801228E+01 -0.81516595141E+01  0.51617034630E+02  0.00000000000E+00 0.  1.
        -13    1    4    4    0    0 -0.24842863201E+02 -0.25633498357E+02  0.10651253439E+03  0.11233505273E+03  0.00000000000E+00 0. -1.
         13    1    4    4    0    0  0.81812400620E+02 -0.11943204699E+03  0.33857169378E+03  0.36822285993E+03  0.00000000000E+00 0.  1.
         21    1    1    2  502  501  0.61597013307E+02  0.48830374805E+02  0.36416086830E+03  0.37254762857E+03  0.00000000000E+00 0.  1.
<scales pt_clust_5="13000.00000" pt_clust_6="13000.00000" pt_clust_7="13000.00000" pt_clust_8="13000.00000" pt_clust_9="78.60406"></scales>
<clustering>
<clus scale="   78.604">  1  9  2 -1</clus>
<clus scale="   90.584">  5  6 -1 -1</clus>
<clus scale="   92.447">  7  8 -1 -1</clus>
<clus scale="  175.318">  2  5  1 -1</clus>
<clus scale="   78.604">  1  5  2 -1</clus>
</clustering>
</event>
<event>
 9    1  0.1782981E-005  0.1633588E+03  0.7546771E-02  0.1187538E+00
          2   -1    0    0  502    0  0.00000000000E+00  0.00000000000E+00  0.56396427469E+03  0.56396427469E+03  0.00000000000E+00 0.  1.
         -2   -1    0    0    0  501 -0.00000000000E+00 -0.00000000000E+00 -0.57816506238E+02  0.57816506238E+02  0.00000000000E+00 0. -1.
         23    2    1    2    0    0 -0.46552408220E+02 -0.12158335456E+03  0.15521076623E+03  0.22830395933E+03  0.10527429448E+03 0.  0.
         23    2    1    2    0    0  0.59873085384E+02  0.10189654124E+03  0.26109536226E+03  0.30054388163E+03  0.90488370094E+02 0.  0.
        -13    1    4    4    0    0  0.77498377708E+02  0.66190861286E+02  0.14070003610E+03  0.17373465062E+03  0.00000000000E+00 0.  1.
         13    1    4    4    0    0 -0.17625292324E+02  0.35705679954E+02  0.12039532615E+03  0.12680923101E+03  0.00000000000E+00 0. -1.
        -13    1    3    3    0    0 -0.26178665476E+02  0.12166479309E+02  0.46565405026E+02  0.54787614386E+02  0.00000000000E+00 0. -1.
         13    1    3    3    0    0 -0.20373742744E+02 -0.13374983387E+03  0.10864536120E+03  0.17351634495E+03  0.00000000000E+00 0.  1.
         21    1    1    2  502  501 -0.13320677164E+02  0.19686813319E+02  0.89841639963E+02  0.92932939962E+02  0.00000000000E+00 0. -1.
<scales pt_clust_5="13000.00000" pt_clust_6="13000.00000" pt_clust_7="13000.00000" pt_clust_8="13000.00000" pt_clust_9="23.76996"></scales>
<clustering>
<clus scale="   23.770">  1  9  2 -1</clus>
<clus scale="   90.488">  5  6 -1 -1</clus>
<clus scale="  105.274">  7  8 -1 -1</clus>
<clus scale="  154.245">  1  5  2 -1</clus>
<clus scale="   23.770">  1  5  2 -1</clus>
</clustering>
</event>
<event>
 9    1  0.1782981E-005  0.1003495E+03  0.7546771E-02  0.1280967E+00
          2   -1    0    0  502    0  0.00000000000E+00  0.00000000000E+00  0.24835069083E+03  0.24835069083E+03  0.00000000000E+00 0. -1.
         -2   -1    0    0    0  501 -0.00000000000E+00 -0.00000000000E+00 -0.88243927136E+02  0.88243927136E+02  0.00000000000E+00 0.  1.
         23    2    1    2    0    0 -0.12370086283E+02 -0.38046152392E+02 -0.35567025695E+02  0.10436527647E+03  0.89591120480E+02 0.  0.
         23    2    1    2    0    0  0.29027311120E+02  0.24692781987E+02  0.17936112004E+03  0.20536153880E+03  0.92469627253E+02 0.  0.
        -11    1    3    3    0    0 -0.19131998712E+02  0.21369351093E+02 -0.34085653485E+02  0.44547887878E+02  0.00000000000E+00 0.  1.
         11    1    3    3    0    0  0.67619124284E+01 -0.59415503486E+02 -0.14813722097E+01  0.59817388590E+02  0.00000000000E+00 0. -1.
        -13    1    4    4    0    0 -0.10295507937E+02  0.46904722985E+02  0.12934989316E+03  0.13797624935E+03  0.00000000000E+00 0.  1.
         13    1    4    4    0    0  0.39322819057E+02 -0.22211940998E+02  0.50011226872E+02  0.67385289454E+02  0.00000000000E+00 0. -1.
         21    1    1    2  502  501 -0.16657224837E+02  0.13353370406E+02  0.16312669355E+02  0.26867802700E+02  0.00000000000E+00 0.  1.
<scales pt_clust_5="13000.00000" pt_clust_6="13000.00000" pt_clust_7="13000.00000" pt_clust_8="13000.00000" pt_clust_9="21.34890"></scales>
<clustering>
<clus scale="   21.349">  1  9  2 -1</clus>
<clus scale="   89.591">  5  6 -1 -1</clus>
<clus scale="   92.470">  7  8 -1 -1</clus>
<clus scale="   97.703">  2  5  1 -1</clus>
<clus scale="   21.349">  1  5  2 -1</clus>
</clustering>
</event>
<event>
 9    1  0.1782981E-005  0.1207641E+03  0.7546771E-02  0.1242190E+00
         -1   -1    0    0    0  501 -0.00000000000E+00  0.00000000000E+00  0.13197975107E+02  0.13197975107E+02  0.00000000000E+00 0.  1.
          1   -1    0    0  502    0  0.00000000000E+00 -0.00000000000E+00 -0.15180882945E+04  0.15180882945E+04  0.00000000000E+00 0. -1.
         23    2    1    2    0    0  0.14281665271E+02 -0.60055511538E+02 -0.63846603487E+03  0.64756753036E+03  0.88849300878E+02 0.  0.
         23    2    1    2    0    0 -0.33282166338E+02  0.94366262468E+02 -0.65370751874E+03  0.66741647593E+03  0.89991878505E+02 0.  0.
        -11    1    4    4    0    0  0.25666602906E+02  0.60072359159E+02 -0.27826346124E+03  0.28582864919E+03  0.00000000000E+00 0. -1.
         11    1    4    4    0    0 -0.58948769244E+02  0.34293903309E+02 -0.37544405750E+03  0.38158782674E+03  0.00000000000E+00 0.  1.
        -13    1    3    3    0    0 -0.36300583686E+02 -0.39330175185E+02 -0.31329894155E+03  0.31783772878E+03  0.00000000000E+00 0.  1.
         13    1    3    3    0    0  0.50582248957E+02 -0.20725336353E+02 -0.32516709331E+03  0.32972980158E+03  0.00000000000E+00 0. -1.
         21    1    1    2  502  501  0.19000501067E+02 -0.34310750930E+02 -0.21271676574E+03  0.21630226328E+03  0.00000000000E+00 0. -1.
<scales pt_clust_5="13000.00000" pt_clust_6="13000.00000" pt_clust_7="13000.00000" pt_clust_8="13000.00000" pt_clust_9="39.22049"></scales>
<clustering>
<clus scale="   39.220">  2  9  1 -1</clus>
<clus scale="   88.849">  7  8 -1 -1</clus>
<clus scale="   89.992">  5  6 -1 -1</clus>
<clus scale="  119.915">  1  7  2 -1</clus>
<clus scale="   39.220">  2  5  1 -1</clus>
</clustering>
</event>
<event>
 9    1  0.1782981E-005  0.1456236E+03  0.7546771E-02  0.1207652E+00
          2   -1    0    0  502    0  0.00000000000E+00  0.00000000000E+00  0.21598970903E+03  0.21598970903E+03  0.00000000000E+00 0. -1.
         -2   -1    0    0    0  501 -0.00000000000E+00 -0.00000000000E+00 -0.13982977237E+03  0.13982977237E+03  0.00000000000E+00 0.  1.
         23    2    1    2    0    0 -0.49158581188E+02 -0.10252671212E+03 -0.11117043719E+02  0.15164757661E+03  0.99725152431E+02 0.  0.
         23    2    1    2    0    0  0.10671060598E+01  0.10070198003E+03  0.61898870984E+02  0.14976447825E+03  0.91955974353E+02 0.  0.
        -11    1    3    3    0    0  0.55770383909E+01 -0.76764020768E+02 -0.37540016159E+02  0.85633352468E+02  0.00000000000E+00 0.  1.
         11    1    3    3    0    0 -0.54735619579E+02 -0.25762691357E+02  0.26422972440E+02  0.66014224143E+02  0.00000000000E+00 0. -1.
        -13    1    4    4    0    0 -0.31745579920E+02  0.22380832139E+02  0.51066134806E+02  0.64159439023E+02  0.00000000000E+00 0. -1.
         13    1    4    4    0    0  0.32812685980E+02  0.78321147888E+02  0.10832736178E+02  0.85605039226E+02  0.00000000000E+00 0.  1.
         21    1    1    2  502  501  0.48091475128E+02  0.18247320972E+01  0.25378109394E+02  0.54407426549E+02  0.00000000000E+00 0.  1.
<scales pt_clust_5="13000.00000" pt_clust_6="13000.00000" pt_clust_7="13000.00000" pt_clust_8="13000.00000" pt_clust_9="48.12608"></scales>
<clustering>
<clus scale="   48.126">  1  9  2 -1</clus>
<clus scale="   91.956">  7  8 -1 -1</clus>
<clus scale="   99.725">  5  6 -1 -1</clus>
<clus scale="  140.417">  1  7  2 -1</clus>
<clus scale="   48.126">  1  5  2 -1</clus>
</clustering>
</event>
<event>
 9    1  0.1782981E-005  0.2612460E+03  0.7546771E-02  0.1106667E+00
          1   -1    0    0  502    0  0.00000000000E+00  0.00000000000E+00  0.43926962797E+03  0.43926962797E+03  0.00000000000E+00 0. -1.
         -1   -1    0    0    0  501 -0.00000000000E+00 -0.00000000000E+00 -0.31718837076E+03  0.31718837076E+03  0.00000000000E+00 0.  1.
         23    2    1    2    0    0  0.11742557284E+03  0.20952688677E+03 -0.94003610361E+02  0.27218850923E+03  0.86946100311E+02 0.  0.
         23    2    1    2    0    0 -0.15626749146E+03 -0.19870946679E+03  0.47466508861E+01  0.26911941850E+03  0.92183239467E+02 0.  0.
        -11    1    4    4    0    0 -0.12817381888E+03 -0.14702764793E+03 -0.34942635798E+02  0.19815813104E+03  0.00000000000E+00 0.  1.
         11    1    4    4    0    0 -0.28093672584E+02 -0.51681818861E+02  0.39689286684E+02  0.70961287457E+02  0.00000000000E+00 0. -1.
        -11    1    3    3    0    0  0.45999350725E+02  0.41538483581E+02  0.89385452675E+01  0.62620152322E+02  0.00000000000E+00 0. -1.
         11    1    3    3    0    0  0.71426222119E+02  0.16798840319E+03 -0.10294215563E+03  0.20956835691E+03  0.00000000000E+00 0.  1.
         21    1    1    2  502  501  0.38841918619E+02 -0.10817419974E+02  0.21133821669E+03  0.21515007100E+03  0.00000000000E+00 0. -1.
<scales pt_clust_5="13000.00000" pt_clust_6="13000.00000" pt_clust_7="13000.00000" pt_clust_8="13000.00000" pt_clust_9="40.32011"></scales>
<clustering>
<clus scale="   40.320">  1  9  2 -1</clus>
<clus scale="   86.946">  7  8 -1 -1</clus>
<clus scale="   92.183">  5  6 -1 -1</clus>
<clus scale="  259.444">  2  7  1 -1</clus>
<clus scale="   40.320">  1  5  2 -1</clus>
</clustering>
</event>
<event>
 9    1  0.1782981E-005  0.1106445E+03  0.7546771E-02  0.1259914E+00
         -1   -1    0    0    0  501 -0.00000000000E+00  0.00000000000E+00  0.21237605535E+03  0.21237605535E+03  0.00000000000E+00 0.  1.
          1   -1    0    0  502    0  0.00000000000E+00 -0.00000000000E+00 -0.10688866431E+03  0.10688866431E+03  0.00000000000E+00 0. -1.
         23    2    1    2    0    0 -0.44010714098E+02  0.47860606095E+02  0.13857177475E+03  0.17877390294E+03  0.92360116080E+02 0.  0.
         23    2    1    2    0    0  0.48308839005E+02 -0.20773041691E+02 -0.11729520778E+02  0.10573106710E+03  0.90973697872E+02 0.  0.
        -13    1    3    3    0    0 -0.63937580088E+02  0.24101289825E+02  0.12957217116E+03  0.14648492707E+03  0.00000000000E+00 0.  1.
         13    1    3    3    0    0  0.19926865990E+02  0.23759316270E+02  0.89996035889E+01  0.32288975867E+02  0.00000000000E+00 0. -1.
        -13    1    4    4    0    0 -0.19476129057E+02  0.17359035684E+02  0.39649193123E+01  0.26388942913E+02  0.00000000000E+00 0.  1.
         13    1    4    4    0    0  0.67784968062E+02 -0.38132077375E+02 -0.15694440090E+02  0.79342124183E+02  0.00000000000E+00 0. -1.
         21    1    1    2  502  501 -0.42981249070E+01 -0.27087564404E+02 -0.21354862935E+02  0.34759749626E+02  0.00000000000E+00 0. -1.
<scales pt_clust_5="13000.00000" pt_clust_6="13000.00000" pt_clust_7="13000.00000" pt_clust_8="13000.00000" pt_clust_9="27.42645"></scales>
<clustering>
<clus scale="   27.426">  2  9  1 -1</clus>
<clus scale="   90.974">  7  8 -1 -1</clus>
<clus scale="   92.360">  5  6 -1 -1</clus>
<clus scale="  109.490">  2  7  1 -1</clus>
<clus scale="   27.426">  2  5  1 -1</clus>
</clustering>
</event>
<event>
 9    1  0.1782981E-005  0.9789627E+02  0.7546771E-02  0.1287301E+00
          1   -1    0    0  502    0  0.00000000000E+00  0.00000000000E+00  0.23833084150E+03  0.23833084150E+03  0.00000000000E+00 0. -1.
         -1   -1    0    0    0  501 -0.00000000000E+00 -0.00000000000E+00 -0.99196152614E+02  0.99196152614E+02  0.00000000000E+00 0.  1.
         23    2    1    2    0    0  0.85325320529E+01  0.89016929069E+01 -0.85074336473E+01  0.96933458252E+02  0.95768860605E+02 0.  0.
         23    2    1    2    0    0  0.41876138737E+02 -0.28401108908E+02  0.25910388938E+02  0.10740240898E+03  0.91124613677E+02 0.  0.
        -11    1    3    3    0    0 -0.33556432957E+01 -0.41619583322E+02  0.79107182979E+01  0.42497406060E+02  0.00000000000E+00 0. -1.
         11    1    3    3    0    0  0.11888175349E+02  0.50521276229E+02 -0.16418151945E+02  0.54436052192E+02  0.00000000000E+00 0.  1.
        -13    1    4    4    0    0  0.63846663139E+02  0.51561567333E+01  0.14071638722E+02  0.65581959124E+02  0.00000000000E+00 0.  1.
         13    1    4    4    0    0 -0.21970524402E+02 -0.33557265641E+02  0.11838750216E+02  0.41820449860E+02  0.00000000000E+00 0. -1.
         21    1    1    2  502  501 -0.50408670790E+02  0.19499416001E+02  0.12173173359E+03  0.13319112688E+03  0.00000000000E+00 0. -1.
<scales pt_clust_5="13000.00000" pt_clust_6="13000.00000" pt_clust_7="13000.00000" pt_clust_8="13000.00000" pt_clust_9="54.04869"></scales>
<clustering>
<clus scale="   54.049">  1  9  2 -1</clus>
<clus scale="   91.125">  7  8 -1 -1</clus>
<clus scale="   93.358">  1  7  2 -1</clus>
<clus scale="   95.769">  5  6 -1 -1</clus>
<clus scale="   54.049">  1  5  2 -1</clus>
</clustering>
</event>
<event>
 9    1  0.1782981E-005  0.9994426E+02  0.7546771E-02  0.1280888E+00
         -1   -1    0    0    0  501 -0.00000000000E+00  0.00000000000E+00  0.14385030683E+03  0.14385030683E+03  0.00000000000E+00 0.  1.
          1   -1    0    0  502    0  0.00000000000E+00 -0.00000000000E+00 -0.32237620458E+03  0.32237620458E+03  0.00000000000E+00 0. -1.
         23    2    1    2    0    0  0.16960040403E+02 -0.29661122617E+02  0.51556399311E+02  0.11132762232E+03  0.92565393185E+02 0.  0.
         23    2    1    2    0    0  0.23257794923E+02  0.50389066595E+02  0.12781753143E+02  0.10785624334E+03  0.91594830409E+02 0.  0.
        -11    1    4    4    0    0  0.42850415709E+02  0.68224668794E+02  0.10823765365E+02  0.81289098009E+02  0.00000000000E+00 0.  1.
         11    1    4    4    0    0 -0.19592620786E+02 -0.17835602199E+02  0.19579877784E+01  0.26567145334E+02  0.00000000000E+00 0. -1.
        -13    1    3    3    0    0  0.43029736947E+02 -0.21854959910E+02  0.65013460037E+02  0.80968805847E+02  0.00000000000E+00 0.  1.
         13    1    3    3    0    0 -0.26069696544E+02 -0.78061627076E+01 -0.13457060726E+02  0.30358816470E+02  0.00000000000E+00 0. -1.
         21    1    1    2  502  501 -0.40217835326E+02 -0.20727943978E+02 -0.24286405020E+03  0.24704264575E+03  0.00000000000E+00 0. -1.
<scales pt_clust_5="13000.00000" pt_clust_6="13000.00000" pt_clust_7="13000.00000" pt_clust_8="13000.00000" pt_clust_9="45.24513"></scales>
<clustering>
<clus scale="   45.245">  2  9  1 -1</clus>
<clus scale="   91.595">  5  6 -1 -1</clus>
<clus scale="   92.565">  7  8 -1 -1</clus>
<clus scale="   99.046">  2  5  1 -1</clus>
<clus scale="   45.245">  2  5  1 -1</clus>
</clustering>
</event>
<event>
 9    1  0.1782981E-005  0.1101294E+03  0.7546771E-02  0.1261330E+00
         -1   -1    0    0    0  501 -0.00000000000E+00  0.00000000000E+00  0.81867068631E+02  0.81867068631E+02  0.00000000000E+00 0.  1.
          1   -1    0    0  502    0  0.00000000000E+00 -0.00000000000E+00 -0.19752030065E+03  0.19752030065E+03  0.00000000000E+00 0. -1.
         23    2    1    2    0    0 -0.48434100516E+02 -0.39987163759E+02 -0.16215924992E+02  0.10485781745E+03  0.82385498112E+02 0.  0.
         23    2    1    2    0    0  0.71109674681E+02  0.41942083331E+02 -0.71515638847E+02  0.13850701821E+03  0.85170319399E+02 0.  0.
        -11    1    3    3    0    0  0.58755816743E+00  0.23181643774E+02 -0.77601003831E+01  0.24453077324E+02  0.00000000000E+00 0. -1.
         11    1    3    3    0    0 -0.49021658684E+02 -0.63168807533E+02 -0.84558246085E+01  0.80404740128E+02  0.00000000000E+00 0.  1.
        -13    1    4    4    0    0  0.37320480735E+02  0.25594027758E+02  0.12108003093E+02  0.46845237517E+02  0.00000000000E+00 0.  1.
         13    1    4    4    0    0  0.33789193946E+02  0.16348055572E+02 -0.83623641940E+02  0.91661780693E+02  0.00000000000E+00 0. -1.
         21    1    1    2  502  501 -0.22675574164E+02 -0.19549195714E+01 -0.27921668176E+02  0.36022533614E+02  0.00000000000E+00 0.  1.
<scales pt_clust_5="13000.00000" pt_clust_6="13000.00000" pt_clust_7="13000.00000" pt_clust_8="13000.00000" pt_clust_9="22.75969"></scales>
<clustering>
<clus scale="   22.760">  2  9  1 -1</clus>
<clus scale="   82.385">  5  6 -1 -1</clus>
<clus scale="   85.170">  7  8 -1 -1</clus>
<clus scale="  107.990">  1  5  2 -1</clus>
<clus scale="   22.760">  2  5  1 -1</clus>
</clustering>
</event>
<event>
 9    1  0.1782981E-005  0.1099465E+03  0.7546771E-02  0.1261743E+00
         -1   -1    0    0    0  501 -0.00000000000E+00  0.00000000000E+00  0.53218632317E+03  0.53218632317E+03  0.00000000000E+00 0.  1.
          1   -1    0    0  502    0  0.00000000000E+00 -0.00000000000E+00 -0.36762299268E+02  0.36762299268E+02  0.00000000000E+00 0. -1.
         23    2    1    2    0    0  0.45188403071E+02  0.32366526436E+02  0.35813796560E+03  0.37331888210E+03  0.89524306886E+02 0.  0.
         23    2    1    2    0    0 -0.66174002548E+02 -0.32848728399E+02  0.11997862069E+03  0.16842357742E+03  0.92269141298E+02 0.  0.
        -13    1    4    4    0    0 -0.47371439933E+02  0.42098733288E+01  0.70324447816E+01  0.48075270508E+02  0.00000000000E+00 0. -1.
         13    1    4    4    0    0 -0.18802562615E+02 -0.37058601728E+02  0.11294617591E+03  0.12034830691E+03  0.00000000000E+00 0.  1.
        -13    1    3    3    0    0  0.27870975598E+02 -0.29823896777E+02  0.13848792470E+03  0.14437853507E+03  0.00000000000E+00 0. -1.
         13    1    3    3    0    0  0.17317427473E+02  0.62190423213E+02  0.21965004090E+03  0.22894034704E+03  0.00000000000E+00 0.  1.
         21    1    1    2  502  501  0.20985599477E+02  0.48220196280E+00  0.17307437603E+02  0.27206162914E+02  0.00000000000E+00 0. -1.
<scales pt_clust_5="13000.00000" pt_clust_6="13000.00000" pt_clust_7="13000.00000" pt_clust_8="13000.00000" pt_clust_9="20.99114"></scales>
<clustering>
<clus scale="   20.991">  2  9  1 -1</clus>
<clus scale="   89.524">  7  8 -1 -1</clus>
<clus scale="   92.269">  5  6 -1 -1</clus>
<clus scale="  107.653">  1  7  2 -1</clus>
<clus scale="   20.991">  2  5  1 -1</clus>
</clustering>
</event>
<event>
 9    1  0.1782981E-005  0.1998052E+03  0.7546771E-02  0.1150059E+00
          1   -1    0    0  502    0  0.00000000000E+00  0.00000000000E+00  0.24245805650E+03  0.24245805650E+03  0.00000000000E+00 0. -1.
         -1   -1    0    0    0  501 -0.00000000000E+00 -0.00000000000E+00 -0.26851852803E+03  0.26851852803E+03  0.00000000000E+00 0.  1.
         23    2    1    2    0    0 -0.30310921528E+02  0.18985299339E+03 -0.14215209166E+03  0.25513735649E+03  0.89022145839E+02 0.  0.
         23    2    1    2    0    0  0.40068794711E+02 -0.14194098842E+03  0.64461498841E+02  0.18473053846E+03  0.90649514639E+02 0.  0.
        -11    1    3    3    0    0 -0.36846721770E+01  0.17724913616E+03 -0.99498640174E+02  0.20329980933E+03  0.00000000000E+00 0.  1.
         11    1    3    3    0    0 -0.26626249351E+02  0.12603857230E+02 -0.42653451481E+02  0.51837547153E+02  0.00000000000E+00 0. -1.
        -11    1    4    4    0    0  0.28169186702E+02 -0.12291273112E+02 -0.12849276895E+02  0.33311895636E+02  0.00000000000E+00 0.  1.
         11    1    4    4    0    0  0.11899608009E+02 -0.12964971531E+03  0.77310775736E+02  0.15141864283E+03  0.00000000000E+00 0. -1.
         21    1    1    2  502  501 -0.97578731829E+01 -0.47912004968E+02  0.51630121290E+02  0.71108689578E+02  0.00000000000E+00 0. -1.
<scales pt_clust_5="13000.00000" pt_clust_6="13000.00000" pt_clust_7="13000.00000" pt_clust_8="13000.00000" pt_clust_9="48.89557"></scales>
<clustering>
<clus scale="   48.896">  1  9  2 -1</clus>
<clus scale="   89.022">  5  6 -1 -1</clus>
<clus scale="   90.650">  7  8 -1 -1</clus>
<clus scale="  199.072">  2  5  1 -1</clus>
<clus scale="   48.896">  1  5  2 -1</clus>
</clustering>
</event>
<event>
 9    1  0.1782981E-005  0.1805914E+03  0.7546771E-02  0.1167351E+00
         -2   -1    0    0    0  501 -0.00000000000E+00  0.00000000000E+00  0.34430073780E+02  0.34430073780E+02  0.00000000000E+00 0.  1.
          2   -1    0    0  502    0  0.00000000000E+00 -0.00000000000E+00 -0.15511086363E+04  0.15511086363E+04  0.00000000000E+00 0. -1.
         23    2    1    2    0    0  0.13495355014E+03  0.10548637597E+02 -0.46829176723E+03  0.49599842885E+03  0.91616197920E+02 0.  0.
         23    2    1    2    0    0 -0.16948927925E+03 -0.63385727155E+02 -0.53541404307E+03  0.57269841068E+03  0.92579187195E+02 0.  0.
        -11    1    4    4    0    0 -0.47266711299E+02  0.16048047307E+02 -0.21447743975E+03  0.22020956833E+03  0.00000000000E+00 0. -1.
         11    1    4    4    0    0 -0.12222256795E+03 -0.79433774462E+02 -0.32093660331E+03  0.35248884236E+03  0.00000000000E+00 0.  1.
        -11    1    3    3    0    0  0.14801636885E+02 -0.31728196014E+02 -0.79326558753E+02  0.86709110250E+02  0.00000000000E+00 0.  1.
         11    1    3    3    0    0  0.12015191326E+03  0.42276833611E+02 -0.38896520847E+03  0.40928931860E+03  0.00000000000E+00 0. -1.
         21    1    1    2  502  501  0.34535729103E+02  0.52837089558E+02 -0.51297275226E+03  0.51684187057E+03  0.00000000000E+00 0. -1.
<scales pt_clust_5="13000.00000" pt_clust_6="13000.00000" pt_clust_7="13000.00000" pt_clust_8="13000.00000" pt_clust_9="63.12269"></scales>
<clustering>
<clus scale="   63.123">  2  9  1 -1</clus>
<clus scale="   91.616">  7  8 -1 -1</clus>
<clus scale="   92.579">  5  6 -1 -1</clus>
<clus scale="  180.100">  1  7  2 -1</clus>
<clus scale="   63.123">  2  5  1 -1</clus>
</clustering>
</event>
<event>
 9    1  0.1782981E-005  0.1283675E+03  0.7546771E-02  0.1230438E+00
          1   -1    0    0  502    0  0.00000000000E+00  0.00000000000E+00  0.35264518999E+02  0.35264518999E+02  0.00000000000E+00 0. -1.
         -1   -1    0    0    0  501 -0.00000000000E+00 -0.00000000000E+00 -0.95922476495E+03  0.95922476495E+03  0.00000000000E+00 0.  1.
         23    2    1    2    0    0  0.16811629125E+02  0.97530501432E+02 -0.70911619170E+03  0.72172340449E+03  0.90796859405E+02 0.  0.
         23    2    1    2    0    0 -0.95934018742E+01 -0.71675740046E+02 -0.21749338167E+03  0.24579199529E+03  0.88774370234E+02 0.  0.
        -13    1    4    4    0    0  0.13046261336E+02 -0.72021512272E+02 -0.88590117553E+02  0.11491523873E+03  0.00000000000E+00 0. -1.
         13    1    4    4    0    0 -0.22639663210E+02  0.34577222505E+00 -0.12890326411E+03  0.13087675656E+03  0.00000000000E+00 0.  1.
        -13    1    3    3    0    0 -0.36387411945E+02  0.24306680558E+02 -0.22282946629E+03  0.22708551146E+03  0.00000000000E+00 0. -1.
         13    1    3    3    0    0  0.53199041070E+02  0.73223820874E+02 -0.48628672541E+03  0.49463789304E+03  0.00000000000E+00 0.  1.
         21    1    1    2  502  501 -0.72182272510E+01 -0.25854761385E+02  0.26493274182E+01  0.26973884160E+02  0.00000000000E+00 0. -1.
<scales pt_clust_5="13000.00000" pt_clust_6="13000.00000" pt_clust_7="13000.00000" pt_clust_8="13000.00000" pt_clust_9="26.84346"></scales>
<clustering>
<clus scale="   26.843">  1  9  2 -1</clus>
<clus scale="   88.774">  5  6 -1 -1</clus>
<clus scale="   90.797">  7  8 -1 -1</clus>
<clus scale="  126.945">  1  5  2 -1</clus>
<clus scale="   26.843">  1  5  2 -1</clus>
</clustering>
</event>
<event>
 9    1  0.1782981E-005  0.1049836E+03  0.7546771E-02  0.1273216E+00
          2   -1    0    0  502    0  0.00000000000E+00  0.00000000000E+00  0.10100489026E+04  0.10100489026E+04  0.00000000000E+00 0. -1.
         -2   -1    0    0    0  501 -0.00000000000E+00 -0.00000000000E+00 -0.15510843247E+02  0.15510843247E+02  0.00000000000E+00 0.  1.
         23    2    1    2    0    0 -0.14871720323E+02 -0.38022596231E+02  0.30171127945E+03  0.31899346864E+03  0.95185350744E+02 0.  0.
         23    2    1    2    0    0 -0.13707361003E+00  0.41527911808E+01  0.51896757422E+03  0.52880393308E+03  0.10143466905E+03 0.  0.
        -11    1    4    4    0    0 -0.18746105805E+02 -0.44630714081E+02  0.28494171198E+03  0.28902438711E+03  0.00000000000E+00 0. -1.
         11    1    4    4    0    0  0.18609032195E+02  0.48783505262E+02  0.23402586225E+03  0.23977954597E+03  0.00000000000E+00 0.  1.
        -13    1    3    3    0    0  0.33034244359E+02 -0.41643979269E+02  0.12421978222E+03  0.13511490149E+03  0.00000000000E+00 0. -1.
         13    1    3    3    0    0 -0.47905964682E+02  0.36213830381E+01  0.17749149723E+03  0.18387856715E+03  0.00000000000E+00 0.  1.
         21    1    1    2  502  501  0.15008793933E+02  0.33869805050E+02  0.17385920564E+03  0.17776234409E+03  0.00000000000E+00 0.  1.
<scales pt_clust_5="13000.00000" pt_clust_6="13000.00000" pt_clust_7="13000.00000" pt_clust_8="13000.00000" pt_clust_9="37.04629"></scales>
<clustering>
<clus scale="   37.046">  1  9  2 -1</clus>
<clus scale="   95.185">  7  8 -1 -1</clus>
<clus scale="   98.959">  2  7  1 -1</clus>
<clus scale="  101.435">  5  6 -1 -1</clus>
<clus scale="   37.046">  1  5  2 -1</clus>
</clustering>
</event>
<event>
 9    1  0.1782981E-005  0.3483062E+03  0.7546771E-02  0.1063374E+00
         -4   -1    0    0    0  501 -0.00000000000E+00  0.00000000000E+00  0.63343872942E+03  0.63343872942E+03  0.00000000000E+00 0.  1.
          4   -1    0    0  502    0  0.00000000000E+00 -0.00000000000E+00 -0.30620157594E+03  0.30620157594E+03  0.00000000000E+00 0. -1.
         23    2    1    2    0    0 -0.32989869160E+03 -0.82234171197E+02  0.44111114327E+03  0.56422820307E+03  0.90436822127E+02 0.  0.
         23    2    1    2    0    0  0.30962444149E+03  0.83233505509E+02 -0.93371134465E+02  0.34656056917E+03  0.92687367786E+02 0.  0.
        -11    1    3    3    0    0 -0.22588047604E+02  0.14908838505E+02  0.18676974685E+02  0.32883472194E+02  0.00000000000E+00 0. -1.
         11    1    3    3    0    0 -0.30731064399E+03 -0.97143009702E+02  0.42243416858E+03  0.53134473088E+03  0.00000000000E+00 0.  1.
        -11    1    4    4    0    0  0.23528126313E+03  0.85299610925E+02 -0.36452099496E+02  0.25290720029E+03  0.00000000000E+00 0.  1.
         11    1    4    4    0    0  0.74343178361E+02 -0.20661054154E+01 -0.56919034969E+02  0.93653368878E+02  0.00000000000E+00 0. -1.
         21    1    1    2  502  501  0.20274250109E+02 -0.99933431196E+00 -0.20502855322E+02  0.28851533112E+02  0.00000000000E+00 0. -1.
<scales pt_clust_5="13000.00000" pt_clust_6="13000.00000" pt_clust_7="13000.00000" pt_clust_8="13000.00000" pt_clust_9="20.29886"></scales>
<clustering>
<clus scale="   20.299">  2  9  1 -1</clus>
<clus scale="   90.437">  5  6 -1 -1</clus>
<clus scale="   92.687">  7  8 -1 -1</clus>
<clus scale="  347.714">  1  5  2 -1</clus>
<clus scale="   20.299">  2  5  1 -1</clus>
</clustering>
</event>
<event>
 9    1  0.1782981E-005  0.1001473E+03  0.7546771E-02  0.1283826E+00
         -2   -1    0    0    0  501 -0.00000000000E+00  0.00000000000E+00  0.17111468739E+03  0.17111468739E+03  0.00000000000E+00 0.  1.
          2   -1    0    0  502    0  0.00000000000E+00 -0.00000000000E+00 -0.11254893594E+03  0.11254893594E+03  0.00000000000E+00 0. -1.
         23    2    1    2    0    0 -0.72637634149E+01 -0.17948213198E+02  0.92797690970E+02  0.13232553275E+03  0.92324073525E+02 0.  0.
         23    2    1    2    0    0 -0.21432255377E+02 -0.10724468209E+02 -0.41064764367E+02  0.11020086110E+03  0.99416090884E+02 0.  0.
        -11    1    3    3    0    0  0.23305393969E+02 -0.90735589627E+01  0.97041655623E+02  0.10021254306E+03  0.00000000000E+00 0.  1.
         11    1    3    3    0    0 -0.30569157384E+02 -0.88746542357E+01 -0.42439646525E+01  0.32112989691E+02  0.00000000000E+00 0. -1.
        -13    1    4    4    0    0 -0.46391628036E+01 -0.53909953420E+02 -0.32381983023E+02  0.63058684840E+02  0.00000000000E+00 0.  1.
         13    1    4    4    0    0 -0.16793092574E+02  0.43185485211E+02 -0.86827813440E+01  0.47142176264E+02  0.00000000000E+00 0. -1.
         21    1    1    2  502  501  0.28696018792E+02  0.28672681408E+02  0.68328248531E+01  0.41137229478E+02  0.00000000000E+00 0.  1.
<scales pt_clust_5="13000.00000" pt_clust_6="13000.00000" pt_clust_7="13000.00000" pt_clust_8="13000.00000" pt_clust_9="40.56580"></scales>
<clustering>
<clus scale="   40.566">  2  9  1 -1</clus>
<clus scale="   92.324">  5  6 -1 -1</clus>
<clus scale="   93.111">  1  5  2 -1</clus>
<clus scale="   99.416">  7  8 -1 -1</clus>
<clus scale="   40.566">  2  5  1 -1</clus>
</clustering>
</event>
<event>
 9    1  0.1782981E-005  0.2146951E+03  0.7546771E-02  0.1137916E+00
          2   -1    0    0  502    0  0.00000000000E+00  0.00000000000E+00  0.14330211381E+04  0.14330211381E+04  0.00000000000E+00 0. -1.
         -2   -1    0    0    0  501 -0.00000000000E+00 -0.00000000000E+00 -0.54311335466E+02  0.54311335466E+02  0.00000000000E+00 0.  1.
         23    2    1    2    0    0 -0.13765950797E+03 -0.12903625029E+02  0.26568932097E+03  0.31322519767E+03  0.91665508813E+02 0.  0.
         23    2    1    2    0    0  0.23209384020E+03 -0.15668007973E+02  0.96021864409E+03  0.99222109477E+03  0.91486716576E+02 0.  0.
        -11    1    3    3    0    0 -0.30299984914E+02 -0.15342142319E+02  0.15625117829E+03  0.15989965958E+03  0.00000000000E+00 0.  1.
         11    1    3    3    0    0 -0.10735952306E+03  0.24385172896E+01  0.10943814267E+03  0.15332553809E+03  0.00000000000E+00 0. -1.
        -13    1    4    4    0    0  0.10523097744E+03 -0.28150270824E+02  0.28569241306E+03  0.30575505105E+03  0.00000000000E+00 0.  1.
         13    1    4    4    0    0  0.12686286276E+03  0.12482262850E+02  0.67452623103E+03  0.68646604372E+03  0.00000000000E+00 0. -1.
         21    1    1    2  502  501 -0.94434332225E+02  0.28571633002E+02  0.15280183753E+03  0.18188618108E+03  0.00000000000E+00 0. -1.
<scales pt_clust_5="13000.00000" pt_clust_6="13000.00000" pt_clust_7="13000.00000" pt_clust_8="13000.00000" pt_clust_9="98.66195"></scales>
<clustering>
<clus scale="   91.487">  7  8 -1 -1</clus>
<clus scale="   91.666">  5  6 -1 -1</clus>
<clus scale="   98.662">  2  9  1 -1</clus>
<clus scale="  214.619">  1  7  2 -1</clus>
<clus scale="  214.619">  1  5  2 -1</clus>
</clustering>
</event>
<event>
 9    1  0.1782981E-005  0.1109286E+03  0.7546771E-02  0.1259891E+00
          1   -1    0    0  502    0  0.00000000000E+00  0.00000000000E+00  0.86747878213E+03  0.86747878213E+03  0.00000000000E+00 0. -1.
         -1   -1    0    0    0  501 -0.00000000000E+00 -0.00000000000E+00 -0.21670644758E+02  0.21670644758E+02  0.00000000000E+00 0.  1.
         23    2    1    2    0    0 -0.41872529342E+02  0.37781968296E+02  0.19460911946E+03  0.22121470378E+03  0.88783162530E+02 0.  0.
         23    2    1    2    0    0  0.49264340431E+02 -0.59849750658E+02  0.46200645307E+03  0.47731611835E+03  0.91497247306E+02 0.  0.
        -11    1    4    4    0    0  0.28914848581E+02 -0.81670304388E+02  0.38729487636E+03  0.39686701594E+03  0.00000000000E+00 0. -1.
         11    1    4    4    0    0  0.20349491850E+02  0.21820553730E+02  0.74711576713E+02  0.80449102409E+02  0.00000000000E+00 0.  1.
        -13    1    3    3    0    0 -0.57936912041E+02  0.93649262767E+01  0.65075004817E+02  0.87630724480E+02  0.00000000000E+00 0.  1.
         13    1    3    3    0    0  0.16064382699E+02  0.28417042019E+02  0.12953411464E+03  0.13358397930E+03  0.00000000000E+00 0. -1.
         21    1    1    2  502  501 -0.73918110887E+01  0.22067782362E+02  0.18919256484E+03  0.19061860476E+03  0.00000000000E+00 0.  1.
<scales pt_clust_5="13000.00000" pt_clust_6="13000.00000" pt_clust_7="13000.00000" pt_clust_8="13000.00000" pt_clust_9="23.27286"></scales>
<clustering>
<clus scale="   23.273">  1  9  2 -1</clus>
<clus scale="   88.783">  7  8 -1 -1</clus>
<clus scale="   91.497">  5  6 -1 -1</clus>
<clus scale="  108.701">  2  7  1 -1</clus>
<clus scale="   23.273">  1  5  2 -1</clus>
</clustering>
</event>
<event>
 9    1  0.1782981E-005  0.9931820E+02  0.7546771E-02  0.1283686E+00
         -4   -1    0    0    0  501 -0.00000000000E+00  0.00000000000E+00  0.10683273005E+03  0.10683273005E+03  0.00000000000E+00 0.  1.
          4   -1    0    0  502    0  0.00000000000E+00 -0.00000000000E+00 -0.33391117345E+03  0.33391117345E+03  0.00000000000E+00 0. -1.
         23    2    1    2    0    0 -0.27508313466E+02  0.30338409533E+02  0.40962188184E+02  0.10880694904E+03  0.92108223819E+02 0.  0.
         23    2    1    2    0    0  0.48634027760E+02  0.38229595874E+02 -0.22178664439E+03  0.24657127928E+03  0.88211730954E+02 0.  0.
        -11    1    3    3    0    0 -0.50260154769E+02  0.26929305253E+02  0.57108121316E+02  0.80700732085E+02  0.00000000000E+00 0.  1.
         11    1    3    3    0    0  0.22751841303E+02  0.34091042805E+01 -0.16145933132E+02  0.28106216952E+02  0.00000000000E+00 0. -1.
        -13    1    4    4    0    0  0.17400941484E+02  0.52403009134E+02 -0.61476565758E+02  0.82633142674E+02  0.00000000000E+00 0.  1.
         13    1    4    4    0    0  0.31233086276E+02 -0.14173413261E+02 -0.16031007863E+03  0.16393813660E+03  0.00000000000E+00 0. -1.
         21    1    1    2  502  501 -0.21125714294E+02 -0.68568005407E+02 -0.46253987190E+02  0.85365675191E+02  0.00000000000E+00 0. -1.
<scales pt_clust_5="13000.00000" pt_clust_6="13000.00000" pt_clust_7="13000.00000" pt_clust_8="13000.00000" pt_clust_9="71.74864"></scales>
<clustering>
<clus scale="   71.749">  2  9  1 -1</clus>
<clus scale="   88.212">  7  8 -1 -1</clus>
<clus scale="   92.108">  5  6 -1 -1</clus>
<clus scale="   95.716">  2  7  1 -1</clus>
<clus scale="   71.749">  2  5  1 -1</clus>
</clustering>
</event>
<event>
 9    1  0.1782981E-005  0.1319204E+03  0.7546771E-02  0.1224877E+00
          1   -1    0    0  502    0  0.00000000000E+00  0.00000000000E+00  0.85632254259E+02  0.85632254259E+02  0.00000000000E+00 0. -1.
         -1   -1    0    0    0  501 -0.00000000000E+00 -0.00000000000E+00 -0.68995115637E+03  0.68995115637E+03  0.00000000000E+00 0.  1.
         23    2    1    2    0    0  0.35068181551E+02 -0.93665667611E+02 -0.57927200773E+03  0.59480234341E+03  0.90723393581E+02 0.  0.
         23    2    1    2    0    0  0.50830938636E+01  0.56627109959E+02  0.20311332239E+02  0.10977861379E+03  0.91686020760E+02 0.  0.
        -11    1    4    4    0    0 -0.59772652414E+01 -0.20748352679E+02 -0.12567093338E+02  0.24983067738E+02  0.00000000000E+00 0.  1.
         11    1    4    4    0    0  0.11060359105E+02  0.77375462637E+02  0.32878425577E+02  0.84795546052E+02  0.00000000000E+00 0. -1.
        -13    1    3    3    0    0  0.64413309898E+01 -0.10413680423E+03 -0.43375739222E+03  0.44612939832E+03  0.00000000000E+00 0.  1.
         13    1    3    3    0    0  0.28626850561E+02  0.10471136621E+02 -0.14551461551E+03  0.14867294509E+03  0.00000000000E+00 0. -1.
         21    1    1    2  502  501 -0.40151275414E+02  0.37038557652E+02 -0.45358226619E+02  0.71002453425E+02  0.00000000000E+00 0. -1.
<scales pt_clust_5="13000.00000" pt_clust_6="13000.00000" pt_clust_7="13000.00000" pt_clust_8="13000.00000" pt_clust_9="54.62582"></scales>
<clustering>
<clus scale="   54.626">  1  9  2 -1</clus>
<clus scale="   90.723">  7  8 -1 -1</clus>
<clus scale="   91.686">  5  6 -1 -1</clus>
<clus scale="  131.253">  2  7  1 -1</clus>
<clus scale="   54.626">  1  5  2 -1</clus>
</clustering>
</event>
<event>
 9    1  0.1782981E-005  0.3308492E+03  0.7546771E-02  0.1070990E+00
          1   -1    0    0  502    0  0.00000000000E+00  0.00000000000E+00  0.85046550295E+03  0.85046550295E+03  0.00000000000E+00 0. -1.
         -1   -1    0    0    0  501 -0.00000000000E+00 -0.00000000000E+00 -0.17012325715E+03  0.17012325715E+03  0.00000000000E+00 0.  1.
         23    2    1    2    0    0  0.17733085111E+03  0.26634307203E+03  0.10480179163E+03  0.34919701813E+03  0.92575802307E+02 0.  0.
         23    2    1    2    0    0 -0.18789195491E+03 -0.24928534084E+03  0.52089538247E+03  0.61318017123E+03  0.84919697546E+02 0.  0.
        -11    1    3    3    0    0  0.51620208443E+02  0.55717730167E+02  0.66468952233E+02  0.10093182345E+03  0.00000000000E+00 0. -1.
         11    1    3    3    0    0  0.12571064267E+03  0.21062534186E+03  0.38332839393E+02  0.24826519468E+03  0.00000000000E+00 0.  1.
        -13    1    4    4    0    0 -0.84804881831E+02 -0.15870064846E+03  0.35402191142E+03  0.39712627409E+03  0.00000000000E+00 0. -1.
         13    1    4    4    0    0 -0.10308707308E+03 -0.90584692384E+02  0.16687347105E+03  0.21605389714E+03  0.00000000000E+00 0.  1.
         21    1    1    2  502  501  0.10561103802E+02 -0.17057731183E+02  0.54645071704E+02  0.58211570741E+02  0.00000000000E+00 0. -1.
<scales pt_clust_5="13000.00000" pt_clust_6="13000.00000" pt_clust_7="13000.00000" pt_clust_8="13000.00000" pt_clust_9="20.06248"></scales>
<clustering>
<clus scale="   20.062">  1  9  2 -1</clus>
<clus scale="   84.920">  7  8 -1 -1</clus>
<clus scale="   92.576">  5  6 -1 -1</clus>
<clus scale="  328.789">  1  7  2 -1</clus>
<clus scale="   20.062">  1  5  2 -1</clus>
</clustering>
</event>
<event>
 9    1  0.1782981E-005  0.9865377E+02  0.7546771E-02  0.1283988E+00
          3   -1    0    0  502    0  0.00000000000E+00  0.00000000000E+00  0.14077219587E+03  0.14077219587E+03  0.00000000000E+00 0. -1.
         -3   -1    0    0    0  501 -0.00000000000E+00 -0.00000000000E+00 -0.19003199505E+03  0.19003199505E+03  0.00000000000E+00 0.  1.
         23    2    1    2    0    0 -0.41258916101E+02 -0.20274053324E+02 -0.92477247212E+02  0.13922242498E+03  0.93367590578E+02 0.  0.
         23    2    1    2    0    0 -0.28825696699E+02  0.37862127556E+02 -0.70174134183E+01  0.10357759211E+03  0.91731194276E+02 0.  0.
        -11    1    4    4    0    0  0.22931723059E+02 -0.14589732537E+02 -0.12021050479E+02  0.29719183579E+02  0.00000000000E+00 0.  1.
         11    1    4    4    0    0 -0.51757419758E+02  0.52451860092E+02  0.50036370612E+01  0.73858408533E+02  0.00000000000E+00 0. -1.
        -11    1    3    3    0    0 -0.75659142241E+01  0.34898151483E+02 -0.16132693761E+02  0.39184025354E+02  0.00000000000E+00 0. -1.
         11    1    3    3    0    0 -0.33693001877E+02 -0.55172204807E+02 -0.76344553451E+02  0.10003839963E+03  0.00000000000E+00 0.  1.
         21    1    1    2  502  501  0.70084612800E+02 -0.17588074232E+02  0.50234861447E+02  0.88004173828E+02  0.00000000000E+00 0. -1.
<scales pt_clust_5="13000.00000" pt_clust_6="13000.00000" pt_clust_7="13000.00000" pt_clust_8="13000.00000" pt_clust_9="72.25783"></scales>
<clustering>
<clus scale="   72.258">  1  9  2 -1</clus>
<clus scale="   91.731">  5  6 -1 -1</clus>
<clus scale="   93.368">  7  8 -1 -1</clus>
<clus scale="   97.106">  1  5  2 -1</clus>
<clus scale="   72.258">  1  5  2 -1</clus>
</clustering>
</event>
<event>
 9    1  0.1782981E-005  0.2349352E+03  0.7546771E-02  0.1123228E+00
          2   -1    0    0  502    0  0.00000000000E+00  0.00000000000E+00  0.10863564397E+04  0.10863564397E+04  0.00000000000E+00 0. -1.
         -2   -1    0    0    0  501 -0.00000000000E+00 -0.00000000000E+00 -0.98618671989E+02  0.98618671989E+02  0.00000000000E+00 0.  1.
         23    2    1    2    0    0  0.93380324153E+02 -0.19356721164E+03  0.92615662896E+02  0.25111400626E+03  0.91062795719E+02 0.  0.
         23    2    1    2    0    0 -0.78663803255E+02  0.21107641641E+03  0.80205146230E+03  0.83802117254E+03  0.90838812891E+02 0.  0.
        -11    1    3    3    0    0  0.55827202272E+02 -0.18035975092E+03  0.94760390853E+02  0.21124830873E+03  0.00000000000E+00 0. -1.
         11    1    3    3    0    0  0.37553121881E+02 -0.13207460723E+02 -0.21447279570E+01  0.39865697533E+02  0.00000000000E+00 0.  1.
        -11    1    4    4    0    0 -0.15572591862E+02  0.12048328594E+03  0.29395486337E+03  0.31806947277E+03  0.00000000000E+00 0.  1.
         11    1    4    4    0    0 -0.63091211394E+02  0.90593130474E+02  0.50809659893E+03  0.51995169977E+03  0.00000000000E+00 0. -1.
         21    1    1    2  502  501 -0.14716520898E+02 -0.17509204772E+02  0.93070642469E+02  0.95839932850E+02  0.00000000000E+00 0. -1.
<scales pt_clust_5="13000.00000" pt_clust_6="13000.00000" pt_clust_7="13000.00000" pt_clust_8="13000.00000" pt_clust_9="22.87243"></scales>
<clustering>
<clus scale="   22.872">  1  9  2 -1</clus>
<clus scale="   90.839">  7  8 -1 -1</clus>
<clus scale="   91.063">  5  6 -1 -1</clus>
<clus scale="  234.848">  1  7  2 -1</clus>
<clus scale="   22.872">  1  5  2 -1</clus>
</clustering>
</event>
<event>
 9    1  0.1782981E-005  0.1162650E+03  0.7546771E-02  0.1250169E+00
          2   -1    0    0  502    0  0.00000000000E+00  0.00000000000E+00  0.18813240493E+03  0.18813240493E+03  0.00000000000E+00 0. -1.
         -2   -1    0    0    0  501 -0.00000000000E+00 -0.00000000000E+00 -0.14874016660E+03  0.14874016660E+03  0.00000000000E+00 0.  1.
         23    2    1    2    0    0 -0.42980743983E+02  0.37019144230E+02 -0.35135854334E+02  0.11297531368E+03  0.91165409277E+02 0.  0.
         23    2    1    2    0    0  0.77743961619E+02 -0.43031000540E+02 -0.12948586195E+02  0.12957444480E+03  0.93413490916E+02 0.  0.
        -11    1    3    3    0    0  0.13896673423E+02  0.33906838616E+02  0.12502290521E+02  0.38718193468E+02  0.00000000000E+00 0.  1.
         11    1    3    3    0    0 -0.56877417406E+02  0.31123056138E+01 -0.47638144855E+02  0.74257120212E+02  0.00000000000E+00 0. -1.
        -13    1    4    4    0    0  0.57575055561E+02 -0.68426727095E+02  0.97986621796E+01  0.89961757343E+02  0.00000000000E+00 0.  1.
         13    1    4    4    0    0  0.20168906058E+02  0.25395726556E+02 -0.22747248375E+02  0.39612687456E+02  0.00000000000E+00 0. -1.
         21    1    1    2  502  501 -0.34763217636E+02  0.60118563095E+01  0.87476678866E+02  0.94322813052E+02  0.00000000000E+00 0. -1.
<scales pt_clust_5="13000.00000" pt_clust_6="13000.00000" pt_clust_7="13000.00000" pt_clust_8="13000.00000" pt_clust_9="35.27923"></scales>
<clustering>
<clus scale="   35.279">  1  9  2 -1</clus>
<clus scale="   91.165">  5  6 -1 -1</clus>
<clus scale="   93.413">  7  8 -1 -1</clus>
<clus scale="  114.467">  2  5  1 -1</clus>
<clus scale="   35.279">  1  5  2 -1</clus>
</clustering>
</event>
<event>
 9    1  0.1782981E-005  0.9833033E+02  0.7546771E-02  0.1283916E+00
          1   -1    0    0  502    0  0.00000000000E+00  0.00000000000E+00  0.44505482882E+03  0.44505482882E+03  0.00000000000E+00 0. -1.
         -1   -1    0    0    0  501 -0.00000000000E+00 -0.00000000000E+00 -0.44745590039E+02  0.44745590039E+02  0.00000000000E+00 0.  1.
         23    2    1    2    0    0 -0.55968766185E+02  0.14894645991E+02  0.93973895141E+02  0.14328621719E+03  0.91353674263E+02 0.  0.
         23    2    1    2    0    0 -0.89998443373E+01 -0.27243554942E+02  0.17241906690E+03  0.19715897049E+03  0.91214672770E+02 0.  0.
        -11    1    3    3    0    0 -0.62337771594E+02  0.45218840721E+02  0.70568757555E+02  0.10445425250E+03  0.00000000000E+00 0.  1.
         11    1    3    3    0    0  0.63690054089E+01 -0.30324194731E+02  0.23405137585E+02  0.38831964686E+02  0.00000000000E+00 0. -1.
        -11    1    4    4    0    0 -0.38465640151E+02 -0.35295569287E+02  0.54998237746E+02  0.75829999596E+02  0.00000000000E+00 0.  1.
         11    1    4    4    0    0  0.29465795814E+02  0.80520143453E+01  0.11742082916E+03  0.12132897089E+03  0.00000000000E+00 0. -1.
         21    1    1    2  502  501  0.64968610522E+02  0.12348908951E+02  0.13391627674E+03  0.14935523118E+03  0.00000000000E+00 0. -1.
<scales pt_clust_5="13000.00000" pt_clust_6="13000.00000" pt_clust_7="13000.00000" pt_clust_8="13000.00000" pt_clust_9="66.13181"></scales>
<clustering>
<clus scale="   66.132">  1  9  2 -1</clus>
<clus scale="   91.215">  7  8 -1 -1</clus>
<clus scale="   91.354">  5  6 -1 -1</clus>
<clus scale="   98.201">  1  7  2 -1</clus>
<clus scale="   66.132">  1  5  2 -1</clus>
</clustering>
</event>
<event>
 9    1  0.1782981E-005  0.1240002E+03  0.7546771E-02  0.1237161E+00
          1   -1    0    0  502    0  0.00000000000E+00  0.00000000000E+00  0.80534554566E+02  0.80534554566E+02  0.00000000000E+00 0. -1.
         -1   -1    0    0    0  501 -0.00000000000E+00 -0.00000000000E+00 -0.40467341461E+03  0.40467341461E+03  0.00000000000E+00 0.  1.
         23    2    1    2    0    0 -0.15851258759E+02 -0.73611070485E+02 -0.22976032028E+03  0.25827179634E+03  0.90800131657E+02 0.  0.
         23    2    1    2    0    0  0.36614925401E+02  0.91084341303E+02 -0.12645415400E+03  0.18492081762E+03  0.92563738747E+02 0.  0.
        -11    1    3    3    0    0 -0.51424706610E+02 -0.23625391394E+02 -0.10812001466E+03  0.12203522909E+03  0.00000000000E+00 0.  1.
         11    1    3    3    0    0  0.35573447851E+02 -0.49985679091E+02 -0.12164030562E+03  0.13623656726E+03  0.00000000000E+00 0. -1.
        -11    1    4    4    0    0  0.15812510267E+02  0.80754637772E+02 -0.33058251136E+02  0.88680296407E+02  0.00000000000E+00 0. -1.
         11    1    4    4    0    0  0.20802415134E+02  0.10329703531E+02 -0.93395902868E+02  0.96240521211E+02  0.00000000000E+00 0.  1.
         21    1    1    2  502  501 -0.20763666642E+02 -0.17473270817E+02  0.32075614236E+02  0.42015355218E+02  0.00000000000E+00 0. -1.
<scales pt_clust_5="13000.00000" pt_clust_6="13000.00000" pt_clust_7="13000.00000" pt_clust_8="13000.00000" pt_clust_9="27.13752"></scales>
<clustering>
<clus scale="   27.138">  1  9  2 -1</clus>
<clus scale="   90.800">  5  6 -1 -1</clus>
<clus scale="   92.564">  7  8 -1 -1</clus>
<clus scale="  122.689">  2  5  1 -1</clus>
<clus scale="   27.138">  1  5  2 -1</clus>
</clustering>
</event>
<event>
 9    1  0.1782981E-005  0.1965143E+03  0.7546771E-02  0.1154192E+00
         -1   -1    0    0    0  501 -0.00000000000E+00  0.00000000000E+00  0.29735557758E+03  0.29735557758E+03  0.00000000000E+00 0.  1.
          1   -1    0    0  502    0  0.00000000000E+00 -0.00000000000E+00 -0.15267624579E+03  0.15267624579E+03  0.00000000000E+00 0. -1.
         23    2    1    2    0    0 -0.16166085556E+03  0.52162803895E+02  0.12111388673E+03  0.22098150292E+03  0.72863301765E+02 0.  0.
         23    2    1    2    0    0  0.17112777220E+03 -0.71050895507E+02  0.28125287700E+02  0.20743609642E+03  0.88914330235E+02 0.  0.
        -13    1    4    4    0    0  0.61300890619E+02 -0.44931892345E+02 -0.28460386930E+02  0.81158288329E+02  0.00000000000E+00 0.  1.
         13    1    4    4    0    0  0.10982688158E+03 -0.26119003162E+02  0.56585674630E+02  0.12627780809E+03  0.00000000000E+00 0. -1.
        -13    1    3    3    0    0 -0.53220064788E+02  0.39954060762E+02  0.13868664563E+02  0.67978247434E+02  0.00000000000E+00 0. -1.
         13    1    3    3    0    0 -0.10844079077E+03  0.12208743133E+02  0.10724522217E+03  0.15300325549E+03  0.00000000000E+00 0.  1.
         21    1    1    2  502  501 -0.94669166407E+01  0.18888091612E+02 -0.45598426438E+01  0.21614224029E+02  0.00000000000E+00 0.  1.
<scales pt_clust_5="13000.00000" pt_clust_6="13000.00000" pt_clust_7="13000.00000" pt_clust_8="13000.00000" pt_clust_9="21.12777"></scales>
<clustering>
<clus scale="   21.128">  2  9  1 -1</clus>
<clus scale="   72.863">  7  8 -1 -1</clus>
<clus scale="   88.914">  5  6 -1 -1</clus>
<clus scale="  189.792">  1  7  2 -1</clus>
<clus scale="   21.128">  2  5  1 -1</clus>
</clustering>
</event>
<event>
 9    1  0.1782981E-005  0.1044933E+03  0.7546771E-02  0.1271590E+00
         -2   -1    0    0    0  501 -0.00000000000E+00  0.00000000000E+00  0.78513122340E+02  0.78513122340E+02  0.00000000000E+00 0.  1.
          2   -1    0    0  502    0  0.00000000000E+00 -0.00000000000E+00 -0.38594599460E+03  0.38594599460E+03  0.00000000000E+00 0. -1.
         23    2    1    2    0    0  0.56353050326E+01  0.49565542666E+02 -0.10048460665E+02  0.10471029100E+03  0.91513790202E+02 0.  0.
         23    2    1    2    0    0 -0.79491894025E+02 -0.32147014495E+02 -0.20821177578E+03  0.24265928824E+03  0.90437795398E+02 0.  0.
        -11    1    3    3    0    0  0.33039216923E+02 -0.12890117494E+02 -0.85959158780E+01  0.36491570995E+02  0.00000000000E+00 0. -1.
         11    1    3    3    0    0 -0.27403911891E+02  0.62455660160E+02 -0.14525447872E+01  0.68218720006E+02  0.00000000000E+00 0.  1.
        -11    1    4    4    0    0 -0.45183461002E+02 -0.50481147653E+02 -0.63660454154E+02  0.92965288359E+02  0.00000000000E+00 0.  1.
         11    1    4    4    0    0 -0.34308433023E+02  0.18334133158E+02 -0.14455132163E+03  0.14969399988E+03  0.00000000000E+00 0. -1.
         21    1    1    2  502  501  0.73856588993E+02 -0.17418528171E+02 -0.89172635810E+02  0.11708953770E+03  0.00000000000E+00 0.  1.
<scales pt_clust_5="13000.00000" pt_clust_6="13000.00000" pt_clust_7="13000.00000" pt_clust_8="13000.00000" pt_clust_9="75.88281"></scales>
<clustering>
<clus scale="   75.883">  2  9  1 -1</clus>
<clus scale="   90.438">  7  8 -1 -1</clus>
<clus scale="   91.514">  5  6 -1 -1</clus>
<clus scale="  103.552">  2  7  1 -1</clus>
<clus scale="   75.883">  2  5  1 -1</clus>
</clustering>
</event>
<event>
 9    1  0.1782981E-005  0.1189991E+03  0.7546771E-02  0.1245163E+00
         -1   -1    0    0    0  501 -0.00000000000E+00  0.00000000000E+00  0.54056628280E+03  0.54056628280E+03  0.00000000000E+00 0.  1.
          1   -1    0    0  502    0  0.00000000000E+00 -0.00000000000E+00 -0.79589643026E+02  0.79589643026E+02  0.00000000000E+00 0. -1.
         23    2    1    2    0    0  0.36471819349E+02 -0.77141115909E+02  0.39413142988E+03  0.41329347832E+03  0.90503976889E+02 0.  0.
         23    2    1    2    0    0 -0.26796527533E+01  0.56551522932E+02  0.10599499877E+03  0.15119784626E+03  0.91763792775E+02 0.  0.
        -11    1    3    3    0    0 -0.28522977479E+02 -0.30116385346E+02  0.17758272392E+03  0.18236277237E+03  0.00000000000E+00 0.  1.
         11    1    3    3    0    0  0.64994796828E+02 -0.47024730563E+02  0.21654870596E+03  0.23093070596E+03  0.00000000000E+00 0. -1.
        -11    1    4    4    0    0 -0.32962141306E+01  0.29757673225E+02  0.11806672612E+03  0.12180367794E+03  0.00000000000E+00 0.  1.
         11    1    4    4    0    0  0.61656137730E+00  0.26793849708E+02 -0.12071727347E+02  0.29394168320E+02  0.00000000000E+00 0. -1.
         21    1    1    2  502  501 -0.33792166596E+02  0.20589592976E+02 -0.39149788880E+02  0.55664601243E+02  0.00000000000E+00 0. -1.
<scales pt_clust_5="13000.00000" pt_clust_6="13000.00000" pt_clust_7="13000.00000" pt_clust_8="13000.00000" pt_clust_9="39.57072"></scales>
<clustering>
<clus scale="   39.571">  2  9  1 -1</clus>
<clus scale="   90.504">  5  6 -1 -1</clus>
<clus scale="   91.764">  7  8 -1 -1</clus>
<clus scale="  118.030">  1  5  2 -1</clus>
<clus scale="   39.571">  2  5  1 -1</clus>
</clustering>
</event>
<event>
 9    1  0.1782981E-005  0.2421623E+03  0.7546771E-02  0.1118501E+00
         -2   -1    0    0    0  501 -0.00000000000E+00  0.00000000000E+00  0.30660870932E+03  0.30660870932E+03  0.00000000000E+00 0.  1.
          2   -1    0    0  502    0  0.00000000000E+00 -0.00000000000E+00 -0.33958571629E+03  0.33958571629E+03  0.00000000000E+00 0. -1.
         23    2    1    2    0    0  0.48870182612E+02  0.26919833207E+03  0.11335438141E+03  0.30959291310E+03  0.90235909269E+02 0.  0.
         23    2    1    2    0    0 -0.42445925742E+02 -0.20477348953E+03 -0.14702503892E+03  0.27185344254E+03  0.92488342643E+02 0.  0.
        -11    1    4    4    0    0 -0.14503699495E+02 -0.64766127303E+02  0.75437736959E+00  0.66374525461E+02  0.00000000000E+00 0.  1.
         11    1    4    4    0    0 -0.27942226246E+02 -0.14000736223E+03 -0.14777941629E+03  0.20547891708E+03  0.00000000000E+00 0. -1.
        -11    1    3    3    0    0 -0.85815368022E+01  0.12499745824E+03  0.15862310910E+02  0.12629180595E+03  0.00000000000E+00 0. -1.
         11    1    3    3    0    0  0.57451719414E+02  0.14420087383E+03  0.97492070495E+02  0.18330110716E+03  0.00000000000E+00 0.  1.
         21    1    1    2  502  501 -0.64242568707E+01 -0.64424842539E+02  0.69365054209E+00  0.64748069960E+02  0.00000000000E+00 0. -1.
<scales pt_clust_5="13000.00000" pt_clust_6="13000.00000" pt_clust_7="13000.00000" pt_clust_8="13000.00000" pt_clust_9="64.74435"></scales>
<clustering>
<clus scale="   64.744">  1  9  2 -1</clus>
<clus scale="   90.236">  7  8 -1 -1</clus>
<clus scale="   92.488">  5  6 -1 -1</clus>
<clus scale="  241.311">  1  7  2 -1</clus>
<clus scale="  242.162">  2  5  1 -1</clus>
</clustering>
</event>
<event>
 9    1  0.1782981E-005  0.1007002E+03  0.7546771E-02  0.1279214E+00
          1   -1    0    0  502    0  0.00000000000E+00  0.00000000000E+00  0.19175371772E+03  0.19175371772E+03  0.00000000000E+00 0. -1.
         -1   -1    0    0    0  501 -0.00000000000E+00 -0.00000000000E+00 -0.27085089212E+03  0.27085089212E+03  0.00000000000E+00 0.  1.
         23    2    1    2    0    0 -0.29766297905E+02  0.28141769119E+02 -0.23605227839E+03  0.25642258663E+03  0.91399524855E+02 0.  0.
         23    2    1    2    0    0  0.42453898134E+02 -0.46338144632E+02  0.14032023953E+03  0.17845474428E+03  0.90591219342E+02 0.  0.
        -13    1    4    4    0    0 -0.12318440175E+01 -0.46712225958E+02  0.20703100543E+02  0.51109371604E+02  0.00000000000E+00 0.  1.
         13    1    4    4    0    0  0.43685742152E+02  0.37408132633E+00  0.11961713898E+03  0.12734537268E+03  0.00000000000E+00 0. -1.
        -13    1    3    3    0    0 -0.15748950769E+02  0.49433267701E+02 -0.22058836726E+03  0.22660738112E+03  0.00000000000E+00 0.  1.
         13    1    3    3    0    0 -0.14017347137E+02 -0.21291498582E+02 -0.15463911124E+02  0.29815205514E+02  0.00000000000E+00 0. -1.
         21    1    1    2  502  501 -0.12687600229E+02  0.18196375513E+02  0.16634864455E+02  0.27727278929E+02  0.00000000000E+00 0. -1.
<scales pt_clust_5="13000.00000" pt_clust_6="13000.00000" pt_clust_7="13000.00000" pt_clust_8="13000.00000" pt_clust_9="22.18295"></scales>
<clustering>
<clus scale="   22.183">  1  9  2 -1</clus>
<clus scale="   90.591">  5  6 -1 -1</clus>
<clus scale="   91.400">  7  8 -1 -1</clus>
<clus scale="   99.967">  1  5  2 -1</clus>
<clus scale="   22.183">  1  5  2 -1</clus>
</clustering>
</event>
<event>
 9    1  0.1782981E-005  0.1244147E+03  0.7546771E-02  0.1239869E+00
          2   -1    0    0  502    0  0.00000000000E+00  0.00000000000E+00  0.26570080970E+03  0.26570080970E+03  0.00000000000E+00 0. -1.
         -2   -1    0    0    0  501 -0.00000000000E+00 -0.00000000000E+00 -0.17338385879E+03  0.17338385879E+03  0.00000000000E+00 0.  1.
         23    2    1    2    0    0 -0.72489080900E+02 -0.64417650305E+01 -0.87632703182E+02  0.13990561864E+03  0.81227632444E+02 0.  0.
         23    2    1    2    0    0  0.13365031915E+03 -0.30131341434E+02  0.11007040851E+03  0.19937224576E+03  0.94146120508E+02 0.  0.
        -11    1    3    3    0    0 -0.59867187296E+02 -0.28754177422E+02 -0.92439118890E+02  0.11382387067E+03  0.00000000000E+00 0.  1.
         11    1    3    3    0    0 -0.12621893604E+02  0.22312412391E+02  0.48064157072E+01  0.26081747963E+02  0.00000000000E+00 0. -1.
        -13    1    4    4    0    0  0.11725404869E+02  0.25134022794E+02  0.28877954354E+01  0.27884468502E+02  0.00000000000E+00 0.  1.
         13    1    4    4    0    0  0.12192491428E+03 -0.55265364228E+02  0.10718261307E+03  0.17148777726E+03  0.00000000000E+00 0. -1.
         21    1    1    2  502  501 -0.61161238247E+02  0.36573106464E+02  0.69879245585E+02  0.99806804096E+02  0.00000000000E+00 0. -1.
<scales pt_clust_5="13000.00000" pt_clust_6="13000.00000" pt_clust_7="13000.00000" pt_clust_8="13000.00000" pt_clust_9="71.26212"></scales>
<clustering>
<clus scale="   71.262">  1  9  2 -1</clus>
<clus scale="   81.228">  5  6 -1 -1</clus>
<clus scale="   94.146">  7  8 -1 -1</clus>
<clus scale="  114.950">  2  5  1 -1</clus>
<clus scale="   71.262">  1  5  2 -1</clus>
</clustering>
</event>
<event>
 9    1  0.1782981E-005  0.9312348E+02  0.7546771E-02  0.1296571E+00
          1   -1    0    0  502    0  0.00000000000E+00  0.00000000000E+00  0.51269412723E+02  0.51269412723E+02  0.00000000000E+00 0. -1.
         -1   -1    0    0    0  501 -0.00000000000E+00 -0.00000000000E+00 -0.22551309099E+03  0.22551309099E+03  0.00000000000E+00 0.  1.
         23    2    1    2    0    0 -0.71430871194E+01 -0.20659220930E+01 -0.97387794594E+02  0.13250616389E+03  0.89544453790E+02 0.  0.
         23    2    1    2    0    0  0.31652896963E+02  0.45544866502E+01 -0.66617140676E+02  0.11759759191E+03  0.91480604262E+02 0.  0.
        -11    1    3    3    0    0  0.19869103667E+02 -0.23500399476E+02 -0.92738112391E+02  0.97710836380E+02  0.00000000000E+00 0. -1.
         11    1    3    3    0    0 -0.27012190786E+02  0.21434477383E+02 -0.46496822021E+01  0.34795327507E+02  0.00000000000E+00 0.  1.
        -13    1    4    4    0    0  0.32928857075E+02 -0.34496849033E+02 -0.98710808568E+01  0.48700928726E+02  0.00000000000E+00 0. -1.
         13    1    4    4    0    0 -0.12759601126E+01  0.39051335683E+02 -0.56746059819E+02  0.68896663183E+02  0.00000000000E+00 0.  1.
         21    1    1    2  502  501 -0.24509809843E+02 -0.24885645572E+01 -0.10238742993E+02  0.26678747912E+02  0.00000000000E+00 0. -1.
<scales pt_clust_5="13000.00000" pt_clust_6="13000.00000" pt_clust_7="13000.00000" pt_clust_8="13000.00000" pt_clust_9="24.63582"></scales>
<clustering>
<clus scale="   24.636">  1  9  2 -1</clus>
<clus scale="   89.544">  5  6 -1 -1</clus>
<clus scale="   91.222">  2  5  1 -1</clus>
<clus scale="   91.481">  7  8 -1 -1</clus>
<clus scale="   24.636">  1  5  2 -1</clus>
</clustering>
</event>
<event>
 9    1  0.1782981E-005  0.2023398E+03  0.7546771E-02  0.1148341E+00
         -3   -1    0    0    0  501 -0.00000000000E+00  0.00000000000E+00  0.49351535992E+03  0.49351535992E+03  0.00000000000E+00 0.  1.
          3   -1    0    0  502    0  0.00000000000E+00 -0.00000000000E+00 -0.24363317917E+03  0.24363317917E+03  0.00000000000E+00 0. -1.
         23    2    1    2    0    0  0.14948552492E+03 -0.83265922950E+02  0.29788579816E+03  0.35568286477E+03  0.92169493107E+02 0.  0.
         23    2    1    2    0    0 -0.15770435456E+03  0.13433943557E+03  0.84097786049E+02  0.23959660211E+03  0.86118213695E+02 0.  0.
        -11    1    4    4    0    0 -0.53889432662E+02  0.96210544872E+02  0.63015090324E+02  0.12700961186E+03  0.00000000000E+00 0.  1.
         11    1    4    4    0    0 -0.10381492190E+03  0.38128890696E+02  0.21082695725E+02  0.11258699025E+03  0.00000000000E+00 0. -1.
        -11    1    3    3    0    0  0.18121883375E+02  0.19688369951E+02  0.52351932704E+02  0.58794212523E+02  0.00000000000E+00 0.  1.
         11    1    3    3    0    0  0.13136364154E+03 -0.10295429290E+03  0.24553386546E+03  0.29688865225E+03  0.00000000000E+00 0. -1.
         21    1    1    2  502  501  0.82188296430E+01 -0.51073512618E+02 -0.13210140346E+03  0.14186907220E+03  0.00000000000E+00 0.  1.
<scales pt_clust_5="13000.00000" pt_clust_6="13000.00000" pt_clust_7="13000.00000" pt_clust_8="13000.00000" pt_clust_9="51.73058"></scales>
<clustering>
<clus scale="   51.731">  2  9  1 -1</clus>
<clus scale="   86.118">  5  6 -1 -1</clus>
<clus scale="   92.169">  7  8 -1 -1</clus>
<clus scale="  199.656">  2  5  1 -1</clus>
<clus scale="   51.731">  2  5  1 -1</clus>
</clustering>
</event>
<event>
 9    1  0.1782981E-005  0.9625091E+02  0.7546771E-02  0.1291749E+00
         -1   -1    0    0    0  501 -0.00000000000E+00  0.00000000000E+00  0.99506450664E+02  0.99506450664E+02  0.00000000000E+00 0.  1.
          1   -1    0    0  502    0  0.00000000000E+00 -0.00000000000E+00 -0.16274062827E+03  0.16274062827E+03  0.00000000000E+00 0. -1.
         23    2    1    2    0    0 -0.26398127773E+02  0.27357716540E+02  0.78532333418E+01  0.10090488673E+03  0.93138698120E+02 0.  0.
         23    2    1    2    0    0  0.23492934559E+02  0.99287680105E+01 -0.82110341482E+02  0.12235210276E+03  0.87048437452E+02 0.  0.
        -13    1    3    3    0    0 -0.54026465609E+02  0.24474606439E+02 -0.18988438929E+02  0.62277011486E+02  0.00000000000E+00 0.  1.
         13    1    3    3    0    0  0.27628337836E+02  0.28831101006E+01  0.26841672271E+02  0.38627875242E+02  0.00000000000E+00 0. -1.
        -13    1    4    4    0    0  0.42923538537E+02 -0.10574298749E+02 -0.10592984166E+02  0.45458302522E+02  0.00000000000E+00 0. -1.
         13    1    4    4    0    0 -0.19430603979E+02  0.20503066759E+02 -0.71517357316E+02  0.76893800237E+02  0.00000000000E+00 0.  1.
         21    1    1    2  502  501  0.29051932146E+01 -0.37286484551E+02  0.11022930532E+02  0.38990089449E+02  0.00000000000E+00 0. -1.
<scales pt_clust_5="13000.00000" pt_clust_6="13000.00000" pt_clust_7="13000.00000" pt_clust_8="13000.00000" pt_clust_9="37.39949"></scales>
<clustering>
<clus scale="   37.399">  1  9  2 -1</clus>
<clus scale="   87.048">  7  8 -1 -1</clus>
<clus scale="   90.371">  2  7  1 -1</clus>
<clus scale="   93.139">  5  6 -1 -1</clus>
<clus scale="   90.371">  2  5  1 -1</clus>
</clustering>
</event>
<event>
 9    1  0.1782981E-005  0.1009673E+03  0.7546771E-02  0.1278428E+00
          1   -1    0    0  502    0  0.00000000000E+00  0.00000000000E+00  0.39168322998E+03  0.39168322998E+03  0.00000000000E+00 0. -1.
         -1   -1    0    0    0  501 -0.00000000000E+00 -0.00000000000E+00 -0.32599462450E+02  0.32599462450E+02  0.00000000000E+00 0.  1.
         23    2    1    2    0    0 -0.41963383169E+02  0.30621668343E+02  0.14903792461E+03  0.18247338986E+03  0.91573046996E+02 0.  0.
         23    2    1    2    0    0  0.20000789749E+02 -0.26761267067E+02  0.16346587018E+03  0.19016676130E+03  0.91247517150E+02 0.  0.
        -11    1    4    4    0    0 -0.17586405696E+02  0.25789876499E+02  0.68846249175E+02  0.75592363508E+02  0.00000000000E+00 0.  1.
         11    1    4    4    0    0  0.37587195445E+02 -0.52551143567E+02  0.94619621000E+02  0.11457439779E+03  0.00000000000E+00 0. -1.
        -13    1    3    3    0    0 -0.14441980028E+01  0.34493194274E+02  0.76739014149E+01  0.35366013657E+02  0.00000000000E+00 0.  1.
         13    1    3    3    0    0 -0.40519185166E+02 -0.38715259309E+01  0.14136402319E+03  0.14710737620E+03  0.00000000000E+00 0. -1.
         21    1    1    2  502  501  0.21962593419E+02 -0.38604012754E+01  0.46579972741E+02  0.51642541264E+02  0.00000000000E+00 0.  1.
<scales pt_clust_5="13000.00000" pt_clust_6="13000.00000" pt_clust_7="13000.00000" pt_clust_8="13000.00000" pt_clust_9="22.29929"></scales>
<clustering>
<clus scale="   22.299">  1  9  2 -1</clus>
<clus scale="   91.248">  5  6 -1 -1</clus>
<clus scale="   91.573">  7  8 -1 -1</clus>
<clus scale="  100.672">  1  5  2 -1</clus>
<clus scale="   22.299">  1  5  2 -1</clus>
</clustering>
</event>
<event>
 9    1  0.1782981E-005  0.3262123E+03  0.7546771E-02  0.1072924E+00
          1   -1    0    0  502    0  0.00000000000E+00  0.00000000000E+00  0.89167445424E+03  0.89167445424E+03  0.00000000000E+00 0. -1.
         -1   -1    0    0    0  501 -0.00000000000E+00 -0.00000000000E+00 -0.70977896294E+03  0.70977896294E+03  0.00000000000E+00 0.  1.
         23    2    1    2    0    0 -0.19358269720E+03  0.24651443875E+03 -0.63453683282E+03  0.71381933160E+03  0.93045240600E+02 0.  0.
         23    2    1    2    0    0  0.16885820188E+03 -0.24726533097E+03  0.67282566534E+03  0.74191264942E+03  0.89926454268E+02 0.  0.
        -13    1    4    4    0    0  0.57331250499E+02 -0.10503825818E+03  0.17250873526E+03  0.20995040297E+03  0.00000000000E+00 0.  1.
         13    1    4    4    0    0  0.11152695138E+03 -0.14222707279E+03  0.50031693008E+03  0.53196224645E+03  0.00000000000E+00 0. -1.
        -13    1    3    3    0    0  0.36695471720E+00  0.46836475359E+02 -0.67743871359E+02  0.82359105062E+02  0.00000000000E+00 0. -1.
         13    1    3    3    0    0 -0.19394965192E+03  0.19967796339E+03 -0.56679296146E+03  0.63146022654E+03  0.00000000000E+00 0.  1.
         21    1    1    2  502  501  0.24724495321E+02  0.75089222501E+00  0.14360665878E+03  0.14572143615E+03  0.00000000000E+00 0.  1.
<scales pt_clust_5="13000.00000" pt_clust_6="13000.00000" pt_clust_7="13000.00000" pt_clust_8="13000.00000" pt_clust_9="24.73590"></scales>
<clustering>
<clus scale="   24.736">  1  9  2 -1</clus>
<clus scale="   89.926">  5  6 -1 -1</clus>
<clus scale="   93.045">  7  8 -1 -1</clus>
<clus scale="  325.336">  1  5  2 -1</clus>
<clus scale="   24.736">  1  5  2 -1</clus>
</clustering>
</event>
<event>
 9    1  0.1782981E-005  0.1024549E+03  0.7546771E-02  0.1275647E+00
         -1   -1    0    0    0  501 -0.00000000000E+00  0.00000000000E+00  0.16985005169E+03  0.16985005169E+03  0.00000000000E+00 0.  1.
          1   -1    0    0  502    0  0.00000000000E+00 -0.00000000000E+00 -0.17080394012E+03  0.17080394012E+03  0.00000000000E+00 0. -1.
         23    2    1    2    0    0 -0.52022741735E+02  0.16118145408E+02  0.11665680475E+03  0.15715909978E+03  0.90133302844E+02 0.  0.
         23    2    1    2    0    0  0.91807949351E+01 -0.17532988163E+02 -0.10422499724E+03  0.13858819941E+03  0.89174807525E+02 0.  0.
        -11    1    3    3    0    0 -0.29440654906E+02  0.52248662530E+02  0.85231577257E+02  0.10421658534E+03  0.00000000000E+00 0. -1.
         11    1    3    3    0    0 -0.22582086829E+02 -0.36130517122E+02  0.31425227490E+02  0.52942514446E+02  0.00000000000E+00 0.  1.
        -11    1    4    4    0    0 -0.26041464182E+02 -0.34514793927E+02 -0.84209663698E+02  0.94660954552E+02  0.00000000000E+00 0.  1.
         11    1    4    4    0    0  0.35222259117E+02  0.16981805764E+02 -0.20015333544E+02  0.43927244862E+02  0.00000000000E+00 0. -1.
         21    1    1    2  502  501  0.42841946800E+02  0.14148427552E+01 -0.13385695935E+02  0.44906692611E+02  0.00000000000E+00 0.  1.
<scales pt_clust_5="13000.00000" pt_clust_6="13000.00000" pt_clust_7="13000.00000" pt_clust_8="13000.00000" pt_clust_9="42.86530"></scales>
<clustering>
<clus scale="   42.865">  2  9  1 -1</clus>
<clus scale="   89.175">  7  8 -1 -1</clus>
<clus scale="   90.133">  5  6 -1 -1</clus>
<clus scale="  101.613">  2  7  1 -1</clus>
<clus scale="   42.865">  2  5  1 -1</clus>
</clustering>
</event>
<event>
 9    1  0.1782981E-005  0.9793410E+02  0.7546771E-02  0.1285437E+00
         -2   -1    0    0    0  501 -0.00000000000E+00  0.00000000000E+00  0.52904892394E+02  0.52904892394E+02  0.00000000000E+00 0.  1.
          2   -1    0    0  502    0  0.00000000000E+00 -0.00000000000E+00 -0.26135816358E+03  0.26135816358E+03  0.00000000000E+00 0. -1.
         23    2    1    2    0    0 -0.10752623459E+02 -0.34625032401E+02 -0.53963662725E+02  0.11237010385E+03  0.91653977350E+02 0.  0.
         23    2    1    2    0    0 -0.14390594315E+02  0.34345267096E+02 -0.90322560427E+02  0.13297510450E+03  0.90208241957E+02 0.  0.
        -11    1    4    4    0    0  0.25315248088E+02  0.32806461696E+02 -0.89133232055E+01  0.42386000582E+02  0.00000000000E+00 0. -1.
         11    1    4    4    0    0 -0.39705842402E+02  0.15388053998E+01 -0.81409237222E+02  0.90589103914E+02  0.00000000000E+00 0.  1.
        -11    1    3    3    0    0  0.33328006497E+02  0.19225721718E+01  0.43865941220E+00  0.33386295436E+02  0.00000000000E+00 0. -1.
         11    1    3    3    0    0 -0.44080629956E+02 -0.36547604573E+02 -0.54402322138E+02  0.78983808412E+02  0.00000000000E+00 0.  1.
         21    1    1    2  502  501  0.25143217773E+02  0.27976530485E+00 -0.64167048035E+02  0.68917847632E+02  0.00000000000E+00 0. -1.
<scales pt_clust_5="13000.00000" pt_clust_6="13000.00000" pt_clust_7="13000.00000" pt_clust_8="13000.00000" pt_clust_9="25.14477"></scales>
<clustering>
<clus scale="   25.145">  2  9  1 -1</clus>
<clus scale="   90.208">  5  6 -1 -1</clus>
<clus scale="   91.654">  7  8 -1 -1</clus>
<clus scale="   96.582">  2  5  1 -1</clus>
<clus scale="   25.145">  2  5  1 -1</clus>
</clustering>
</event>
<event>
 9    1  0.1782981E-005  0.1155717E+03  0.7546771E-02  0.1250808E+00
         -2   -1    0    0    0  501 -0.00000000000E+00  0.00000000000E+00  0.17254176386E+03  0.17254176386E+03  0.00000000000E+00 0.  1.
          2   -1    0    0  502    0  0.00000000000E+00 -0.00000000000E+00 -0.19163916050E+03  0.19163916050E+03  0.00000000000E+00 0. -1.
         23    2    1    2    0    0  0.60841770573E+02 -0.78588634280E+01  0.92795719206E+02  0.14598669970E+03  0.94538818508E+02 0.  0.
         23    2    1    2    0    0 -0.78522268121E+02  0.21368315190E+02 -0.22771152100E+02  0.12633656465E+03  0.93915125061E+02 0.  0.
        -11    1    3    3    0    0  0.35975684544E+02  0.56172001407E+01  0.10793183484E+03  0.11390822529E+03  0.00000000000E+00 0.  1.
         11    1    3    3    0    0  0.24866086030E+02 -0.13476063569E+02 -0.15136115638E+02  0.32078474408E+02  0.00000000000E+00 0. -1.
        -11    1    4    4    0    0  0.20244101944E+02  0.99574818581E+00 -0.14954757068E+02  0.25188488183E+02  0.00000000000E+00 0.  1.
         11    1    4    4    0    0 -0.98766370065E+02  0.20372567005E+02 -0.78163950328E+01  0.10114807647E+03  0.00000000000E+00 0. -1.
         21    1    1    2  502  501  0.17680497548E+02 -0.13509451762E+02 -0.89121963746E+02  0.91857660010E+02  0.00000000000E+00 0.  1.
<scales pt_clust_5="13000.00000" pt_clust_6="13000.00000" pt_clust_7="13000.00000" pt_clust_8="13000.00000" pt_clust_9="22.25096"></scales>
<clustering>
<clus scale="   22.251">  2  9  1 -1</clus>
<clus scale="   93.915">  7  8 -1 -1</clus>
<clus scale="   94.539">  5  6 -1 -1</clus>
<clus scale="  115.062">  2  7  1 -1</clus>
<clus scale="   22.251">  2  5  1 -1</clus>
</clustering>
</event>
<event>
 9    1  0.1782981E-005  0.9358324E+02  0.7546771E-02  0.1297122E+00
          1   -1    0    0  502    0  0.00000000000E+00  0.00000000000E+00  0.13306924205E+03  0.13306924205E+03  0.00000000000E+00 0. -1.
         -1   -1    0    0    0  501 -0.00000000000E+00 -0.00000000000E+00 -0.14519837917E+03  0.14519837917E+03  0.00000000000E+00 0.  1.
         23    2    1    2    0    0  0.23777314948E+02 -0.25150507723E+01 -0.89148803680E+02  0.12874868709E+03  0.89760954998E+02 0.  0.
         23    2    1    2    0    0 -0.30297702930E+02  0.25868543848E+02  0.33353033903E+02  0.99572203457E+02  0.84941547356E+02 0.  0.
        -11    1    3    3    0    0  0.57544970838E+01 -0.39338957192E+02 -0.75866864402E+02  0.85653072938E+02  0.00000000000E+00 0.  1.
         11    1    3    3    0    0  0.18022817864E+02  0.36823906419E+02 -0.13281939278E+02  0.43095614147E+02  0.00000000000E+00 0. -1.
        -11    1    4    4    0    0  0.20261956964E+02 -0.37947858654E+01 -0.13404466016E+02  0.24589164462E+02  0.00000000000E+00 0.  1.
         11    1    4    4    0    0 -0.50559659894E+02  0.29663329714E+02  0.46757499919E+02  0.74983038995E+02  0.00000000000E+00 0. -1.
         21    1    1    2  502  501  0.65203879820E+01 -0.23353493076E+02  0.43666632657E+02  0.49946730683E+02  0.00000000000E+00 0.  1.
<scales pt_clust_5="13000.00000" pt_clust_6="13000.00000" pt_clust_7="13000.00000" pt_clust_8="13000.00000" pt_clust_9="24.24667"></scales>
<clustering>
<clus scale="   24.247">  1  9  2 -1</clus>
<clus scale="   84.942">  7  8 -1 -1</clus>
<clus scale="   88.971">  1  7  2 -1</clus>
<clus scale="   89.761">  5  6 -1 -1</clus>
<clus scale="   24.247">  1  5  2 -1</clus>
</clustering>
</event>
<event>
 9    1  0.1782981E-005  0.9804873E+02  0.7546771E-02  0.1285816E+00
         -2   -1    0    0    0  501 -0.00000000000E+00  0.00000000000E+00  0.13471535131E+03  0.13471535131E+03  0.00000000000E+00 0.  1.
          2   -1    0    0  502    0  0.00000000000E+00 -0.00000000000E+00 -0.22396626354E+03  0.22396626354E+03  0.00000000000E+00 0. -1.
         23    2    1    2    0    0  0.19333933913E+02  0.27862825702E+02  0.90560861742E+02  0.13391930014E+03  0.92644326402E+02 0.  0.
         23    2    1    2    0    0 -0.37535748213E+02  0.37113601901E+01 -0.11939375501E+03  0.15420331618E+03  0.90006040892E+02 0.  0.
        -13    1    3    3    0    0  0.53362473505E+02  0.33607758470E+02  0.67711412017E+02  0.92530375150E+02  0.00000000000E+00 0. -1.
         13    1    3    3    0    0 -0.34028539592E+02 -0.57449327683E+01  0.22849449724E+02  0.41388924992E+02  0.00000000000E+00 0.  1.
        -13    1    4    4    0    0 -0.33796334215E+02  0.43691331127E+02 -0.52637353786E+02  0.76300823296E+02  0.00000000000E+00 0.  1.
         13    1    4    4    0    0 -0.37394139976E+01 -0.39979970937E+02 -0.66756401220E+02  0.77902492881E+02  0.00000000000E+00 0. -1.
         21    1    1    2  502  501  0.18201814300E+02 -0.31574185892E+02 -0.60418018969E+02  0.70558998538E+02  0.00000000000E+00 0.  1.
<scales pt_clust_5="13000.00000" pt_clust_6="13000.00000" pt_clust_7="13000.00000" pt_clust_8="13000.00000" pt_clust_9="36.44496"></scales>
<clustering>
<clus scale="   36.445">  2  9  1 -1</clus>
<clus scale="   90.006">  7  8 -1 -1</clus>
<clus scale="   92.644">  5  6 -1 -1</clus>
<clus scale="   95.560">  2  7  1 -1</clus>
<clus scale="   36.445">  2  5  1 -1</clus>
</clustering>
</event>
<event>
 9    1  0.1782981E-005  0.1627677E+03  0.7546771E-02  0.1201054E+00
         -1   -1    0    0    0  501 -0.00000000000E+00  0.00000000000E+00  0.99881305567E+02  0.99881305567E+02  0.00000000000E+00 0.  1.
          1   -1    0    0  502    0  0.00000000000E+00 -0.00000000000E+00 -0.75617667458E+03  0.75617667458E+03  0.00000000000E+00 0. -1.
         23    2    1    2    0    0 -0.56080731249E+02 -0.12617136214E+03 -0.24213326342E+02  0.16584623697E+03  0.88625211436E+02 0.  0.
         23    2    1    2    0    0  0.67195258330E+02 -0.16554871002E+02 -0.16478521404E+03  0.20147803615E+03  0.93005192258E+02 0.  0.
        -11    1    3    3    0    0  0.96531513334E+01 -0.30134455663E+02 -0.37093874786E+02  0.48756787173E+02  0.00000000000E+00 0. -1.
         11    1    3    3    0    0 -0.65733882582E+02 -0.96036906480E+02  0.12880548444E+02  0.11708944980E+03  0.00000000000E+00 0.  1.
        -11    1    4    4    0    0  0.76443103786E+01 -0.41590034151E+02 -0.10604571365E+03  0.11416593102E+03  0.00000000000E+00 0.  1.
         11    1    4    4    0    0  0.59550947951E+02  0.25035163149E+02 -0.58739500395E+02  0.87312105131E+02  0.00000000000E+00 0. -1.
         21    1    1    2  502  501 -0.11114527081E+02  0.14272623314E+03 -0.46729682863E+03  0.48873370703E+03  0.00000000000E+00 0. -1.
<scales pt_clust_5="13000.00000" pt_clust_6="13000.00000" pt_clust_7="13000.00000" pt_clust_8="13000.00000" pt_clust_9="136.52436"></scales>
<clustering>
<clus scale="   88.625">  5  6 -1 -1</clus>
<clus scale="   93.005">  7  8 -1 -1</clus>
<clus scale="  115.928">  2  7  1 -1</clus>
<clus scale="  136.524">  2  9  1 -1</clus>
<clus scale="  115.928">  2  5  1 -1</clus>
</clustering>
</event>
<event>
 9    1  0.1782981E-005  0.1208479E+03  0.7546771E-02  0.1242494E+00
          2   -1    0    0  502    0  0.00000000000E+00  0.00000000000E+00  0.29616638699E+03  0.29616638699E+03  0.00000000000E+00 0. -1.
         -2   -1    0    0    0  501 -0.00000000000E+00 -0.00000000000E+00 -0.93619938894E+02  0.93619938894E+02  0.00000000000E+00 0.  1.
         23    2    1    2    0    0  0.22195501920E+02  0.83072843703E+02  0.16120911465E+02  0.12806330086E+03  0.93523192708E+02 0.  0.
         23    2    1    2    0    0  0.40352260888E+02 -0.63013105675E+02  0.12504519881E+03  0.17182218190E+03  0.91036278505E+02 0.  0.
        -11    1    3    3    0    0  0.17577109891E+02  0.38954608890E+02  0.54602517435E+02  0.69338670712E+02  0.00000000000E+00 0. -1.
         11    1    3    3    0    0  0.46183920289E+01  0.44118234813E+02 -0.38481605970E+02  0.58724630147E+02  0.00000000000E+00 0.  1.
        -13    1    4    4    0    0 -0.19163093001E+02 -0.14387851525E+02 -0.12338678453E+01  0.23994933522E+02  0.00000000000E+00 0.  1.
         13    1    4    4    0    0  0.59515353889E+02 -0.48625254150E+02  0.12627906665E+03  0.14782724838E+03  0.00000000000E+00 0. -1.
         21    1    1    2  502  501 -0.62547762808E+02 -0.20059738028E+02  0.61380337821E+02  0.89900843117E+02  0.00000000000E+00 0. -1.
<scales pt_clust_5="13000.00000" pt_clust_6="13000.00000" pt_clust_7="13000.00000" pt_clust_8="13000.00000" pt_clust_9="65.68573"></scales>
<clustering>
<clus scale="   65.686">  1  9  2 -1</clus>
<clus scale="   91.036">  7  8 -1 -1</clus>
<clus scale="   93.523">  5  6 -1 -1</clus>
<clus scale="  118.934">  1  7  2 -1</clus>
<clus scale="   65.686">  1  5  2 -1</clus>
</clustering>
</event>
<event>
 9    1  0.1782981E-005  0.1006000E+03  0.7546771E-02  0.1279515E+00
         -1   -1    0    0    0  501 -0.00000000000E+00  0.00000000000E+00  0.76205319653E+02  0.76205319653E+02  0.00000000000E+00 0.  1.
          1   -1    0    0  502    0  0.00000000000E+00 -0.00000000000E+00 -0.33878276600E+03  0.33878276600E+03  0.00000000000E+00 0. -1.
         23    2    1    2    0    0 -0.33974667150E+02  0.22283026637E+02  0.17889344184E+02  0.10103375275E+03  0.90757805588E+02 0.  0.
         23    2    1    2    0    0  0.40412266969E+02 -0.48463284195E+02 -0.25146452071E+03  0.27435660277E+03  0.89751317928E+02 0.  0.
        -11    1    3    3    0    0 -0.50741268976E+02  0.88547232023E+01  0.43633053583E+02  0.67505006223E+02  0.00000000000E+00 0.  1.
         11    1    3    3    0    0  0.16766601826E+02  0.13428303435E+02 -0.25743709400E+02  0.33528746526E+02  0.00000000000E+00 0. -1.
        -13    1    4    4    0    0 -0.25383637557E+02 -0.66828426527E+00 -0.35986114385E+02  0.44042889188E+02  0.00000000000E+00 0.  1.
         13    1    4    4    0    0  0.65795904526E+02 -0.47794999930E+02 -0.21547840633E+03  0.23031371358E+03  0.00000000000E+00 0. -1.
         21    1    1    2  502  501 -0.64375998190E+01  0.26180257558E+02 -0.29002269821E+02  0.39597730137E+02  0.00000000000E+00 0. -1.
<scales pt_clust_5="13000.00000" pt_clust_6="13000.00000" pt_clust_7="13000.00000" pt_clust_8="13000.00000" pt_clust_9="26.96013"></scales>
<clustering>
<clus scale="   26.960">  2  9  1 -1</clus>
<clus scale="   89.751">  7  8 -1 -1</clus>
<clus scale="   90.758">  5  6 -1 -1</clus>
<clus scale="   99.693">  2  7  1 -1</clus>
<clus scale="   26.960">  2  5  1 -1</clus>
</clustering>
</event>
<event>
 9    1  0.1782981E-005  0.1032493E+03  0.7546771E-02  0.1274251E+00
         -1   -1    0    0    0  501 -0.00000000000E+00  0.00000000000E+00  0.57820474709E+03  0.57820474709E+03  0.00000000000E+00 0.  1.
          1   -1    0    0  502    0  0.00000000000E+00 -0.00000000000E+00 -0.93067406727E+02  0.93067406727E+02  0.00000000000E+00 0. -1.
         23    2    1    2    0    0 -0.31904832929E+02 -0.57108840605E+02  0.37457756652E+03  0.39111137018E+03  0.91544592979E+02 0.  0.
         23    2    1    2    0    0  0.36727256462E+00  0.16971141345E+02  0.17444109666E+03  0.19838990850E+03  0.92955392876E+02 0.  0.
        -11    1    3    3    0    0 -0.49757038188E+01  0.23811390556E+02  0.51323881236E+02  0.56796837358E+02  0.00000000000E+00 0.  1.
         11    1    3    3    0    0 -0.26929129110E+02 -0.80920231161E+02  0.32325368528E+03  0.33431453282E+03  0.00000000000E+00 0. -1.
        -13    1    4    4    0    0 -0.32217230452E+02  0.13147696072E+02  0.19245272808E+02  0.39764209730E+02  0.00000000000E+00 0. -1.
         13    1    4    4    0    0  0.32584503017E+02  0.38234452734E+01  0.15519582385E+03  0.15862569877E+03  0.00000000000E+00 0.  1.
         21    1    1    2  502  501  0.31537560364E+02  0.40137699260E+02 -0.63881322815E+02  0.81770875134E+02  0.00000000000E+00 0. -1.
<scales pt_clust_5="13000.00000" pt_clust_6="13000.00000" pt_clust_7="13000.00000" pt_clust_8="13000.00000" pt_clust_9="51.04559"></scales>
<clustering>
<clus scale="   51.046">  2  9  1 -1</clus>
<clus scale="   91.545">  5  6 -1 -1</clus>
<clus scale="   92.955">  7  8 -1 -1</clus>
<clus scale="  101.981">  1  5  2 -1</clus>
<clus scale="   51.046">  2  5  1 -1</clus>
</clustering>
</event>
<event>
 9    1  0.1782981E-005  0.9831756E+02  0.7546771E-02  0.1285613E+00
          2   -1    0    0  502    0  0.00000000000E+00  0.00000000000E+00  0.79103015456E+03  0.79103015456E+03  0.00000000000E+00 0. -1.
         -2   -1    0    0    0  501 -0.00000000000E+00 -0.00000000000E+00 -0.23506878984E+02  0.23506878984E+02  0.00000000000E+00 0.  1.
         23    2    1    2    0    0  0.54388858734E+01 -0.18733285859E+02  0.16697937547E+03  0.19264320892E+03  0.94067936257E+02 0.  0.
         23    2    1    2    0    0  0.29820750947E+02  0.41616398443E+02  0.28281131773E+03  0.30139285312E+03  0.90742540583E+02 0.  0.
        -11    1    3    3    0    0  0.35830627528E+02 -0.87539670087E+01  0.19475095501E+02  0.41710252363E+02  0.00000000000E+00 0.  1.
         11    1    3    3    0    0 -0.30391741654E+02 -0.99793188500E+01  0.14750427997E+03  0.15093295656E+03  0.00000000000E+00 0. -1.
        -13    1    4    4    0    0  0.46615140366E+02 -0.75732485197E+01  0.18127491714E+03  0.18732570830E+03  0.00000000000E+00 0.  1.
         13    1    4    4    0    0 -0.16794389418E+02  0.49189646963E+02  0.10153640058E+03  0.11406714482E+03  0.00000000000E+00 0. -1.
         21    1    1    2  502  501 -0.35259636821E+02 -0.22883112584E+02  0.31773258238E+03  0.32050097150E+03  0.00000000000E+00 0. -1.
<scales pt_clust_5="13000.00000" pt_clust_6="13000.00000" pt_clust_7="13000.00000" pt_clust_8="13000.00000" pt_clust_9="42.03426"></scales>
<clustering>
<clus scale="   42.034">  1  9  2 -1</clus>
<clus scale="   90.743">  7  8 -1 -1</clus>
<clus scale="   94.068">  5  6 -1 -1</clus>
<clus scale="   95.141">  1  7  2 -1</clus>
<clus scale="   42.034">  1  5  2 -1</clus>
</clustering>
</event>
<event>
 9    1  0.1782981E-005  0.1136292E+03  0.7546771E-02  0.1258145E+00
          2   -1    0    0  502    0  0.00000000000E+00  0.00000000000E+00  0.75130912551E+03  0.75130912551E+03  0.00000000000E+00 0. -1.
         -2   -1    0    0    0  501 -0.00000000000E+00 -0.00000000000E+00 -0.86098100928E+02  0.86098100928E+02  0.00000000000E+00 0.  1.
         23    2    1    2    0    0  0.46344255581E+02 -0.27767165169E+02 -0.38434381785E+02  0.11961658610E+03  0.99559632783E+02 0.  0.
         23    2    1    2    0    0 -0.42037831831E+02  0.55885500130E+02  0.56569661075E+03  0.57693945554E+03  0.89197037600E+02 0.  0.
        -13    1    3    3    0    0  0.73620057446E+02 -0.12410453479E+00 -0.31908786313E+02  0.80237764826E+02  0.00000000000E+00 0. -1.
         13    1    3    3    0    0 -0.27275801865E+02 -0.27643060634E+02 -0.65255954720E+01  0.39378821273E+02  0.00000000000E+00 0.  1.
        -13    1    4    4    0    0 -0.27223595491E+02  0.77286699332E+02  0.49210683263E+03  0.49888224339E+03  0.00000000000E+00 0. -1.
         13    1    4    4    0    0 -0.14814236340E+02 -0.21401199202E+02  0.73589778111E+02  0.78057212146E+02  0.00000000000E+00 0.  1.
         21    1    1    2  502  501 -0.43064237501E+01 -0.28118334962E+02  0.13794879562E+03  0.14085118480E+03  0.00000000000E+00 0. -1.
<scales pt_clust_5="13000.00000" pt_clust_6="13000.00000" pt_clust_7="13000.00000" pt_clust_8="13000.00000" pt_clust_9="28.44620"></scales>
<clustering>
<clus scale="   28.446">  1  9  2 -1</clus>
<clus scale="   89.197">  7  8 -1 -1</clus>
<clus scale="   99.560">  5  6 -1 -1</clus>
<clus scale="  104.669">  1  7  2 -1</clus>
<clus scale="   28.446">  1  5  2 -1</clus>
</clustering>
</event>
<event>
 9    1  0.1782981E-005  0.9702881E+02  0.7546771E-02  0.1289658E+00
         -1   -1    0    0    0  501 -0.00000000000E+00  0.00000000000E+00  0.16063463037E+03  0.16063463037E+03  0.00000000000E+00 0.  1.
          1   -1    0    0  502    0  0.00000000000E+00 -0.00000000000E+00 -0.11551016720E+03  0.11551016720E+03  0.00000000000E+00 0. -1.
         23    2    1    2    0    0  0.32472524121E+02 -0.23797086378E+02  0.56684066079E+02  0.11661931866E+03  0.93628072683E+02 0.  0.
         23    2    1    2    0    0 -0.13981123257E+02 -0.13631003489E+01  0.41141656847E+02  0.98268726773E+02  0.88129319090E+02 0.  0.
        -13    1    4    4    0    0 -0.44255669848E+02 -0.64751780452E+01 -0.26281320219E+01  0.44804010114E+02  0.00000000000E+00 0. -1.
         13    1    4    4    0    0  0.30274546591E+02  0.51120776963E+01  0.43769788869E+02  0.53464716658E+02  0.00000000000E+00 0.  1.
        -13    1    3    3    0    0  0.61814914308E+02 -0.30468179723E+02  0.26040466709E+02  0.73671565159E+02  0.00000000000E+00 0.  1.
         13    1    3    3    0    0 -0.29342390187E+02  0.66710933453E+01  0.30643599370E+02  0.42947753499E+02  0.00000000000E+00 0. -1.
         21    1    1    2  502  501 -0.18491400864E+02  0.25160186727E+02 -0.52701259761E+02  0.61256752137E+02  0.00000000000E+00 0. -1.
<scales pt_clust_5="13000.00000" pt_clust_6="13000.00000" pt_clust_7="13000.00000" pt_clust_8="13000.00000" pt_clust_9="31.22446"></scales>
<clustering>
<clus scale="   31.224">  2  9  1 -1</clus>
<clus scale="   88.129">  5  6 -1 -1</clus>
<clus scale="   91.734">  2  5  1 -1</clus>
<clus scale="   93.628">  7  8 -1 -1</clus>
<clus scale="   31.224">  2  5  1 -1</clus>
</clustering>
</event>
<event>
 9    1  0.1782981E-005  0.1167176E+03  0.7546771E-02  0.1249906E+00
         -2   -1    0    0    0  501 -0.00000000000E+00  0.00000000000E+00  0.14373769693E+03  0.14373769693E+03  0.00000000000E+00 0.  1.
          2   -1    0    0  502    0  0.00000000000E+00 -0.00000000000E+00 -0.25017979490E+03  0.25017979490E+03  0.00000000000E+00 0. -1.
         23    2    1    2    0    0 -0.39450383918E+02 -0.43382501131E+02  0.45570700040E+02  0.11723722238E+03  0.90716610466E+02 0.  0.
         23    2    1    2    0    0  0.56773699227E+02  0.66664749196E+02 -0.71912670030E+01  0.12897977461E+03  0.94427889043E+02 0.  0.
        -11    1    4    4    0    0  0.49057451010E+02 -0.11364822743E+02 -0.36830420455E+01  0.50491162536E+02  0.00000000000E+00 0.  1.
         11    1    4    4    0    0  0.77162482175E+01  0.78029571939E+02 -0.35082249575E+01  0.78488612078E+02  0.00000000000E+00 0. -1.
        -13    1    3    3    0    0 -0.22882772157E+02 -0.71439691792E+02  0.36446446285E+02  0.83400205466E+02  0.00000000000E+00 0.  1.
         13    1    3    3    0    0 -0.16567611762E+02  0.28057190661E+02  0.91242537545E+01  0.33837016918E+02  0.00000000000E+00 0. -1.
         21    1    1    2  502  501 -0.17323315309E+02 -0.23282248066E+02 -0.14482153101E+03  0.14770049483E+03  0.00000000000E+00 0. -1.
<scales pt_clust_5="13000.00000" pt_clust_6="13000.00000" pt_clust_7="13000.00000" pt_clust_8="13000.00000" pt_clust_9="29.02000"></scales>
<clustering>
<clus scale="   29.020">  2  9  1 -1</clus>
<clus scale="   90.717">  7  8 -1 -1</clus>
<clus scale="   94.428">  5  6 -1 -1</clus>
<clus scale="  113.736">  1  7  2 -1</clus>
<clus scale="   29.020">  2  5  1 -1</clus>
</clustering>
</event>
<event>
 9    1  0.1782981E-005  0.9719769E+02  0.7546771E-02  0.1290878E+00
          4   -1    0    0  502    0  0.00000000000E+00  0.00000000000E+00  0.25349073236E+03  0.25349073236E+03  0.00000000000E+00 0. -1.
         -4   -1    0    0    0  501 -0.00000000000E+00 -0.00000000000E+00 -0.58524754694E+03  0.58524754694E+03  0.00000000000E+00 0.  1.
         23    2    1    2    0    0 -0.14879879689E+02  0.36391749945E+02 -0.53081502763E+03  0.53880832961E+03  0.83690215773E+02 0.  0.
         23    2    1    2    0    0  0.31124398228E+02  0.19694724483E+01  0.22887493754E+03  0.24870002849E+03  0.92170278026E+02 0.  0.
        -13    1    3    3    0    0  0.16877863226E+02  0.53660560498E+02 -0.33283417950E+03  0.33755430535E+03  0.00000000000E+00 0. -1.
         13    1    3    3    0    0 -0.31757742914E+02 -0.17268810553E+02 -0.19798084813E+03  0.20125402426E+03  0.00000000000E+00 0.  1.
        -13    1    4    4    0    0  0.12521310970E+02 -0.27452322402E+02  0.18346057950E+02  0.35312760809E+02  0.00000000000E+00 0.  1.
         13    1    4    4    0    0  0.18603087257E+02  0.29421794850E+02  0.21052887959E+03  0.21338726769E+03  0.00000000000E+00 0. -1.
         21    1    1    2  502  501 -0.16244518539E+02 -0.38361222393E+02 -0.29816724492E+02  0.51229921194E+02  0.00000000000E+00 0.  1.
<scales pt_clust_5="13000.00000" pt_clust_6="13000.00000" pt_clust_7="13000.00000" pt_clust_8="13000.00000" pt_clust_9="41.65895"></scales>
<clustering>
<clus scale="   41.659">  2  9  1 -1</clus>
<clus scale="   83.690">  5  6 -1 -1</clus>
<clus scale="   89.197">  2  5  1 -1</clus>
<clus scale="   92.170">  7  8 -1 -1</clus>
<clus scale="   97.198">  1  5  2 -1</clus>
</clustering>
</event>
<event>
 9    1  0.1782981E-005  0.1979625E+03  0.7546771E-02  0.1151629E+00
          1   -1    0    0  502    0  0.00000000000E+00  0.00000000000E+00  0.58364235711E+03  0.58364235711E+03  0.00000000000E+00 0. -1.
         -1   -1    0    0    0  501 -0.00000000000E+00 -0.00000000000E+00 -0.39309233458E+03  0.39309233458E+03  0.00000000000E+00 0.  1.
         23    2    1    2    0    0 -0.15410643872E+03 -0.71543665587E+02 -0.31502038772E+03  0.37019801836E+03  0.94559175016E+02 0.  0.
         23    2    1    2    0    0  0.19896447104E+03  0.82349072017E+02  0.23487147699E+03  0.33193348262E+03  0.92989224039E+02 0.  0.
        -11    1    3    3    0    0 -0.14504376293E+03 -0.91404457752E+02 -0.26501415889E+03  0.31563423844E+03  0.00000000000E+00 0.  1.
         11    1    3    3    0    0 -0.90626757870E+01  0.19860792164E+02 -0.50006228829E+02  0.54563779923E+02  0.00000000000E+00 0. -1.
        -13    1    4    4    0    0  0.49246048162E+02  0.15976080419E+02  0.83975547737E+01  0.52449283420E+02  0.00000000000E+00 0.  1.
         13    1    4    4    0    0  0.14971842288E+03  0.66372991598E+02  0.22647392221E+03  0.27948419920E+03  0.00000000000E+00 0. -1.
         21    1    1    2  502  501 -0.44858032320E+02 -0.10805406430E+02  0.27069893327E+03  0.27460319070E+03  0.00000000000E+00 0.  1.
<scales pt_clust_5="13000.00000" pt_clust_6="13000.00000" pt_clust_7="13000.00000" pt_clust_8="13000.00000" pt_clust_9="46.14109"></scales>
<clustering>
<clus scale="   46.141">  1  9  2 -1</clus>
<clus scale="   92.989">  7  8 -1 -1</clus>
<clus scale="   94.559">  5  6 -1 -1</clus>
<clus scale="  197.217">  1  7  2 -1</clus>
<clus scale="   46.141">  1  5  2 -1</clus>
</clustering>
</event>
<event>
 9    1  0.1782981E-005  0.1001092E+03  0.7546771E-02  0.1280447E+00
         -1   -1    0    0    0  501 -0.00000000000E+00  0.00000000000E+00  0.36659971205E+03  0.36659971205E+03  0.00000000000E+00 0.  1.
          1   -1    0    0  502    0  0.00000000000E+00 -0.00000000000E+00 -0.74919185651E+02  0.74919185651E+02  0.00000000000E+00 0. -1.
         23    2    1    2    0    0  0.25788924846E+02  0.26577558048E+02  0.21881721345E+03  0.24012454413E+03  0.91691812928E+02 0.  0.
         23    2    1    2    0    0 -0.51150707281E+02 -0.95249320339E+01  0.11093877555E+03  0.15257066143E+03  0.90902561146E+02 0.  0.
        -11    1    3    3    0    0  0.23621174635E+01  0.39686413473E+02  0.20701782199E+03  0.21080078187E+03  0.00000000000E+00 0.  1.
         11    1    3    3    0    0  0.23426807382E+02 -0.13108855425E+02  0.11799391453E+02  0.29323762264E+02  0.00000000000E+00 0. -1.
        -13    1    4    4    0    0 -0.16415576607E+02 -0.48199566218E+02  0.40686903332E+02  0.65177399777E+02  0.00000000000E+00 0. -1.
         13    1    4    4    0    0 -0.34735130674E+02  0.38674634184E+02  0.70251872213E+02  0.87393261649E+02  0.00000000000E+00 0.  1.
         21    1    1    2  502  501  0.25361782435E+02 -0.17052626014E+02 -0.38075462595E+02  0.48823692139E+02  0.00000000000E+00 0.  1.
<scales pt_clust_5="13000.00000" pt_clust_6="13000.00000" pt_clust_7="13000.00000" pt_clust_8="13000.00000" pt_clust_9="30.56161"></scales>
<clustering>
<clus scale="   30.562">  2  9  1 -1</clus>
<clus scale="   90.903">  7  8 -1 -1</clus>
<clus scale="   91.692">  5  6 -1 -1</clus>
<clus scale="   99.387">  2  7  1 -1</clus>
<clus scale="   30.562">  2  5  1 -1</clus>
</clustering>
</event>
<event>
 9    1  0.1782981E-005  0.1270959E+03  0.7546771E-02  0.1242034E+00
         -2   -1    0    0    0  501 -0.00000000000E+00  0.00000000000E+00  0.19574201286E+02  0.19574201286E+02  0.00000000000E+00 0.  1.
          2   -1    0    0  502    0  0.00000000000E+00 -0.00000000000E+00 -0.93299430250E+03  0.93299430250E+03  0.00000000000E+00 0. -1.
         23    2    1    2    0    0  0.40066871829E+02  0.16453413163E+02 -0.29168143736E+03  0.31717737596E+03  0.11682190676E+03 0.  0.
         23    2    1    2    0    0 -0.51967088519E+02 -0.34190310514E+02 -0.51412663380E+03  0.52567986269E+03  0.90241713383E+02 0.  0.
        -13    1    4    4    0    0 -0.31542618428E+02  0.29102680866E+02 -0.18711786184E+03  0.19197655333E+03  0.00000000000E+00 0. -1.
         13    1    4    4    0    0 -0.20424470091E+02 -0.63292991380E+02 -0.32700877196E+03  0.33370330936E+03  0.00000000000E+00 0.  1.
        -13    1    3    3    0    0  0.21044449310E+02 -0.37279139165E+02 -0.22683966194E+03  0.23084374649E+03  0.00000000000E+00 0. -1.
         13    1    3    3    0    0  0.19022422519E+02  0.53732552328E+02 -0.64841775419E+02  0.86333629471E+02  0.00000000000E+00 0.  1.
         21    1    1    2  502  501  0.11900216690E+02  0.17736897351E+02 -0.10761203005E+03  0.10971126513E+03  0.00000000000E+00 0.  1.
<scales pt_clust_5="13000.00000" pt_clust_6="13000.00000" pt_clust_7="13000.00000" pt_clust_8="13000.00000" pt_clust_9="21.35914"></scales>
<clustering>
<clus scale="   21.359">  2  9  1 -1</clus>
<clus scale="   90.242">  5  6 -1 -1</clus>
<clus scale="  103.197">  2  5  1 -1</clus>
<clus scale="  116.822">  7  8 -1 -1</clus>
<clus scale="   21.359">  2  5  1 -1</clus>
</clustering>
</event>
<event>
 9    1  0.1782981E-005  0.1570104E+03  0.7546771E-02  0.1192544E+00
          1   -1    0    0  502    0  0.00000000000E+00  0.00000000000E+00  0.82520611723E+03  0.82520611723E+03  0.00000000000E+00 0. -1.
         -1   -1    0    0    0  501 -0.00000000000E+00 -0.00000000000E+00 -0.18059822960E+03  0.18059822960E+03  0.00000000000E+00 0.  1.
         23    2    1    2    0    0 -0.51545602029E+02 -0.11348732221E+03 -0.12630148809E+03  0.19881959349E+03  0.89670750356E+02 0.  0.
         23    2    1    2    0    0  0.77708640063E+02  0.14353863576E+03  0.51641553658E+03  0.54939069253E+03  0.92212547500E+02 0.  0.
        -11    1    3    3    0    0 -0.33938584475E+02 -0.89519876093E+02 -0.13706692379E+03  0.16719143916E+03  0.00000000000E+00 0.  1.
         11    1    3    3    0    0 -0.17607017554E+02 -0.23967446121E+02  0.10765435694E+02  0.31628154331E+02  0.00000000000E+00 0. -1.
        -11    1    4    4    0    0  0.90532120421E+02  0.79082353283E+02  0.29899394301E+03  0.32225372207E+03  0.00000000000E+00 0.  1.
         11    1    4    4    0    0 -0.12823480358E+02  0.64456282475E+02  0.21742159357E+03  0.22713697046E+03  0.00000000000E+00 0. -1.
         21    1    1    2  502  501 -0.26163038034E+02 -0.30051313544E+02  0.25449383914E+03  0.25759406082E+03  0.00000000000E+00 0. -1.
<scales pt_clust_5="13000.00000" pt_clust_6="13000.00000" pt_clust_7="13000.00000" pt_clust_8="13000.00000" pt_clust_9="39.84452"></scales>
<clustering>
<clus scale="   39.845">  1  9  2 -1</clus>
<clus scale="   89.671">  5  6 -1 -1</clus>
<clus scale="   92.213">  7  8 -1 -1</clus>
<clus scale="  155.531">  2  5  1 -1</clus>
<clus scale="   39.845">  1  5  2 -1</clus>
</clustering>
</event>
<event>
 9    1  0.1782981E-005  0.1978921E+03  0.7546771E-02  0.1180844E+00
         -3   -1    0    0    0  501 -0.00000000000E+00  0.00000000000E+00  0.15297700264E+03  0.15297700264E+03  0.00000000000E+00 0.  1.
          3   -1    0    0  502    0  0.00000000000E+00 -0.00000000000E+00 -0.40427133812E+03  0.40427133812E+03  0.00000000000E+00 0. -1.
         23    2    1    2    0    0 -0.17338007534E+03  0.49747423239E+02 -0.34698221065E+02  0.20481290108E+03  0.90602987024E+02 0.  0.
         23    2    1    2    0    0  0.22285403628E+02  0.34034712543E+02 -0.11122395556E+03  0.15006859961E+03  0.92167322991E+02 0.  0.
        -11    1    4    4    0    0 -0.21481253591E+02 -0.19024160584E+02 -0.51602888663E+02  0.59044229694E+02  0.00000000000E+00 0.  1.
         11    1    4    4    0    0  0.43766657219E+02  0.53058873127E+02 -0.59621066893E+02  0.91024369918E+02  0.00000000000E+00 0. -1.
        -13    1    3    3    0    0 -0.13758717994E+03  0.73788120409E+02 -0.13333916140E+02  0.15669305063E+03  0.00000000000E+00 0. -1.
         13    1    3    3    0    0 -0.35792895403E+02 -0.24040697170E+02 -0.21364304925E+02  0.48119850443E+02  0.00000000000E+00 0.  1.
         21    1    1    2  502  501  0.15109467171E+03 -0.83782135782E+02 -0.10537215886E+03  0.20236684007E+03  0.00000000000E+00 0.  1.
<scales pt_clust_5="13000.00000" pt_clust_6="13000.00000" pt_clust_7="13000.00000" pt_clust_8="13000.00000" pt_clust_9="175.93293"></scales>
<clustering>
<clus scale="   90.603">  7  8 -1 -1</clus>
<clus scale="   92.167">  5  6 -1 -1</clus>
<clus scale="  100.746">  2  5  1 -1</clus>
<clus scale="  175.933">  2  9  1 -1</clus>
<clus scale="  100.746">  2  5  1 -1</clus>
</clustering>
</event>
<event>
 9    1  0.1985193E-005  0.1532593E+03  0.7546771E-02  0.1199264E+00
          1   -1    0    0  502    0  0.00000000000E+00  0.00000000000E+00  0.27996149952E+03  0.27996149952E+03  0.00000000000E+00 0. -1.
         -1   -1    0    0    0  501 -0.00000000000E+00 -0.00000000000E+00 -0.30937975461E+03  0.30937975461E+03  0.00000000000E+00 0.  1.
         23    2    1    2    0    0  0.17747189196E+02  0.10571269360E+03 -0.24602833680E+03  0.28508951103E+03  0.96207850424E+02 0.  0.
         23    2    1    2    0    0  0.25788491878E+02 -0.11801937149E+03  0.19531607182E+03  0.25424929612E+03  0.10909041344E+03 0.  0.
        -11    1    4    4    0    0  0.13805222697E+02 -0.13818870009E+03  0.16018116977E+03  0.21200167017E+03  0.00000000000E+00 0. -1.
         11    1    4    4    0    0  0.11983269181E+02  0.20169328597E+02  0.35134902050E+02  0.42247625950E+02  0.00000000000E+00 0.  1.
        -13    1    3    3    0    0  0.51703700322E+02  0.81897178206E+02 -0.13176185642E+03  0.16352861289E+03  0.00000000000E+00 0.  1.
         13    1    3    3    0    0 -0.33956511126E+02  0.23815515391E+02 -0.11426648037E+03  0.12156089815E+03  0.00000000000E+00 0. -1.
         21    1    1    2  502  501 -0.43535681075E+02  0.12306677893E+02  0.21294009885E+02  0.50002446984E+02  0.00000000000E+00 0.  1.
<scales pt_clust_5="13000.00000" pt_clust_6="13000.00000" pt_clust_7="13000.00000" pt_clust_8="13000.00000" pt_clust_9="45.24168"></scales>
<clustering>
<clus scale="   45.242">  1  9  2 -1</clus>
<clus scale="   96.208">  7  8 -1 -1</clus>
<clus scale="  109.090">  5  6 -1 -1</clus>
<clus scale="  144.373">  2  7  1 -1</clus>
<clus scale="   45.242">  1  5  2 -1</clus>
</clustering>
</event>
<event>
 9    1  0.1782981E-005  0.1206225E+03  0.7546771E-02  0.1246059E+00
          4   -1    0    0  502    0  0.00000000000E+00  0.00000000000E+00  0.14675900728E+03  0.14675900728E+03  0.00000000000E+00 0. -1.
         -4   -1    0    0    0  501 -0.00000000000E+00 -0.00000000000E+00 -0.15234169335E+03  0.15234169335E+03  0.00000000000E+00 0.  1.
         23    2    1    2    0    0 -0.77396028617E+02 -0.33872468482E+02 -0.34735671537E+02  0.12922571470E+03  0.91406942268E+02 0.  0.
         23    2    1    2    0    0  0.27860849703E+02  0.31811673977E+02 -0.26755210319E+01  0.11095949858E+03  0.10255068193E+03 0.  0.
        -13    1    3    3    0    0 -0.97188043494E+02 -0.23549355388E+02 -0.37356091493E+02  0.10675001409E+03  0.00000000000E+00 0.  1.
         13    1    3    3    0    0  0.19792014876E+02 -0.10323113094E+02  0.26204199558E+01  0.22475700602E+02  0.00000000000E+00 0. -1.
        -13    1    4    4    0    0 -0.13882675338E+02 -0.29987170837E+02  0.11614455342E+02  0.35026485154E+02  0.00000000000E+00 0.  1.
         13    1    4    4    0    0  0.41743525041E+02  0.61798844813E+02 -0.14289976373E+02  0.75933013425E+02  0.00000000000E+00 0. -1.
         21    1    1    2  502  501  0.49535178914E+02  0.20607945054E+01  0.31828506499E+02  0.58915487353E+02  0.00000000000E+00 0. -1.
<scales pt_clust_5="13000.00000" pt_clust_6="13000.00000" pt_clust_7="13000.00000" pt_clust_8="13000.00000" pt_clust_9="49.57803"></scales>
<clustering>
<clus scale="   49.578">  1  9  2 -1</clus>
<clus scale="   91.407">  5  6 -1 -1</clus>
<clus scale="  102.551">  7  8 -1 -1</clus>
<clus scale="  111.303">  2  5  1 -1</clus>
<clus scale="   49.578">  1  5  2 -1</clus>
</clustering>
</event>
<event>
 9    1  0.1782981E-005  0.3091996E+03  0.7546771E-02  0.1080763E+00
         -1   -1    0    0    0  501 -0.00000000000E+00  0.00000000000E+00  0.58292411841E+03  0.58292411841E+03  0.00000000000E+00 0.  1.
          1   -1    0    0  502    0  0.00000000000E+00 -0.00000000000E+00 -0.66296542095E+03  0.66296542095E+03  0.00000000000E+00 0. -1.
         23    2    1    2    0    0 -0.27254583881E+03  0.10148476195E+03  0.40502200561E+03  0.50682006934E+03  0.90792987019E+02 0.  0.
         23    2    1    2    0    0  0.28097565078E+03 -0.14890916408E+03 -0.91931397151E+02  0.34299771504E+03  0.89859864580E+02 0.  0.
        -13    1    3    3    0    0 -0.25590916940E+03  0.64834024462E+02  0.34193377075E+03  0.43198571422E+03  0.00000000000E+00 0.  1.
         13    1    3    3    0    0 -0.16636669409E+02  0.36650737492E+02  0.63088234865E+02  0.74834355119E+02  0.00000000000E+00 0. -1.
        -13    1    4    4    0    0  0.27175001270E+03 -0.12689411390E+03 -0.10242309654E+03  0.31692377041E+03  0.00000000000E+00 0. -1.
         13    1    4    4    0    0  0.92256380746E+01 -0.22015050179E+02  0.10491699390E+02  0.26073944627E+02  0.00000000000E+00 0.  1.
         21    1    1    2  502  501 -0.84298119670E+01  0.47424402122E+02 -0.39313191100E+03  0.39607175498E+03  0.00000000000E+00 0.  1.
<scales pt_clust_5="13000.00000" pt_clust_6="13000.00000" pt_clust_7="13000.00000" pt_clust_8="13000.00000" pt_clust_9="48.16779"></scales>
<clustering>
<clus scale="   48.168">  2  9  1 -1</clus>
<clus scale="   89.860">  7  8 -1 -1</clus>
<clus scale="   90.793">  5  6 -1 -1</clus>
<clus scale="  308.927">  2  7  1 -1</clus>
<clus scale="   48.168">  2  5  1 -1</clus>
</clustering>
</event>
<event>
 9    1  0.1782981E-005  0.2172352E+03  0.7546771E-02  0.1136196E+00
          3   -1    0    0  502    0  0.00000000000E+00  0.00000000000E+00  0.89821258808E+03  0.89821258808E+03  0.00000000000E+00 0. -1.
         -3   -1    0    0    0  501 -0.00000000000E+00 -0.00000000000E+00 -0.24984896637E+03  0.24984896637E+03  0.00000000000E+00 0.  1.
         23    2    1    2    0    0 -0.19602085360E+03 -0.59056400666E+02 -0.17814219381E+03  0.28640894009E+03  0.91562034956E+02 0.  0.
         23    2    1    2    0    0  0.11753205095E+03  0.22758210766E+02  0.44267279486E+03  0.46819888331E+03  0.94441896776E+02 0.  0.
        -11    1    4    4    0    0  0.11090586583E+02  0.28491761136E+02  0.33436446447E+02  0.45307587824E+02  0.00000000000E+00 0. -1.
         11    1    4    4    0    0  0.10644146436E+03 -0.57335503704E+01  0.40923634841E+03  0.42289129549E+03  0.00000000000E+00 0.  1.
        -13    1    3    3    0    0 -0.14369122024E+03  0.74902632799E+00 -0.12806209513E+03  0.19247760395E+03  0.00000000000E+00 0.  1.
         13    1    3    3    0    0 -0.52329633361E+02 -0.59805426994E+02 -0.50080098676E+02  0.93931336140E+02  0.00000000000E+00 0. -1.
         21    1    1    2  502  501  0.78488802653E+02  0.36298189900E+02  0.38383302065E+03  0.39345373105E+03  0.00000000000E+00 0. -1.
<scales pt_clust_5="13000.00000" pt_clust_6="13000.00000" pt_clust_7="13000.00000" pt_clust_8="13000.00000" pt_clust_9="86.47572"></scales>
<clustering>
<clus scale="   86.476">  1  9  2 -1</clus>
<clus scale="   91.562">  7  8 -1 -1</clus>
<clus scale="   94.442">  5  6 -1 -1</clus>
<clus scale="  215.999">  2  7  1 -1</clus>
<clus scale="   86.476">  1  5  2 -1</clus>
</clustering>
</event>
<event>
 9    1  0.1782981E-005  0.1031250E+03  0.7546771E-02  0.1274520E+00
         -2   -1    0    0    0  501 -0.00000000000E+00  0.00000000000E+00  0.95871018756E+02  0.95871018756E+02  0.00000000000E+00 0.  1.
          2   -1    0    0  502    0  0.00000000000E+00 -0.00000000000E+00 -0.22291412287E+03  0.22291412287E+03  0.00000000000E+00 0. -1.
         23    2    1    2    0    0  0.20092496555E+01 -0.49705082177E+02  0.38846575927E+02  0.11180666987E+03  0.92287825237E+02 0.  0.
         23    2    1    2    0    0  0.16640468209E+02  0.31208164388E+02 -0.12855838780E+03  0.16133229640E+03  0.90829489059E+02 0.  0.
        -11    1    4    4    0    0 -0.90648442639E+01 -0.22785460889E+02 -0.81873123545E+02  0.85466701050E+02  0.00000000000E+00 0.  1.
         11    1    4    4    0    0  0.25705312473E+02  0.53993625277E+02 -0.46685264255E+02  0.75865595354E+02  0.00000000000E+00 0. -1.
        -13    1    3    3    0    0 -0.93381498358E+01 -0.67670634147E+02  0.90251371576E+00  0.68317862227E+02  0.00000000000E+00 0.  1.
         13    1    3    3    0    0  0.11347399491E+02  0.17965551971E+02  0.37944062211E+02  0.43488807639E+02  0.00000000000E+00 0. -1.
         21    1    1    2  502  501 -0.18649717865E+02  0.18496917789E+02 -0.37331292242E+02  0.45646175356E+02  0.00000000000E+00 0. -1.
<scales pt_clust_5="13000.00000" pt_clust_6="13000.00000" pt_clust_7="13000.00000" pt_clust_8="13000.00000" pt_clust_9="26.26686"></scales>
<clustering>
<clus scale="   26.267">  2  9  1 -1</clus>
<clus scale="   90.829">  5  6 -1 -1</clus>
<clus scale="   92.288">  7  8 -1 -1</clus>
<clus scale="  101.822">  2  5  1 -1</clus>
<clus scale="   26.267">  2  5  1 -1</clus>
</clustering>
</event>
<event>
 9    1  0.1782981E-005  0.2273318E+03  0.7546771E-02  0.1128843E+00
          1   -1    0    0  502    0  0.00000000000E+00  0.00000000000E+00  0.12930347998E+04  0.12930347998E+04  0.00000000000E+00 0. -1.
         -1   -1    0    0    0  501 -0.00000000000E+00 -0.00000000000E+00 -0.79546965786E+02  0.79546965786E+02  0.00000000000E+00 0.  1.
         23    2    1    2    0    0  0.15102012352E+03 -0.13815995176E+03  0.13609703521E+03  0.26321904627E+03  0.94162696164E+02 0.  0.
         23    2    1    2    0    0 -0.17606203666E+03  0.13056086981E+03  0.99952939363E+03  0.10272211228E+04  0.89890182701E+02 0.  0.
        -11    1    3    3    0    0  0.11545302754E+03 -0.11013265213E+03  0.14665993293E+03  0.21672041565E+03  0.00000000000E+00 0.  1.
         11    1    3    3    0    0  0.35567095976E+02 -0.28027299635E+02 -0.10562897724E+02  0.46498630617E+02  0.00000000000E+00 0. -1.
        -13    1    4    4    0    0 -0.14106988616E+03  0.55973607991E+02  0.56983128123E+03  0.58969606293E+03  0.00000000000E+00 0.  1.
         13    1    4    4    0    0 -0.34992150502E+02  0.74587261816E+02  0.42969811240E+03  0.43752505988E+03  0.00000000000E+00 0. -1.
         21    1    1    2  502  501  0.25041913139E+02  0.75990819526E+01  0.77861405190E+02  0.82141596517E+02  0.00000000000E+00 0.  1.
<scales pt_clust_5="13000.00000" pt_clust_6="13000.00000" pt_clust_7="13000.00000" pt_clust_8="13000.00000" pt_clust_9="26.16951"></scales>
<clustering>
<clus scale="   26.170">  1  9  2 -1</clus>
<clus scale="   89.890">  7  8 -1 -1</clus>
<clus scale="   94.163">  5  6 -1 -1</clus>
<clus scale="  225.596">  1  7  2 -1</clus>
<clus scale="   26.170">  1  5  2 -1</clus>
</clustering>
</event>
<event>
 9    1  0.1782981E-005  0.1009679E+03  0.7546771E-02  0.1278468E+00
          1   -1    0    0  502    0  0.00000000000E+00  0.00000000000E+00  0.18610479129E+03  0.18610479129E+03  0.00000000000E+00 0. -1.
         -1   -1    0    0    0  501 -0.00000000000E+00 -0.00000000000E+00 -0.10873168338E+03  0.10873168338E+03  0.00000000000E+00 0.  1.
         23    2    1    2    0    0 -0.31895439684E+02  0.35485207572E+02 -0.89394797459E+01  0.10486944922E+03  0.92957883215E+02 0.  0.
         23    2    1    2    0    0  0.50416061106E+01 -0.31754297777E+02 -0.78523611990E+00  0.98747077136E+02  0.93362816087E+02 0.  0.
        -11    1    3    3    0    0 -0.51230452248E+02  0.17099244005E+02 -0.37526174154E+02  0.65765926814E+02  0.00000000000E+00 0.  1.
         11    1    3    3    0    0  0.19335012564E+02  0.18385963566E+02  0.28586694408E+02  0.39103522403E+02  0.00000000000E+00 0. -1.
        -11    1    4    4    0    0 -0.33844390472E+01 -0.51534676722E+02  0.31102609593E+02  0.60288055666E+02  0.00000000000E+00 0.  1.
         11    1    4    4    0    0  0.84260451578E+01  0.19780378945E+02 -0.31887845713E+02  0.38459021470E+02  0.00000000000E+00 0. -1.
         21    1    1    2  502  501  0.26853833574E+02 -0.37309097948E+01  0.87097823776E+02  0.91219948323E+02  0.00000000000E+00 0.  1.
<scales pt_clust_5="13000.00000" pt_clust_6="13000.00000" pt_clust_7="13000.00000" pt_clust_8="13000.00000" pt_clust_9="27.11177"></scales>
<clustering>
<clus scale="   27.112">  1  9  2 -1</clus>
<clus scale="   92.958">  5  6 -1 -1</clus>
<clus scale="   93.363">  7  8 -1 -1</clus>
<clus scale="  100.594">  2  5  1 -1</clus>
<clus scale="   27.112">  1  5  2 -1</clus>
</clustering>
</event>
<event>
 9    1  0.1782981E-005  0.9740951E+02  0.7546771E-02  0.1289190E+00
         -1   -1    0    0    0  501 -0.00000000000E+00  0.00000000000E+00  0.42035125393E+03  0.42035125393E+03  0.00000000000E+00 0.  1.
          1   -1    0    0  502    0  0.00000000000E+00 -0.00000000000E+00 -0.20074574332E+03  0.20074574332E+03  0.00000000000E+00 0. -1.
         23    2    1    2    0    0 -0.57155832564E+01  0.15022832578E+02  0.35813695239E+03  0.36975114170E+03  0.90528872348E+02 0.  0.
         23    2    1    2    0    0  0.75358638027E+01  0.14013209761E+02  0.11508806481E+02  0.98511038604E+02  0.96533998203E+02 0.  0.
        -11    1    4    4    0    0 -0.40122138273E+02 -0.14012685835E+02  0.65632503111E+01  0.43002530142E+02  0.00000000000E+00 0. -1.
         11    1    4    4    0    0  0.47658002076E+02  0.28025895596E+02  0.49455561699E+01  0.55508508462E+02  0.00000000000E+00 0.  1.
        -13    1    3    3    0    0 -0.14202421036E+02  0.51950834240E+02  0.22200462296E+03  0.22844397684E+03  0.00000000000E+00 0.  1.
         13    1    3    3    0    0  0.84868377801E+01 -0.36928001662E+02  0.13613232943E+03  0.14130716485E+03  0.00000000000E+00 0. -1.
         21    1    1    2  502  501 -0.18202805463E+01 -0.29036042339E+02 -0.15004024826E+03  0.15283481696E+03  0.00000000000E+00 0. -1.
<scales pt_clust_5="13000.00000" pt_clust_6="13000.00000" pt_clust_7="13000.00000" pt_clust_8="13000.00000" pt_clust_9="29.09304"></scales>
<clustering>
<clus scale="   29.093">  2  9  1 -1</clus>
<clus scale="   90.529">  7  8 -1 -1</clus>
<clus scale="   91.462">  1  7  2 -1</clus>
<clus scale="   96.534">  5  6 -1 -1</clus>
<clus scale="   29.093">  2  5  1 -1</clus>
</clustering>
</event>
<event>
 9    1  0.1782981E-005  0.1043505E+03  0.7546771E-02  0.1275457E+00
         -1   -1    0    0    0  501 -0.00000000000E+00  0.00000000000E+00  0.15951819499E+03  0.15951819499E+03  0.00000000000E+00 0.  1.
          1   -1    0    0  502    0  0.00000000000E+00 -0.00000000000E+00 -0.12926331617E+03  0.12926331617E+03  0.00000000000E+00 0. -1.
         23    2    1    2    0    0  0.10257933341E+01  0.26907847563E+02  0.94024289181E+02  0.13462063423E+03  0.92504398237E+02 0.  0.
         23    2    1    2    0    0 -0.23411597761E+02 -0.26723644085E+02 -0.25355260276E+02  0.10969960055E+03  0.10064222312E+03 0.  0.
        -11    1    4    4    0    0  0.38662254890E+02 -0.16186204836E+02 -0.24303207124E+00  0.41914463431E+02  0.00000000000E+00 0. -1.
         11    1    4    4    0    0 -0.62073852651E+02 -0.10537439250E+02 -0.25112228205E+02  0.67785137119E+02  0.00000000000E+00 0.  1.
        -13    1    3    3    0    0 -0.24627012010E+02 -0.26597049282E+02  0.27644697662E+02  0.45586424074E+02  0.00000000000E+00 0.  1.
         13    1    3    3    0    0  0.25652805344E+02  0.53504896846E+02  0.66379591520E+02  0.89034210160E+02  0.00000000000E+00 0. -1.
         21    1    1    2  502  501  0.22385804427E+02 -0.18420347784E+00 -0.38414150085E+02  0.44461276382E+02  0.00000000000E+00 0. -1.
<scales pt_clust_5="13000.00000" pt_clust_6="13000.00000" pt_clust_7="13000.00000" pt_clust_8="13000.00000" pt_clust_9="22.38656"></scales>
<clustering>
<clus scale="   22.387">  2  9  1 -1</clus>
<clus scale="   92.504">  7  8 -1 -1</clus>
<clus scale="   96.526">  1  7  2 -1</clus>
<clus scale="  100.642">  5  6 -1 -1</clus>
<clus scale="   22.387">  2  5  1 -1</clus>
</clustering>
</event>
<event>
 9    1  0.1782981E-005  0.1068968E+03  0.7546771E-02  0.1269358E+00
         -1   -1    0    0    0  501 -0.00000000000E+00  0.00000000000E+00  0.69086325293E+03  0.69086325293E+03  0.00000000000E+00 0.  1.
          1   -1    0    0  502    0  0.00000000000E+00 -0.00000000000E+00 -0.22775306391E+02  0.22775306391E+02  0.00000000000E+00 0. -1.
         23    2    1    2    0    0  0.38960886296E+02 -0.30475797211E+02  0.32302727294E+03  0.34061286226E+03  0.96040501847E+02 0.  0.
         23    2    1    2    0    0 -0.50140891414E+02 -0.96095177425E+00  0.29945432585E+03  0.31651728481E+03  0.89416250698E+02 0.  0.
        -11    1    3    3    0    0  0.27038349559E+02  0.32685034910E+02  0.10310297957E+03  0.11148815296E+03  0.00000000000E+00 0. -1.
         11    1    3    3    0    0  0.11922536737E+02 -0.63160832121E+02  0.21992429337E+03  0.22912470930E+03  0.00000000000E+00 0.  1.
        -13    1    4    4    0    0 -0.28450955848E+02 -0.42579378238E+02  0.10999246166E+03  0.12132931205E+03  0.00000000000E+00 0.  1.
         13    1    4    4    0    0 -0.21689935566E+02  0.41618426464E+02  0.18946186420E+03  0.19518797276E+03  0.00000000000E+00 0. -1.
         21    1    1    2  502  501  0.11180005118E+02  0.31436748985E+02  0.45606347744E+02  0.56508412257E+02  0.00000000000E+00 0.  1.
<scales pt_clust_5="13000.00000" pt_clust_6="13000.00000" pt_clust_7="13000.00000" pt_clust_8="13000.00000" pt_clust_9="33.36558"></scales>
<clustering>
<clus scale="   33.366">  2  9  1 -1</clus>
<clus scale="   89.416">  7  8 -1 -1</clus>
<clus scale="   96.041">  5  6 -1 -1</clus>
<clus scale="  100.987">  2  7  1 -1</clus>
<clus scale="   33.366">  2  5  1 -1</clus>
</clustering>
</event>
<event>
 9    1  0.1782981E-005  0.1973738E+03  0.7546771E-02  0.1152069E+00
          2   -1    0    0  502    0  0.00000000000E+00  0.00000000000E+00  0.10486674598E+04  0.10486674598E+04  0.00000000000E+00 0. -1.
         -2   -1    0    0    0  501 -0.00000000000E+00 -0.00000000000E+00 -0.70065161193E+02  0.70065161193E+02  0.00000000000E+00 0.  1.
         23    2    1    2    0    0 -0.12882226004E+03  0.12648256102E+03  0.13089673249E+03  0.24039095986E+03  0.89782214744E+02 0.  0.
         23    2    1    2    0    0  0.83422351985E+02 -0.13487995307E+03  0.70828701252E+03  0.73147709450E+03  0.90754377975E+02 0.  0.
        -11    1    3    3    0    0 -0.43041223276E+02  0.86290352465E+02  0.10419630191E+03  0.14196986004E+03  0.00000000000E+00 0. -1.
         11    1    3    3    0    0 -0.85781036763E+02  0.40192208554E+02  0.26700430582E+02  0.98421099821E+02  0.00000000000E+00 0.  1.
        -13    1    4    4    0    0  0.59295835676E+02 -0.10389101441E+03  0.65175727095E+03  0.66264385550E+03  0.00000000000E+00 0. -1.
         13    1    4    4    0    0  0.24126516309E+02 -0.30988938657E+02  0.56529741571E+02  0.68833238994E+02  0.00000000000E+00 0.  1.
         21    1    1    2  502  501  0.45399908054E+02  0.83973920490E+01  0.13941855362E+03  0.14686456666E+03  0.00000000000E+00 0.  1.
<scales pt_clust_5="13000.00000" pt_clust_6="13000.00000" pt_clust_7="13000.00000" pt_clust_8="13000.00000" pt_clust_9="46.16999"></scales>
<clustering>
<clus scale="   46.170">  1  9  2 -1</clus>
<clus scale="   89.782">  5  6 -1 -1</clus>
<clus scale="   90.754">  7  8 -1 -1</clus>
<clus scale="  196.929">  2  5  1 -1</clus>
<clus scale="   46.170">  1  5  2 -1</clus>
</clustering>
</event>
<event>
 9    1  0.1782981E-005  0.1246687E+03  0.7546771E-02  0.1236246E+00
         -1   -1    0    0    0  501 -0.00000000000E+00  0.00000000000E+00  0.79317653053E+02  0.79317653053E+02  0.00000000000E+00 0.  1.
          1   -1    0    0  502    0  0.00000000000E+00 -0.00000000000E+00 -0.31675336415E+03  0.31675336415E+03  0.00000000000E+00 0. -1.
         23    2    1    2    0    0 -0.78876757966E+02  0.68935606056E+02 -0.47045953860E+02  0.14765489852E+03  0.92816951864E+02 0.  0.
         23    2    1    2    0    0  0.46091010164E+02 -0.30772534894E+02 -0.10513310827E+03  0.14942106096E+03  0.90566842074E+02 0.  0.
        -11    1    4    4    0    0  0.68273131583E+02 -0.39108754529E+02 -0.61869205193E+02  0.10009252584E+03  0.00000000000E+00 0.  1.
         11    1    4    4    0    0 -0.22182121419E+02  0.83362196351E+01 -0.43263903076E+02  0.49328535128E+02  0.00000000000E+00 0. -1.
        -11    1    3    3    0    0 -0.28064755722E+02  0.35828487212E+02 -0.69423857425E+02  0.83011944860E+02  0.00000000000E+00 0. -1.
         11    1    3    3    0    0 -0.50812002243E+02  0.33107118844E+02  0.22377903565E+02  0.64642953661E+02  0.00000000000E+00 0.  1.
         21    1    1    2  502  501  0.32785747802E+02 -0.38163071162E+02 -0.85256648971E+02  0.98995057721E+02  0.00000000000E+00 0. -1.
<scales pt_clust_5="13000.00000" pt_clust_6="13000.00000" pt_clust_7="13000.00000" pt_clust_8="13000.00000" pt_clust_9="50.31228"></scales>
<clustering>
<clus scale="   50.312">  2  9  1 -1</clus>
<clus scale="   90.567">  5  6 -1 -1</clus>
<clus scale="   92.817">  7  8 -1 -1</clus>
<clus scale="  123.003">  2  5  1 -1</clus>
<clus scale="   50.312">  2  5  1 -1</clus>
</clustering>
</event>
<event>
 9    1  0.1782981E-005  0.1148514E+03  0.7546771E-02  0.1252748E+00
         -1   -1    0    0    0  501 -0.00000000000E+00  0.00000000000E+00  0.30877768370E+03  0.30877768370E+03  0.00000000000E+00 0.  1.
          1   -1    0    0  502    0  0.00000000000E+00 -0.00000000000E+00 -0.82110537902E+02  0.82110537902E+02  0.00000000000E+00 0. -1.
         23    2    1    2    0    0 -0.41195143049E+02 -0.75396356279E+02  0.18795427120E+03  0.22541413721E+03  0.90017080826E+02 0.  0.
         23    2    1    2    0    0  0.17316172816E+02  0.47276347043E+02  0.65174255057E+02  0.12007425186E+03  0.87379858126E+02 0.  0.
        -13    1    4    4    0    0  0.14898394400E+02  0.72007273231E+02  0.59489753999E+02  0.94583510110E+02  0.00000000000E+00 0.  1.
         13    1    4    4    0    0  0.24177784157E+01 -0.24730926187E+02  0.56845010586E+01  0.25490741748E+02  0.00000000000E+00 0. -1.
        -13    1    3    3    0    0  0.22701742980E+02 -0.51388057713E+02  0.84938211735E+02  0.10183614988E+03  0.00000000000E+00 0.  1.
         13    1    3    3    0    0 -0.63896886029E+02 -0.24008298566E+02  0.10301605946E+03  0.12357798732E+03  0.00000000000E+00 0. -1.
         21    1    1    2  502  501  0.23878970233E+02  0.28120009236E+02 -0.26461380456E+02  0.45399832538E+02  0.00000000000E+00 0.  1.
<scales pt_clust_5="13000.00000" pt_clust_6="13000.00000" pt_clust_7="13000.00000" pt_clust_8="13000.00000" pt_clust_9="36.89092"></scales>
<clustering>
<clus scale="   36.891">  2  9  1 -1</clus>
<clus scale="   87.380">  5  6 -1 -1</clus>
<clus scale="   90.017">  7  8 -1 -1</clus>
<clus scale="  112.796">  2  5  1 -1</clus>
<clus scale="   36.891">  2  5  1 -1</clus>
</clustering>
</event>
<event>
 9    1  0.1782981E-005  0.1053405E+03  0.7546771E-02  0.1274033E+00
         -1   -1    0    0    0  501 -0.00000000000E+00  0.00000000000E+00  0.72174768330E+03  0.72174768330E+03  0.00000000000E+00 0.  1.
          1   -1    0    0  502    0  0.00000000000E+00 -0.00000000000E+00 -0.36077668937E+02  0.36077668937E+02  0.00000000000E+00 0. -1.
         23    2    1    2    0    0 -0.10717845069E+02  0.16641974303E+01  0.22156692576E+03  0.24032218238E+03  0.92440288823E+02 0.  0.
         23    2    1    2    0    0  0.85483039033E+02 -0.44946630191E+02  0.36307207181E+03  0.38457285139E+03  0.82142553930E+02 0.  0.
        -13    1    3    3    0    0  0.39131218605E+02 -0.32945006429E+01  0.13177011600E+03  0.13749716170E+03  0.00000000000E+00 0. -1.
         13    1    3    3    0    0 -0.49849063674E+02  0.49586980732E+01  0.89796809765E+02  0.10282502069E+03  0.00000000000E+00 0.  1.
        -13    1    4    4    0    0  0.29450930397E+02 -0.54496221201E+02  0.25555906206E+03  0.26295936878E+03  0.00000000000E+00 0.  1.
         13    1    4    4    0    0  0.56032108636E+02  0.95495910097E+01  0.10751300975E+03  0.12161348261E+03  0.00000000000E+00 0. -1.
         21    1    1    2  502  501 -0.74765193963E+02  0.43282432761E+02  0.10103101678E+03  0.13293031846E+03  0.00000000000E+00 0.  1.
<scales pt_clust_5="13000.00000" pt_clust_6="13000.00000" pt_clust_7="13000.00000" pt_clust_8="13000.00000" pt_clust_9="86.38983"></scales>
<clustering>
<clus scale="   82.143">  7  8 -1 -1</clus>
<clus scale="   86.390">  2  9  1 -1</clus>
<clus scale="   92.440">  5  6 -1 -1</clus>
<clus scale="   96.430">  2  7  1 -1</clus>
<clus scale="   86.390">  2  5  1 -1</clus>
</clustering>
</event>
<event>
 9    1  0.1782981E-005  0.1795873E+03  0.7546771E-02  0.1185865E+00
         -1   -1    0    0    0  501 -0.00000000000E+00  0.00000000000E+00  0.22297148223E+03  0.22297148223E+03  0.00000000000E+00 0.  1.
          1   -1    0    0  502    0  0.00000000000E+00 -0.00000000000E+00 -0.26560462570E+03  0.26560462570E+03  0.00000000000E+00 0. -1.
         23    2    1    2    0    0  0.79350144986E+02  0.82151956274E+01  0.28096146587E+02  0.12372338891E+03  0.90300324263E+02 0.  0.
         23    2    1    2    0    0 -0.15375099352E+03 -0.12247262504E+03 -0.16884050386E+02  0.21825955316E+03  0.93344788259E+02 0.  0.
        -11    1    3    3    0    0  0.46996950964E+02 -0.36104968221E+02  0.34343260395E+02  0.68496289422E+02  0.00000000000E+00 0.  1.
         11    1    3    3    0    0  0.32353194023E+02  0.44320163848E+02 -0.62471138076E+01  0.55227099488E+02  0.00000000000E+00 0. -1.
        -13    1    4    4    0    0 -0.20740084021E+02  0.15383029598E+02 -0.52052095019E+01  0.26341656948E+02  0.00000000000E+00 0. -1.
         13    1    4    4    0    0 -0.13301090950E+03 -0.13785565464E+03 -0.11678840884E+02  0.19191789622E+03  0.00000000000E+00 0.  1.
         21    1    1    2  502  501  0.74400848538E+02  0.11425742942E+03 -0.53845239674E+02  0.14659316586E+03  0.00000000000E+00 0. -1.
<scales pt_clust_5="13000.00000" pt_clust_6="13000.00000" pt_clust_7="13000.00000" pt_clust_8="13000.00000" pt_clust_9="153.42215"></scales>
<clustering>
<clus scale="   90.300">  5  6 -1 -1</clus>
<clus scale="   93.345">  7  8 -1 -1</clus>
<clus scale="  120.491">  1  5  2 -1</clus>
<clus scale="  153.422">  2  9  1 -1</clus>
<clus scale="  153.422">  2  5  1 -1</clus>
</clustering>
</event>
<event>
 9    1  0.1782981E-005  0.1472770E+03  0.7546771E-02  0.1209447E+00
          2   -1    0    0  502    0  0.00000000000E+00  0.00000000000E+00  0.10097773897E+04  0.10097773897E+04  0.00000000000E+00 0.  1.
         -2   -1    0    0    0  501 -0.00000000000E+00 -0.00000000000E+00 -0.40046482032E+02  0.40046482032E+02  0.00000000000E+00 0. -1.
         23    2    1    2    0    0  0.12093920547E+03  0.98332180750E+02  0.52183796190E+03  0.54931964249E+03  0.71705661945E+02 0.  0.
         23    2    1    2    0    0 -0.69461761616E+02 -0.10800157311E+02  0.26098330912E+03  0.28779081964E+03  0.98841734638E+02 0.  0.
        -11    1    3    3    0    0  0.11437821523E+03  0.56276737035E+02  0.42074603920E+03  0.43963243369E+03  0.00000000000E+00 0. -1.
         11    1    3    3    0    0  0.65609902386E+01  0.42055443715E+02  0.10109192270E+03  0.10968720880E+03  0.00000000000E+00 0.  1.
        -13    1    4    4    0    0 -0.45576681454E+02  0.34702402462E+02  0.19999756985E+03  0.20803970432E+03  0.00000000000E+00 0.  1.
         13    1    4    4    0    0 -0.23885080161E+02 -0.45502559773E+02  0.60985739267E+02  0.79751115316E+02  0.00000000000E+00 0. -1.
         21    1    1    2  502  501 -0.51477443855E+02 -0.87532023438E+02  0.18690963668E+03  0.21271340963E+03  0.00000000000E+00 0.  1.
<scales pt_clust_5="13000.00000" pt_clust_6="13000.00000" pt_clust_7="13000.00000" pt_clust_8="13000.00000" pt_clust_9="101.54695"></scales>
<clustering>
<clus scale="   71.706">  5  6 -1 -1</clus>
<clus scale="   98.842">  7  8 -1 -1</clus>
<clus scale="  101.547">  2  9  1 -1</clus>
<clus scale="  130.624">  2  5  1 -1</clus>
<clus scale="  147.277">  1  5  2 -1</clus>
</clustering>
</event>
<event>
 9    1  0.1782981E-005  0.1207718E+03  0.7546771E-02  0.1242304E+00
         -1   -1    0    0    0  501 -0.00000000000E+00  0.00000000000E+00  0.58716103304E+03  0.58716103304E+03  0.00000000000E+00 0.  1.
          1   -1    0    0  502    0  0.00000000000E+00 -0.00000000000E+00 -0.15424902648E+03  0.15424902648E+03  0.00000000000E+00 0. -1.
         23    2    1    2    0    0  0.57285348220E+02 -0.54699035497E+02  0.54647440540E+03  0.55958265894E+03  0.90691128657E+02 0.  0.
         23    2    1    2    0    0 -0.35364183504E+02  0.49927503362E+02 -0.65016671936E+02  0.12834850210E+03  0.92210570408E+02 0.  0.
        -11    1    3    3    0    0 -0.98133088188E-01 -0.60355832049E+02  0.22375051405E+03  0.23174798517E+03  0.00000000000E+00 0. -1.
         11    1    3    3    0    0  0.57383481308E+02  0.56567965512E+01  0.32272389135E+03  0.32783467376E+03  0.00000000000E+00 0.  1.
        -11    1    4    4    0    0 -0.30000445018E+02  0.50019452606E+01 -0.75939778408E+02  0.81804010307E+02  0.00000000000E+00 0. -1.
         11    1    4    4    0    0 -0.53637384864E+01  0.44925558101E+02  0.10923106473E+02  0.46544491793E+02  0.00000000000E+00 0.  1.
         21    1    1    2  502  501 -0.21921164716E+02  0.47715321357E+01 -0.48545726911E+02  0.53478898481E+02  0.00000000000E+00 0.  1.
<scales pt_clust_5="13000.00000" pt_clust_6="13000.00000" pt_clust_7="13000.00000" pt_clust_8="13000.00000" pt_clust_9="22.43446"></scales>
<clustering>
<clus scale="   22.434">  2  9  1 -1</clus>
<clus scale="   90.691">  5  6 -1 -1</clus>
<clus scale="   92.211">  7  8 -1 -1</clus>
<clus scale="  119.616">  1  5  2 -1</clus>
<clus scale="   22.434">  2  5  1 -1</clus>
</clustering>
</event>
<event>
 9    1  0.1782981E-005  0.9781037E+02  0.7546771E-02  0.1286838E+00
         -1   -1    0    0    0  501 -0.00000000000E+00  0.00000000000E+00  0.32063150097E+03  0.32063150097E+03  0.00000000000E+00 0.  1.
          1   -1    0    0  502    0  0.00000000000E+00 -0.00000000000E+00 -0.47450417853E+02  0.47450417853E+02  0.00000000000E+00 0. -1.
         23    2    1    2    0    0  0.27114582494E+02  0.26771567400E+01  0.20894899615E+03  0.22871794961E+03  0.88937335953E+02 0.  0.
         23    2    1    2    0    0 -0.44397848489E+02 -0.13080531261E+02  0.55206275808E+02  0.11726404270E+03  0.92524880835E+02 0.  0.
        -11    1    4    4    0    0  0.10900147762E+02  0.29512108574E+02  0.28750305926E+02  0.42618750152E+02  0.00000000000E+00 0.  1.
         11    1    4    4    0    0 -0.55297996251E+02 -0.42592639834E+02  0.26455969882E+02  0.74645292549E+02  0.00000000000E+00 0. -1.
        -13    1    3    3    0    0  0.20777753878E+02 -0.42384921182E+02  0.11567376840E+03  0.12493445200E+03  0.00000000000E+00 0. -1.
         13    1    3    3    0    0  0.63368286158E+01  0.45062077922E+02  0.93275227750E+02  0.10378349761E+03  0.00000000000E+00 0.  1.
         21    1    1    2  502  501  0.17283265995E+02  0.10403374521E+02  0.90258111516E+01  0.22099926511E+02  0.00000000000E+00 0.  1.
<scales pt_clust_5="13000.00000" pt_clust_6="13000.00000" pt_clust_7="13000.00000" pt_clust_8="13000.00000" pt_clust_9="20.17279"></scales>
<clustering>
<clus scale="   20.173">  2  9  1 -1</clus>
<clus scale="   88.937">  7  8 -1 -1</clus>
<clus scale="   92.525">  5  6 -1 -1</clus>
<clus scale="   94.424">  1  7  2 -1</clus>
<clus scale="   20.173">  2  5  1 -1</clus>
</clustering>
</event>
<event>
 9    1  0.1782981E-005  0.9583602E+02  0.7546771E-02  0.1291916E+00
         -2   -1    0    0    0  501 -0.00000000000E+00  0.00000000000E+00  0.57332593455E+02  0.57332593455E+02  0.00000000000E+00 0.  1.
          2   -1    0    0  502    0  0.00000000000E+00 -0.00000000000E+00 -0.37421299102E+03  0.37421299102E+03  0.00000000000E+00 0. -1.
         23    2    1    2    0    0 -0.30318736354E+02  0.21856155827E+02 -0.29500163999E+02  0.10342461193E+03  0.91812163434E+02 0.  0.
         23    2    1    2    0    0  0.70753654139E+01 -0.11619825906E+02 -0.79384149860E+02  0.11858002767E+03  0.87030446189E+02 0.  0.
        -11    1    4    4    0    0 -0.29550747657E+02  0.20856714750E+02 -0.19030745809E+02  0.40870753887E+02  0.00000000000E+00 0.  1.
         11    1    4    4    0    0  0.36626113071E+02 -0.32476540656E+02 -0.60353404052E+02  0.77709273785E+02  0.00000000000E+00 0. -1.
        -13    1    3    3    0    0 -0.26952797488E+02 -0.32184268447E+02 -0.25532253787E+02  0.49134269215E+02  0.00000000000E+00 0. -1.
         13    1    3    3    0    0 -0.33659388654E+01  0.54040424274E+02 -0.39679102117E+01  0.54290342710E+02  0.00000000000E+00 0.  1.
         21    1    1    2  502  501  0.23243370940E+02 -0.10236329921E+02 -0.20799608370E+03  0.20954094488E+03  0.00000000000E+00 0. -1.
<scales pt_clust_5="13000.00000" pt_clust_6="13000.00000" pt_clust_7="13000.00000" pt_clust_8="13000.00000" pt_clust_9="25.39757"></scales>
<clustering>
<clus scale="   25.398">  2  9  1 -1</clus>
<clus scale="   87.030">  5  6 -1 -1</clus>
<clus scale="   91.265">  2  5  1 -1</clus>
<clus scale="   91.812">  7  8 -1 -1</clus>
<clus scale="   25.398">  2  5  1 -1</clus>
</clustering>
</event>
<event>
 9    1  0.1782981E-005  0.1284601E+03  0.7546771E-02  0.1230660E+00
         -1   -1    0    0    0  501 -0.00000000000E+00  0.00000000000E+00  0.42685514202E+02  0.42685514202E+02  0.00000000000E+00 0.  1.
          1   -1    0    0  502    0  0.00000000000E+00 -0.00000000000E+00 -0.10479266979E+04  0.10479266979E+04  0.00000000000E+00 0. -1.
         23    2    1    2    0    0 -0.60265892633E+02 -0.21814537071E+02 -0.18219415539E+03  0.21437636595E+03  0.93030447574E+02 0.  0.
         23    2    1    2    0    0  0.13186564459E+03 -0.42175205687E+02 -0.28185511517E+03  0.32659059829E+03  0.89731915965E+02 0.  0.
        -13    1    4    4    0    0  0.85218206956E+02 -0.18522199274E+02 -0.80945203467E+02  0.11898462349E+03  0.00000000000E+00 0.  1.
         13    1    4    4    0    0  0.46647437637E+02 -0.23653006412E+02 -0.20090991170E+03  0.20760597480E+03  0.00000000000E+00 0. -1.
        -13    1    3    3    0    0 -0.18633949245E+02 -0.52618626440E+02 -0.61585127982E+02  0.83118420952E+02  0.00000000000E+00 0.  1.
         13    1    3    3    0    0 -0.41631943388E+02  0.30804089369E+02 -0.12060902741E+03  0.13125794500E+03  0.00000000000E+00 0. -1.
         21    1    1    2  502  501 -0.71599751960E+02  0.63989742758E+02 -0.54119191317E+03  0.54964524790E+03  0.00000000000E+00 0. -1.
<scales pt_clust_5="13000.00000" pt_clust_6="13000.00000" pt_clust_7="13000.00000" pt_clust_8="13000.00000" pt_clust_9="96.02714"></scales>
<clustering>
<clus scale="   89.732">  5  6 -1 -1</clus>
<clus scale="   93.030">  7  8 -1 -1</clus>
<clus scale="   96.027">  2  9  1 -1</clus>
<clus scale="  126.092">  2  5  1 -1</clus>
<clus scale="   96.027">  2  5  1 -1</clus>
</clustering>
</event>
<event>
 9    1  0.1782981E-005  0.1082609E+03  0.7546771E-02  0.1267964E+00
          1   -1    0    0  502    0  0.00000000000E+00  0.00000000000E+00  0.47823801175E+03  0.47823801175E+03  0.00000000000E+00 0. -1.
         -1   -1    0    0    0  501 -0.00000000000E+00 -0.00000000000E+00 -0.51620237883E+02  0.51620237883E+02  0.00000000000E+00 0.  1.
         23    2    1    2    0    0  0.34367619092E+02 -0.14948551329E+02  0.21809355675E+02  0.10092888157E+03  0.91139446520E+02 0.  0.
         23    2    1    2    0    0 -0.48988431103E+02  0.34386735107E+02  0.31721010012E+03  0.33801690213E+03  0.10025400029E+03 0.  0.
        -11    1    3    3    0    0 -0.35180536418E+01  0.33151142420E+02 -0.56714870476E+01  0.33816278779E+02  0.00000000000E+00 0.  1.
         11    1    3    3    0    0  0.37885672734E+02 -0.48099693748E+02  0.27480842723E+02  0.67112602795E+02  0.00000000000E+00 0. -1.
        -13    1    4    4    0    0 -0.55343408538E+02  0.62866402529E+02  0.26824043166E+03  0.28101246701E+03  0.00000000000E+00 0.  1.
         13    1    4    4    0    0  0.63549774349E+01 -0.28479667421E+02  0.48969668460E+02  0.57004435123E+02  0.00000000000E+00 0. -1.
         21    1    1    2  502  501  0.14620812011E+02 -0.19438183779E+02  0.87598318069E+02  0.90912465927E+02  0.00000000000E+00 0. -1.
<scales pt_clust_5="13000.00000" pt_clust_6="13000.00000" pt_clust_7="13000.00000" pt_clust_8="13000.00000" pt_clust_9="24.32306"></scales>
<clustering>
<clus scale="   24.323">  1  9  2 -1</clus>
<clus scale="   91.139">  5  6 -1 -1</clus>
<clus scale="   99.880">  2  5  1 -1</clus>
<clus scale="  100.254">  7  8 -1 -1</clus>
<clus scale="   24.323">  1  5  2 -1</clus>
</clustering>
</event>
<event>
 9    1  0.1782981E-005  0.1164340E+03  0.7546771E-02  0.1249545E+00
         -1   -1    0    0    0  501 -0.00000000000E+00  0.00000000000E+00  0.25605482346E+03  0.25605482346E+03  0.00000000000E+00 0.  1.
          1   -1    0    0  502    0  0.00000000000E+00 -0.00000000000E+00 -0.22922970299E+03  0.22922970299E+03  0.00000000000E+00 0. -1.
         23    2    1    2    0    0 -0.49733578022E+02 -0.65142510715E+02  0.17091972785E+03  0.21046695147E+03  0.91464795453E+02 0.  0.
         23    2    1    2    0    0  0.26656699306E+02  0.43702843844E+02  0.21823236403E+02  0.10593615939E+03  0.90142653846E+02 0.  0.
        -11    1    3    3    0    0 -0.89812431314E+01 -0.65225398272E+02  0.49448055697E+02  0.82341517597E+02  0.00000000000E+00 0. -1.
         11    1    3    3    0    0 -0.40752334891E+02  0.82887556257E-01  0.12147167215E+03  0.12812543387E+03  0.00000000000E+00 0.  1.
        -13    1    4    4    0    0  0.35951175731E+02  0.23623193517E+02 -0.28063641154E+02  0.51362537546E+02  0.00000000000E+00 0. -1.
         13    1    4    4    0    0 -0.92944764251E+01  0.20079650326E+02  0.49886877557E+02  0.54573621849E+02  0.00000000000E+00 0.  1.
         21    1    1    2  502  501  0.23076878716E+02  0.21439666872E+02 -0.16591784378E+03  0.16888141559E+03  0.00000000000E+00 0. -1.
<scales pt_clust_5="13000.00000" pt_clust_6="13000.00000" pt_clust_7="13000.00000" pt_clust_8="13000.00000" pt_clust_9="31.49923"></scales>
<clustering>
<clus scale="   31.499">  2  9  1 -1</clus>
<clus scale="   90.143">  7  8 -1 -1</clus>
<clus scale="   91.465">  5  6 -1 -1</clus>
<clus scale="  115.398">  2  7  1 -1</clus>
<clus scale="   31.499">  2  5  1 -1</clus>
</clustering>
</event>
<event>
 9    1  0.1782981E-005  0.1372705E+03  0.7546771E-02  0.1217285E+00
         -2   -1    0    0    0  501 -0.00000000000E+00  0.00000000000E+00  0.14142667137E+03  0.14142667137E+03  0.00000000000E+00 0.  1.
          2   -1    0    0  502    0  0.00000000000E+00 -0.00000000000E+00 -0.43027939159E+03  0.43027939159E+03  0.00000000000E+00 0. -1.
         23    2    1    2    0    0 -0.21923359073E+02  0.11241385416E+03  0.49536338607E+02  0.15432359291E+03  0.90798756631E+02 0.  0.
         23    2    1    2    0    0  0.38270740872E+02 -0.71398759057E+02 -0.61551089054E+02  0.13704564331E+03  0.91817968746E+02 0.  0.
        -13    1    4    4    0    0 -0.25395361245E+02 -0.26631349567E+02  0.15770433022E+01  0.36832597222E+02  0.00000000000E+00 0.  1.
         13    1    4    4    0    0  0.63666102118E+02 -0.44767409490E+02 -0.63128132356E+02  0.10021304609E+03  0.00000000000E+00 0. -1.
        -13    1    3    3    0    0 -0.53423942981E+02  0.47110745706E+02  0.38552003052E+02  0.80992573634E+02  0.00000000000E+00 0.  1.
         13    1    3    3    0    0  0.31500583908E+02  0.65303108457E+02  0.10984335556E+02  0.73331019278E+02  0.00000000000E+00 0. -1.
         21    1    1    2  502  501 -0.16347381800E+02 -0.41015095106E+02 -0.27683796978E+03  0.28033682674E+03  0.00000000000E+00 0. -1.
<scales pt_clust_5="13000.00000" pt_clust_6="13000.00000" pt_clust_7="13000.00000" pt_clust_8="13000.00000" pt_clust_9="44.15286"></scales>
<clustering>
<clus scale="   44.153">  2  9  1 -1</clus>
<clus scale="   90.799">  7  8 -1 -1</clus>
<clus scale="   91.818">  5  6 -1 -1</clus>
<clus scale="  136.591">  1  7  2 -1</clus>
<clus scale="   44.153">  2  5  1 -1</clus>
</clustering>
</event>
<event>
 9    1  0.1782981E-005  0.1241466E+03  0.7546771E-02  0.1236431E+00
          2   -1    0    0  502    0  0.00000000000E+00  0.00000000000E+00  0.46146048981E+03  0.46146048981E+03  0.00000000000E+00 0. -1.
         -2   -1    0    0    0  501 -0.00000000000E+00 -0.00000000000E+00 -0.76767643431E+02  0.76767643431E+02  0.00000000000E+00 0.  1.
         23    2    1    2    0    0 -0.67371366261E+02 -0.46260838044E+02  0.97858449726E+01  0.12472678971E+03  0.93712556161E+02 0.  0.
         23    2    1    2    0    0  0.78255325270E+02  0.26262493575E+02  0.19127946988E+03  0.22846765827E+03  0.93787103463E+02 0.  0.
        -11    1    3    3    0    0 -0.70252919439E+02 -0.26247436216E+02  0.42549906044E+02  0.86225837787E+02  0.00000000000E+00 0. -1.
         11    1    3    3    0    0  0.28815531780E+01 -0.20013401828E+02 -0.32764061072E+02  0.38500951928E+02  0.00000000000E+00 0.  1.
        -11    1    4    4    0    0  0.98543721228E+02  0.30859668855E+02  0.14819315216E+03  0.18062224254E+03  0.00000000000E+00 0. -1.
         11    1    4    4    0    0 -0.20288395958E+02 -0.45971752800E+01  0.43086317728E+02  0.47845415731E+02  0.00000000000E+00 0.  1.
         21    1    1    2  502  501 -0.10883959009E+02  0.19998344469E+02  0.18362753152E+03  0.18503368525E+03  0.00000000000E+00 0.  1.
<scales pt_clust_5="13000.00000" pt_clust_6="13000.00000" pt_clust_7="13000.00000" pt_clust_8="13000.00000" pt_clust_9="22.76827"></scales>
<clustering>
<clus scale="   22.768">  1  9  2 -1</clus>
<clus scale="   93.713">  5  6 -1 -1</clus>
<clus scale="   93.787">  7  8 -1 -1</clus>
<clus scale="  124.090">  2  5  1 -1</clus>
<clus scale="   22.768">  1  5  2 -1</clus>
</clustering>
</event>
<event>
 9    1  0.1782981E-005  0.9358908E+02  0.7546771E-02  0.1295199E+00
          2   -1    0    0  502    0  0.00000000000E+00  0.00000000000E+00  0.76824643032E+02  0.76824643032E+02  0.00000000000E+00 0. -1.
         -2   -1    0    0    0  501 -0.00000000000E+00 -0.00000000000E+00 -0.23243675351E+03  0.23243675351E+03  0.00000000000E+00 0.  1.
         23    2    1    2    0    0 -0.10056200588E+00  0.18375890565E+02 -0.16328134665E+03  0.18779625890E+03  0.90933784842E+02 0.  0.
         23    2    1    2    0    0  0.19153163610E+02  0.59949041779E+00  0.53643080290E+01  0.94476632588E+02  0.92357215416E+02 0.  0.
        -11    1    4    4    0    0  0.22124701155E+02 -0.34492879728E+02 -0.24977350415E+02  0.47990928173E+02  0.00000000000E+00 0.  1.
         11    1    4    4    0    0 -0.29715375451E+01  0.35092370146E+02  0.30341658444E+02  0.46485704415E+02  0.00000000000E+00 0. -1.
        -11    1    3    3    0    0  0.36474129560E+02  0.28700550818E+02 -0.49588718559E+02  0.67919987874E+02  0.00000000000E+00 0.  1.
         11    1    3    3    0    0 -0.36574691566E+02 -0.10324660253E+02 -0.11369262809E+03  0.11987627103E+03  0.00000000000E+00 0. -1.
         21    1    1    2  502  501 -0.19052601604E+02 -0.18975380983E+02  0.23049281444E+01  0.26988505054E+02  0.00000000000E+00 0. -1.
<scales pt_clust_5="13000.00000" pt_clust_6="13000.00000" pt_clust_7="13000.00000" pt_clust_8="13000.00000" pt_clust_9="26.88990"></scales>
<clustering>
<clus scale="   26.890">  1  9  2 -1</clus>
<clus scale="   90.934">  7  8 -1 -1</clus>
<clus scale="   92.185">  2  7  1 -1</clus>
<clus scale="   92.357">  5  6 -1 -1</clus>
<clus scale="   26.890">  1  5  2 -1</clus>
</clustering>
</event>
<event>
 9    1  0.1782981E-005  0.2353697E+03  0.7546771E-02  0.1123299E+00
         -1   -1    0    0    0  501 -0.00000000000E+00  0.00000000000E+00  0.19120997529E+03  0.19120997529E+03  0.00000000000E+00 0.  1.
          1   -1    0    0  502    0  0.00000000000E+00 -0.00000000000E+00 -0.39194515336E+03  0.39194515336E+03  0.00000000000E+00 0. -1.
         23    2    1    2    0    0 -0.23403582164E+03 -0.46265641880E+02  0.94616506483E+00  0.25294467902E+03  0.84064498986E+02 0.  0.
         23    2    1    2    0    0  0.20631701881E+03  0.31642046552E+02 -0.19155435876E+03  0.29727509807E+03  0.90063756361E+02 0.  0.
        -13    1    4    4    0    0  0.76109154530E+02  0.28148607443E+02 -0.12990573719E+03  0.15316803863E+03  0.00000000000E+00 0. -1.
         13    1    4    4    0    0  0.13020786428E+03  0.34934391095E+01 -0.61648621576E+02  0.14410705944E+03  0.00000000000E+00 0.  1.
        -13    1    3    3    0    0 -0.49632389615E+02  0.23953221707E+02  0.68616558140E+01  0.55535693474E+02  0.00000000000E+00 0. -1.
         13    1    3    3    0    0 -0.18440343202E+03 -0.70218863587E+02 -0.59154907492E+01  0.19740898555E+03  0.00000000000E+00 0.  1.
         21    1    1    2  502  501  0.27718802823E+02  0.14623595328E+02 -0.10126984372E+02  0.32935351565E+02  0.00000000000E+00 0.  1.
<scales pt_clust_5="13000.00000" pt_clust_6="13000.00000" pt_clust_7="13000.00000" pt_clust_8="13000.00000" pt_clust_9="31.33978"></scales>
<clustering>
<clus scale="   31.340">  1  9  2 -1</clus>
<clus scale="   84.064">  7  8 -1 -1</clus>
<clus scale="   90.064">  5  6 -1 -1</clus>
<clus scale="  233.140">  1  7  2 -1</clus>
<clus scale="  235.370">  2  5  1 -1</clus>
</clustering>
</event>
<event>
 9    1  0.1782981E-005  0.1084396E+03  0.7546771E-02  0.1263744E+00
         -2   -1    0    0    0  501 -0.00000000000E+00  0.00000000000E+00  0.65855401204E+02  0.65855401204E+02  0.00000000000E+00 0.  1.
          2   -1    0    0  502    0  0.00000000000E+00 -0.00000000000E+00 -0.63650034738E+03  0.63650034738E+03  0.00000000000E+00 0. -1.
         23    2    1    2    0    0  0.48770279598E+02  0.84282099600E+01 -0.60326033598E+02  0.11988300850E+03  0.91011705301E+02 0.  0.
         23    2    1    2    0    0 -0.45758677465E+02 -0.62274708931E+02 -0.69923477328E+02  0.13878742977E+03  0.91655125582E+02 0.  0.
        -11    1    3    3    0    0  0.70546095470E+02 -0.52651973915E+01 -0.62053538010E+02  0.94101623096E+02  0.00000000000E+00 0.  1.
         11    1    3    3    0    0 -0.21775815872E+02  0.13693407351E+02  0.17275044125E+01  0.25781385403E+02  0.00000000000E+00 0. -1.
        -13    1    4    4    0    0 -0.14845228678E+02 -0.22000861142E+02 -0.82347604967E+02  0.86519054256E+02  0.00000000000E+00 0. -1.
         13    1    4    4    0    0 -0.30913448786E+02 -0.40273847789E+02  0.12424127639E+02  0.52268375517E+02  0.00000000000E+00 0.  1.
         21    1    1    2  502  501 -0.30116021339E+01  0.53846498971E+02 -0.44039543525E+03  0.44368531032E+03  0.00000000000E+00 0. -1.
<scales pt_clust_5="13000.00000" pt_clust_6="13000.00000" pt_clust_7="13000.00000" pt_clust_8="13000.00000" pt_clust_9="53.93065"></scales>
<clustering>
<clus scale="   53.931">  2  9  1 -1</clus>
<clus scale="   91.012">  5  6 -1 -1</clus>
<clus scale="   91.655">  7  8 -1 -1</clus>
<clus scale="  107.896">  1  5  2 -1</clus>
<clus scale="   53.931">  2  5  1 -1</clus>
</clustering>
</event>
<event>
 9    1  0.1782981E-005  0.1280972E+03  0.7546771E-02  0.1235678E+00
          3   -1    0    0  502    0  0.00000000000E+00  0.00000000000E+00  0.54029704141E+03  0.54029704141E+03  0.00000000000E+00 0. -1.
         -3   -1    0    0    0  501 -0.00000000000E+00 -0.00000000000E+00 -0.36226941150E+02  0.36226941150E+02  0.00000000000E+00 0.  1.
         23    2    1    2    0    0  0.93313948663E+02  0.34635229601E+02  0.19191223243E+03  0.22997757067E+03  0.78436508771E+02 0.  0.
         23    2    1    2    0    0 -0.64583645131E+02 -0.33803630540E+02  0.26238425754E+03  0.28907003258E+03  0.96965212695E+02 0.  0.
        -11    1    4    4    0    0 -0.29105214243E+02 -0.40544079669E+01  0.79296710009E+01  0.30437335663E+02  0.00000000000E+00 0.  1.
         11    1    4    4    0    0 -0.35478430888E+02 -0.29749222574E+02  0.25445458654E+03  0.25863269692E+03  0.00000000000E+00 0. -1.
        -11    1    3    3    0    0  0.65586503262E+02 -0.16476129595E+02  0.11711617291E+03  0.13523775439E+03  0.00000000000E+00 0.  1.
         11    1    3    3    0    0  0.27727445402E+02  0.51111359196E+02  0.74796059522E+02  0.94739816273E+02  0.00000000000E+00 0. -1.
         21    1    1    2  502  501 -0.28730303532E+02 -0.83159906061E+00  0.49773610284E+02  0.57476379311E+02  0.00000000000E+00 0. -1.
<scales pt_clust_5="13000.00000" pt_clust_6="13000.00000" pt_clust_7="13000.00000" pt_clust_8="13000.00000" pt_clust_9="28.74234"></scales>
<clustering>
<clus scale="   28.742">  2  9  1 -1</clus>
<clus scale="   78.437">  7  8 -1 -1</clus>
<clus scale="   96.965">  5  6 -1 -1</clus>
<clus scale="  114.712">  2  7  1 -1</clus>
<clus scale="  128.097">  1  5  2 -1</clus>
</clustering>
</event>
<event>
 9    1  0.1782981E-005  0.1410239E+03  0.7546771E-02  0.1212697E+00
          1   -1    0    0  502    0  0.00000000000E+00  0.00000000000E+00  0.10773127518E+03  0.10773127518E+03  0.00000000000E+00 0. -1.
         -1   -1    0    0    0  501 -0.00000000000E+00 -0.00000000000E+00 -0.37025713209E+03  0.37025713209E+03  0.00000000000E+00 0.  1.
         23    2    1    2    0    0  0.10137139277E+03  0.16576076084E+02 -0.25902747961E+03  0.29328852448E+03  0.91498621978E+02 0.  0.
         23    2    1    2    0    0 -0.12521665920E+03 -0.30843014590E+02  0.28760700959E+01  0.15619065894E+03  0.88072395618E+02 0.  0.
        -11    1    4    4    0    0 -0.70436877744E+02  0.75643642622E+01 -0.35313489078E+02  0.79155643285E+02  0.00000000000E+00 0. -1.
         11    1    4    4    0    0 -0.54779781457E+02 -0.38407378852E+02  0.38189559174E+02  0.77035015653E+02  0.00000000000E+00 0.  1.
        -13    1    3    3    0    0  0.90102006119E+02 -0.25916721582E+01 -0.25529680045E+03  0.27074257994E+03  0.00000000000E+00 0.  1.
         13    1    3    3    0    0  0.11269386651E+02  0.19167748243E+02 -0.37306791656E+01  0.22545944540E+02  0.00000000000E+00 0. -1.
         21    1    1    2  502  501  0.23845266431E+02  0.14266938506E+02 -0.63744473935E+01  0.28509223859E+02  0.00000000000E+00 0.  1.
<scales pt_clust_5="13000.00000" pt_clust_6="13000.00000" pt_clust_7="13000.00000" pt_clust_8="13000.00000" pt_clust_9="27.78745"></scales>
<clustering>
<clus scale="   27.787">  1  9  2 -1</clus>
<clus scale="   88.072">  5  6 -1 -1</clus>
<clus scale="   91.499">  7  8 -1 -1</clus>
<clus scale="  138.825">  1  5  2 -1</clus>
<clus scale="   27.787">  1  5  2 -1</clus>
</clustering>
</event>
<event>
 9    1  0.1782981E-005  0.1701895E+03  0.7546771E-02  0.1177950E+00
         -1   -1    0    0    0  501 -0.00000000000E+00  0.00000000000E+00  0.10721204373E+03  0.10721204373E+03  0.00000000000E+00 0.  1.
          1   -1    0    0  502    0  0.00000000000E+00 -0.00000000000E+00 -0.45546845865E+03  0.45546845865E+03  0.00000000000E+00 0. -1.
         23    2    1    2    0    0  0.14036925521E+03 -0.63610597185E+02 -0.48378676201E+02  0.18636325514E+03  0.92956606404E+02 0.  0.
         23    2    1    2    0    0 -0.10112007369E+03  0.97988048715E+02 -0.26508123399E+03  0.31360278187E+03  0.90838962952E+02 0.  0.
        -11    1    4    4    0    0 -0.44137193114E+02  0.87535771985E+02 -0.21772223835E+03  0.23877515840E+03  0.00000000000E+00 0. -1.
         11    1    4    4    0    0 -0.56982880573E+02  0.10452276729E+02 -0.47358995633E+02  0.74827623473E+02  0.00000000000E+00 0.  1.
        -13    1    3    3    0    0  0.58218223188E+02  0.13890250110E+02 -0.42242336798E+02  0.73257870413E+02  0.00000000000E+00 0. -1.
         13    1    3    3    0    0  0.82151032024E+02 -0.77500847295E+02 -0.61363394035E+01  0.11310538473E+03  0.00000000000E+00 0.  1.
         21    1    1    2  502  501 -0.39249181525E+02 -0.34377451529E+02 -0.34796504736E+02  0.62714465364E+02  0.00000000000E+00 0.  1.
<scales pt_clust_5="13000.00000" pt_clust_6="13000.00000" pt_clust_7="13000.00000" pt_clust_8="13000.00000" pt_clust_9="52.17574"></scales>
<clustering>
<clus scale="   52.176">  1  9  2 -1</clus>
<clus scale="   90.839">  5  6 -1 -1</clus>
<clus scale="   92.957">  7  8 -1 -1</clus>
<clus scale="  169.042">  2  5  1 -1</clus>
<clus scale="  169.042">  2  5  1 -1</clus>
</clustering>
</event>
<event>
 9    1  0.1782981E-005  0.1146071E+03  0.7546771E-02  0.1253246E+00
          4   -1    0    0  502    0  0.00000000000E+00  0.00000000000E+00  0.94202688570E+02  0.94202688570E+02  0.00000000000E+00 0. -1.
         -4   -1    0    0    0  501 -0.00000000000E+00 -0.00000000000E+00 -0.16997050603E+03  0.16997050603E+03  0.00000000000E+00 0.  1.
         23    2    1    2    0    0  0.19412380715E+02  0.74580534285E+02 -0.56736605292E+02  0.13333612431E+03  0.92846017943E+02 0.  0.
         23    2    1    2    0    0 -0.12894569843E+02 -0.54859158462E+02 -0.25089731698E+02  0.10920098511E+03  0.90108619529E+02 0.  0.
        -11    1    3    3    0    0 -0.10754780380E+02  0.76493696319E+02 -0.66125833056E+02  0.10168370899E+03  0.00000000000E+00 0.  1.
         11    1    3    3    0    0  0.30167161096E+02 -0.19131620343E+01  0.93892277640E+01  0.31652415319E+02  0.00000000000E+00 0. -1.
        -13    1    4    4    0    0 -0.46035387176E+00  0.24088534835E+02  0.34468501927E+01  0.24338245878E+02  0.00000000000E+00 0.  1.
         13    1    4    4    0    0 -0.12434215971E+02 -0.78947693297E+02 -0.28536581890E+02  0.84862739231E+02  0.00000000000E+00 0. -1.
         21    1    1    2  502  501 -0.65178108721E+01 -0.19721375823E+02  0.60585195295E+01  0.21636085177E+02  0.00000000000E+00 0.  1.
<scales pt_clust_5="13000.00000" pt_clust_6="13000.00000" pt_clust_7="13000.00000" pt_clust_8="13000.00000" pt_clust_9="20.77052"></scales>
<clustering>
<clus scale="   20.771">  1  9  2 -1</clus>
<clus scale="   90.109">  7  8 -1 -1</clus>
<clus scale="   92.846">  5  6 -1 -1</clus>
<clus scale="  112.401">  1  7  2 -1</clus>
<clus scale="   20.771">  1  5  2 -1</clus>
</clustering>
</event>
<event>
 9    1  0.1782981E-005  0.9520527E+02  0.7546771E-02  0.1291707E+00
          1   -1    0    0  502    0  0.00000000000E+00  0.00000000000E+00  0.63601563211E+02  0.63601563211E+02  0.00000000000E+00 0. -1.
         -1   -1    0    0    0  501 -0.00000000000E+00 -0.00000000000E+00 -0.25378593870E+03  0.25378593870E+03  0.00000000000E+00 0.  1.
         23    2    1    2    0    0  0.24653003914E+02 -0.18580909904E+02 -0.12935411974E+03  0.16146016371E+03  0.91563504499E+02 0.  0.
         23    2    1    2    0    0 -0.44433336855E+01 -0.23732950388E+02 -0.36492870966E+02  0.10309551217E+03  0.93348587832E+02 0.  0.
        -11    1    4    4    0    0  0.26548786249E+02 -0.43081582263E+02 -0.42481151355E+02  0.66071998623E+02  0.00000000000E+00 0. -1.
         11    1    4    4    0    0 -0.30992119934E+02  0.19348631875E+02  0.59882803893E+01  0.37023513549E+02  0.00000000000E+00 0.  1.
        -11    1    3    3    0    0 -0.21090632150E+02 -0.33151756194E+02 -0.24942007454E+02  0.46539847862E+02  0.00000000000E+00 0.  1.
         11    1    3    3    0    0  0.45743636065E+02  0.14570846290E+02 -0.10441211229E+03  0.11492031585E+03  0.00000000000E+00 0. -1.
         21    1    1    2  502  501 -0.20209670229E+02  0.42313860292E+02 -0.24337384779E+02  0.52831826027E+02  0.00000000000E+00 0.  1.
<scales pt_clust_5="13000.00000" pt_clust_6="13000.00000" pt_clust_7="13000.00000" pt_clust_8="13000.00000" pt_clust_9="46.89236"></scales>
<clustering>
<clus scale="   46.892">  1  9  2 -1</clus>
<clus scale="   91.564">  7  8 -1 -1</clus>
<clus scale="   93.349">  5  6 -1 -1</clus>
<clus scale="   93.456">  2  7  1 -1</clus>
<clus scale="   46.892">  1  5  2 -1</clus>
</clustering>
</event>
<event>
 9    1  0.1782981E-005  0.1396542E+03  0.7546771E-02  0.1216404E+00
          4   -1    0    0  502    0  0.00000000000E+00  0.00000000000E+00  0.33144148555E+02  0.33144148555E+02  0.00000000000E+00 0. -1.
         -4   -1    0    0    0  501 -0.00000000000E+00 -0.00000000000E+00 -0.10358370388E+04  0.10358370388E+04  0.00000000000E+00 0.  1.
         23    2    1    2    0    0  0.76861280645E+02  0.58301522604E+02 -0.40247153016E+03  0.42481845242E+03  0.95815765541E+02 0.  0.
         23    2    1    2    0    0 -0.10118789706E+03  0.19412600663E+02 -0.44475083099E+03  0.46865673892E+03  0.10592449052E+03 0.  0.
        -11    1    3    3    0    0  0.40811931004E+02  0.80380519261E+02 -0.22512853811E+03  0.24250670147E+03  0.00000000000E+00 0.  1.
         11    1    3    3    0    0  0.36049349641E+02 -0.22078996657E+02 -0.17734299205E+03  0.18231175095E+03  0.00000000000E+00 0. -1.
        -11    1    4    4    0    0  0.21936041337E+02 -0.14156695554E+01 -0.49810129706E+02  0.54444862486E+02  0.00000000000E+00 0.  1.
         11    1    4    4    0    0 -0.12312393840E+03  0.20828270218E+02 -0.39494070129E+03  0.41421187644E+03  0.00000000000E+00 0. -1.
         21    1    1    2  502  501  0.24326616414E+02 -0.77714123267E+02 -0.15547052910E+03  0.17550599602E+03  0.00000000000E+00 0. -1.
<scales pt_clust_5="13000.00000" pt_clust_6="13000.00000" pt_clust_7="13000.00000" pt_clust_8="13000.00000" pt_clust_9="81.43261"></scales>
<clustering>
<clus scale="   81.433">  1  9  2 -1</clus>
<clus scale="   95.816">  5  6 -1 -1</clus>
<clus scale="  105.924">  7  8 -1 -1</clus>
<clus scale="  132.151">  2  5  1 -1</clus>
<clus scale="   81.433">  1  5  2 -1</clus>
</clustering>
</event>
<event>
 9    1  0.1782981E-005  0.2335938E+03  0.7546771E-02  0.1124431E+00
          1   -1    0    0  502    0  0.00000000000E+00  0.00000000000E+00  0.95207730373E+02  0.95207730373E+02  0.00000000000E+00 0. -1.
         -1   -1    0    0    0  501 -0.00000000000E+00 -0.00000000000E+00 -0.66116494203E+03  0.66116494203E+03  0.00000000000E+00 0.  1.
         23    2    1    2    0    0 -0.13937740553E+03 -0.16499436944E+03 -0.32454947934E+03  0.40046338799E+03  0.91593435669E+02 0.  0.
         23    2    1    2    0    0  0.12228915382E+03  0.17570138412E+03 -0.24338867059E+03  0.33564669263E+03  0.87149548342E+02 0.  0.
        -11    1    4    4    0    0  0.87602462821E+02  0.72803698741E+02 -0.78955033213E+02  0.13859461502E+03  0.00000000000E+00 0. -1.
         11    1    4    4    0    0  0.34686691002E+02  0.10289768538E+03 -0.16443363738E+03  0.19705207761E+03  0.00000000000E+00 0.  1.
        -13    1    3    3    0    0 -0.11763970948E+03 -0.71578408775E+02 -0.20911151191E+03  0.25038009957E+03  0.00000000000E+00 0.  1.
         13    1    3    3    0    0 -0.21737696055E+02 -0.93415960664E+02 -0.11543796743E+03  0.15008328841E+03  0.00000000000E+00 0. -1.
         21    1    1    2  502  501  0.17088251707E+02 -0.10707014680E+02  0.19809382687E+01  0.20262591793E+02  0.00000000000E+00 0. -1.
<scales pt_clust_5="13000.00000" pt_clust_6="13000.00000" pt_clust_7="13000.00000" pt_clust_8="13000.00000" pt_clust_9="20.16553"></scales>
<clustering>
<clus scale="   20.166">  1  9  2 -1</clus>
<clus scale="   87.150">  5  6 -1 -1</clus>
<clus scale="   91.593">  7  8 -1 -1</clus>
<clus scale="  231.887">  1  5  2 -1</clus>
<clus scale="   20.166">  1  5  2 -1</clus>
</clustering>
</event>
<event>
 9    1  0.1782981E-005  0.1277072E+03  0.7546771E-02  0.1231012E+00
         -1   -1    0    0    0  501 -0.00000000000E+00  0.00000000000E+00  0.63848131491E+03  0.63848131491E+03  0.00000000000E+00 0.  1.
          1   -1    0    0  502    0  0.00000000000E+00 -0.00000000000E+00 -0.50186378007E+02  0.50186378007E+02  0.00000000000E+00 0. -1.
         23    2    1    2    0    0  0.54144501733E+02 -0.83132695769E+02  0.43452210508E+03  0.45497738126E+03  0.91390839176E+02 0.  0.
         23    2    1    2    0    0 -0.55299742666E+02  0.47235929691E+02  0.15931686937E+03  0.19734958039E+03  0.90970860286E+02 0.  0.
        -13    1    4    4    0    0 -0.73272813903E+01  0.64709160592E+02  0.82340532480E+02  0.10498060681E+03  0.00000000000E+00 0.  1.
         13    1    4    4    0    0 -0.47972461275E+02 -0.17473230902E+02  0.76976336893E+02  0.92368973581E+02  0.00000000000E+00 0. -1.
        -13    1    3    3    0    0  0.57939778735E+02 -0.21133232496E+02  0.30697584924E+03  0.31310989044E+03  0.00000000000E+00 0.  1.
         13    1    3    3    0    0 -0.37952770016E+01 -0.61999463273E+02  0.12754625584E+03  0.14186749082E+03  0.00000000000E+00 0. -1.
         21    1    1    2  502  501  0.11552409324E+01  0.35896766078E+02 -0.55440375467E+01  0.36340731264E+02  0.00000000000E+00 0.  1.
<scales pt_clust_5="13000.00000" pt_clust_6="13000.00000" pt_clust_7="13000.00000" pt_clust_8="13000.00000" pt_clust_9="35.91535"></scales>
<clustering>
<clus scale="   35.915">  2  9  1 -1</clus>
<clus scale="   90.971">  5  6 -1 -1</clus>
<clus scale="   91.391">  7  8 -1 -1</clus>
<clus scale="  127.407">  2  5  1 -1</clus>
<clus scale="   35.915">  2  5  1 -1</clus>
</clustering>
</event>
<event>
 9    1  0.1782981E-005  0.1066826E+03  0.7546771E-02  0.1267230E+00
          1   -1    0    0  502    0  0.00000000000E+00  0.00000000000E+00  0.17320503511E+03  0.17320503511E+03  0.00000000000E+00 0. -1.
         -1   -1    0    0    0  501 -0.00000000000E+00 -0.00000000000E+00 -0.18380936332E+03  0.18380936332E+03  0.00000000000E+00 0.  1.
         23    2    1    2    0    0 -0.29415694629E+02  0.54055935921E+02 -0.12569749677E+03  0.16786753594E+03  0.92694776722E+02 0.  0.
         23    2    1    2    0    0  0.21879952922E+02 -0.14264185510E+02  0.39251378517E+02  0.10316926121E+03  0.91766150705E+02 0.  0.
        -13    1    4    4    0    0  0.55719326845E+02  0.38002882003E+01  0.15150997001E+02  0.57867419889E+02  0.00000000000E+00 0.  1.
         13    1    4    4    0    0 -0.33839373923E+02 -0.18064473711E+02  0.24100381516E+02  0.45301841322E+02  0.00000000000E+00 0. -1.
        -13    1    3    3    0    0 -0.17389511438E+02  0.22026740311E+02 -0.13035298602E+03  0.13333969162E+03  0.00000000000E+00 0.  1.
         13    1    3    3    0    0 -0.12026183190E+02  0.32029195609E+02  0.46554892525E+01  0.34527844324E+02  0.00000000000E+00 0. -1.
         21    1    1    2  502  501  0.75357417064E+01 -0.39791750410E+02  0.75841790048E+02  0.85977601277E+02  0.00000000000E+00 0. -1.
<scales pt_clust_5="13000.00000" pt_clust_6="13000.00000" pt_clust_7="13000.00000" pt_clust_8="13000.00000" pt_clust_9="40.49902"></scales>
<clustering>
<clus scale="   40.499">  1  9  2 -1</clus>
<clus scale="   91.766">  5  6 -1 -1</clus>
<clus scale="   92.695">  7  8 -1 -1</clus>
<clus scale="  105.877">  1  5  2 -1</clus>
<clus scale="   40.499">  1  5  2 -1</clus>
</clustering>
</event>
<event>
 9    1  0.1782981E-005  0.1289100E+03  0.7546771E-02  0.1231520E+00
         -1   -1    0    0    0  501 -0.00000000000E+00  0.00000000000E+00  0.40047531836E+03  0.40047531836E+03  0.00000000000E+00 0.  1.
          1   -1    0    0  502    0  0.00000000000E+00 -0.00000000000E+00 -0.18134513869E+03  0.18134513869E+03  0.00000000000E+00 0. -1.
         23    2    1    2    0    0  0.43447063644E+02  0.48739901960E+02  0.18620445432E+03  0.22089532589E+03  0.99294616203E+02 0.  0.
         23    2    1    2    0    0 -0.45876042742E+02 -0.10065560158E+03  0.16530964740E+03  0.21870472960E+03  0.90930290876E+02 0.  0.
        -11    1    4    4    0    0  0.21443488504E+02  0.24403287204E+00  0.31432318805E+02  0.38050931878E+02  0.00000000000E+00 0.  1.
         11    1    4    4    0    0 -0.67319531246E+02 -0.10089963445E+03  0.13387732859E+03  0.18065379772E+03  0.00000000000E+00 0. -1.
        -11    1    3    3    0    0  0.25092369532E+02  0.76645022784E+02  0.10014181828E+03  0.12857865412E+03  0.00000000000E+00 0.  1.
         11    1    3    3    0    0  0.18354694112E+02 -0.27905120824E+02  0.86062636041E+02  0.92316671768E+02  0.00000000000E+00 0. -1.
         21    1    1    2  502  501  0.24289790979E+01  0.51915699621E+02 -0.13238392204E+03  0.14222040157E+03  0.00000000000E+00 0. -1.
<scales pt_clust_5="13000.00000" pt_clust_6="13000.00000" pt_clust_7="13000.00000" pt_clust_8="13000.00000" pt_clust_9="51.97249"></scales>
<clustering>
<clus scale="   51.972">  2  9  1 -1</clus>
<clus scale="   90.930">  5  6 -1 -1</clus>
<clus scale="   99.295">  7  8 -1 -1</clus>
<clus scale="  122.583">  2  5  1 -1</clus>
<clus scale="   51.972">  2  5  1 -1</clus>
</clustering>
</event>
<event>
 9    1  0.1782981E-005  0.1289129E+03  0.7546771E-02  0.1230208E+00
         -1   -1    0    0    0  501 -0.00000000000E+00  0.00000000000E+00  0.43446809778E+02  0.43446809778E+02  0.00000000000E+00 0.  1.
          1   -1    0    0  502    0  0.00000000000E+00 -0.00000000000E+00 -0.46587828232E+03  0.46587828232E+03  0.00000000000E+00 0. -1.
         23    2    1    2    0    0  0.68644179600E+02  0.46169498466E+02 -0.13554974170E+03  0.18168102370E+03  0.88264465765E+02 0.  0.
         23    2    1    2    0    0 -0.79355517105E+02 -0.63339552798E+02 -0.23866807486E+03  0.27535544497E+03  0.92460662294E+02 0.  0.
        -11    1    4    4    0    0 -0.33399222925E+02  0.13322189959E+02 -0.25140050729E+02  0.43874947156E+02  0.00000000000E+00 0.  1.
         11    1    4    4    0    0 -0.45956294181E+02 -0.76661742758E+02 -0.21352802414E+03  0.23148049781E+03  0.00000000000E+00 0. -1.
        -13    1    3    3    0    0  0.31534903166E+02  0.63062180070E+02 -0.48565543772E+02  0.85614839337E+02  0.00000000000E+00 0.  1.
         13    1    3    3    0    0  0.37109276434E+02 -0.16892681604E+02 -0.86984197925E+02  0.96066184362E+02  0.00000000000E+00 0. -1.
         21    1    1    2  502  501  0.10711337506E+02  0.17170054332E+02 -0.48213655977E+02  0.52288623425E+02  0.00000000000E+00 0.  1.
<scales pt_clust_5="13000.00000" pt_clust_6="13000.00000" pt_clust_7="13000.00000" pt_clust_8="13000.00000" pt_clust_9="20.23718"></scales>
<clustering>
<clus scale="   20.237">  2  9  1 -1</clus>
<clus scale="   88.264">  7  8 -1 -1</clus>
<clus scale="   92.461">  5  6 -1 -1</clus>
<clus scale="  125.937">  1  7  2 -1</clus>
<clus scale="   20.237">  2  5  1 -1</clus>
</clustering>
</event>
<event>
 9    1  0.1782981E-005  0.1686472E+03  0.7546771E-02  0.1179457E+00
          2   -1    0    0  502    0  0.00000000000E+00  0.00000000000E+00  0.91258953126E+03  0.91258953126E+03  0.00000000000E+00 0. -1.
         -2   -1    0    0    0  501 -0.00000000000E+00 -0.00000000000E+00 -0.62125891254E+02  0.62125891254E+02  0.00000000000E+00 0.  1.
         23    2    1    2    0    0  0.12653340240E+03  0.46256082083E+02  0.10926521048E+03  0.19573635150E+03  0.90683548807E+02 0.  0.
         23    2    1    2    0    0 -0.16930910132E+03 -0.34270017257E+02  0.57780329901E+03  0.60965277405E+03  0.89329987629E+02 0.  0.
        -11    1    3    3    0    0  0.46308730218E+02  0.65141751678E+02  0.51180021041E+02  0.94907011647E+02  0.00000000000E+00 0. -1.
         11    1    3    3    0    0  0.80224672180E+02 -0.18885669595E+02  0.58085189442E+02  0.10082933985E+03  0.00000000000E+00 0.  1.
        -13    1    4    4    0    0 -0.13298236009E+02 -0.35540686243E+02  0.96430933503E+02  0.10362870450E+03  0.00000000000E+00 0.  1.
         13    1    4    4    0    0 -0.15601086531E+03  0.12706689855E+01  0.48137236550E+03  0.50602406955E+03  0.00000000000E+00 0. -1.
         21    1    1    2  502  501  0.42775698919E+02 -0.11986064825E+02  0.16339513052E+03  0.16932629697E+03  0.00000000000E+00 0. -1.
<scales pt_clust_5="13000.00000" pt_clust_6="13000.00000" pt_clust_7="13000.00000" pt_clust_8="13000.00000" pt_clust_9="44.42326"></scales>
<clustering>
<clus scale="   44.423">  1  9  2 -1</clus>
<clus scale="   89.330">  7  8 -1 -1</clus>
<clus scale="   90.684">  5  6 -1 -1</clus>
<clus scale="  167.923">  1  7  2 -1</clus>
<clus scale="   44.423">  1  5  2 -1</clus>
</clustering>
</event>
<event>
 9    1  0.1782981E-005  0.9876063E+02  0.7546771E-02  0.1292008E+00
         -2   -1    0    0    0  501 -0.00000000000E+00  0.00000000000E+00  0.37480671446E+02  0.37480671446E+02  0.00000000000E+00 0.  1.
          2   -1    0    0  502    0  0.00000000000E+00 -0.00000000000E+00 -0.36622985956E+03  0.36622985956E+03  0.00000000000E+00 0. -1.
         23    2    1    2    0    0  0.25293194758E+02 -0.14327286811E+02 -0.54247023476E+02  0.99278850980E+02  0.77900794909E+02 0.  0.
         23    2    1    2    0    0 -0.36657442890E+02 -0.10870661792E+02 -0.19010467853E+03  0.21562279302E+03  0.94294542073E+02 0.  0.
        -11    1    4    4    0    0 -0.22386436193E+02  0.23479505881E+02 -0.17053297916E+03  0.17359129213E+03  0.00000000000E+00 0. -1.
         11    1    4    4    0    0 -0.14271006697E+02 -0.34350167673E+02 -0.19571699374E+02  0.42031500897E+02  0.00000000000E+00 0.  1.
        -11    1    3    3    0    0  0.51947117148E+02 -0.25201085580E+01 -0.24028271057E+02  0.57290590302E+02  0.00000000000E+00 0. -1.
         11    1    3    3    0    0 -0.26653922390E+02 -0.11807178253E+02 -0.30218752419E+02  0.41988260678E+02  0.00000000000E+00 0.  1.
         21    1    1    2  502  501  0.11364248132E+02  0.25197948603E+02 -0.84397486104E+02  0.88808886999E+02  0.00000000000E+00 0.  1.
<scales pt_clust_5="13000.00000" pt_clust_6="13000.00000" pt_clust_7="13000.00000" pt_clust_8="13000.00000" pt_clust_9="27.64205"></scales>
<clustering>
<clus scale="   27.642">  2  9  1 -1</clus>
<clus scale="   77.901">  7  8 -1 -1</clus>
<clus scale="   83.251">  1  7  2 -1</clus>
<clus scale="   94.295">  5  6 -1 -1</clus>
<clus scale="   27.642">  2  5  1 -1</clus>
</clustering>
</event>
<event>
 9    1  0.1782981E-005  0.1284393E+03  0.7546771E-02  0.1230845E+00
         -3   -1    0    0    0  501 -0.00000000000E+00  0.00000000000E+00  0.27617050329E+03  0.27617050329E+03  0.00000000000E+00 0.  1.
          3   -1    0    0  502    0  0.00000000000E+00 -0.00000000000E+00 -0.85232776409E+02  0.85232776409E+02  0.00000000000E+00 0. -1.
         23    2    1    2    0    0 -0.64522407070E+02 -0.39397784777E+02  0.10512695234E+03  0.16072520989E+03  0.95213394676E+02 0.  0.
         23    2    1    2    0    0  0.98131838965E+02  0.27925895476E+02  0.91437164074E+02  0.16472178503E+03  0.91448335320E+02 0.  0.
        -11    1    4    4    0    0  0.10084580149E+03  0.51487006254E+02  0.77522150792E+02  0.13722416462E+03  0.00000000000E+00 0. -1.
         11    1    4    4    0    0 -0.27139625281E+01 -0.23561110777E+02  0.13915013282E+02  0.27497620412E+02  0.00000000000E+00 0.  1.
        -13    1    3    3    0    0  0.10146450398E+01 -0.26022543839E+02  0.87868660974E+02  0.91646625000E+02  0.00000000000E+00 0.  1.
         13    1    3    3    0    0 -0.65537052110E+02 -0.13375240938E+02  0.17258291367E+02  0.69078584889E+02  0.00000000000E+00 0. -1.
         21    1    1    2  502  501 -0.33609431895E+02  0.11471889300E+02 -0.56263895301E+01  0.35956284785E+02  0.00000000000E+00 0. -1.
<scales pt_clust_5="13000.00000" pt_clust_6="13000.00000" pt_clust_7="13000.00000" pt_clust_8="13000.00000" pt_clust_9="35.51335"></scales>
<clustering>
<clus scale="   35.513">  2  9  1 -1</clus>
<clus scale="   91.448">  5  6 -1 -1</clus>
<clus scale="   95.213">  7  8 -1 -1</clus>
<clus scale="  125.674">  2  5  1 -1</clus>
<clus scale="   35.513">  2  5  1 -1</clus>
</clustering>
</event>
<event>
 9    1  0.1782981E-005  0.1303929E+03  0.7546771E-02  0.1228019E+00
         -1   -1    0    0    0  501 -0.00000000000E+00  0.00000000000E+00  0.38015392323E+03  0.38015392323E+03  0.00000000000E+00 0.  1.
          1   -1    0    0  502    0  0.00000000000E+00 -0.00000000000E+00 -0.24348833584E+03  0.24348833584E+03  0.00000000000E+00 0. -1.
         23    2    1    2    0    0  0.67575216893E+02  0.53373275506E+02  0.31168665348E+03  0.33644705042E+03  0.92913568972E+02 0.  0.
         23    2    1    2    0    0 -0.94532006521E+02 -0.30618484971E+02 -0.35621677701E+02  0.14340147275E+03  0.97063312257E+02 0.  0.
        -11    1    3    3    0    0  0.11755278075E+02 -0.26625153600E+02  0.74646834968E+02  0.80120130664E+02  0.00000000000E+00 0. -1.
         11    1    3    3    0    0  0.55819938818E+02  0.79998429106E+02  0.23703981851E+03  0.25632691975E+03  0.00000000000E+00 0.  1.
        -11    1    4    4    0    0 -0.67328886494E+02  0.28253522762E+02 -0.27579231770E+02  0.78051614525E+02  0.00000000000E+00 0.  1.
         11    1    4    4    0    0 -0.27203120027E+02 -0.58872007733E+02 -0.80424459315E+01  0.65349858227E+02  0.00000000000E+00 0. -1.
         21    1    1    2  502  501  0.26956789628E+02 -0.22754790535E+02 -0.13939938839E+03  0.14379373590E+03  0.00000000000E+00 0. -1.
<scales pt_clust_5="13000.00000" pt_clust_6="13000.00000" pt_clust_7="13000.00000" pt_clust_8="13000.00000" pt_clust_9="35.27675"></scales>
<clustering>
<clus scale="   35.277">  2  9  1 -1</clus>
<clus scale="   92.914">  5  6 -1 -1</clus>
<clus scale="   97.063">  7  8 -1 -1</clus>
<clus scale="  127.334">  1  5  2 -1</clus>
<clus scale="   35.277">  2  5  1 -1</clus>
</clustering>
</event>
<event>
 9    1  0.1782981E-005  0.1235403E+03  0.7546771E-02  0.1239128E+00
         -2   -1    0    0    0  501 -0.00000000000E+00  0.00000000000E+00  0.57921045246E+02  0.57921045246E+02  0.00000000000E+00 0.  1.
          2   -1    0    0  502    0  0.00000000000E+00 -0.00000000000E+00 -0.44459796244E+03  0.44459796244E+03  0.00000000000E+00 0. -1.
         23    2    1    2    0    0  0.55559884927E+02 -0.58981561433E+02 -0.45531300439E+02  0.13018435691E+03  0.91154495566E+02 0.  0.
         23    2    1    2    0    0 -0.33830796843E+02  0.57453279958E+02 -0.22171540570E+03  0.25093422151E+03  0.96772207828E+02 0.  0.
        -11    1    4    4    0    0 -0.56472247242E+02  0.66144972928E+02 -0.13260394696E+03  0.15858145825E+03  0.00000000000E+00 0. -1.
         11    1    4    4    0    0  0.22641450398E+02 -0.86916929694E+01 -0.89111458739E+02  0.92352763258E+02  0.00000000000E+00 0.  1.
        -13    1    3    3    0    0  0.70402179544E+02 -0.25595803534E+02 -0.42129851712E+01  0.75029069614E+02  0.00000000000E+00 0.  1.
         13    1    3    3    0    0 -0.14842294617E+02 -0.33385757900E+02 -0.41318315268E+02  0.55155287295E+02  0.00000000000E+00 0. -1.
         21    1    1    2  502  501 -0.21729088083E+02  0.15282814750E+01 -0.11943021105E+03  0.12140042926E+03  0.00000000000E+00 0. -1.
<scales pt_clust_5="13000.00000" pt_clust_6="13000.00000" pt_clust_7="13000.00000" pt_clust_8="13000.00000" pt_clust_9="21.78277"></scales>
<clustering>
<clus scale="   21.783">  2  9  1 -1</clus>
<clus scale="   91.154">  7  8 -1 -1</clus>
<clus scale="   96.772">  5  6 -1 -1</clus>
<clus scale="  119.191">  1  7  2 -1</clus>
<clus scale="   21.783">  2  5  1 -1</clus>
</clustering>
</event>
<event>
 9    1  0.1782981E-005  0.1428193E+03  0.7546771E-02  0.1209619E+00
         -3   -1    0    0    0  501 -0.00000000000E+00  0.00000000000E+00  0.36337782107E+03  0.36337782107E+03  0.00000000000E+00 0.  1.
          3   -1    0    0  502    0  0.00000000000E+00 -0.00000000000E+00 -0.29419287571E+03  0.29419287571E+03  0.00000000000E+00 0. -1.
         23    2    1    2    0    0 -0.80855700710E+02  0.76932181988E+02  0.31328006360E+03  0.34494650565E+03  0.91583232886E+02 0.  0.
         23    2    1    2    0    0  0.45793071261E+02 -0.84746674705E+02 -0.10596491532E+03  0.16989925553E+03  0.91423134395E+02 0.  0.
        -11    1    3    3    0    0 -0.92890779293E+02  0.47319060557E+02  0.28011334506E+03  0.29888338270E+03  0.00000000000E+00 0.  1.
         11    1    3    3    0    0  0.12035078584E+02  0.29613121432E+02  0.33166718540E+02  0.46063122953E+02  0.00000000000E+00 0. -1.
        -11    1    4    4    0    0 -0.13859216044E+02 -0.68240102003E+02 -0.67776582221E+02  0.97172292802E+02  0.00000000000E+00 0.  1.
         11    1    4    4    0    0  0.59652287305E+02 -0.16506572702E+02 -0.38188333097E+02  0.72726962729E+02  0.00000000000E+00 0. -1.
         21    1    1    2  502  501  0.35062629448E+02  0.78144927163E+01 -0.13813020293E+03  0.14272493559E+03  0.00000000000E+00 0. -1.
<scales pt_clust_5="13000.00000" pt_clust_6="13000.00000" pt_clust_7="13000.00000" pt_clust_8="13000.00000" pt_clust_9="35.92289"></scales>
<clustering>
<clus scale="   35.923">  2  9  1 -1</clus>
<clus scale="   91.423">  7  8 -1 -1</clus>
<clus scale="   91.583">  5  6 -1 -1</clus>
<clus scale="  142.717">  2  7  1 -1</clus>
<clus scale="   35.923">  2  5  1 -1</clus>
</clustering>
</event>
<event>
 9    1  0.1782981E-005  0.1245726E+03  0.7546771E-02  0.1237519E+00
         -1   -1    0    0    0  501 -0.00000000000E+00  0.00000000000E+00  0.10263941599E+03  0.10263941599E+03  0.00000000000E+00 0.  1.
          1   -1    0    0  502    0  0.00000000000E+00 -0.00000000000E+00 -0.20340292870E+03  0.20340292870E+03  0.00000000000E+00 0. -1.
         23    2    1    2    0    0 -0.15251698726E+02 -0.85844302163E+02  0.69273239020E+00  0.12561662544E+03  0.90427861757E+02 0.  0.
         23    2    1    2    0    0  0.39705440547E+02  0.75937278018E+02 -0.68783933898E+02  0.13843030835E+03  0.84194587154E+02 0.  0.
        -11    1    3    3    0    0 -0.31956258590E+02 -0.67526246404E+01 -0.24628892346E+02  0.40907001122E+02  0.00000000000E+00 0. -1.
         11    1    3    3    0    0  0.16704559864E+02 -0.79091677523E+02  0.25321624736E+02  0.84709624323E+02  0.00000000000E+00 0.  1.
        -11    1    4    4    0    0  0.28234159615E+02  0.93251787504E+02 -0.65500470713E+02  0.11740262052E+03  0.00000000000E+00 0. -1.
         11    1    4    4    0    0  0.11471280932E+02 -0.17314509486E+02 -0.32834631858E+01  0.21027687830E+02  0.00000000000E+00 0.  1.
         21    1    1    2  502  501 -0.24453741821E+02  0.99070241453E+01 -0.32672311199E+02  0.41995410887E+02  0.00000000000E+00 0.  1.
<scales pt_clust_5="13000.00000" pt_clust_6="13000.00000" pt_clust_7="13000.00000" pt_clust_8="13000.00000" pt_clust_9="26.38436"></scales>
<clustering>
<clus scale="   26.384">  2  9  1 -1</clus>
<clus scale="   84.195">  7  8 -1 -1</clus>
<clus scale="   90.428">  5  6 -1 -1</clus>
<clus scale="  120.124">  2  7  1 -1</clus>
<clus scale="   26.384">  2  5  1 -1</clus>
</clustering>
</event>
<event>
 9    1  0.1782981E-005  0.1073429E+03  0.7546771E-02  0.1265690E+00
          2   -1    0    0  502    0  0.00000000000E+00  0.00000000000E+00  0.15456209181E+03  0.15456209181E+03  0.00000000000E+00 0. -1.
         -2   -1    0    0    0  501 -0.00000000000E+00 -0.00000000000E+00 -0.12746188509E+03  0.12746188509E+03  0.00000000000E+00 0.  1.
         23    2    1    2    0    0  0.32032869719E+02 -0.22890365358E+02 -0.20013422887E+02  0.10186250858E+03  0.91789759718E+02 0.  0.
         23    2    1    2    0    0 -0.73046296320E+02  0.46027366177E+02  0.25556255427E+02  0.12837206449E+03  0.91498551392E+02 0.  0.
        -11    1    4    4    0    0 -0.80468403416E+02  0.10863496282E+02  0.38900869136E+02  0.90035865739E+02  0.00000000000E+00 0. -1.
         11    1    4    4    0    0  0.74221070958E+01  0.35163869895E+02 -0.13344613709E+02  0.38336198752E+02  0.00000000000E+00 0.  1.
        -11    1    3    3    0    0 -0.74920595238E+01 -0.50884870096E+02 -0.10990993245E+02  0.52594704040E+02  0.00000000000E+00 0.  1.
         11    1    3    3    0    0  0.39524929243E+02  0.27994504738E+02 -0.90224296425E+01  0.49267804536E+02  0.00000000000E+00 0. -1.
         21    1    1    2  502  501  0.41013426601E+02 -0.23137000818E+02  0.21557374177E+02  0.51789403838E+02  0.00000000000E+00 0. -1.
<scales pt_clust_5="13000.00000" pt_clust_6="13000.00000" pt_clust_7="13000.00000" pt_clust_8="13000.00000" pt_clust_9="47.08951"></scales>
<clustering>
<clus scale="   47.090">  1  9  2 -1</clus>
<clus scale="   91.499">  5  6 -1 -1</clus>
<clus scale="   91.790">  7  8 -1 -1</clus>
<clus scale="  107.094">  1  5  2 -1</clus>
<clus scale="   47.090">  1  5  2 -1</clus>
</clustering>
</event>
<event>
 9    1  0.1782981E-005  0.4017497E+03  0.7546771E-02  0.1043217E+00
         -1   -1    0    0    0  501 -0.00000000000E+00  0.00000000000E+00  0.21967638606E+03  0.21967638606E+03  0.00000000000E+00 0.  1.
          1   -1    0    0  502    0  0.00000000000E+00 -0.00000000000E+00 -0.13154003770E+04  0.13154003770E+04  0.00000000000E+00 0. -1.
         23    2    1    2    0    0 -0.22545582667E+03  0.35461723497E+03 -0.94740968659E+02  0.44060174851E+03  0.92576112079E+02 0.  0.
         23    2    1    2    0    0  0.19245912613E+03 -0.24821735916E+03 -0.67475326962E+03  0.74974966397E+03  0.90444519675E+02 0.  0.
        -11    1    4    4    0    0  0.34177405454E+02 -0.11262623503E+03 -0.21977822878E+03  0.24930951387E+03  0.00000000000E+00 0.  1.
         11    1    4    4    0    0  0.15828172068E+03 -0.13559112413E+03 -0.45497504084E+03  0.50044015010E+03  0.00000000000E+00 0. -1.
        -13    1    3    3    0    0 -0.22864404052E+03  0.31386427120E+03 -0.94818511902E+02  0.39972419016E+03  0.00000000000E+00 0.  1.
         13    1    3    3    0    0  0.31882138461E+01  0.40752963764E+02  0.77543242989E-01  0.40877558343E+02  0.00000000000E+00 0. -1.
         21    1    1    2  502  501  0.32996700538E+02 -0.10639987581E+03 -0.32622975265E+03  0.34472535058E+03  0.00000000000E+00 0. -1.
<scales pt_clust_5="13000.00000" pt_clust_6="13000.00000" pt_clust_7="13000.00000" pt_clust_8="13000.00000" pt_clust_9="111.39890"></scales>
<clustering>
<clus scale="   90.445">  5  6 -1 -1</clus>
<clus scale="   92.576">  7  8 -1 -1</clus>
<clus scale="  111.399">  2  9  1 -1</clus>
<clus scale="  401.264">  2  5  1 -1</clus>
<clus scale="  111.399">  2  5  1 -1</clus>
</clustering>
</event>
<event>
 9    1  0.1782981E-005  0.1362289E+03  0.7546771E-02  0.1219133E+00
         -1   -1    0    0    0  501 -0.00000000000E+00  0.00000000000E+00  0.67041796155E+03  0.67041796155E+03  0.00000000000E+00 0.  1.
          1   -1    0    0  502    0  0.00000000000E+00 -0.00000000000E+00 -0.40941416412E+02  0.40941416412E+02  0.00000000000E+00 0. -1.
         23    2    1    2    0    0  0.82227444399E+02 -0.27637508496E+02  0.27764528636E+03  0.30381190513E+03  0.87690274092E+02 0.  0.
         23    2    1    2    0    0 -0.10766905013E+03  0.57150743023E+02  0.32914588448E+03  0.36245941985E+03  0.90448803117E+02 0.  0.
        -11    1    3    3    0    0  0.73493956044E+01 -0.43830310448E+02  0.75125035503E+02  0.87286199878E+02  0.00000000000E+00 0. -1.
         11    1    3    3    0    0  0.74878048795E+02  0.16192801952E+02  0.20252025086E+03  0.21652570525E+03  0.00000000000E+00 0.  1.
        -13    1    4    4    0    0 -0.54888297187E+02  0.77269912428E+02  0.22049327901E+03  0.24000135546E+03  0.00000000000E+00 0.  1.
         13    1    4    4    0    0 -0.52780752946E+02 -0.20119169405E+02  0.10865260547E+03  0.12245806440E+03  0.00000000000E+00 0. -1.
         21    1    1    2  502  501  0.25441605734E+02 -0.29513234526E+02  0.22685374294E+02  0.45088052979E+02  0.00000000000E+00 0. -1.
<scales pt_clust_5="13000.00000" pt_clust_6="13000.00000" pt_clust_7="13000.00000" pt_clust_8="13000.00000" pt_clust_9="38.96545"></scales>
<clustering>
<clus scale="   38.965">  2  9  1 -1</clus>
<clus scale="   87.690">  5  6 -1 -1</clus>
<clus scale="   90.449">  7  8 -1 -1</clus>
<clus scale="  134.413">  1  5  2 -1</clus>
<clus scale="   38.965">  2  5  1 -1</clus>
</clustering>
</event>
<event>
 9    1  0.1782981E-005  0.1083389E+03  0.7546771E-02  0.1263998E+00
          1   -1    0    0  502    0  0.00000000000E+00  0.00000000000E+00  0.28291392917E+03  0.28291392917E+03  0.00000000000E+00 0. -1.
         -1   -1    0    0    0  501 -0.00000000000E+00 -0.00000000000E+00 -0.78558027118E+02  0.78558027118E+02  0.00000000000E+00 0.  1.
         23    2    1    2    0    0  0.60947273450E+02 -0.52714144269E+02  0.45815254907E+02  0.13075919515E+03  0.92225692661E+02 0.  0.
         23    2    1    2    0    0 -0.40347112802E+02 -0.10655238981E+01  0.59976119868E+02  0.11655679167E+03  0.91429349109E+02 0.  0.
        -11    1    4    4    0    0 -0.15835729180E+02 -0.42108873364E+02  0.50838605256E+02  0.67885869804E+02  0.00000000000E+00 0.  1.
         11    1    4    4    0    0 -0.24511383622E+02  0.41043349466E+02  0.91375146126E+01  0.48670921871E+02  0.00000000000E+00 0. -1.
        -13    1    3    3    0    0 -0.16372654464E+02 -0.41063285429E+02  0.18682824122E+02  0.47992761346E+02  0.00000000000E+00 0. -1.
         13    1    3    3    0    0  0.77319927913E+02 -0.11650858840E+02  0.27132430784E+02  0.82766433803E+02  0.00000000000E+00 0.  1.
         21    1    1    2  502  501 -0.20600160647E+02  0.53779668167E+02  0.98564527281E+02  0.11415596947E+03  0.00000000000E+00 0. -1.
<scales pt_clust_5="13000.00000" pt_clust_6="13000.00000" pt_clust_7="13000.00000" pt_clust_8="13000.00000" pt_clust_9="57.59010"></scales>
<clustering>
<clus scale="   57.590">  1  9  2 -1</clus>
<clus scale="   91.429">  5  6 -1 -1</clus>
<clus scale="   92.226">  7  8 -1 -1</clus>
<clus scale="  107.662">  1  5  2 -1</clus>
<clus scale="   57.590">  1  5  2 -1</clus>
</clustering>
</event>
<event>
 9    1  0.1782981E-005  0.9123159E+02  0.7546771E-02  0.1309663E+00
         -1   -1    0    0    0  501 -0.00000000000E+00  0.00000000000E+00  0.23118787460E+03  0.23118787460E+03  0.00000000000E+00 0.  1.
          1   -1    0    0  502    0  0.00000000000E+00 -0.00000000000E+00 -0.12605378002E+03  0.12605378002E+03  0.00000000000E+00 0. -1.
         23    2    1    2    0    0 -0.30512464141E+02 -0.21852697901E+02  0.15079250066E+03  0.17806997818E+03  0.86959691807E+02 0.  0.
         23    2    1    2    0    0  0.10147713797E+02  0.80815722548E+01  0.45045921042E+02  0.85194860595E+02  0.71138887845E+02 0.  0.
        -11    1    4    4    0    0  0.12762517052E+02  0.33728794862E+02  0.47114275807E+02  0.59331850040E+02  0.00000000000E+00 0. -1.
         11    1    4    4    0    0 -0.26148032547E+01 -0.25647222607E+02 -0.20683547646E+01  0.25863010555E+02  0.00000000000E+00 0.  1.
        -11    1    3    3    0    0 -0.13607586525E+02 -0.41823226613E+02  0.14465728185E+03  0.15119549559E+03  0.00000000000E+00 0.  1.
         11    1    3    3    0    0 -0.16904877616E+02  0.19970528713E+02  0.61352188091E+01  0.26874482583E+02  0.00000000000E+00 0. -1.
         21    1    1    2  502  501  0.20364750344E+02  0.13771125646E+02 -0.90704327119E+02  0.93976815844E+02  0.00000000000E+00 0. -1.
<scales pt_clust_5="13000.00000" pt_clust_6="13000.00000" pt_clust_7="13000.00000" pt_clust_8="13000.00000" pt_clust_9="24.58388"></scales>
<clustering>
<clus scale="   24.584">  2  9  1 -1</clus>
<clus scale="   71.139">  5  6 -1 -1</clus>
<clus scale="   76.302">  2  5  1 -1</clus>
<clus scale="   86.960">  7  8 -1 -1</clus>
<clus scale="   24.584">  2  5  1 -1</clus>
</clustering>
</event>
<event>
 9    1  0.1782981E-005  0.1384361E+03  0.7546771E-02  0.1217755E+00
         -1   -1    0    0    0  501 -0.00000000000E+00  0.00000000000E+00  0.39566169482E+03  0.39566169482E+03  0.00000000000E+00 0.  1.
          1   -1    0    0  502    0  0.00000000000E+00 -0.00000000000E+00 -0.20902976122E+03  0.20902976122E+03  0.00000000000E+00 0. -1.
         23    2    1    2    0    0 -0.95490393452E+02  0.14751570351E+02  0.33785051767E+03  0.36565645198E+03  0.10112192895E+03 0.  0.
         23    2    1    2    0    0  0.73087075294E+02 -0.45124915513E+02 -0.58116126685E+02  0.13857348739E+03  0.91908370960E+02 0.  0.
        -11    1    3    3    0    0 -0.87214876711E+02 -0.17118240444E+02  0.31013064050E+03  0.32261506948E+03  0.00000000000E+00 0.  1.
         11    1    3    3    0    0 -0.82755167417E+01  0.31869810795E+02  0.27719877171E+02  0.43041382503E+02  0.00000000000E+00 0. -1.
        -11    1    4    4    0    0 -0.23862846252E+01 -0.23720160503E+02 -0.55133374074E+02  0.60066873611E+02  0.00000000000E+00 0.  1.
         11    1    4    4    0    0  0.75473359919E+02 -0.21404755010E+02 -0.29827526107E+01  0.78506613783E+02  0.00000000000E+00 0. -1.
         21    1    1    2  502  501  0.22403318159E+02  0.30373345162E+02 -0.93102457379E+02  0.10046151667E+03  0.00000000000E+00 0. -1.
<scales pt_clust_5="13000.00000" pt_clust_6="13000.00000" pt_clust_7="13000.00000" pt_clust_8="13000.00000" pt_clust_9="37.74187"></scales>
<clustering>
<clus scale="   37.742">  2  9  1 -1</clus>
<clus scale="   91.908">  7  8 -1 -1</clus>
<clus scale="  101.122">  5  6 -1 -1</clus>
<clus scale="  131.856">  2  7  1 -1</clus>
<clus scale="   37.742">  2  5  1 -1</clus>
</clustering>
</event>
<event>
 9    1  0.1782981E-005  0.2065020E+03  0.7546771E-02  0.1145116E+00
          2   -1    0    0  502    0  0.00000000000E+00  0.00000000000E+00  0.88110363824E+03  0.88110363824E+03  0.00000000000E+00 0. -1.
         -2   -1    0    0    0  501 -0.00000000000E+00 -0.00000000000E+00 -0.14070353183E+03  0.14070353183E+03  0.00000000000E+00 0.  1.
         23    2    1    2    0    0 -0.84517617758E+02 -0.82569293123E+02 -0.64460001059E+01  0.15408365569E+03  0.98687923052E+02 0.  0.
         23    2    1    2    0    0 -0.82592297348E+01  0.20416744070E+03  0.64831065237E+03  0.68578152184E+03  0.90758112609E+02 0.  0.
        -11    1    4    4    0    0  0.37066269805E+02  0.13387800742E+03  0.43582805172E+03  0.45743121875E+03  0.00000000000E+00 0.  1.
         11    1    4    4    0    0 -0.45325499539E+02  0.70289433282E+02  0.21248260065E+03  0.22835030309E+03  0.00000000000E+00 0. -1.
        -11    1    3    3    0    0 -0.77939027299E+02 -0.10405760348E+03 -0.13044193295E+02  0.13066226616E+03  0.00000000000E+00 0.  1.
         11    1    3    3    0    0 -0.65785904596E+01  0.21488310358E+02  0.65981931892E+01  0.23421389537E+02  0.00000000000E+00 0. -1.
         21    1    1    2  502  501  0.92776847493E+02 -0.12159814758E+03  0.98535454137E+02  0.18194199253E+03  0.00000000000E+00 0.  1.
<scales pt_clust_5="13000.00000" pt_clust_6="13000.00000" pt_clust_7="13000.00000" pt_clust_8="13000.00000" pt_clust_9="152.94984"></scales>
<clustering>
<clus scale="   90.758">  5  6 -1 -1</clus>
<clus scale="   98.688">  7  8 -1 -1</clus>
<clus scale="  152.950">  2  9  1 -1</clus>
<clus scale="  202.832">  1  5  2 -1</clus>
<clus scale="  202.832">  1  5  2 -1</clus>
</clustering>
</event>
<event>
 9    1  0.1782981E-005  0.1878601E+03  0.7546771E-02  0.1160470E+00
         -1   -1    0    0    0  501 -0.00000000000E+00  0.00000000000E+00  0.35604780324E+03  0.35604780324E+03  0.00000000000E+00 0.  1.
          1   -1    0    0  502    0  0.00000000000E+00 -0.00000000000E+00 -0.23562752462E+03  0.23562752462E+03  0.00000000000E+00 0. -1.
         23    2    1    2    0    0 -0.16340600336E+03 -0.33996101910E+02  0.27579874819E+03  0.33485153944E+03  0.90572330661E+02 0.  0.
         23    2    1    2    0    0  0.14932299438E+03  0.15082070313E+02 -0.15415930909E+03  0.23321112052E+03  0.89986158168E+02 0.  0.
        -11    1    3    3    0    0 -0.14480154812E+03 -0.20283149923E+02  0.27531696466E+03  0.31173438299E+03  0.00000000000E+00 0.  1.
         11    1    3    3    0    0 -0.18604455231E+02 -0.13712951987E+02  0.48178353017E+00  0.23117156443E+02  0.00000000000E+00 0. -1.
        -13    1    4    4    0    0  0.11546241345E+02 -0.28154129316E+02 -0.30719929366E+02  0.43239851376E+02  0.00000000000E+00 0.  1.
         13    1    4    4    0    0  0.13777675304E+03  0.43236199629E+02 -0.12343937972E+03  0.18997126915E+03  0.00000000000E+00 0. -1.
         21    1    1    2  502  501  0.14083008974E+02  0.18914031597E+02 -0.12191604784E+01  0.23612667899E+02  0.00000000000E+00 0. -1.
<scales pt_clust_5="13000.00000" pt_clust_6="13000.00000" pt_clust_7="13000.00000" pt_clust_8="13000.00000" pt_clust_9="23.58117"></scales>
<clustering>
<clus scale="   23.581">  2  9  1 -1</clus>
<clus scale="   89.986">  7  8 -1 -1</clus>
<clus scale="   90.572">  5  6 -1 -1</clus>
<clus scale="  187.578">  2  7  1 -1</clus>
<clus scale="   23.581">  2  5  1 -1</clus>
</clustering>
</event>
<event>
 9    1  0.1782981E-005  0.1810550E+03  0.7546771E-02  0.1170693E+00
          1   -1    0    0  502    0  0.00000000000E+00  0.00000000000E+00  0.56911915930E+03  0.56911915930E+03  0.00000000000E+00 0. -1.
         -1   -1    0    0    0  501 -0.00000000000E+00 -0.00000000000E+00 -0.73885589618E+02  0.73885589618E+02  0.00000000000E+00 0.  1.
         23    2    1    2    0    0 -0.14397035931E+03  0.23736585560E+02  0.11520309409E+03  0.22155001242E+03  0.12050628723E+03 0.  0.
         23    2    1    2    0    0  0.11375431811E+03 -0.19022984884E+02  0.29076913606E+03  0.32710001265E+03  0.95633722860E+02 0.  0.
        -13    1    4    4    0    0  0.74253802371E+01  0.29935238166E+02  0.41428663510E+02  0.51648706818E+02  0.00000000000E+00 0.  1.
         13    1    4    4    0    0  0.10632893787E+03 -0.48958223050E+02  0.24934047255E+03  0.27545130583E+03  0.00000000000E+00 0. -1.
        -13    1    3    3    0    0 -0.89257690080E+02 -0.45981216149E+02  0.66440567298E+02  0.12039749358E+03  0.00000000000E+00 0.  1.
         13    1    3    3    0    0 -0.54712669228E+02  0.69717801708E+02  0.48762526792E+02  0.10115251884E+03  0.00000000000E+00 0. -1.
         21    1    1    2  502  501  0.30216041202E+02 -0.47136006759E+01  0.89261339528E+02  0.94354723843E+02  0.00000000000E+00 0. -1.
<scales pt_clust_5="13000.00000" pt_clust_6="13000.00000" pt_clust_7="13000.00000" pt_clust_8="13000.00000" pt_clust_9="30.58148"></scales>
<clustering>
<clus scale="   30.581">  1  9  2 -1</clus>
<clus scale="   95.634">  5  6 -1 -1</clus>
<clus scale="  120.506">  7  8 -1 -1</clus>
<clus scale="  165.544">  1  5  2 -1</clus>
<clus scale="   30.581">  1  5  2 -1</clus>
</clustering>
</event>
<event>
 9    1  0.1782981E-005  0.1025406E+03  0.7546771E-02  0.1275404E+00
         -1   -1    0    0    0  501 -0.00000000000E+00  0.00000000000E+00  0.14148423277E+03  0.14148423277E+03  0.00000000000E+00 0.  1.
          1   -1    0    0  502    0  0.00000000000E+00 -0.00000000000E+00 -0.15808531881E+03  0.15808531881E+03  0.00000000000E+00 0. -1.
         23    2    1    2    0    0 -0.19122683646E+02 -0.62827778267E+02  0.61201808444E+02  0.12754552888E+03  0.90604601585E+02 0.  0.
         23    2    1    2    0    0  0.22629874014E+02  0.28074999529E+01 -0.39381843828E+02  0.10067340024E+03  0.89800950094E+02 0.  0.
        -11    1    4    4    0    0 -0.23831935525E+02 -0.45700966858E+01  0.15186082211E+02  0.28626282111E+02  0.00000000000E+00 0.  1.
         11    1    4    4    0    0  0.46461809539E+02  0.73775966386E+01 -0.54567926039E+02  0.72047118124E+02  0.00000000000E+00 0. -1.
        -13    1    3    3    0    0 -0.45116483253E+02 -0.38266364970E+02  0.69055383810E+02  0.90931060602E+02  0.00000000000E+00 0.  1.
         13    1    3    3    0    0  0.25993799607E+02 -0.24561413297E+02 -0.78535753657E+01  0.36614468277E+02  0.00000000000E+00 0. -1.
         21    1    1    2  502  501 -0.35071903673E+01  0.60020278314E+02 -0.38421050658E+02  0.71350622470E+02  0.00000000000E+00 0. -1.
<scales pt_clust_5="13000.00000" pt_clust_6="13000.00000" pt_clust_7="13000.00000" pt_clust_8="13000.00000" pt_clust_9="60.12266"></scales>
<clustering>
<clus scale="   60.123">  2  9  1 -1</clus>
<clus scale="   89.801">  5  6 -1 -1</clus>
<clus scale="   90.605">  7  8 -1 -1</clus>
<clus scale="  101.831">  2  5  1 -1</clus>
<clus scale="   60.123">  2  5  1 -1</clus>
</clustering>
</event>
<event>
 9    1  0.1782981E-005  0.1071987E+03  0.7546771E-02  0.1266078E+00
          1   -1    0    0  502    0  0.00000000000E+00  0.00000000000E+00  0.63291139311E+03  0.63291139311E+03  0.00000000000E+00 0. -1.
         -1   -1    0    0    0  501 -0.00000000000E+00 -0.00000000000E+00 -0.23582935841E+02  0.23582935841E+02  0.00000000000E+00 0.  1.
         23    2    1    2    0    0 -0.38838160651E+02  0.42527913094E+02  0.20449293787E+03  0.23173965280E+03  0.92568239299E+02 0.  0.
         23    2    1    2    0    0  0.46785576866E+02 -0.21257079421E+02  0.31852630401E+03  0.33550844121E+03  0.92011706586E+02 0.  0.
        -13    1    3    3    0    0 -0.44222080860E+01 -0.22252217973E+02  0.10893749396E+03  0.11127486113E+03  0.00000000000E+00 0. -1.
         13    1    3    3    0    0 -0.34415952565E+02  0.64780131066E+02  0.95555443914E+02  0.12046479168E+03  0.00000000000E+00 0.  1.
        -13    1    4    4    0    0  0.35315180911E+02  0.33564915619E+02  0.12963443431E+03  0.13848773275E+03  0.00000000000E+00 0.  1.
         13    1    4    4    0    0  0.11470395954E+02 -0.54821995040E+02  0.18889186970E+03  0.19702070846E+03  0.00000000000E+00 0. -1.
         21    1    1    2  502  501 -0.79474162141E+01 -0.21270833673E+02  0.86309215389E+02  0.89246234939E+02  0.00000000000E+00 0.  1.
<scales pt_clust_5="13000.00000" pt_clust_6="13000.00000" pt_clust_7="13000.00000" pt_clust_8="13000.00000" pt_clust_9="22.70704"></scales>
<clustering>
<clus scale="   22.707">  1  9  2 -1</clus>
<clus scale="   92.012">  7  8 -1 -1</clus>
<clus scale="   92.568">  5  6 -1 -1</clus>
<clus scale="  106.718">  1  7  2 -1</clus>
<clus scale="   22.707">  1  5  2 -1</clus>
</clustering>
</event>
<event>
 9    1  0.1782981E-005  0.1144565E+03  0.7546771E-02  0.1252764E+00
         -1   -1    0    0    0  501 -0.00000000000E+00  0.00000000000E+00  0.14804028537E+03  0.14804028537E+03  0.00000000000E+00 0.  1.
          1   -1    0    0  502    0  0.00000000000E+00 -0.00000000000E+00 -0.16707242314E+03  0.16707242314E+03  0.00000000000E+00 0. -1.
         23    2    1    2    0    0 -0.81603176229E+02  0.29918703369E+02  0.47948930964E+02  0.13411280369E+03  0.90182797421E+02 0.  0.
         23    2    1    2    0    0  0.44037659915E+02 -0.26922909291E+02  0.93009888754E+00  0.10333350612E+03  0.89514188085E+02 0.  0.
        -11    1    4    4    0    0 -0.30683075877E+01 -0.36035797137E+02  0.30211682071E+02  0.47124716660E+02  0.00000000000E+00 0. -1.
         11    1    4    4    0    0  0.47105967503E+02  0.91128878456E+01 -0.29281583184E+02  0.56208789464E+02  0.00000000000E+00 0.  1.
        -13    1    3    3    0    0 -0.42441609781E+02  0.50771568094E+02  0.58704256269E+02  0.88460341802E+02  0.00000000000E+00 0.  1.
         13    1    3    3    0    0 -0.39161566448E+02 -0.20852864726E+02 -0.10755325305E+02  0.45652461887E+02  0.00000000000E+00 0. -1.
         21    1    1    2  502  501  0.37565516314E+02 -0.29957940772E+01 -0.67911167625E+02  0.77666398695E+02  0.00000000000E+00 0. -1.
<scales pt_clust_5="13000.00000" pt_clust_6="13000.00000" pt_clust_7="13000.00000" pt_clust_8="13000.00000" pt_clust_9="37.68478"></scales>
<clustering>
<clus scale="   37.685">  2  9  1 -1</clus>
<clus scale="   89.514">  5  6 -1 -1</clus>
<clus scale="   90.183">  7  8 -1 -1</clus>
<clus scale="  113.930">  2  5  1 -1</clus>
<clus scale="   37.685">  2  5  1 -1</clus>
</clustering>
</event>
<event>
 9    1  0.1782981E-005  0.9292509E+02  0.7546771E-02  0.1295968E+00
          2   -1    0    0  502    0  0.00000000000E+00  0.00000000000E+00  0.32008990880E+03  0.32008990880E+03  0.00000000000E+00 0. -1.
         -2   -1    0    0    0  501 -0.00000000000E+00 -0.00000000000E+00 -0.51544564154E+02  0.51544564154E+02  0.00000000000E+00 0.  1.
         23    2    1    2    0    0  0.35488010778E+01  0.58105541721E+01  0.49589896322E+02  0.10407583993E+03  0.91248375937E+02 0.  0.
         23    2    1    2    0    0 -0.36028178495E+02 -0.18044424576E+01  0.85293782097E+02  0.12994904067E+03  0.91161605125E+02 0.  0.
        -11    1    3    3    0    0  0.36693697972E+02  0.32361361165E+02  0.29072677100E+02  0.56911384811E+02  0.00000000000E+00 0. -1.
         11    1    3    3    0    0 -0.33144896894E+02 -0.26550806993E+02  0.20517219222E+02  0.47164455120E+02  0.00000000000E+00 0.  1.
        -11    1    4    4    0    0 -0.19833274933E+02  0.11010642108E+02 -0.15231818430E+02  0.27324006420E+02  0.00000000000E+00 0.  1.
         11    1    4    4    0    0 -0.16194903562E+02 -0.12815084565E+02  0.10052560053E+03  0.10262503425E+03  0.00000000000E+00 0. -1.
         21    1    1    2  502  501  0.32479377417E+02 -0.40061117145E+01  0.13366166622E+03  0.13760959235E+03  0.00000000000E+00 0. -1.
<scales pt_clust_5="13000.00000" pt_clust_6="13000.00000" pt_clust_7="13000.00000" pt_clust_8="13000.00000" pt_clust_9="32.72551"></scales>
<clustering>
<clus scale="   32.726">  1  9  2 -1</clus>
<clus scale="   91.162">  7  8 -1 -1</clus>
<clus scale="   91.248">  5  6 -1 -1</clus>
<clus scale="   92.840">  1  7  2 -1</clus>
<clus scale="   32.726">  1  5  2 -1</clus>
</clustering>
</event>
<event>
 9    1  0.1782981E-005  0.2102501E+03  0.7546771E-02  0.1141379E+00
          1   -1    0    0  502    0  0.00000000000E+00  0.00000000000E+00  0.98955985776E+03  0.98955985776E+03  0.00000000000E+00 0. -1.
         -1   -1    0    0    0  501 -0.00000000000E+00 -0.00000000000E+00 -0.54685404722E+02  0.54685404722E+02  0.00000000000E+00 0.  1.
         23    2    1    2    0    0  0.97750757675E+02  0.15574624888E+03  0.33744109108E+03  0.39510595994E+03  0.91815711957E+02 0.  0.
         23    2    1    2    0    0 -0.76868953326E+02 -0.18239072790E+03  0.48670251341E+03  0.53334941164E+03  0.91689938007E+02 0.  0.
        -13    1    3    3    0    0  0.37610777047E+02  0.71708580366E+02  0.23915048343E+03  0.25248692001E+03  0.00000000000E+00 0. -1.
         13    1    3    3    0    0  0.60139980628E+02  0.84037668510E+02  0.98290607647E+02  0.14261903993E+03  0.00000000000E+00 0.  1.
        -13    1    4    4    0    0  0.13097820495E+02 -0.31007835141E+02  0.14597138280E+03  0.14980214731E+03  0.00000000000E+00 0.  1.
         13    1    4    4    0    0 -0.89966773821E+02 -0.15138289276E+03  0.34073113061E+03  0.38354726433E+03  0.00000000000E+00 0. -1.
         21    1    1    2  502  501 -0.20881804350E+02  0.26644479021E+02  0.11073084855E+03  0.11578989090E+03  0.00000000000E+00 0. -1.
<scales pt_clust_5="13000.00000" pt_clust_6="13000.00000" pt_clust_7="13000.00000" pt_clust_8="13000.00000" pt_clust_9="33.85230"></scales>
<clustering>
<clus scale="   33.852">  1  9  2 -1</clus>
<clus scale="   91.690">  7  8 -1 -1</clus>
<clus scale="   91.816">  5  6 -1 -1</clus>
<clus scale="  210.195">  1  7  2 -1</clus>
<clus scale="   33.852">  1  5  2 -1</clus>
</clustering>
</event>
<event>
 9    1  0.1782981E-005  0.1356928E+03  0.7546771E-02  0.1219877E+00
         -1   -1    0    0    0  501 -0.00000000000E+00  0.00000000000E+00  0.41551833698E+02  0.41551833698E+02  0.00000000000E+00 0.  1.
          1   -1    0    0  502    0  0.00000000000E+00 -0.00000000000E+00 -0.82047994214E+03  0.82047994214E+03  0.00000000000E+00 0. -1.
         23    2    1    2    0    0  0.41230542317E+02  0.92194426079E+02 -0.11089450157E+03  0.17706594874E+03  0.94100955931E+02 0.  0.
         23    2    1    2    0    0 -0.18177137837E+02 -0.83976176928E+02 -0.58917198168E+03  0.60239370707E+03  0.91499440904E+02 0.  0.
        -11    1    4    4    0    0 -0.65855536365E+01  0.19616966968E+02 -0.12108666448E+03  0.12284207433E+03  0.00000000000E+00 0.  1.
         11    1    4    4    0    0 -0.11591584201E+02 -0.10359314390E+03 -0.46808531720E+03  0.47955163274E+03  0.00000000000E+00 0. -1.
        -11    1    3    3    0    0  0.50057551858E+02  0.28804407823E+02 -0.94906311674E+02  0.11109752654E+03  0.00000000000E+00 0. -1.
         11    1    3    3    0    0 -0.88270095409E+01  0.63390018256E+02 -0.15988189893E+02  0.65968422203E+02  0.00000000000E+00 0.  1.
         21    1    1    2  502  501 -0.23053404479E+02 -0.82182491510E+01 -0.78861625193E+02  0.82572120024E+02  0.00000000000E+00 0. -1.
<scales pt_clust_5="13000.00000" pt_clust_6="13000.00000" pt_clust_7="13000.00000" pt_clust_8="13000.00000" pt_clust_9="24.47446"></scales>
<clustering>
<clus scale="   24.474">  2  9  1 -1</clus>
<clus scale="   91.499">  5  6 -1 -1</clus>
<clus scale="   94.101">  7  8 -1 -1</clus>
<clus scale="  133.902">  2  5  1 -1</clus>
<clus scale="   24.474">  2  5  1 -1</clus>
</clustering>
</event>
<event>
 9    1  0.1782981E-005  0.1018436E+03  0.7546771E-02  0.1290289E+00
         -1   -1    0    0    0  501 -0.00000000000E+00  0.00000000000E+00  0.36290430065E+03  0.36290430065E+03  0.00000000000E+00 0.  1.
          1   -1    0    0  502    0  0.00000000000E+00 -0.00000000000E+00 -0.33824228269E+03  0.33824228269E+03  0.00000000000E+00 0. -1.
         23    2    1    2    0    0 -0.27205342088E+02 -0.45327087069E+02  0.33613179201E+03  0.34528231113E+03  0.58656775542E+02 0.  0.
         23    2    1    2    0    0  0.44479044329E+01 -0.39729671747E+01 -0.27927113542E+03  0.29273623846E+03  0.87558951031E+02 0.  0.
        -11    1    3    3    0    0  0.19688157670E+01 -0.48648209193E+02  0.23410681220E+03  0.23911613080E+03  0.00000000000E+00 0.  1.
         11    1    3    3    0    0 -0.29174157855E+02  0.33211221239E+01  0.10202497981E+03  0.10616618032E+03  0.00000000000E+00 0. -1.
        -13    1    4    4    0    0 -0.34930229552E+02  0.25468937916E+01 -0.56926234149E+02  0.66837143408E+02  0.00000000000E+00 0.  1.
         13    1    4    4    0    0  0.39378133985E+02 -0.65198609662E+01 -0.22234490127E+03  0.22589909505E+03  0.00000000000E+00 0. -1.
         21    1    1    2  502  501  0.22757437655E+02  0.49300054244E+02 -0.32198638627E+02  0.63128033761E+02  0.00000000000E+00 0.  1.
<scales pt_clust_5="13000.00000" pt_clust_6="13000.00000" pt_clust_7="13000.00000" pt_clust_8="13000.00000" pt_clust_9="54.29914"></scales>
<clustering>
<clus scale="   54.299">  2  9  1 -1</clus>
<clus scale="   58.657">  5  6 -1 -1</clus>
<clus scale="   78.397">  1  5  2 -1</clus>
<clus scale="   87.559">  7  8 -1 -1</clus>
<clus scale="   54.299">  2  5  1 -1</clus>
</clustering>
</event>
<event>
 9    1  0.1782981E-005  0.2015406E+03  0.7546771E-02  0.1148847E+00
         -2   -1    0    0    0  501 -0.00000000000E+00  0.00000000000E+00  0.24221456957E+03  0.24221456957E+03  0.00000000000E+00 0.  1.
          2   -1    0    0  502    0  0.00000000000E+00 -0.00000000000E+00 -0.63939760737E+03  0.63939760737E+03  0.00000000000E+00 0. -1.
         23    2    1    2    0    0 -0.18196386102E+03 -0.43956048725E+02  0.17214593969E+03  0.27122588698E+03  0.94267047672E+02 0.  0.
         23    2    1    2    0    0  0.10535073528E+03  0.33220378151E+02 -0.35757077649E+03  0.38493926437E+03  0.90105527627E+02 0.  0.
        -13    1    3    3    0    0 -0.75604133391E+02  0.20301491420E+02  0.10184552237E+03  0.12845484018E+03  0.00000000000E+00 0. -1.
         13    1    3    3    0    0 -0.10635972763E+03 -0.64257540145E+02  0.70300417323E+02  0.14277104679E+03  0.00000000000E+00 0.  1.
        -13    1    4    4    0    0  0.36194628392E+02 -0.27651775790E+02 -0.16952211806E+03  0.17553466991E+03  0.00000000000E+00 0.  1.
         13    1    4    4    0    0  0.69156106891E+02  0.60872153941E+02 -0.18804865842E+03  0.20940459446E+03  0.00000000000E+00 0. -1.
         21    1    1    2  502  501  0.76613125738E+02  0.10735670574E+02 -0.21175820100E+03  0.22544702559E+03  0.00000000000E+00 0. -1.
<scales pt_clust_5="13000.00000" pt_clust_6="13000.00000" pt_clust_7="13000.00000" pt_clust_8="13000.00000" pt_clust_9="77.36165"></scales>
<clustering>
<clus scale="   77.362">  2  9  1 -1</clus>
<clus scale="   90.106">  7  8 -1 -1</clus>
<clus scale="   94.267">  5  6 -1 -1</clus>
<clus scale="  199.628">  2  7  1 -1</clus>
<clus scale="   77.362">  2  5  1 -1</clus>
</clustering>
</event>
<event>
 9    1  0.1782981E-005  0.1129285E+03  0.7546771E-02  0.1262889E+00
          1   -1    0    0  502    0  0.00000000000E+00  0.00000000000E+00  0.37041095142E+03  0.37041095142E+03  0.00000000000E+00 0. -1.
         -1   -1    0    0    0  501 -0.00000000000E+00 -0.00000000000E+00 -0.44996324804E+02  0.44996324804E+02  0.00000000000E+00 0.  1.
         23    2    1    2    0    0  0.33810824092E+02 -0.25454855668E+02  0.68766702254E+02  0.12025610759E+03  0.89115377863E+02 0.  0.
         23    2    1    2    0    0 -0.91178260640E+01  0.36329219655E+02  0.16574925016E+03  0.20033257913E+03  0.10610080762E+03 0.  0.
        -11    1    4    4    0    0 -0.23694335259E+02  0.64196323500E+02  0.63489725352E+02  0.93346315940E+02  0.00000000000E+00 0.  1.
         11    1    4    4    0    0  0.14576509195E+02 -0.27867103844E+02  0.10225952481E+03  0.10698626319E+03  0.00000000000E+00 0. -1.
        -13    1    3    3    0    0  0.64046176401E+02 -0.17312788765E+02  0.54440421892E+02  0.85821937185E+02  0.00000000000E+00 0. -1.
         13    1    3    3    0    0 -0.30235352309E+02 -0.81420669031E+01  0.14326280362E+02  0.34434170408E+02  0.00000000000E+00 0.  1.
         21    1    1    2  502  501 -0.24692998028E+02 -0.10874363987E+02  0.90898674201E+02  0.94818589502E+02  0.00000000000E+00 0. -1.
<scales pt_clust_5="13000.00000" pt_clust_6="13000.00000" pt_clust_7="13000.00000" pt_clust_8="13000.00000" pt_clust_9="26.98140"></scales>
<clustering>
<clus scale="   26.981">  1  9  2 -1</clus>
<clus scale="   89.115">  7  8 -1 -1</clus>
<clus scale="   97.144">  2  7  1 -1</clus>
<clus scale="  106.101">  5  6 -1 -1</clus>
<clus scale="   26.981">  1  5  2 -1</clus>
</clustering>
</event>
<event>
 9    1  0.1782981E-005  0.9495422E+02  0.7546771E-02  0.1291818E+00
          2   -1    0    0  502    0  0.00000000000E+00  0.00000000000E+00  0.17405039649E+03  0.17405039649E+03  0.00000000000E+00 0. -1.
         -2   -1    0    0    0  501 -0.00000000000E+00 -0.00000000000E+00 -0.13505076881E+03  0.13505076881E+03  0.00000000000E+00 0.  1.
         23    2    1    2    0    0 -0.18248188408E+02  0.23428169649E+02 -0.84744292756E+02  0.12753593246E+03  0.90564581378E+02 0.  0.
         23    2    1    2    0    0  0.85695679141E+00  0.40659366771E+01  0.11651670282E+03  0.14823936460E+03  0.91550537759E+02 0.  0.
        -13    1    4    4    0    0  0.26104032047E+02  0.35367970900E+02  0.31154614054E+02  0.53878788327E+02  0.00000000000E+00 0.  1.
         13    1    4    4    0    0 -0.25247075255E+02 -0.31302034223E+02  0.85362088767E+02  0.94360576271E+02  0.00000000000E+00 0. -1.
        -13    1    3    3    0    0 -0.55246211164E+02  0.11643332362E+02 -0.48935223605E+02  0.74715240385E+02  0.00000000000E+00 0.  1.
         13    1    3    3    0    0  0.36998022756E+02  0.11784837286E+02 -0.35809069151E+02  0.52820692074E+02  0.00000000000E+00 0. -1.
         21    1    1    2  502  501  0.17391231616E+02 -0.27494106326E+02  0.72272176215E+01  0.33325868246E+02  0.00000000000E+00 0.  1.
<scales pt_clust_5="13000.00000" pt_clust_6="13000.00000" pt_clust_7="13000.00000" pt_clust_8="13000.00000" pt_clust_9="32.53277"></scales>
<clustering>
<clus scale="   32.533">  1  9  2 -1</clus>
<clus scale="   90.565">  7  8 -1 -1</clus>
<clus scale="   91.551">  5  6 -1 -1</clus>
<clus scale="   94.004">  2  7  1 -1</clus>
<clus scale="   32.533">  1  5  2 -1</clus>
</clustering>
</event>
<event>
 9    1  0.1782981E-005  0.1286137E+03  0.7546771E-02  0.1229918E+00
         -1   -1    0    0    0  501 -0.00000000000E+00  0.00000000000E+00  0.72643553127E+02  0.72643553127E+02  0.00000000000E+00 0.  1.
          1   -1    0    0  502    0  0.00000000000E+00 -0.00000000000E+00 -0.28092114746E+03  0.28092114746E+03  0.00000000000E+00 0. -1.
         23    2    1    2    0    0 -0.19141667518E+02  0.86572280713E+02 -0.80142170382E+02  0.15078925386E+03  0.91942745141E+02 0.  0.
         23    2    1    2    0    0  0.43334654136E+02 -0.78995977942E+02 -0.93864543610E+02  0.16014688582E+03  0.93371385938E+02 0.  0.
        -11    1    4    4    0    0  0.16913429092E+01 -0.58953692242E+02 -0.40225130839E+01  0.59114964952E+02  0.00000000000E+00 0.  1.
         11    1    4    4    0    0  0.41643311227E+02 -0.20042285700E+02 -0.89842030527E+02  0.10103192087E+03  0.00000000000E+00 0. -1.
        -13    1    3    3    0    0  0.25860695684E+02  0.12239069393E+02 -0.52175776625E+02  0.59505311252E+02  0.00000000000E+00 0.  1.
         13    1    3    3    0    0 -0.45002363202E+02  0.74333211320E+02 -0.27966393758E+02  0.91283942612E+02  0.00000000000E+00 0. -1.
         21    1    1    2  502  501 -0.24192986617E+02 -0.75763027711E+01 -0.34270880342E+02  0.42628560902E+02  0.00000000000E+00 0.  1.
<scales pt_clust_5="13000.00000" pt_clust_6="13000.00000" pt_clust_7="13000.00000" pt_clust_8="13000.00000" pt_clust_9="25.35155"></scales>
<clustering>
<clus scale="   25.352">  2  9  1 -1</clus>
<clus scale="   91.943">  7  8 -1 -1</clus>
<clus scale="   93.371">  5  6 -1 -1</clus>
<clus scale="  127.580">  1  7  2 -1</clus>
<clus scale="   25.352">  2  5  1 -1</clus>
</clustering>
</event>
<event>
 9    1  0.1782981E-005  0.2317335E+03  0.7546771E-02  0.1159709E+00
          2   -1    0    0  502    0  0.00000000000E+00  0.00000000000E+00  0.74368002735E+03  0.74368002735E+03  0.00000000000E+00 0. -1.
         -2   -1    0    0    0  501 -0.00000000000E+00 -0.00000000000E+00 -0.13562570756E+03  0.13562570756E+03  0.00000000000E+00 0.  1.
         23    2    1    2    0    0  0.10725594779E+02 -0.16821880000E+02 -0.10267645687E+02  0.10223765561E+03  0.99745173551E+02 0.  0.
         23    2    1    2    0    0  0.16538559352E+03  0.13527370928E+03  0.19565959476E+03  0.30410987172E+03  0.92459537573E+02 0.  0.
        -13    1    4    4    0    0  0.17480789027E+03  0.11670836831E+03  0.18777417593E+03  0.28184709131E+03  0.00000000000E+00 0.  1.
         13    1    4    4    0    0 -0.94222967526E+01  0.18565340963E+02  0.78854188338E+01  0.22262780405E+02  0.00000000000E+00 0. -1.
        -13    1    3    3    0    0  0.45063468072E+02 -0.39239937263E+02 -0.12954467695E+02  0.61141696610E+02  0.00000000000E+00 0.  1.
         13    1    3    3    0    0 -0.34337873293E+02  0.22418057262E+02  0.26868220083E+01  0.41095959001E+02  0.00000000000E+00 0. -1.
         21    1    1    2  502  501 -0.17611118830E+03 -0.11845182928E+03  0.42266237071E+03  0.47295820758E+03  0.00000000000E+00 0. -1.
<scales pt_clust_5="13000.00000" pt_clust_6="13000.00000" pt_clust_7="13000.00000" pt_clust_8="13000.00000" pt_clust_9="212.48916"></scales>
<clustering>
<clus scale="   92.460">  5  6 -1 -1</clus>
<clus scale="   99.745">  7  8 -1 -1</clus>
<clus scale="  101.721">  2  7  1 -1</clus>
<clus scale="  212.489">  1  9  2 -1</clus>
<clus scale="  212.489">  1  5  2 -1</clus>
</clustering>
</event>
<event>
 9    1  0.1782981E-005  0.1115214E+03  0.7546771E-02  0.1261075E+00
          3   -1    0    0  502    0  0.00000000000E+00  0.00000000000E+00  0.18376399255E+03  0.18376399255E+03  0.00000000000E+00 0. -1.
         -3   -1    0    0    0  501 -0.00000000000E+00 -0.00000000000E+00 -0.31887721669E+03  0.31887721669E+03  0.00000000000E+00 0.  1.
         23    2    1    2    0    0  0.34208165566E+02  0.10946439503E+02 -0.17860199622E+03  0.20723770489E+03  0.98786487674E+02 0.  0.
         23    2    1    2    0    0 -0.81568326904E+02 -0.35631064006E+02 -0.87226564658E+02  0.15419863607E+03  0.90806283413E+02 0.  0.
        -11    1    4    4    0    0 -0.50953708364E+01 -0.23979703097E+02  0.12875503568E+02  0.27690568010E+02  0.00000000000E+00 0. -1.
         11    1    4    4    0    0 -0.76472956067E+02 -0.11651360909E+02 -0.10010206823E+03  0.12650806806E+03  0.00000000000E+00 0.  1.
        -13    1    3    3    0    0  0.34412354231E+02 -0.20772874579E+02 -0.18902939392E+02  0.44418954959E+02  0.00000000000E+00 0. -1.
         13    1    3    3    0    0 -0.20418866445E+00  0.31719314082E+02 -0.15969905682E+03  0.16281874993E+03  0.00000000000E+00 0.  1.
         21    1    1    2  502  501  0.47360161337E+02  0.24684624503E+02  0.13071533673E+03  0.14120486828E+03  0.00000000000E+00 0. -1.
<scales pt_clust_5="13000.00000" pt_clust_6="13000.00000" pt_clust_7="13000.00000" pt_clust_8="13000.00000" pt_clust_9="53.40707"></scales>
<clustering>
<clus scale="   53.407">  1  9  2 -1</clus>
<clus scale="   90.806">  5  6 -1 -1</clus>
<clus scale="   98.786">  7  8 -1 -1</clus>
<clus scale="  104.518">  1  5  2 -1</clus>
<clus scale="   53.407">  1  5  2 -1</clus>
</clustering>
</event>
<event>
 9    1  0.1782981E-005  0.1449058E+03  0.7546771E-02  0.1208050E+00
          1   -1    0    0  502    0  0.00000000000E+00  0.00000000000E+00  0.53627859019E+02  0.53627859019E+02  0.00000000000E+00 0. -1.
         -1   -1    0    0    0  501 -0.00000000000E+00 -0.00000000000E+00 -0.50668942580E+03  0.50668942580E+03  0.00000000000E+00 0.  1.
         23    2    1    2    0    0  0.99970289173E+02  0.19366474643E+02 -0.26054091041E+03  0.29607446169E+03  0.97002071165E+02 0.  0.
         23    2    1    2    0    0 -0.10881309386E+03 -0.44868541992E+02 -0.18198750134E+03  0.23526873145E+03  0.91533872952E+02 0.  0.
        -11    1    4    4    0    0 -0.56749834276E+02 -0.51767305590E+02 -0.46100488555E+02  0.89586007074E+02  0.00000000000E+00 0. -1.
         11    1    4    4    0    0 -0.52063259582E+02  0.68987635982E+01 -0.13588701278E+03  0.14568272437E+03  0.00000000000E+00 0.  1.
        -11    1    3    3    0    0  0.92719172110E+02  0.44574146466E+02 -0.24466523606E+03  0.26541434993E+03  0.00000000000E+00 0.  1.
         11    1    3    3    0    0  0.72511170629E+01 -0.25207671823E+02 -0.15875674352E+02  0.30660111766E+02  0.00000000000E+00 0. -1.
         21    1    1    2  502  501  0.88428046851E+01  0.25502067348E+02 -0.10533155028E+02  0.28974091678E+02  0.00000000000E+00 0. -1.
<scales pt_clust_5="13000.00000" pt_clust_6="13000.00000" pt_clust_7="13000.00000" pt_clust_8="13000.00000" pt_clust_9="26.99168"></scales>
<clustering>
<clus scale="   26.992">  1  9  2 -1</clus>
<clus scale="   91.534">  5  6 -1 -1</clus>
<clus scale="   97.002">  7  8 -1 -1</clus>
<clus scale="  141.304">  1  5  2 -1</clus>
<clus scale="   26.992">  1  5  2 -1</clus>
</clustering>
</event>
<event>
 9    1  0.1782981E-005  0.1503174E+03  0.7546771E-02  0.1210742E+00
         -2   -1    0    0    0  501 -0.00000000000E+00  0.00000000000E+00  0.67620698071E+02  0.67620698071E+02  0.00000000000E+00 0.  1.
          2   -1    0    0  502    0  0.00000000000E+00 -0.00000000000E+00 -0.64265320570E+03  0.64265320570E+03  0.00000000000E+00 0. -1.
         23    2    1    2    0    0 -0.17329528915E+02 -0.73863218989E+02 -0.13187192542E+03  0.17796659634E+03  0.92335350803E+02 0.  0.
         23    2    1    2    0    0 -0.10793566975E+03  0.19727375733E+02 -0.12871218612E+03  0.18952479136E+03  0.85519246517E+02 0.  0.
        -11    1    3    3    0    0  0.20141608661E+02  0.30078249798E+01  0.50283529896E+00  0.20371162311E+02  0.00000000000E+00 0.  1.
         11    1    3    3    0    0 -0.37471137576E+02 -0.76871043969E+02 -0.13237476071E+03  0.15759543403E+03  0.00000000000E+00 0. -1.
        -11    1    4    4    0    0 -0.19867803923E+02 -0.18790806371E+02 -0.74068931601E+02  0.78955877965E+02  0.00000000000E+00 0. -1.
         11    1    4    4    0    0 -0.88067865829E+02  0.38518182103E+02 -0.54643254521E+02  0.11056891339E+03  0.00000000000E+00 0.  1.
         21    1    1    2  502  501  0.12526519867E+03  0.54135843256E+02 -0.31444839610E+03  0.34278251608E+03  0.00000000000E+00 0. -1.
<scales pt_clust_5="13000.00000" pt_clust_6="13000.00000" pt_clust_7="13000.00000" pt_clust_8="13000.00000" pt_clust_9="123.61955"></scales>
<clustering>
<clus scale="   85.519">  7  8 -1 -1</clus>
<clus scale="   92.335">  5  6 -1 -1</clus>
<clus scale="  119.507">  1  5  2 -1</clus>
<clus scale="  123.620">  2  9  1 -1</clus>
<clus scale="  123.620">  2  5  1 -1</clus>
</clustering>
</event>
<event>
 9    1  0.1782981E-005  0.9272254E+02  0.7546771E-02  0.1299851E+00
          3   -1    0    0  502    0  0.00000000000E+00  0.00000000000E+00  0.88202159917E+02  0.88202159917E+02  0.00000000000E+00 0. -1.
         -3   -1    0    0    0  501 -0.00000000000E+00 -0.00000000000E+00 -0.20720839361E+03  0.20720839361E+03  0.00000000000E+00 0.  1.
         23    2    1    2    0    0 -0.12163251443E+02 -0.31067374583E+02 -0.11822098475E+03  0.15250701389E+03  0.90382861217E+02 0.  0.
         23    2    1    2    0    0  0.14427476740E+02 -0.22957582479E+02  0.22190041041E+01  0.88747762127E+02  0.84475076945E+02 0.  0.
        -11    1    4    4    0    0  0.48042545449E+02 -0.86322402174E+00 -0.32081358327E+01  0.48157278416E+02  0.00000000000E+00 0. -1.
         11    1    4    4    0    0 -0.33615068709E+02 -0.22094358457E+02  0.54271399367E+01  0.40590483711E+02  0.00000000000E+00 0.  1.
        -11    1    3    3    0    0 -0.25846569708E+02 -0.54211788602E+02 -0.10831942224E+03  0.12385499757E+03  0.00000000000E+00 0.  1.
         11    1    3    3    0    0  0.13683318265E+02  0.23144414019E+02 -0.99015625076E+01  0.28652016318E+02  0.00000000000E+00 0. -1.
         21    1    1    2  502  501 -0.22642252964E+01  0.54024957062E+02 -0.30042530535E+01  0.54155777514E+02  0.00000000000E+00 0.  1.
<scales pt_clust_5="13000.00000" pt_clust_6="13000.00000" pt_clust_7="13000.00000" pt_clust_8="13000.00000" pt_clust_9="54.07238"></scales>
<clustering>
<clus scale="   54.072">  1  9  2 -1</clus>
<clus scale="   84.475">  5  6 -1 -1</clus>
<clus scale="   86.974">  1  5  2 -1</clus>
<clus scale="   90.383">  7  8 -1 -1</clus>
<clus scale="   54.072">  1  5  2 -1</clus>
</clustering>
</event>
<event>
 9    1  0.1782981E-005  0.2610017E+03  0.7546771E-02  0.1129309E+00
         -2   -1    0    0    0  501 -0.00000000000E+00  0.00000000000E+00  0.28589283947E+03  0.28589283947E+03  0.00000000000E+00 0.  1.
          2   -1    0    0  502    0  0.00000000000E+00 -0.00000000000E+00 -0.63991053567E+03  0.63991053567E+03  0.00000000000E+00 0. -1.
         23    2    1    2    0    0  0.19799395747E+02  0.11457790373E+03  0.12071698354E+03  0.19049877213E+03  0.90537726787E+02 0.  0.
         23    2    1    2    0    0 -0.25808884646E+03 -0.62519760384E+02 -0.12084193859E+03  0.30550001386E+03  0.90603042124E+02 0.  0.
        -13    1    4    4    0    0 -0.22076143088E+03 -0.19644674197E+02 -0.11074908382E+03  0.24776376280E+03  0.00000000000E+00 0.  1.
         13    1    4    4    0    0 -0.37327415580E+02 -0.42875086187E+02 -0.10092854763E+02  0.57736251062E+02  0.00000000000E+00 0. -1.
        -13    1    3    3    0    0  0.55288685158E+02  0.54778890336E+02  0.63835533461E+02  0.10066052287E+03  0.00000000000E+00 0. -1.
         13    1    3    3    0    0 -0.35489289412E+02  0.59799013391E+02  0.56881450081E+02  0.89838249253E+02  0.00000000000E+00 0.  1.
         21    1    1    2  502  501  0.23828945072E+03 -0.52058143343E+02 -0.35389274116E+03  0.42980458915E+03  0.00000000000E+00 0. -1.
<scales pt_clust_5="13000.00000" pt_clust_6="13000.00000" pt_clust_7="13000.00000" pt_clust_8="13000.00000" pt_clust_9="244.77130"></scales>
<clustering>
<clus scale="   90.538">  7  8 -1 -1</clus>
<clus scale="   90.603">  5  6 -1 -1</clus>
<clus scale="  147.368">  1  7  2 -1</clus>
<clus scale="  244.771">  2  9  1 -1</clus>
<clus scale="  244.771">  2  5  1 -1</clus>
</clustering>
</event>
<event>
 9    1  0.1782981E-005  0.1471171E+03  0.7546771E-02  0.1204112E+00
          1   -1    0    0  502    0  0.00000000000E+00  0.00000000000E+00  0.18456129634E+03  0.18456129634E+03  0.00000000000E+00 0. -1.
         -1   -1    0    0    0  501 -0.00000000000E+00 -0.00000000000E+00 -0.15257388142E+03  0.15257388142E+03  0.00000000000E+00 0.  1.
         23    2    1    2    0    0  0.59380453777E+02 -0.10363491203E+03 -0.26481743029E+02  0.15287381838E+03  0.91667269794E+02 0.  0.
         23    2    1    2    0    0 -0.75685339842E+02  0.79938072775E+02  0.36291771145E+02  0.14794020872E+03  0.91928486100E+02 0.  0.
        -11    1    3    3    0    0  0.97900933275E+00 -0.46642417025E+02  0.28322059504E+02  0.54576666991E+02  0.00000000000E+00 0. -1.
         11    1    3    3    0    0  0.58401444444E+02 -0.56992495005E+02 -0.54803802534E+02  0.98297151394E+02  0.00000000000E+00 0.  1.
        -11    1    4    4    0    0 -0.10156997910E+02  0.56298537305E+02  0.51117299440E+02  0.76718108757E+02  0.00000000000E+00 0.  1.
         11    1    4    4    0    0 -0.65528341932E+02  0.23639535470E+02 -0.14825528295E+02  0.71222099960E+02  0.00000000000E+00 0. -1.
         21    1    1    2  502  501  0.16304886065E+02  0.23696839256E+02  0.22177386804E+02  0.36321150667E+02  0.00000000000E+00 0.  1.
<scales pt_clust_5="13000.00000" pt_clust_6="13000.00000" pt_clust_7="13000.00000" pt_clust_8="13000.00000" pt_clust_9="28.76438"></scales>
<clustering>
<clus scale="   28.764">  1  9  2 -1</clus>
<clus scale="   91.667">  5  6 -1 -1</clus>
<clus scale="   91.928">  7  8 -1 -1</clus>
<clus scale="  146.954">  2  5  1 -1</clus>
<clus scale="   28.764">  1  5  2 -1</clus>
</clustering>
</event>
<event>
 9    1  0.1782981E-005  0.3302504E+03  0.7546771E-02  0.1071066E+00
          2   -1    0    0  502    0  0.00000000000E+00  0.00000000000E+00  0.54865797062E+03  0.54865797062E+03  0.00000000000E+00 0. -1.
         -2   -1    0    0    0  501 -0.00000000000E+00 -0.00000000000E+00 -0.58869567459E+03  0.58869567459E+03  0.00000000000E+00 0.  1.
         23    2    1    2    0    0 -0.27583381113E+03 -0.13687158569E+03 -0.41477134206E+03  0.52465587184E+03  0.91708207536E+02 0.  0.
         23    2    1    2    0    0  0.36296378215E+03  0.13086356262E+03  0.29044391594E+03  0.49132032303E+03  0.90388120567E+02 0.  0.
        -11    1    3    3    0    0 -0.15677444240E+03 -0.34126296241E+02 -0.17035118149E+03  0.23401357850E+03  0.00000000000E+00 0. -1.
         11    1    3    3    0    0 -0.11905936873E+03 -0.10274528945E+03 -0.24442016058E+03  0.29064229335E+03  0.00000000000E+00 0.  1.
        -13    1    4    4    0    0  0.17578674611E+03  0.68238070922E+02  0.19780963593E+03  0.27328751617E+03  0.00000000000E+00 0. -1.
         13    1    4    4    0    0  0.18717703604E+03  0.62625491701E+02  0.92634280015E+02  0.21803280686E+03  0.00000000000E+00 0.  1.
         21    1    1    2  502  501 -0.87129971014E+02  0.60080230704E+01  0.84289722156E+02  0.12137745034E+03  0.00000000000E+00 0. -1.
<scales pt_clust_5="13000.00000" pt_clust_6="13000.00000" pt_clust_7="13000.00000" pt_clust_8="13000.00000" pt_clust_9="87.33687"></scales>
<clustering>
<clus scale="   87.337">  1  9  2 -1</clus>
<clus scale="   90.388">  7  8 -1 -1</clus>
<clus scale="   91.708">  5  6 -1 -1</clus>
<clus scale="  329.886">  1  7  2 -1</clus>
<clus scale="   87.337">  1  5  2 -1</clus>
</clustering>
</event>
<event>
 9    1  0.1782981E-005  0.1046826E+03  0.7546771E-02  0.1272143E+00
          1   -1    0    0  502    0  0.00000000000E+00  0.00000000000E+00  0.63358381903E+02  0.63358381903E+02  0.00000000000E+00 0. -1.
         -1   -1    0    0    0  501 -0.00000000000E+00 -0.00000000000E+00 -0.67198690480E+03  0.67198690480E+03  0.00000000000E+00 0.  1.
         23    2    1    2    0    0 -0.50802566492E+02  0.21608396666E+02 -0.56841420517E+03  0.57755319179E+03  0.86169351531E+02 0.  0.
         23    2    1    2    0    0  0.27731091787E+02 -0.47887363553E+02 -0.90758371783E+00  0.10518129389E+03  0.89443098311E+02 0.  0.
        -13    1    4    4    0    0  0.49425136572E+02 -0.43129874434E+02 -0.26982175794E+02  0.70930021884E+02  0.00000000000E+00 0. -1.
         13    1    4    4    0    0 -0.21694044785E+02 -0.47574891195E+01  0.26074592076E+02  0.34251272002E+02  0.00000000000E+00 0.  1.
        -13    1    3    3    0    0 -0.50397242994E+02  0.51645758553E+02 -0.38742319979E+03  0.39408616090E+03  0.00000000000E+00 0.  1.
         13    1    3    3    0    0 -0.40532349862E+00 -0.30037361887E+02 -0.18099100538E+03  0.18346703090E+03  0.00000000000E+00 0. -1.
         21    1    1    2  502  501  0.23071474705E+02  0.26278966887E+02 -0.39306734009E+02  0.52610801022E+02  0.00000000000E+00 0.  1.
<scales pt_clust_5="13000.00000" pt_clust_6="13000.00000" pt_clust_7="13000.00000" pt_clust_8="13000.00000" pt_clust_9="34.96966"></scales>
<clustering>
<clus scale="   34.970">  1  9  2 -1</clus>
<clus scale="   86.169">  7  8 -1 -1</clus>
<clus scale="   89.443">  5  6 -1 -1</clus>
<clus scale="  101.900">  2  7  1 -1</clus>
<clus scale="   34.970">  1  5  2 -1</clus>
</clustering>
</event>
<event>
 9    1  0.1782981E-005  0.1314107E+03  0.7546771E-02  0.1228059E+00
         -2   -1    0    0    0  501 -0.00000000000E+00  0.00000000000E+00  0.21603788292E+03  0.21603788292E+03  0.00000000000E+00 0. -1.
          2   -1    0    0  502    0  0.00000000000E+00 -0.00000000000E+00 -0.14558967261E+03  0.14558967261E+03  0.00000000000E+00 0.  1.
         23    2    1    2    0    0 -0.24217735962E+02  0.89275157549E+02  0.53967681552E+02  0.13295588423E+03  0.78792157034E+02 0.  0.
         23    2    1    2    0    0 -0.20036142384E+02 -0.10331057924E+03  0.72372625513E+02  0.15601270563E+03  0.89597123902E+02 0.  0.
        -13    1    3    3    0    0 -0.52907242337E+02  0.64606494805E+02  0.40348633638E+02  0.92742588378E+02  0.00000000000E+00 0.  1.
         13    1    3    3    0    0  0.28689506374E+02  0.24668662744E+02  0.13619047914E+02  0.40213295857E+02  0.00000000000E+00 0. -1.
        -13    1    4    4    0    0 -0.33000304536E+02  0.10412420724E+01  0.15707577133E+02  0.36562716856E+02  0.00000000000E+00 0.  1.
         13    1    4    4    0    0  0.12964162153E+02 -0.10435182131E+03  0.56665048380E+02  0.11944998878E+03  0.00000000000E+00 0. -1.
         21    1    1    2  502  501  0.44253878346E+02  0.14035421688E+02 -0.55892096754E+02  0.72658965656E+02  0.00000000000E+00 0. -1.
<scales pt_clust_5="13000.00000" pt_clust_6="13000.00000" pt_clust_7="13000.00000" pt_clust_8="13000.00000" pt_clust_9="46.42627"></scales>
<clustering>
<clus scale="   46.426">  2  9  1 -1</clus>
<clus scale="   78.792">  5  6 -1 -1</clus>
<clus scale="   89.597">  7  8 -1 -1</clus>
<clus scale="  124.295">  1  5  2 -1</clus>
<clus scale="   46.426">  2  5  1 -1</clus>
</clustering>
</event>
<event>
 9    1  0.1782981E-005  0.1874230E+03  0.7546771E-02  0.1161059E+00
          1   -1    0    0  502    0  0.00000000000E+00  0.00000000000E+00  0.20431716540E+03  0.20431716540E+03  0.00000000000E+00 0. -1.
         -1   -1    0    0    0  501 -0.00000000000E+00 -0.00000000000E+00 -0.34300836680E+03  0.34300836680E+03  0.00000000000E+00 0.  1.
         23    2    1    2    0    0  0.40968354197E+02 -0.16884249601E+03 -0.24198521797E+03  0.31166467331E+03  0.91606923130E+02 0.  0.
         23    2    1    2    0    0 -0.44787233690E+02  0.12400899342E+03  0.52258347889E+02  0.16762214731E+03  0.89342725475E+02 0.  0.
        -11    1    3    3    0    0  0.59405451469E+02 -0.65519257563E+02 -0.83864966245E+02  0.12188155455E+03  0.00000000000E+00 0. -1.
         11    1    3    3    0    0 -0.18437097272E+02 -0.10332323845E+03 -0.15812025173E+03  0.18978311876E+03  0.00000000000E+00 0.  1.
        -11    1    4    4    0    0 -0.12469776301E+02  0.12206237291E+03  0.24819420335E+02  0.12518275372E+03  0.00000000000E+00 0.  1.
         11    1    4    4    0    0 -0.32317457389E+02  0.19466205052E+01  0.27438927554E+02  0.42439393596E+02  0.00000000000E+00 0. -1.
         21    1    1    2  502  501  0.38188794929E+01  0.44833502589E+02  0.51035668686E+02  0.68038711578E+02  0.00000000000E+00 0. -1.
<scales pt_clust_5="13000.00000" pt_clust_6="13000.00000" pt_clust_7="13000.00000" pt_clust_8="13000.00000" pt_clust_9="44.99585"></scales>
<clustering>
<clus scale="   44.996">  1  9  2 -1</clus>
<clus scale="   89.343">  7  8 -1 -1</clus>
<clus scale="   91.607">  5  6 -1 -1</clus>
<clus scale="  186.327">  1  7  2 -1</clus>
<clus scale="   44.996">  1  5  2 -1</clus>
</clustering>
</event>
<event>
 9    1  0.1782981E-005  0.1616274E+03  0.7546771E-02  0.1188163E+00
          1   -1    0    0  502    0  0.00000000000E+00  0.00000000000E+00  0.30677192579E+03  0.30677192579E+03  0.00000000000E+00 0. -1.
         -1   -1    0    0    0  501 -0.00000000000E+00 -0.00000000000E+00 -0.94552366148E+02  0.94552366148E+02  0.00000000000E+00 0.  1.
         23    2    1    2    0    0 -0.14287291313E+02  0.14095655947E+03  0.87875219239E+02  0.19017317968E+03  0.91492654140E+02 0.  0.
         23    2    1    2    0    0  0.23436684590E+02 -0.12247271404E+03  0.10632674464E+03  0.18376502644E+03  0.83158670329E+02 0.  0.
        -13    1    3    3    0    0 -0.41121034733E+02  0.22323193504E+02  0.28944501110E+02  0.55018620577E+02  0.00000000000E+00 0.  1.
         13    1    3    3    0    0  0.26833743420E+02  0.11863336596E+03  0.58930718129E+02  0.13515455910E+03  0.00000000000E+00 0. -1.
        -13    1    4    4    0    0  0.16542087682E+02 -0.68033432992E+02  0.70985871859E+01  0.70374559392E+02  0.00000000000E+00 0.  1.
         13    1    4    4    0    0  0.68945969077E+01 -0.54439281043E+02  0.99228157451E+02  0.11339046705E+03  0.00000000000E+00 0. -1.
         21    1    1    2  502  501 -0.91493932770E+01 -0.18483845433E+02  0.18017595771E+02  0.27386085823E+02  0.00000000000E+00 0.  1.
<scales pt_clust_5="13000.00000" pt_clust_6="13000.00000" pt_clust_7="13000.00000" pt_clust_8="13000.00000" pt_clust_9="20.62435"></scales>
<clustering>
<clus scale="   20.624">  1  9  2 -1</clus>
<clus scale="   83.159">  7  8 -1 -1</clus>
<clus scale="   91.493">  5  6 -1 -1</clus>
<clus scale="  157.060">  1  7  2 -1</clus>
<clus scale="   20.624">  1  5  2 -1</clus>
</clustering>
</event>
<event>
 9    1  0.1782981E-005  0.9178122E+02  0.7546771E-02  0.1298780E+00
          2   -1    0    0  502    0  0.00000000000E+00  0.00000000000E+00  0.12442487440E+03  0.12442487440E+03  0.00000000000E+00 0. -1.
         -2   -1    0    0    0  501 -0.00000000000E+00 -0.00000000000E+00 -0.15322958721E+03  0.15322958721E+03  0.00000000000E+00 0.  1.
         23    2    1    2    0    0  0.13071973407E+02 -0.23254493694E+01 -0.10353789336E+03  0.13840108597E+03  0.90876185175E+02 0.  0.
         23    2    1    2    0    0  0.31792507819E+01 -0.16187149099E+02  0.62240095054E+02  0.11163280767E+03  0.91191682097E+02 0.  0.
        -13    1    4    4    0    0 -0.15788213927E+02  0.34829323109E+02  0.25262465405E+02  0.45831665970E+02  0.00000000000E+00 0.  1.
         13    1    4    4    0    0  0.18967464709E+02 -0.51016472208E+02  0.36977629649E+02  0.65801141696E+02  0.00000000000E+00 0. -1.
        -13    1    3    3    0    0  0.14296422096E+02 -0.40033951730E+02 -0.87745860007E+02  0.97500979094E+02  0.00000000000E+00 0. -1.
         13    1    3    3    0    0 -0.12244486889E+01  0.37708502360E+02 -0.15792033353E+02  0.40900106873E+02  0.00000000000E+00 0.  1.
         21    1    1    2  502  501 -0.16251224189E+02  0.18512598468E+02  0.12493085496E+02  0.27620567969E+02  0.00000000000E+00 0.  1.
<scales pt_clust_5="13000.00000" pt_clust_6="13000.00000" pt_clust_7="13000.00000" pt_clust_8="13000.00000" pt_clust_9="24.63369"></scales>
<clustering>
<clus scale="   24.634">  1  9  2 -1</clus>
<clus scale="   90.876">  7  8 -1 -1</clus>
<clus scale="   91.192">  5  6 -1 -1</clus>
<clus scale="   91.468">  2  7  1 -1</clus>
<clus scale="   24.634">  1  5  2 -1</clus>
</clustering>
</event>
<event>
 9    1  0.1782981E-005  0.1102725E+03  0.7546771E-02  0.1271505E+00
          1   -1    0    0  502    0  0.00000000000E+00  0.00000000000E+00  0.22663956678E+03  0.22663956678E+03  0.00000000000E+00 0. -1.
         -1   -1    0    0    0  501 -0.00000000000E+00 -0.00000000000E+00 -0.63964999095E+02  0.63964999095E+02  0.00000000000E+00 0.  1.
         23    2    1    2    0    0  0.49117659064E+02 -0.52412647960E+02  0.32372644338E+02  0.12068066729E+03  0.91412281764E+02 0.  0.
         23    2    1    2    0    0 -0.42638058728E+02  0.24730912893E+02  0.88382197496E+02  0.11927286610E+03  0.63126711055E+02 0.  0.
        -11    1    4    4    0    0 -0.40974675961E+02 -0.10813786145E+02  0.34227186535E+02  0.54473501255E+02  0.00000000000E+00 0.  1.
         11    1    4    4    0    0 -0.16633827670E+01  0.35544699039E+02  0.54155010960E+02  0.64799364843E+02  0.00000000000E+00 0. -1.
        -13    1    3    3    0    0  0.10685668426E+02 -0.61091543197E+02 -0.10000654823E+02  0.62820166004E+02  0.00000000000E+00 0.  1.
         13    1    3    3    0    0  0.38431990638E+02  0.86788952374E+01  0.42373299161E+02  0.57860501283E+02  0.00000000000E+00 0. -1.
         21    1    1    2  502  501 -0.64796003362E+01  0.27681735066E+02  0.41919725851E+02  0.50651032489E+02  0.00000000000E+00 0. -1.
<scales pt_clust_5="13000.00000" pt_clust_6="13000.00000" pt_clust_7="13000.00000" pt_clust_8="13000.00000" pt_clust_9="28.42998"></scales>
<clustering>
<clus scale="   28.430">  1  9  2 -1</clus>
<clus scale="   63.127">  5  6 -1 -1</clus>
<clus scale="   88.254">  1  5  2 -1</clus>
<clus scale="   91.412">  7  8 -1 -1</clus>
<clus scale="   28.430">  1  5  2 -1</clus>
</clustering>
</event>
<event>
 9    1  0.1782981E-005  0.9707486E+02  0.7546771E-02  0.1287103E+00
          1   -1    0    0  502    0  0.00000000000E+00  0.00000000000E+00  0.33031232888E+03  0.33031232888E+03  0.00000000000E+00 0. -1.
         -1   -1    0    0    0  501 -0.00000000000E+00 -0.00000000000E+00 -0.42446687998E+02  0.42446687998E+02  0.00000000000E+00 0.  1.
         23    2    1    2    0    0  0.13839277498E+02 -0.22333009867E+02  0.60613094829E+02  0.11264439850E+03  0.91238831192E+02 0.  0.
         23    2    1    2    0    0 -0.32562997672E+02  0.36973032430E+02  0.18490375384E+03  0.21155199736E+03  0.90208067602E+02 0.  0.
        -11    1    4    4    0    0 -0.57194843755E+02  0.41860500431E+02  0.97025533486E+02  0.12015617253E+03  0.00000000000E+00 0. -1.
         11    1    4    4    0    0  0.24631846083E+02 -0.48874680008E+01  0.87878220353E+02  0.91395824836E+02  0.00000000000E+00 0.  1.
        -13    1    3    3    0    0 -0.29446935640E+02 -0.26495709526E+02  0.20019865970E+01  0.39662987686E+02  0.00000000000E+00 0. -1.
         13    1    3    3    0    0  0.43286213138E+02  0.41626996583E+01  0.58611108232E+02  0.72981410814E+02  0.00000000000E+00 0.  1.
         21    1    1    2  502  501  0.18723720174E+02 -0.14640022563E+02  0.42348792211E+02  0.48562621012E+02  0.00000000000E+00 0.  1.
<scales pt_clust_5="13000.00000" pt_clust_6="13000.00000" pt_clust_7="13000.00000" pt_clust_8="13000.00000" pt_clust_9="23.76779"></scales>
<clustering>
<clus scale="   23.768">  1  9  2 -1</clus>
<clus scale="   90.208">  5  6 -1 -1</clus>
<clus scale="   91.239">  7  8 -1 -1</clus>
<clus scale="   96.107">  1  5  2 -1</clus>
<clus scale="   23.768">  1  5  2 -1</clus>
</clustering>
</event>
<event>
 9    1  0.1782981E-005  0.2526287E+03  0.7546771E-02  0.1111657E+00
          1   -1    0    0  502    0  0.00000000000E+00  0.00000000000E+00  0.15736549898E+03  0.15736549898E+03  0.00000000000E+00 0. -1.
         -1   -1    0    0    0  501 -0.00000000000E+00 -0.00000000000E+00 -0.46551341827E+03  0.46551341827E+03  0.00000000000E+00 0.  1.
         23    2    1    2    0    0  0.20390339689E+03 -0.99951023254E+02 -0.16271288808E+03  0.29382775607E+03  0.91062967095E+02 0.  0.
         23    2    1    2    0    0 -0.22730800215E+03  0.93289681279E+02 -0.15314813035E+03  0.30352390276E+03  0.91107174487E+02 0.  0.
        -11    1    4    4    0    0 -0.16005523634E+03  0.67453930111E+02 -0.15301932976E+03  0.23147921429E+03  0.00000000000E+00 0.  1.
         11    1    4    4    0    0 -0.67252765808E+02  0.25835751168E+02 -0.12880058816E+00  0.72044688471E+02  0.00000000000E+00 0. -1.
        -13    1    3    3    0    0  0.10360965763E+03 -0.96582247669E+02 -0.73615338411E+02  0.15963179435E+03  0.00000000000E+00 0.  1.
         13    1    3    3    0    0  0.10029373926E+03 -0.33687755852E+01 -0.89097549673E+02  0.13419596172E+03  0.00000000000E+00 0. -1.
         21    1    1    2  502  501  0.23404605258E+02  0.66613419748E+01  0.77130991337E+01  0.25527258420E+02  0.00000000000E+00 0. -1.
<scales pt_clust_5="13000.00000" pt_clust_6="13000.00000" pt_clust_7="13000.00000" pt_clust_8="13000.00000" pt_clust_9="24.33411"></scales>
<clustering>
<clus scale="   24.334">  1  9  2 -1</clus>
<clus scale="   91.063">  7  8 -1 -1</clus>
<clus scale="   91.107">  5  6 -1 -1</clus>
<clus scale="  252.613">  2  7  1 -1</clus>
<clus scale="   24.334">  1  5  2 -1</clus>
</clustering>
</event>
<event>
 9    1  0.1782981E-005  0.1001360E+03  0.7546771E-02  0.1280094E+00
          2   -1    0    0  502    0  0.00000000000E+00  0.00000000000E+00  0.49755770445E+03  0.49755770445E+03  0.00000000000E+00 0. -1.
         -2   -1    0    0    0  501 -0.00000000000E+00 -0.00000000000E+00 -0.46243549701E+02  0.46243549701E+02  0.00000000000E+00 0.  1.
         23    2    1    2    0    0  0.81660080552E+01  0.35451174062E+02  0.43260361574E+02  0.10873852125E+03  0.92893152014E+02 0.  0.
         23    2    1    2    0    0  0.18910260029E+02 -0.42814214616E+02  0.20230946431E+03  0.22741382844E+03  0.92721492176E+02 0.  0.
        -11    1    3    3    0    0  0.47646389474E+02  0.31149010387E+02  0.38541451495E+02  0.68745056268E+02  0.00000000000E+00 0.  1.
         11    1    3    3    0    0 -0.39480381419E+02  0.43021636745E+01  0.47189100796E+01  0.39993464986E+02  0.00000000000E+00 0. -1.
        -13    1    4    4    0    0  0.44275956454E+02 -0.39571358506E+02  0.66233032492E+02  0.88955423258E+02  0.00000000000E+00 0.  1.
         13    1    4    4    0    0 -0.25365696425E+02 -0.32428561102E+01  0.13607643182E+03  0.13845840519E+03  0.00000000000E+00 0. -1.
         21    1    1    2  502  501 -0.27076268084E+02  0.73630405540E+01  0.20574432886E+03  0.20764890445E+03  0.00000000000E+00 0. -1.
<scales pt_clust_5="13000.00000" pt_clust_6="13000.00000" pt_clust_7="13000.00000" pt_clust_8="13000.00000" pt_clust_9="28.05956"></scales>
<clustering>
<clus scale="   28.060">  1  9  2 -1</clus>
<clus scale="   92.721">  7  8 -1 -1</clus>
<clus scale="   92.893">  5  6 -1 -1</clus>
<clus scale="   99.977">  1  7  2 -1</clus>
<clus scale="   28.060">  1  5  2 -1</clus>
</clustering>
</event>
<event>
 9    1  0.1782981E-005  0.1333662E+03  0.7546771E-02  0.1222839E+00
          1   -1    0    0  502    0  0.00000000000E+00  0.00000000000E+00  0.31805730691E+03  0.31805730691E+03  0.00000000000E+00 0. -1.
         -1   -1    0    0    0  501 -0.00000000000E+00 -0.00000000000E+00 -0.97940595964E+02  0.97940595964E+02  0.00000000000E+00 0.  1.
         23    2    1    2    0    0 -0.76835573915E+02 -0.71401255891E+02 -0.22875372280E+01  0.13940845042E+03  0.91802170235E+02 0.  0.
         23    2    1    2    0    0  0.46042970905E+02  0.65911868029E+02  0.12406902481E+03  0.17339965677E+03  0.90608987048E+02 0.  0.
        -11    1    3    3    0    0 -0.14703180682E+01 -0.21267069105E+02 -0.36805146307E+02  0.42533150109E+02  0.00000000000E+00 0.  1.
         11    1    3    3    0    0 -0.75365255847E+02 -0.50134186785E+02  0.34517609079E+02  0.96875300309E+02  0.00000000000E+00 0. -1.
        -13    1    4    4    0    0 -0.25216110556E+02  0.31069086533E+02  0.56297408759E+02  0.69069085722E+02  0.00000000000E+00 0.  1.
         13    1    4    4    0    0  0.71259081460E+02  0.34842781497E+02  0.67771616047E+02  0.10433057105E+03  0.00000000000E+00 0. -1.
         21    1    1    2  502  501  0.30792603010E+02  0.54893878614E+01  0.98335223368E+02  0.10318979569E+03  0.00000000000E+00 0.  1.
<scales pt_clust_5="13000.00000" pt_clust_6="13000.00000" pt_clust_7="13000.00000" pt_clust_8="13000.00000" pt_clust_9="31.27807"></scales>
<clustering>
<clus scale="   31.278">  1  9  2 -1</clus>
<clus scale="   90.609">  7  8 -1 -1</clus>
<clus scale="   91.802">  5  6 -1 -1</clus>
<clus scale="  132.548">  1  7  2 -1</clus>
<clus scale="   31.278">  1  5  2 -1</clus>
</clustering>
</event>
<event>
 9    1  0.1782981E-005  0.1173658E+03  0.7546771E-02  0.1249085E+00
          2   -1    0    0  502    0  0.00000000000E+00  0.00000000000E+00  0.46566527136E+02  0.46566527136E+02  0.00000000000E+00 0. -1.
         -2   -1    0    0    0  501 -0.00000000000E+00 -0.00000000000E+00 -0.52318747397E+03  0.52318747397E+03  0.00000000000E+00 0.  1.
         23    2    1    2    0    0 -0.50630868007E+02 -0.47072448318E+02 -0.31462620899E+03  0.33464315382E+03  0.90648159546E+02 0.  0.
         23    2    1    2    0    0  0.15336174435E+02  0.76522493141E+02 -0.10427447650E+03  0.16132298172E+03  0.95189536086E+02 0.  0.
        -11    1    4    4    0    0 -0.36654881170E+02  0.14148349343E+02 -0.19250712763E+02  0.43753240390E+02  0.00000000000E+00 0. -1.
         11    1    4    4    0    0  0.51991055605E+02  0.62374143798E+02 -0.85023763736E+02  0.11756974133E+03  0.00000000000E+00 0.  1.
        -13    1    3    3    0    0  0.24092242517E+02  0.24625465085E+01 -0.73747299957E+02  0.77621933342E+02  0.00000000000E+00 0.  1.
         13    1    3    3    0    0 -0.74723110524E+02 -0.49534994826E+02 -0.24087890904E+03  0.25702122048E+03  0.00000000000E+00 0. -1.
         21    1    1    2  502  501  0.35294693573E+02 -0.29450044824E+02 -0.57720261343E+02  0.73787865561E+02  0.00000000000E+00 0.  1.
<scales pt_clust_5="13000.00000" pt_clust_6="13000.00000" pt_clust_7="13000.00000" pt_clust_8="13000.00000" pt_clust_9="45.96760"></scales>
<clustering>
<clus scale="   45.968">  1  9  2 -1</clus>
<clus scale="   90.648">  7  8 -1 -1</clus>
<clus scale="   95.190">  5  6 -1 -1</clus>
<clus scale="  113.714">  2  7  1 -1</clus>
<clus scale="   45.968">  1  5  2 -1</clus>
</clustering>
</event>
<event>
 9    1  0.1782981E-005  0.1083044E+03  0.7546771E-02  0.1263935E+00
         -3   -1    0    0    0  501 -0.00000000000E+00  0.00000000000E+00  0.85540440138E+02  0.85540440138E+02  0.00000000000E+00 0.  1.
          3   -1    0    0  502    0  0.00000000000E+00 -0.00000000000E+00 -0.25431665143E+03  0.25431665143E+03  0.00000000000E+00 0. -1.
         23    2    1    2    0    0 -0.65986543357E+02  0.11108360267E+02  0.67549877901E+01  0.11356825854E+03  0.91512293799E+02 0.  0.
         23    2    1    2    0    0  0.38241112428E+02  0.18937042478E+02 -0.10981155300E+03  0.14888336136E+03  0.91031224634E+02 0.  0.
        -11    1    3    3    0    0  0.59941296115E+01  0.34430660621E+02 -0.94161326805E+01  0.36194799838E+02  0.00000000000E+00 0. -1.
         11    1    3    3    0    0 -0.71980672968E+02 -0.23322300354E+02  0.16171120471E+02  0.77373458705E+02  0.00000000000E+00 0.  1.
        -13    1    4    4    0    0  0.66534178548E+02  0.52758516849E+01 -0.58681017607E+02  0.88871217801E+02  0.00000000000E+00 0.  1.
         13    1    4    4    0    0 -0.28293066120E+02  0.13661190793E+02 -0.51130535395E+02  0.60012143555E+02  0.00000000000E+00 0. -1.
         21    1    1    2  502  501  0.27745430929E+02 -0.30045402745E+02 -0.65719646080E+02  0.77405471669E+02  0.00000000000E+00 0.  1.
<scales pt_clust_5="13000.00000" pt_clust_6="13000.00000" pt_clust_7="13000.00000" pt_clust_8="13000.00000" pt_clust_9="40.89664"></scales>
<clustering>
<clus scale="   40.897">  2  9  1 -1</clus>
<clus scale="   91.031">  7  8 -1 -1</clus>
<clus scale="   91.512">  5  6 -1 -1</clus>
<clus scale="  107.898">  2  7  1 -1</clus>
<clus scale="   40.897">  2  5  1 -1</clus>
</clustering>
</event>
<event>
 9    1  0.1782981E-005  0.9299714E+02  0.7546771E-02  0.1296328E+00
          1   -1    0    0  502    0  0.00000000000E+00  0.00000000000E+00  0.67566182683E+02  0.67566182683E+02  0.00000000000E+00 0. -1.
         -1   -1    0    0    0  501 -0.00000000000E+00 -0.00000000000E+00 -0.33573753548E+03  0.33573753548E+03  0.00000000000E+00 0.  1.
         23    2    1    2    0    0  0.67001530351E+01  0.16037329641E+02 -0.22080137054E+03  0.24013246405E+03  0.92780747288E+02 0.  0.
         23    2    1    2    0    0  0.25108523988E+02  0.30342181670E+02 -0.31649627790E+02  0.10477621538E+03  0.91789271733E+02 0.  0.
        -11    1    4    4    0    0 -0.15028096683E+02  0.26933885432E+02  0.21856971373E+02  0.37802183429E+02  0.00000000000E+00 0.  1.
         11    1    4    4    0    0  0.40136620671E+02  0.34082962375E+01 -0.53506599163E+02  0.66974031954E+02  0.00000000000E+00 0. -1.
        -11    1    3    3    0    0 -0.26200231901E+02 -0.27149945688E+02 -0.11785470711E+03  0.12374693406E+03  0.00000000000E+00 0.  1.
         11    1    3    3    0    0  0.32900384936E+02  0.43187275329E+02 -0.10294666343E+03  0.11638552999E+03  0.00000000000E+00 0. -1.
         21    1    1    2  502  501 -0.31808677023E+02 -0.46379511311E+02 -0.15720354468E+02  0.58395038728E+02  0.00000000000E+00 0.  1.
<scales pt_clust_5="13000.00000" pt_clust_6="13000.00000" pt_clust_7="13000.00000" pt_clust_8="13000.00000" pt_clust_9="56.23923"></scales>
<clustering>
<clus scale="   56.239">  1  9  2 -1</clus>
<clus scale="   91.789">  5  6 -1 -1</clus>
<clus scale="   92.008">  1  5  2 -1</clus>
<clus scale="   92.781">  7  8 -1 -1</clus>
<clus scale="   56.239">  1  5  2 -1</clus>
</clustering>
</event>
<event>
 9    1  0.1782981E-005  0.1002216E+03  0.7546771E-02  0.1281744E+00
          1   -1    0    0  502    0  0.00000000000E+00  0.00000000000E+00  0.13102799101E+03  0.13102799101E+03  0.00000000000E+00 0. -1.
         -1   -1    0    0    0  501 -0.00000000000E+00 -0.00000000000E+00 -0.10987077930E+03  0.10987077930E+03  0.00000000000E+00 0.  1.
         23    2    1    2    0    0 -0.17175752496E+02  0.15592257708E+02 -0.16736063900E+02  0.95833063748E+02  0.91464502941E+02 0.  0.
         23    2    1    2    0    0  0.38649179886E+02 -0.18657002433E+02  0.36436266230E+01  0.10452511950E+03  0.95238551781E+02 0.  0.
        -11    1    4    4    0    0  0.22846108940E+02  0.34027490875E+02  0.22028517529E+02  0.46530317143E+02  0.00000000000E+00 0.  1.
         11    1    4    4    0    0  0.15803070946E+02 -0.52684493308E+02 -0.18384890906E+02  0.57994802354E+02  0.00000000000E+00 0. -1.
        -11    1    3    3    0    0  0.21590319110E+02  0.16630414777E+02  0.26319936319E+02  0.37887354391E+02  0.00000000000E+00 0. -1.
         11    1    3    3    0    0 -0.38766071607E+02 -0.10381570690E+01 -0.43056000220E+02  0.57945709356E+02  0.00000000000E+00 0.  1.
         21    1    1    2  502  501 -0.21473427389E+02  0.30647447254E+01  0.34249648987E+02  0.40540587068E+02  0.00000000000E+00 0. -1.
<scales pt_clust_5="13000.00000" pt_clust_6="13000.00000" pt_clust_7="13000.00000" pt_clust_8="13000.00000" pt_clust_9="21.69103"></scales>
<clustering>
<clus scale="   21.691">  1  9  2 -1</clus>
<clus scale="   91.465">  7  8 -1 -1</clus>
<clus scale="   95.239">  5  6 -1 -1</clus>
<clus scale="   96.642">  2  7  1 -1</clus>
<clus scale="   21.691">  1  5  2 -1</clus>
</clustering>
</event>
<event>
 9    1  0.1782981E-005  0.1190860E+03  0.7546771E-02  0.1254378E+00
         -1   -1    0    0    0  501 -0.00000000000E+00  0.00000000000E+00  0.14078862774E+03  0.14078862774E+03  0.00000000000E+00 0.  1.
          1   -1    0    0  502    0  0.00000000000E+00 -0.00000000000E+00 -0.23673960436E+03  0.23673960436E+03  0.00000000000E+00 0. -1.
         23    2    1    2    0    0  0.39653081157E+01  0.38143414186E+02  0.87387549232E+02  0.13198949392E+03  0.91181133079E+02 0.  0.
         23    2    1    2    0    0 -0.30856050596E+02 -0.10466076438E+02 -0.16466158799E+03  0.20266712678E+03  0.11357328517E+03 0.  0.
        -11    1    3    3    0    0  0.23688146461E+02  0.53714779435E+02  0.89211402284E+02  0.10679456967E+03  0.00000000000E+00 0.  1.
         11    1    3    3    0    0 -0.19722838345E+02 -0.15571365249E+02 -0.18238530523E+01  0.25194924252E+02  0.00000000000E+00 0. -1.
        -11    1    4    4    0    0 -0.13242160248E+02 -0.52753687260E+02 -0.14095996416E+03  0.15108943651E+03  0.00000000000E+00 0. -1.
         11    1    4    4    0    0 -0.17613890348E+02  0.42287610821E+02 -0.23701623831E+02  0.51577690278E+02  0.00000000000E+00 0.  1.
         21    1    1    2  502  501  0.26890742480E+02 -0.27677337747E+02 -0.18676937857E+02  0.42871611395E+02  0.00000000000E+00 0. -1.
<scales pt_clust_5="13000.00000" pt_clust_6="13000.00000" pt_clust_7="13000.00000" pt_clust_8="13000.00000" pt_clust_9="38.58947"></scales>
<clustering>
<clus scale="   38.589">  2  9  1 -1</clus>
<clus scale="   91.181">  5  6 -1 -1</clus>
<clus scale="   97.962">  1  5  2 -1</clus>
<clus scale="  113.573">  7  8 -1 -1</clus>
<clus scale="   38.589">  2  5  1 -1</clus>
</clustering>
</event>
<event>
 9    1  0.1782981E-005  0.3957158E+03  0.7546771E-02  0.1045309E+00
         -1   -1    0    0    0  501 -0.00000000000E+00  0.00000000000E+00  0.28315847703E+03  0.28315847703E+03  0.00000000000E+00 0.  1.
          1   -1    0    0  502    0  0.00000000000E+00 -0.00000000000E+00 -0.10821145047E+04  0.10821145047E+04  0.00000000000E+00 0. -1.
         23    2    1    2    0    0  0.36414680180E+03 -0.10609914670E+03 -0.25102422019E+02  0.39054002125E+03  0.89618382127E+02 0.  0.
         23    2    1    2    0    0 -0.36029891875E+03  0.17548568150E+03 -0.33460626398E+03  0.53002235281E+03  0.91388223064E+02 0.  0.
        -11    1    3    3    0    0  0.63484147127E+02  0.14777438253E+02 -0.11615895336E+02  0.66208297382E+02  0.00000000000E+00 0. -1.
         11    1    3    3    0    0  0.30066265467E+03 -0.12087658496E+03 -0.13486526683E+02  0.32433172387E+03  0.00000000000E+00 0.  1.
        -13    1    4    4    0    0 -0.26452809067E+03  0.14122514656E+03 -0.19654397056E+03  0.35853756447E+03  0.00000000000E+00 0.  1.
         13    1    4    4    0    0 -0.95770828085E+02  0.34260534945E+02 -0.13806229342E+03  0.17148478834E+03  0.00000000000E+00 0. -1.
         21    1    1    2  502  501 -0.38478830484E+01 -0.69386534799E+02 -0.43924734172E+03  0.44471060772E+03  0.00000000000E+00 0. -1.
<scales pt_clust_5="13000.00000" pt_clust_6="13000.00000" pt_clust_7="13000.00000" pt_clust_8="13000.00000" pt_clust_9="69.49315"></scales>
<clustering>
<clus scale="   69.493">  2  9  1 -1</clus>
<clus scale="   89.618">  5  6 -1 -1</clus>
<clus scale="   91.388">  7  8 -1 -1</clus>
<clus scale="  395.311">  1  5  2 -1</clus>
<clus scale="   69.493">  2  5  1 -1</clus>
</clustering>
</event>
<event>
 9    1  0.1782981E-005  0.9782196E+02  0.7546771E-02  0.1285266E+00
         -1   -1    0    0    0  501 -0.00000000000E+00  0.00000000000E+00  0.22302226464E+03  0.22302226464E+03  0.00000000000E+00 0.  1.
          1   -1    0    0  502    0  0.00000000000E+00 -0.00000000000E+00 -0.11745029519E+03  0.11745029519E+03  0.00000000000E+00 0. -1.
         23    2    1    2    0    0  0.23994229305E+01 -0.45898947497E+02  0.85885078099E+02  0.13377970282E+03  0.91696737323E+02 0.  0.
         23    2    1    2    0    0  0.38647145034E+02  0.11774771322E+02  0.78818458061E+02  0.12703218714E+03  0.91063605130E+02 0.  0.
        -11    1    3    3    0    0  0.14048439285E+02 -0.25228500516E+02  0.10139932524E+03  0.10543082587E+03  0.00000000000E+00 0.  1.
         11    1    3    3    0    0 -0.11649016355E+02 -0.20670446982E+02 -0.15514247137E+02  0.28348876957E+02  0.00000000000E+00 0. -1.
        -13    1    4    4    0    0  0.16571647881E+02  0.31505244340E+02  0.88894271061E+02  0.95756938975E+02  0.00000000000E+00 0.  1.
         13    1    4    4    0    0  0.22075497153E+02 -0.19730473019E+02 -0.10075813000E+02  0.31275248164E+02  0.00000000000E+00 0. -1.
         21    1    1    2  502  501 -0.41046567965E+02  0.34124176176E+02 -0.59131566716E+02  0.79660669867E+02  0.00000000000E+00 0. -1.
<scales pt_clust_5="13000.00000" pt_clust_6="13000.00000" pt_clust_7="13000.00000" pt_clust_8="13000.00000" pt_clust_9="53.37865"></scales>
<clustering>
<clus scale="   53.379">  2  9  1 -1</clus>
<clus scale="   91.064">  7  8 -1 -1</clus>
<clus scale="   91.697">  5  6 -1 -1</clus>
<clus scale="   97.229">  2  7  1 -1</clus>
<clus scale="   53.379">  2  5  1 -1</clus>
</clustering>
</event>
<event>
 9    1  0.1782981E-005  0.1201501E+03  0.7546771E-02  0.1243008E+00
          1   -1    0    0  502    0  0.00000000000E+00  0.00000000000E+00  0.35523386862E+03  0.35523386862E+03  0.00000000000E+00 0. -1.
         -1   -1    0    0    0  501 -0.00000000000E+00 -0.00000000000E+00 -0.18141561213E+03  0.18141561213E+03  0.00000000000E+00 0.  1.
         23    2    1    2    0    0  0.70938999811E+02  0.37217085166E+02 -0.13355670809E+03  0.18107619877E+03  0.92378256993E+02 0.  0.
         23    2    1    2    0    0 -0.42941368358E+02 -0.43521771721E+02  0.10893985988E+03  0.15507363804E+03  0.91879455891E+02 0.  0.
        -13    1    4    4    0    0 -0.19671126304E+02 -0.66906386967E+02  0.44632225500E+02  0.82797665306E+02  0.00000000000E+00 0. -1.
         13    1    4    4    0    0 -0.23270242054E+02  0.23384615247E+02  0.64307634376E+02  0.72275972733E+02  0.00000000000E+00 0.  1.
        -13    1    3    3    0    0  0.37772571637E+02  0.64573898672E+02 -0.10694468031E+03  0.13051329513E+03  0.00000000000E+00 0.  1.
         13    1    3    3    0    0  0.33166428174E+02 -0.27356813505E+02 -0.26612027774E+02  0.50562903647E+02  0.00000000000E+00 0. -1.
         21    1    1    2  502  501 -0.27997631453E+02  0.63046865544E+01  0.19843510471E+03  0.20049964394E+03  0.00000000000E+00 0. -1.
<scales pt_clust_5="13000.00000" pt_clust_6="13000.00000" pt_clust_7="13000.00000" pt_clust_8="13000.00000" pt_clust_9="28.69872"></scales>
<clustering>
<clus scale="   28.699">  1  9  2 -1</clus>
<clus scale="   91.879">  5  6 -1 -1</clus>
<clus scale="   92.378">  7  8 -1 -1</clus>
<clus scale="  119.767">  1  5  2 -1</clus>
<clus scale="   28.699">  1  5  2 -1</clus>
</clustering>
</event>
<event>
 9    1  0.1782981E-005  0.1810286E+03  0.7546771E-02  0.1190183E+00
         -1   -1    0    0    0  501 -0.00000000000E+00  0.00000000000E+00  0.31878670725E+03  0.31878670725E+03  0.00000000000E+00 0.  1.
          1   -1    0    0  502    0  0.00000000000E+00 -0.00000000000E+00 -0.49617360143E+03  0.49617360143E+03  0.00000000000E+00 0. -1.
         23    2    1    2    0    0 -0.53591746627E+02 -0.75675712527E+01  0.80968436904E+02  0.13410042013E+03  0.92182923921E+02 0.  0.
         23    2    1    2    0    0  0.22360983358E+02 -0.15435783039E+03 -0.41541480310E+03  0.45312567061E+03  0.91799026953E+02 0.  0.
        -11    1    3    3    0    0 -0.59969662641E+02  0.27975815785E+02  0.70074797508E+02  0.96381969019E+02  0.00000000000E+00 0.  1.
         11    1    3    3    0    0  0.63779160139E+01 -0.35543387038E+02  0.10893639396E+02  0.37718451109E+02  0.00000000000E+00 0. -1.
        -13    1    4    4    0    0 -0.28434719252E+02 -0.18823849486E+02 -0.10970768501E+03  0.11488536338E+03  0.00000000000E+00 0.  1.
         13    1    4    4    0    0  0.50795702610E+02 -0.13553398091E+03 -0.30570711809E+03  0.33824030723E+03  0.00000000000E+00 0. -1.
         21    1    1    2  502  501  0.31230763269E+02  0.16192540165E+03  0.15705947202E+03  0.22773421794E+03  0.00000000000E+00 0.  1.
<scales pt_clust_5="13000.00000" pt_clust_6="13000.00000" pt_clust_7="13000.00000" pt_clust_8="13000.00000" pt_clust_9="156.02657"></scales>
<clustering>
<clus scale="   91.799">  7  8 -1 -1</clus>
<clus scale="   92.183">  5  6 -1 -1</clus>
<clus scale="  106.897">  1  5  2 -1</clus>
<clus scale="  156.027">  1  9  2 -1</clus>
<clus scale="  181.029">  2  5  1 -1</clus>
</clustering>
</event>
<event>
 9    1  0.1782981E-005  0.1022344E+03  0.7546771E-02  0.1277165E+00
         -2   -1    0    0    0  501 -0.00000000000E+00  0.00000000000E+00  0.66294769312E+02  0.66294769312E+02  0.00000000000E+00 0.  1.
          2   -1    0    0  502    0  0.00000000000E+00 -0.00000000000E+00 -0.35863295445E+03  0.35863295445E+03  0.00000000000E+00 0. -1.
         23    2    1    2    0    0  0.50939635626E+01  0.50244850721E+02 -0.78058091867E+00  0.10329603395E+03  0.90105315240E+02 0.  0.
         23    2    1    2    0    0  0.25967150664E+02 -0.38667315865E+02 -0.24832329196E+03  0.26715198821E+03  0.86811711444E+02 0.  0.
        -13    1    4    4    0    0 -0.26074390196E+02 -0.24622298510E+02 -0.15755185634E+03  0.16158192611E+03  0.00000000000E+00 0.  1.
         13    1    4    4    0    0  0.52041540860E+02 -0.14045017355E+02 -0.90771435618E+02  0.10557006210E+03  0.00000000000E+00 0. -1.
        -13    1    3    3    0    0  0.16486006262E+02  0.22459127360E+02  0.42379087293E+02  0.50716741260E+02  0.00000000000E+00 0.  1.
         13    1    3    3    0    0 -0.11392042699E+02  0.27785723361E+02 -0.43159668212E+02  0.52579292690E+02  0.00000000000E+00 0. -1.
         21    1    1    2  502  501 -0.31061114227E+02 -0.11577534856E+02 -0.43234312256E+02  0.54479701602E+02  0.00000000000E+00 0.  1.
<scales pt_clust_5="13000.00000" pt_clust_6="13000.00000" pt_clust_7="13000.00000" pt_clust_8="13000.00000" pt_clust_9="33.14864"></scales>
<clustering>
<clus scale="   33.149">  2  9  1 -1</clus>
<clus scale="   86.812">  5  6 -1 -1</clus>
<clus scale="   90.105">  7  8 -1 -1</clus>
<clus scale="   99.344">  2  5  1 -1</clus>
<clus scale="   33.149">  2  5  1 -1</clus>
</clustering>
</event>
<event>
 9    1  0.1782981E-005  0.1574276E+03  0.7546771E-02  0.1192242E+00
          2   -1    0    0  502    0  0.00000000000E+00  0.00000000000E+00  0.26874077890E+03  0.26874077890E+03  0.00000000000E+00 0.  1.
         -2   -1    0    0    0  501 -0.00000000000E+00 -0.00000000000E+00 -0.11438649557E+03  0.11438649557E+03  0.00000000000E+00 0. -1.
         23    2    1    2    0    0  0.11558500414E+03  0.38097975605E+02  0.47479247091E+02  0.15890407027E+03  0.90470302956E+02 0.  0.
         23    2    1    2    0    0 -0.12092174712E+03 -0.69507820801E+02  0.80826108523E+02  0.18306976162E+03  0.86765613704E+02 0.  0.
        -11    1    4    4    0    0 -0.60059646469E+02 -0.64779236344E+02  0.84056906634E+02  0.12193881313E+03  0.00000000000E+00 0.  1.
         11    1    4    4    0    0 -0.60862100649E+02 -0.47285844567E+01 -0.32307981105E+01  0.61130948486E+02  0.00000000000E+00 0. -1.
        -13    1    3    3    0    0  0.39921153964E+02 -0.27400119844E+02  0.30968371547E+02  0.57476126675E+02  0.00000000000E+00 0.  1.
         13    1    3    3    0    0  0.75663850174E+02  0.65498095449E+02  0.16510875545E+02  0.10142794359E+03  0.00000000000E+00 0. -1.
         21    1    1    2  502  501  0.53367429797E+01  0.31409845196E+02  0.26048927716E+02  0.41153442578E+02  0.00000000000E+00 0. -1.
<scales pt_clust_5="13000.00000" pt_clust_6="13000.00000" pt_clust_7="13000.00000" pt_clust_8="13000.00000" pt_clust_9="31.85999"></scales>
<clustering>
<clus scale="   31.860">  1  9  2 -1</clus>
<clus scale="   86.766">  5  6 -1 -1</clus>
<clus scale="   90.470">  7  8 -1 -1</clus>
<clus scale="  155.328">  1  5  2 -1</clus>
<clus scale="   31.860">  1  5  2 -1</clus>
</clustering>
</event>
<event>
 9    1  0.1782981E-005  0.1017703E+03  0.7546771E-02  0.1277783E+00
          4   -1    0    0  502    0  0.00000000000E+00  0.00000000000E+00  0.57618895240E+02  0.57618895240E+02  0.00000000000E+00 0. -1.
         -4   -1    0    0    0  501 -0.00000000000E+00 -0.00000000000E+00 -0.30379933209E+03  0.30379933209E+03  0.00000000000E+00 0.  1.
         23    2    1    2    0    0 -0.38136922529E+02  0.39812579399E+02 -0.19508159680E+03  0.22184052531E+03  0.90093967181E+02 0.  0.
         23    2    1    2    0    0  0.35451336035E+02 -0.16707802863E+02 -0.23032824795E+02  0.10312575713E+03  0.92565991936E+02 0.  0.
        -11    1    3    3    0    0 -0.11907733817E+02  0.64627153749E+02 -0.95590549069E+02  0.11600006982E+03  0.00000000000E+00 0. -1.
         11    1    3    3    0    0 -0.26229188712E+02 -0.24814574350E+02 -0.99491047733E+02  0.10584045550E+03  0.00000000000E+00 0.  1.
        -13    1    4    4    0    0 -0.12165622735E+02 -0.41192578233E+02  0.40146646255E+01  0.43138711270E+02  0.00000000000E+00 0.  1.
         13    1    4    4    0    0  0.47616958770E+02  0.24484775370E+02 -0.27047489421E+02  0.59987045863E+02  0.00000000000E+00 0. -1.
         21    1    1    2  502  501  0.26855864946E+01 -0.23104776536E+02 -0.28066015253E+02  0.36451944883E+02  0.00000000000E+00 0.  1.
<scales pt_clust_5="13000.00000" pt_clust_6="13000.00000" pt_clust_7="13000.00000" pt_clust_8="13000.00000" pt_clust_9="23.26033"></scales>
<clustering>
<clus scale="   23.260">  2  9  1 -1</clus>
<clus scale="   90.094">  5  6 -1 -1</clus>
<clus scale="   92.566">  7  8 -1 -1</clus>
<clus scale="   99.527">  2  5  1 -1</clus>
<clus scale="  101.770">  1  5  2 -1</clus>
</clustering>
</event>
<event>
 9    1  0.1782981E-005  0.1068494E+03  0.7546771E-02  0.1266851E+00
          2   -1    0    0  502    0  0.00000000000E+00  0.00000000000E+00  0.12581226985E+03  0.12581226985E+03  0.00000000000E+00 0. -1.
         -2   -1    0    0    0  501 -0.00000000000E+00 -0.00000000000E+00 -0.16165562351E+03  0.16165562351E+03  0.00000000000E+00 0.  1.
         23    2    1    2    0    0  0.35345245607E+02  0.52699299991E+02 -0.53719469025E+02  0.12460139407E+03  0.92807453606E+02 0.  0.
         23    2    1    2    0    0 -0.28101270446E+02 -0.27796964077E+02 -0.32109629291E+02  0.10655330209E+03  0.93596075129E+02 0.  0.
        -11    1    3    3    0    0  0.24748393363E+02 -0.18763221127E+02 -0.40696235053E+02  0.51193016991E+02  0.00000000000E+00 0.  1.
         11    1    3    3    0    0  0.10596852244E+02  0.71462521118E+02 -0.13023233972E+02  0.73408377077E+02  0.00000000000E+00 0. -1.
        -13    1    4    4    0    0 -0.24188350637E+02  0.23100307168E+02  0.15396379968E+02  0.36820497199E+02  0.00000000000E+00 0. -1.
         13    1    4    4    0    0 -0.39129198091E+01 -0.50897271245E+02 -0.47506009259E+02  0.69732804887E+02  0.00000000000E+00 0.  1.
         21    1    1    2  502  501 -0.72439751604E+01 -0.24902335914E+02  0.49985744659E+02  0.56313197203E+02  0.00000000000E+00 0.  1.
<scales pt_clust_5="13000.00000" pt_clust_6="13000.00000" pt_clust_7="13000.00000" pt_clust_8="13000.00000" pt_clust_9="25.93456"></scales>
<clustering>
<clus scale="   25.935">  1  9  2 -1</clus>
<clus scale="   92.807">  5  6 -1 -1</clus>
<clus scale="   93.596">  7  8 -1 -1</clus>
<clus scale="  106.159">  2  5  1 -1</clus>
<clus scale="   25.935">  1  5  2 -1</clus>
</clustering>
</event>
<event>
 9    1  0.1782981E-005  0.1204683E+03  0.7546771E-02  0.1242338E+00
          1   -1    0    0  502    0  0.00000000000E+00  0.00000000000E+00  0.40963243780E+03  0.40963243780E+03  0.00000000000E+00 0. -1.
         -1   -1    0    0    0  501 -0.00000000000E+00 -0.00000000000E+00 -0.74145525333E+02  0.74145525333E+02  0.00000000000E+00 0.  1.
         23    2    1    2    0    0  0.72733894798E+02 -0.41825098983E+02  0.29169263854E+02  0.12630032719E+03  0.89785123144E+02 0.  0.
         23    2    1    2    0    0 -0.48265550719E+02  0.60156643976E+02  0.11965413334E+03  0.16832686714E+03  0.89824480933E+02 0.  0.
        -11    1    3    3    0    0 -0.20459570768E+02 -0.12605292450E+02 -0.10832126411E+01  0.24055369117E+02  0.00000000000E+00 0. -1.
         11    1    3    3    0    0  0.93193465566E+02 -0.29219806534E+02  0.30252476495E+02  0.10224495808E+03  0.00000000000E+00 0.  1.
        -13    1    4    4    0    0 -0.46884704017E+02 -0.28252612306E+01  0.83200215554E+02  0.95542835629E+02  0.00000000000E+00 0.  1.
         13    1    4    4    0    0 -0.13808467017E+01  0.62981905206E+02  0.36453917790E+02  0.72784031513E+02  0.00000000000E+00 0. -1.
         21    1    1    2  502  501 -0.24468344079E+02 -0.18331544992E+02  0.18666351527E+03  0.18915076880E+03  0.00000000000E+00 0.  1.
<scales pt_clust_5="13000.00000" pt_clust_6="13000.00000" pt_clust_7="13000.00000" pt_clust_8="13000.00000" pt_clust_9="30.57361"></scales>
<clustering>
<clus scale="   30.574">  1  9  2 -1</clus>
<clus scale="   89.785">  5  6 -1 -1</clus>
<clus scale="   89.824">  7  8 -1 -1</clus>
<clus scale="  120.439">  2  5  1 -1</clus>
<clus scale="   30.574">  1  5  2 -1</clus>
</clustering>
</event>
<event>
 9    1  0.1782981E-005  0.1214012E+03  0.7546771E-02  0.1241312E+00
         -1   -1    0    0    0  501 -0.00000000000E+00  0.00000000000E+00  0.18372104146E+03  0.18372104146E+03  0.00000000000E+00 0.  1.
          1   -1    0    0  502    0  0.00000000000E+00 -0.00000000000E+00 -0.14154328595E+03  0.14154328595E+03  0.00000000000E+00 0. -1.
         23    2    1    2    0    0 -0.34251938113E+02  0.70533518299E+02  0.10416195045E+03  0.16262385575E+03  0.97204084639E+02 0.  0.
         23    2    1    2    0    0  0.24587406612E+02 -0.46699825808E+02 -0.20486344954E+02  0.11381916872E+03  0.98740561797E+02 0.  0.
        -13    1    4    4    0    0 -0.38352470176E+01 -0.71864434775E+02 -0.23580465680E+02  0.75731396838E+02  0.00000000000E+00 0.  1.
         13    1    4    4    0    0  0.28422653630E+02  0.25164608968E+02  0.30941207261E+01  0.38087771882E+02  0.00000000000E+00 0. -1.
        -13    1    3    3    0    0 -0.25245475748E+02  0.83675509766E+01  0.95596908438E+02  0.99227611369E+02  0.00000000000E+00 0.  1.
         13    1    3    3    0    0 -0.90064623647E+01  0.62165967323E+02  0.85650420137E+01  0.63396244386E+02  0.00000000000E+00 0. -1.
         21    1    1    2  502  501  0.96645315009E+01 -0.23833692492E+02 -0.41497849983E+02  0.48821302933E+02  0.00000000000E+00 0.  1.
<scales pt_clust_5="13000.00000" pt_clust_6="13000.00000" pt_clust_7="13000.00000" pt_clust_8="13000.00000" pt_clust_9="25.71863"></scales>
<clustering>
<clus scale="   25.719">  2  9  1 -1</clus>
<clus scale="   97.204">  7  8 -1 -1</clus>
<clus scale="   98.741">  5  6 -1 -1</clus>
<clus scale="  120.155">  1  7  2 -1</clus>
<clus scale="   25.719">  2  5  1 -1</clus>
</clustering>
</event>
<event>
 9    1  0.1782981E-005  0.2503599E+03  0.7546771E-02  0.1113093E+00
         -1   -1    0    0    0  501 -0.00000000000E+00  0.00000000000E+00  0.16830953362E+03  0.16830953362E+03  0.00000000000E+00 0.  1.
          1   -1    0    0  502    0  0.00000000000E+00 -0.00000000000E+00 -0.15531193984E+04  0.15531193984E+04  0.00000000000E+00 0. -1.
         23    2    1    2    0    0 -0.21478172185E+03 -0.90298672771E+02  0.34766325790E+02  0.25269974200E+03  0.91451756958E+02 0.  0.
         23    2    1    2    0    0  0.24515248786E+03  0.17704449034E+02 -0.12958248683E+04  0.13220775807E+04  0.91180317630E+02 0.  0.
        -11    1    3    3    0    0 -0.16879417762E+03 -0.52399530322E+02  0.61838995963E+02  0.18724648621E+03  0.00000000000E+00 0.  1.
         11    1    3    3    0    0 -0.45987544234E+02 -0.37899142449E+02 -0.27072670174E+02  0.65453255789E+02  0.00000000000E+00 0. -1.
        -13    1    4    4    0    0  0.48424794717E+02 -0.32044368100E+02 -0.34352402350E+03  0.34839712541E+03  0.00000000000E+00 0.  1.
         13    1    4    4    0    0  0.19672769314E+03  0.49748817133E+02 -0.95230084483E+03  0.97368045534E+03  0.00000000000E+00 0. -1.
         21    1    1    2  502  501 -0.30370766006E+02  0.72594223737E+02 -0.12375132226E+03  0.14665160930E+03  0.00000000000E+00 0. -1.
<scales pt_clust_5="13000.00000" pt_clust_6="13000.00000" pt_clust_7="13000.00000" pt_clust_8="13000.00000" pt_clust_9="78.69120"></scales>
<clustering>
<clus scale="   78.691">  2  9  1 -1</clus>
<clus scale="   91.180">  7  8 -1 -1</clus>
<clus scale="   91.452">  5  6 -1 -1</clus>
<clus scale="  250.261">  2  7  1 -1</clus>
<clus scale="   78.691">  2  5  1 -1</clus>
</clustering>
</event>
<event>
 9    1  0.1782981E-005  0.1208943E+03  0.7546771E-02  0.1241659E+00
          3   -1    0    0  502    0  0.00000000000E+00  0.00000000000E+00  0.37058250928E+02  0.37058250928E+02  0.00000000000E+00 0. -1.
         -3   -1    0    0    0  501 -0.00000000000E+00 -0.00000000000E+00 -0.66154327564E+03  0.66154327564E+03  0.00000000000E+00 0.  1.
         23    2    1    2    0    0 -0.59530409902E+02  0.42855714776E+02 -0.37286941816E+03  0.39082834065E+03  0.91294615764E+02 0.  0.
         23    2    1    2    0    0  0.90737974153E+02 -0.24901336639E+02 -0.23281203929E+03  0.26715489074E+03  0.91196674764E+02 0.  0.
        -13    1    4    4    0    0  0.20105053676E+02  0.30986064566E+02 -0.40610106856E+02  0.54895629694E+02  0.00000000000E+00 0.  1.
         13    1    4    4    0    0  0.70632920477E+02 -0.55887401205E+02 -0.19220193244E+03  0.21225926105E+03  0.00000000000E+00 0. -1.
        -13    1    3    3    0    0 -0.63942496294E+02  0.63964355461E+02 -0.33745282229E+03  0.34936297582E+03  0.00000000000E+00 0.  1.
         13    1    3    3    0    0  0.44120863921E+01 -0.21108640685E+02 -0.35416595874E+02  0.41465364838E+02  0.00000000000E+00 0. -1.
         21    1    1    2  502  501 -0.31207564252E+02 -0.17954378136E+02 -0.18803567253E+02  0.40618295166E+02  0.00000000000E+00 0. -1.
<scales pt_clust_5="13000.00000" pt_clust_6="13000.00000" pt_clust_7="13000.00000" pt_clust_8="13000.00000" pt_clust_9="36.00377"></scales>
<clustering>
<clus scale="   36.004">  1  9  2 -1</clus>
<clus scale="   91.197">  5  6 -1 -1</clus>
<clus scale="   91.295">  7  8 -1 -1</clus>
<clus scale="  120.820">  1  5  2 -1</clus>
<clus scale="   36.004">  1  5  2 -1</clus>
</clustering>
</event>
<event>
 9    1  0.1782981E-005  0.1105381E+03  0.7546771E-02  0.1260072E+00
         -2   -1    0    0    0  501 -0.00000000000E+00  0.00000000000E+00  0.45187565161E+02  0.45187565161E+02  0.00000000000E+00 0.  1.
          2   -1    0    0  502    0  0.00000000000E+00 -0.00000000000E+00 -0.60397020106E+03  0.60397020106E+03  0.00000000000E+00 0. -1.
         23    2    1    2    0    0  0.52706087595E+02  0.72434086726E+02 -0.14068131117E+03  0.19063249871E+03  0.92330329051E+02 0.  0.
         23    2    1    2    0    0 -0.34472707751E+02  0.12837432138E+02 -0.26077047589E+03  0.27864562979E+03  0.91043828251E+02 0.  0.
        -13    1    4    4    0    0 -0.60548287152E+02  0.94669244875E+01 -0.23070216843E+03  0.23870318024E+03  0.00000000000E+00 0. -1.
         13    1    4    4    0    0  0.26075579401E+02  0.33705076509E+01 -0.30068307452E+02  0.39942449549E+02  0.00000000000E+00 0.  1.
        -13    1    3    3    0    0  0.43570170317E+02  0.92896205303E+02 -0.13053234879E+03  0.16603240281E+03  0.00000000000E+00 0.  1.
         13    1    3    3    0    0  0.91359172781E+01 -0.20462118577E+02 -0.10148962386E+02  0.24600095908E+02  0.00000000000E+00 0. -1.
         21    1    1    2  502  501 -0.18233379844E+02 -0.85271518864E+02 -0.15733084884E+03  0.17987963772E+03  0.00000000000E+00 0.  1.
<scales pt_clust_5="13000.00000" pt_clust_6="13000.00000" pt_clust_7="13000.00000" pt_clust_8="13000.00000" pt_clust_9="87.19913"></scales>
<clustering>
<clus scale="   87.199">  2  9  1 -1</clus>
<clus scale="   91.044">  5  6 -1 -1</clus>
<clus scale="   92.330">  7  8 -1 -1</clus>
<clus scale="  109.466">  2  5  1 -1</clus>
<clus scale="   87.199">  2  5  1 -1</clus>
</clustering>
</event>
<event>
 9    1  0.1782981E-005  0.1420298E+03  0.7546771E-02  0.1211624E+00
          1   -1    0    0  502    0  0.00000000000E+00  0.00000000000E+00  0.36578773595E+02  0.36578773595E+02  0.00000000000E+00 0. -1.
         -1   -1    0    0    0  501 -0.00000000000E+00 -0.00000000000E+00 -0.70097701517E+03  0.70097701517E+03  0.00000000000E+00 0.  1.
         23    2    1    2    0    0 -0.67462949427E+00  0.11833469957E+03 -0.41413442428E+03  0.43960562371E+03  0.87989924295E+02 0.  0.
         23    2    1    2    0    0 -0.27503340328E+01 -0.93112000222E+02 -0.23200553463E+03  0.26662477881E+03  0.92654172345E+02 0.  0.
        -11    1    4    4    0    0  0.28064900410E+02 -0.41065053039E+02 -0.18035230430E+03  0.18708535721E+03  0.00000000000E+00 0.  1.
         11    1    4    4    0    0 -0.30815234443E+02 -0.52046947182E+02 -0.51653230332E+02  0.79539421600E+02  0.00000000000E+00 0. -1.
        -13    1    3    3    0    0 -0.28616735240E+02  0.10473437783E+03 -0.37018919932E+03  0.38578264700E+03  0.00000000000E+00 0. -1.
         13    1    3    3    0    0  0.27942105746E+02  0.13600321742E+02 -0.43945224959E+02  0.53822976708E+02  0.00000000000E+00 0.  1.
         21    1    1    2  502  501  0.34249635271E+01 -0.25222699350E+02 -0.18258282672E+02  0.31325386251E+02  0.00000000000E+00 0. -1.
<scales pt_clust_5="13000.00000" pt_clust_6="13000.00000" pt_clust_7="13000.00000" pt_clust_8="13000.00000" pt_clust_9="25.45417"></scales>
<clustering>
<clus scale="   25.454">  1  9  2 -1</clus>
<clus scale="   87.990">  7  8 -1 -1</clus>
<clus scale="   92.654">  5  6 -1 -1</clus>
<clus scale="  139.032">  2  7  1 -1</clus>
<clus scale="   25.454">  1  5  2 -1</clus>
</clustering>
</event>
<event>
 9    1  0.1782981E-005  0.1074231E+03  0.7546771E-02  0.1265668E+00
          1   -1    0    0  502    0  0.00000000000E+00  0.00000000000E+00  0.25092022486E+03  0.25092022486E+03  0.00000000000E+00 0. -1.
         -1   -1    0    0    0  501 -0.00000000000E+00 -0.00000000000E+00 -0.13923447520E+03  0.13923447520E+03  0.00000000000E+00 0.  1.
         23    2    1    2    0    0  0.36116146207E+02 -0.37642549384E+02 -0.67896311747E+02  0.12466947064E+03  0.90615838688E+02 0.  0.
         23    2    1    2    0    0 -0.21379085211E+02  0.93311587859E+02  0.15249240967E+03  0.20184505309E+03  0.91232520158E+02 0.  0.
        -13    1    3    3    0    0  0.13017712530E+01  0.29181054360E+02 -0.19041301022E+02  0.34868319239E+02  0.00000000000E+00 0. -1.
         13    1    3    3    0    0  0.34814374954E+02 -0.66823603744E+02 -0.48855010725E+02  0.89801151405E+02  0.00000000000E+00 0.  1.
        -13    1    4    4    0    0 -0.50162531469E+02  0.47334519051E+02  0.12057707593E+03  0.13890884600E+03  0.00000000000E+00 0. -1.
         13    1    4    4    0    0  0.28783446258E+02  0.45977068808E+02  0.31915333747E+02  0.62936207090E+02  0.00000000000E+00 0.  1.
         21    1    1    2  502  501 -0.14737060996E+02 -0.55669038475E+02  0.27089651735E+02  0.63640176325E+02  0.00000000000E+00 0. -1.
<scales pt_clust_5="13000.00000" pt_clust_6="13000.00000" pt_clust_7="13000.00000" pt_clust_8="13000.00000" pt_clust_9="57.58665"></scales>
<clustering>
<clus scale="   57.587">  1  9  2 -1</clus>
<clus scale="   90.616">  5  6 -1 -1</clus>
<clus scale="   91.233">  7  8 -1 -1</clus>
<clus scale="  106.900">  2  5  1 -1</clus>
<clus scale="   57.587">  1  5  2 -1</clus>
</clustering>
</event>
<event>
 9    1  0.1782981E-005  0.1175322E+03  0.7546771E-02  0.1248379E+00
         -2   -1    0    0    0  501 -0.00000000000E+00  0.00000000000E+00  0.22123027197E+03  0.22123027197E+03  0.00000000000E+00 0.  1.
          2   -1    0    0  502    0  0.00000000000E+00 -0.00000000000E+00 -0.10909510212E+03  0.10909510212E+03  0.00000000000E+00 0. -1.
         23    2    1    2    0    0 -0.37861642638E+02 -0.30683418018E+02  0.82769330153E+02  0.13695935432E+03  0.97632610323E+02 0.  0.
         23    2    1    2    0    0  0.65764985672E+02  0.67049029681E+02  0.51128766064E+02  0.14262472270E+03  0.94377195791E+02 0.  0.
        -13    1    3    3    0    0 -0.60966455908E+02 -0.44592783275E+02  0.79716285586E+02  0.10981853784E+03  0.00000000000E+00 0.  1.
         13    1    3    3    0    0  0.23104813271E+02  0.13909365257E+02  0.30530445663E+01  0.27140816481E+02  0.00000000000E+00 0. -1.
        -13    1    4    4    0    0 -0.95450291089E+01  0.48429845737E+02 -0.63034868735E+00  0.49365523174E+02  0.00000000000E+00 0.  1.
         13    1    4    4    0    0  0.75310014781E+02  0.18619183944E+02  0.51759114752E+02  0.93259199530E+02  0.00000000000E+00 0. -1.
         21    1    1    2  502  501 -0.27903343035E+02 -0.36365611663E+02 -0.21762926361E+02  0.50741297066E+02  0.00000000000E+00 0.  1.
<scales pt_clust_5="13000.00000" pt_clust_6="13000.00000" pt_clust_7="13000.00000" pt_clust_8="13000.00000" pt_clust_9="45.83726"></scales>
<clustering>
<clus scale="   45.837">  2  9  1 -1</clus>
<clus scale="   94.377">  7  8 -1 -1</clus>
<clus scale="   97.633">  5  6 -1 -1</clus>
<clus scale="  114.842">  2  7  1 -1</clus>
<clus scale="   45.837">  2  5  1 -1</clus>
</clustering>
</event>
<event>
 9    1  0.1782981E-005  0.1458536E+03  0.7546771E-02  0.1205798E+00
          1   -1    0    0  502    0  0.00000000000E+00  0.00000000000E+00  0.39074524432E+03  0.39074524432E+03  0.00000000000E+00 0. -1.
         -1   -1    0    0    0  501 -0.00000000000E+00 -0.00000000000E+00 -0.68566558657E+02  0.68566558657E+02  0.00000000000E+00 0.  1.
         23    2    1    2    0    0 -0.13156638358E+02  0.10477179743E+03  0.97918808840E+02  0.17062248885E+03  0.91507999138E+02 0.  0.
         23    2    1    2    0    0  0.28789027456E+02 -0.12118388594E+03  0.17076344996E+03  0.23058943525E+03  0.92179116375E+02 0.  0.
        -11    1    3    3    0    0  0.15979541159E+02  0.89168897238E+02  0.10301530767E+03  0.13718087179E+03  0.00000000000E+00 0. -1.
         11    1    3    3    0    0 -0.29136179516E+02  0.15602900188E+02 -0.50964988291E+01  0.33441617057E+02  0.00000000000E+00 0.  1.
        -13    1    4    4    0    0  0.44098119752E+02 -0.36270449771E+02  0.27560454521E+02  0.63401643084E+02  0.00000000000E+00 0. -1.
         13    1    4    4    0    0 -0.15309092296E+02 -0.84913436170E+02  0.14320299543E+03  0.16718779217E+03  0.00000000000E+00 0.  1.
         21    1    1    2  502  501 -0.15632389098E+02  0.16412088514E+02  0.53496426870E+02  0.58099878883E+02  0.00000000000E+00 0. -1.
<scales pt_clust_5="13000.00000" pt_clust_6="13000.00000" pt_clust_7="13000.00000" pt_clust_8="13000.00000" pt_clust_9="22.66557"></scales>
<clustering>
<clus scale="   22.666">  1  9  2 -1</clus>
<clus scale="   91.508">  5  6 -1 -1</clus>
<clus scale="   92.179">  7  8 -1 -1</clus>
<clus scale="  145.430">  2  5  1 -1</clus>
<clus scale="   22.666">  1  5  2 -1</clus>
</clustering>
</event>
<event>
 9    1  0.1782981E-005  0.2125103E+03  0.7546771E-02  0.1142499E+00
          1   -1    0    0  502    0  0.00000000000E+00  0.00000000000E+00  0.42317429068E+03  0.42317429068E+03  0.00000000000E+00 0. -1.
         -1   -1    0    0    0  501 -0.00000000000E+00 -0.00000000000E+00 -0.13068768132E+03  0.13068768132E+03  0.00000000000E+00 0.  1.
         23    2    1    2    0    0  0.17518253672E+03  0.62689079592E+02  0.88911345801E+02  0.23822347116E+03  0.11927427605E+03 0.  0.
         23    2    1    2    0    0 -0.16041286145E+03 -0.42456122110E+02  0.11052008221E+03  0.21927054634E+03  0.91269247270E+02 0.  0.
        -13    1    4    4    0    0 -0.46199081038E+02  0.22702279096E+02  0.70647783504E+01  0.51958249182E+02  0.00000000000E+00 0. -1.
         13    1    4    4    0    0 -0.11421378041E+03 -0.65158401206E+02  0.10345530386E+03  0.16731229716E+03  0.00000000000E+00 0.  1.
        -13    1    3    3    0    0  0.37045547160E+02 -0.17073477452E+00  0.77655948966E+02  0.86039805466E+02  0.00000000000E+00 0. -1.
         13    1    3    3    0    0  0.13813698956E+03  0.62859814366E+02  0.11255396835E+02  0.15218366570E+03  0.00000000000E+00 0.  1.
         21    1    1    2  502  501 -0.14769675270E+02 -0.20232957482E+02  0.93055181353E+02  0.96367954490E+02  0.00000000000E+00 0. -1.
<scales pt_clust_5="13000.00000" pt_clust_6="13000.00000" pt_clust_7="13000.00000" pt_clust_8="13000.00000" pt_clust_9="25.05027"></scales>
<clustering>
<clus scale="   25.050">  1  9  2 -1</clus>
<clus scale="   91.269">  5  6 -1 -1</clus>
<clus scale="  119.274">  7  8 -1 -1</clus>
<clus scale="  198.152">  1  5  2 -1</clus>
<clus scale="   25.050">  1  5  2 -1</clus>
</clustering>
</event>
<event>
 9    1  0.1782981E-005  0.9754335E+02  0.7546771E-02  0.1291252E+00
          2   -1    0    0  502    0  0.00000000000E+00  0.00000000000E+00  0.10649940991E+03  0.10649940991E+03  0.00000000000E+00 0. -1.
         -2   -1    0    0    0  501 -0.00000000000E+00 -0.00000000000E+00 -0.12447520972E+03  0.12447520972E+03  0.00000000000E+00 0.  1.
         23    2    1    2    0    0 -0.35009848988E+02 -0.60151445837E+01 -0.44296924720E+02  0.10215230212E+03  0.84917629496E+02 0.  0.
         23    2    1    2    0    0  0.15313443692E+02 -0.67992161070E+01  0.36465916265E+02  0.10322792333E+03  0.95107887200E+02 0.  0.
        -13    1    4    4    0    0  0.24947100476E+02 -0.29073677475E+02 -0.18943077890E+02  0.42737299213E+02  0.00000000000E+00 0.  1.
         13    1    4    4    0    0 -0.96336567844E+01  0.22274461368E+02  0.55408994154E+02  0.60490624112E+02  0.00000000000E+00 0. -1.
        -13    1    3    3    0    0 -0.69450277627E+01 -0.42966974636E+02 -0.10572769547E+02  0.44790375930E+02  0.00000000000E+00 0. -1.
         13    1    3    3    0    0 -0.28064821226E+02  0.36951830053E+02 -0.33724155173E+02  0.57361926195E+02  0.00000000000E+00 0.  1.
         21    1    1    2  502  501  0.19696405296E+02  0.12814360691E+02 -0.10144791359E+02  0.25594394176E+02  0.00000000000E+00 0. -1.
<scales pt_clust_5="13000.00000" pt_clust_6="13000.00000" pt_clust_7="13000.00000" pt_clust_8="13000.00000" pt_clust_9="23.49800"></scales>
<clustering>
<clus scale="   23.498">  2  9  1 -1</clus>
<clus scale="   84.918">  7  8 -1 -1</clus>
<clus scale="   87.637">  2  7  1 -1</clus>
<clus scale="   95.108">  5  6 -1 -1</clus>
<clus scale="   97.543">  1  5  2 -1</clus>
</clustering>
</event>
<event>
 9    1  0.1782981E-005  0.1365520E+03  0.7546771E-02  0.1222081E+00
         -2   -1    0    0    0  501 -0.00000000000E+00  0.00000000000E+00  0.12669272779E+03  0.12669272779E+03  0.00000000000E+00 0. -1.
          2   -1    0    0  502    0  0.00000000000E+00 -0.00000000000E+00 -0.69569375629E+03  0.69569375629E+03  0.00000000000E+00 0.  1.
         23    2    1    2    0    0  0.10985559167E+03  0.37221018154E+02  0.22873569786E+02  0.14923876882E+03  0.91078837884E+02 0.  0.
         23    2    1    2    0    0 -0.35536088278E+02  0.70121818520E+02 -0.10347288295E+03  0.16759642339E+03  0.10583969305E+03 0.  0.
        -13    1    4    4    0    0  0.11062731288E+02  0.70406306950E+02 -0.97270182840E+02  0.12058573942E+03  0.00000000000E+00 0. -1.
         13    1    4    4    0    0 -0.46598819566E+02 -0.28448842928E+00 -0.62027001097E+01  0.47010683970E+02  0.00000000000E+00 0.  1.
        -13    1    3    3    0    0  0.72731201709E+02 -0.11394401023E+02  0.42490872778E+02  0.85000790268E+02  0.00000000000E+00 0.  1.
         13    1    3    3    0    0  0.37124389963E+02  0.48615419177E+02 -0.19617302992E+02  0.64237978552E+02  0.00000000000E+00 0. -1.
         21    1    1    2  502  501 -0.74319503394E+02 -0.10734283667E+03 -0.48840171534E+03  0.50555129187E+03  0.00000000000E+00 0.  1.
<scales pt_clust_5="13000.00000" pt_clust_6="13000.00000" pt_clust_7="13000.00000" pt_clust_8="13000.00000" pt_clust_9="130.55985"></scales>
<clustering>
<clus scale="   91.079">  7  8 -1 -1</clus>
<clus scale="  105.840">  5  6 -1 -1</clus>
<clus scale="  130.560">  2  9  1 -1</clus>
<clus scale="  125.458">  1  7  2 -1</clus>
<clus scale="  130.560">  2  5  1 -1</clus>
</clustering>
</event>
<event>
 9    1  0.3201163E-005  0.1561848E+03  0.7546771E-02  0.1197031E+00
         -1   -1    0    0    0  501 -0.00000000000E+00  0.00000000000E+00  0.21605968927E+03  0.21605968927E+03  0.00000000000E+00 0.  1.
          1   -1    0    0  502    0  0.00000000000E+00 -0.00000000000E+00 -0.31235528902E+03  0.31235528902E+03  0.00000000000E+00 0. -1.
         23    2    1    2    0    0  0.88639324543E+02  0.70492923246E+02  0.15780053832E+03  0.21481969514E+03  0.91762244106E+02 0.  0.
         23    2    1    2    0    0 -0.69472310654E+02 -0.41400191983E+02 -0.23901913494E+03  0.27563375714E+03  0.11092088785E+03 0.  0.
        -11    1    4    4    0    0 -0.24668723894E+02 -0.28428094104E+02 -0.61488377476E+01  0.38138047650E+02  0.00000000000E+00 0.  1.
         11    1    4    4    0    0 -0.44803586760E+02 -0.12972097880E+02 -0.23287029719E+03  0.23749570949E+03  0.00000000000E+00 0. -1.
        -11    1    3    3    0    0  0.55612498910E+02  0.83371069466E+02  0.14671867158E+03  0.17767907544E+03  0.00000000000E+00 0.  1.
         11    1    3    3    0    0  0.33026825633E+02 -0.12878146220E+02  0.11081866742E+02  0.37140619703E+02  0.00000000000E+00 0. -1.
         21    1    1    2  502  501 -0.19167013889E+02 -0.29092731262E+02 -0.15077003123E+02  0.37961526009E+02  0.00000000000E+00 0. -1.
<scales pt_clust_5="13000.00000" pt_clust_6="13000.00000" pt_clust_7="13000.00000" pt_clust_8="13000.00000" pt_clust_9="34.83908"></scales>
<clustering>
<clus scale="   34.839">  2  9  1 -1</clus>
<clus scale="   91.762">  7  8 -1 -1</clus>
<clus scale="  110.921">  5  6 -1 -1</clus>
<clus scale="  143.215">  1  7  2 -1</clus>
<clus scale="   34.839">  2  5  1 -1</clus>
</clustering>
</event>
<event>
 9    1  0.1782981E-005  0.1379712E+03  0.7546771E-02  0.1216704E+00
         -1   -1    0    0    0  501 -0.00000000000E+00  0.00000000000E+00  0.56056697244E+03  0.56056697244E+03  0.00000000000E+00 0.  1.
          1   -1    0    0  502    0  0.00000000000E+00 -0.00000000000E+00 -0.14973113489E+03  0.14973113489E+03  0.00000000000E+00 0. -1.
         23    2    1    2    0    0  0.10597883104E+03 -0.98338704448E+01  0.48889493707E+03  0.50858755204E+03  0.91185640099E+02 0.  0.
         23    2    1    2    0    0 -0.49140797622E+02 -0.30920796247E+02 -0.71444805429E+02  0.13145919384E+03  0.93841599464E+02 0.  0.
        -11    1    3    3    0    0  0.81291278454E+02  0.28331716328E+02  0.22696311501E+03  0.24274104242E+03  0.00000000000E+00 0. -1.
         11    1    3    3    0    0  0.24687552587E+02 -0.38165586772E+02  0.26193182206E+03  0.26584650961E+03  0.00000000000E+00 0.  1.
        -11    1    4    4    0    0  0.24959674867E+02  0.67662473198E+01 -0.26190711236E+02  0.36806532400E+02  0.00000000000E+00 0.  1.
         11    1    4    4    0    0 -0.74100472489E+02 -0.37687043567E+02 -0.45254094194E+02  0.94652661438E+02  0.00000000000E+00 0. -1.
         21    1    1    2  502  501 -0.56838033420E+02  0.40754666692E+02 -0.66142940787E+01  0.70251361455E+02  0.00000000000E+00 0. -1.
<scales pt_clust_5="13000.00000" pt_clust_6="13000.00000" pt_clust_7="13000.00000" pt_clust_8="13000.00000" pt_clust_9="69.93929"></scales>
<clustering>
<clus scale="   69.939">  2  9  1 -1</clus>
<clus scale="   91.186">  5  6 -1 -1</clus>
<clus scale="   93.842">  7  8 -1 -1</clus>
<clus scale="  136.179">  1  5  2 -1</clus>
<clus scale="   69.939">  2  5  1 -1</clus>
</clustering>
</event>
<event>
 9    1  0.1782981E-005  0.1077574E+03  0.7546771E-02  0.1265238E+00
          1   -1    0    0  502    0  0.00000000000E+00  0.00000000000E+00  0.84522212406E+02  0.84522212406E+02  0.00000000000E+00 0. -1.
         -1   -1    0    0    0  501 -0.00000000000E+00 -0.00000000000E+00 -0.23561455292E+03  0.23561455292E+03  0.00000000000E+00 0.  1.
         23    2    1    2    0    0  0.25403400380E+02  0.60382147272E+02 -0.15423675390E+03  0.19022949375E+03  0.90038589377E+02 0.  0.
         23    2    1    2    0    0 -0.52537557715E+01 -0.40070246547E+02  0.15271388936E+02  0.98832442138E+02  0.88889873950E+02 0.  0.
        -11    1    3    3    0    0 -0.11173093847E+02  0.63247928093E+02 -0.55457238706E+02  0.84856607044E+02  0.00000000000E+00 0. -1.
         11    1    3    3    0    0  0.36576494226E+02 -0.28657808214E+01 -0.98779515199E+02  0.10537288671E+03  0.00000000000E+00 0.  1.
        -13    1    4    4    0    0 -0.10923734780E+02 -0.66635267031E+02  0.21686684161E+02  0.70921781306E+02  0.00000000000E+00 0. -1.
         13    1    4    4    0    0  0.56699790084E+01  0.26565020483E+02 -0.64152952257E+01  0.27910660832E+02  0.00000000000E+00 0.  1.
         21    1    1    2  502  501 -0.20149644608E+02 -0.20311900724E+02 -0.12126975549E+02  0.31074829442E+02  0.00000000000E+00 0. -1.
<scales pt_clust_5="13000.00000" pt_clust_6="13000.00000" pt_clust_7="13000.00000" pt_clust_8="13000.00000" pt_clust_9="28.61086"></scales>
<clustering>
<clus scale="   28.611">  1  9  2 -1</clus>
<clus scale="   88.890">  7  8 -1 -1</clus>
<clus scale="   90.039">  5  6 -1 -1</clus>
<clus scale="  106.799">  1  7  2 -1</clus>
<clus scale="   28.611">  1  5  2 -1</clus>
</clustering>
</event>
<event>
 9    1  0.1782981E-005  0.1145959E+03  0.7546771E-02  0.1252857E+00
          3   -1    0    0  502    0  0.00000000000E+00  0.00000000000E+00  0.14465097784E+03  0.14465097784E+03  0.00000000000E+00 0. -1.
         -3   -1    0    0    0  501 -0.00000000000E+00 -0.00000000000E+00 -0.27021817093E+03  0.27021817093E+03  0.00000000000E+00 0.  1.
         23    2    1    2    0    0 -0.86408658970E+02 -0.44163216410E+02 -0.17658662587E+03  0.21957451082E+03  0.87254130762E+02 0.  0.
         23    2    1    2    0    0  0.31125430685E+02 -0.66441573058E+01 -0.14611175323E+02  0.95570010731E+02  0.88922456361E+02 0.  0.
        -11    1    3    3    0    0 -0.68208290306E+02 -0.32741750033E+02 -0.48886671139E+02  0.90079407618E+02  0.00000000000E+00 0. -1.
         11    1    3    3    0    0 -0.18200368664E+02 -0.11421466377E+02 -0.12769995474E+03  0.12949510320E+03  0.00000000000E+00 0.  1.
        -13    1    4    4    0    0 -0.95363113109E+01 -0.38564890018E+02  0.54919662481E+01  0.40104284918E+02  0.00000000000E+00 0.  1.
         13    1    4    4    0    0  0.40661741996E+02  0.31920732712E+02 -0.20103141572E+02  0.55465725814E+02  0.00000000000E+00 0. -1.
         21    1    1    2  502  501  0.55283228285E+02  0.50807373716E+02  0.65630608104E+02  0.99724627218E+02  0.00000000000E+00 0. -1.
<scales pt_clust_5="13000.00000" pt_clust_6="13000.00000" pt_clust_7="13000.00000" pt_clust_8="13000.00000" pt_clust_9="75.08412"></scales>
<clustering>
<clus scale="   75.084">  1  9  2 -1</clus>
<clus scale="   87.254">  5  6 -1 -1</clus>
<clus scale="   88.922">  7  8 -1 -1</clus>
<clus scale="  113.306">  2  5  1 -1</clus>
<clus scale="   75.084">  1  5  2 -1</clus>
</clustering>
</event>
<event>
 9    1  0.1782981E-005  0.1037754E+03  0.7546771E-02  0.1274561E+00
          2   -1    0    0  502    0  0.00000000000E+00  0.00000000000E+00  0.46895598055E+03  0.46895598055E+03  0.00000000000E+00 0. -1.
         -2   -1    0    0    0  501 -0.00000000000E+00 -0.00000000000E+00 -0.28490108776E+02  0.28490108776E+02  0.00000000000E+00 0.  1.
         23    2    1    2    0    0 -0.29233494151E+02  0.70643944817E+01  0.18705389677E+03  0.21188149320E+03  0.94868878006E+02 0.  0.
         23    2    1    2    0    0  0.54218000765E+02 -0.55977353815E+01  0.19044077256E+03  0.21780215079E+03  0.90549228546E+02 0.  0.
        -11    1    3    3    0    0  0.23611587471E+02 -0.27584355098E+02  0.66185845556E+02  0.75491521783E+02  0.00000000000E+00 0. -1.
         11    1    3    3    0    0 -0.52845081622E+02  0.34648749579E+02  0.12086805121E+03  0.13638997142E+03  0.00000000000E+00 0.  1.
        -11    1    4    4    0    0 -0.22467687577E+02 -0.60487901433E+01  0.19173082496E+02  0.30149493190E+02  0.00000000000E+00 0.  1.
         11    1    4    4    0    0  0.76685688342E+02  0.45105476181E+00  0.17126769006E+03  0.18765265760E+03  0.00000000000E+00 0. -1.
         21    1    1    2  502  501 -0.24984506614E+02 -0.14666591002E+01  0.62971202446E+02  0.67762445331E+02  0.00000000000E+00 0. -1.
<scales pt_clust_5="13000.00000" pt_clust_6="13000.00000" pt_clust_7="13000.00000" pt_clust_8="13000.00000" pt_clust_9="25.02752"></scales>
<clustering>
<clus scale="   25.028">  1  9  2 -1</clus>
<clus scale="   90.549">  7  8 -1 -1</clus>
<clus scale="   94.869">  5  6 -1 -1</clus>
<clus scale="   99.842">  1  7  2 -1</clus>
<clus scale="   25.028">  1  5  2 -1</clus>
</clustering>
</event>
<event>
 9    1  0.1782981E-005  0.1058357E+03  0.7546771E-02  0.1268552E+00
          3   -1    0    0  502    0  0.00000000000E+00  0.00000000000E+00  0.42863019836E+03  0.42863019836E+03  0.00000000000E+00 0. -1.
         -3   -1    0    0    0  501 -0.00000000000E+00 -0.00000000000E+00 -0.38720538570E+02  0.38720538570E+02  0.00000000000E+00 0.  1.
         23    2    1    2    0    0 -0.22569897099E+02 -0.35832443871E+02  0.12145847697E+03  0.15726865940E+03  0.90487044985E+02 0.  0.
         23    2    1    2    0    0  0.20205346895E+02  0.70508381709E+02  0.17286317336E+03  0.20837131451E+03  0.90317440585E+02 0.  0.
        -11    1    4    4    0    0 -0.18378569792E+02 -0.14040713391E+02  0.40510987876E+02  0.46648189663E+02  0.00000000000E+00 0.  1.
         11    1    4    4    0    0  0.38583916688E+02  0.84549095100E+02  0.13235218548E+03  0.16172312485E+03  0.00000000000E+00 0. -1.
        -13    1    3    3    0    0 -0.54160266984E+02 -0.14570213211E+02  0.45203691451E+02  0.72034709367E+02  0.00000000000E+00 0.  1.
         13    1    3    3    0    0  0.31590369886E+02 -0.21262230660E+02  0.76254785524E+02  0.85233950028E+02  0.00000000000E+00 0. -1.
         21    1    1    2  502  501  0.23645502033E+01 -0.34675937838E+02  0.95588009458E+02  0.10171076302E+03  0.00000000000E+00 0. -1.
<scales pt_clust_5="13000.00000" pt_clust_6="13000.00000" pt_clust_7="13000.00000" pt_clust_8="13000.00000" pt_clust_9="34.75646"></scales>
<clustering>
<clus scale="   34.756">  1  9  2 -1</clus>
<clus scale="   90.317">  5  6 -1 -1</clus>
<clus scale="   90.487">  7  8 -1 -1</clus>
<clus scale="  105.691">  1  5  2 -1</clus>
<clus scale="   34.756">  1  5  2 -1</clus>
</clustering>
</event>
<event>
 9    1  0.1782981E-005  0.9337867E+02  0.7546771E-02  0.1295056E+00
          2   -1    0    0  502    0  0.00000000000E+00  0.00000000000E+00  0.16065375840E+03  0.16065375840E+03  0.00000000000E+00 0. -1.
         -2   -1    0    0    0  501 -0.00000000000E+00 -0.00000000000E+00 -0.76040452739E+02  0.76040452739E+02  0.00000000000E+00 0.  1.
         23    2    1    2    0    0  0.25394429092E+02 -0.10246500493E+02  0.18924701420E+02  0.96263009011E+02  0.90324718537E+02 0.  0.
         23    2    1    2    0    0 -0.21223890544E+02 -0.18556422567E+02  0.43607062429E+02  0.10389907576E+03  0.89992486914E+02 0.  0.
        -11    1    4    4    0    0 -0.42336009965E+02 -0.30876651839E+01 -0.10558312603E+02  0.43741849310E+02  0.00000000000E+00 0.  1.
         11    1    4    4    0    0  0.21112119421E+02 -0.15468757383E+02  0.54165375031E+02  0.60157226446E+02  0.00000000000E+00 0. -1.
        -11    1    3    3    0    0  0.51890464817E+02  0.18318031068E+02  0.67347859507E+01  0.55439407851E+02  0.00000000000E+00 0.  1.
         11    1    3    3    0    0 -0.26496035725E+02 -0.28564531561E+02  0.12189915469E+02  0.40823601159E+02  0.00000000000E+00 0. -1.
         21    1    1    2  502  501 -0.41705385476E+01  0.28802923060E+02  0.22081541817E+02  0.36532126377E+02  0.00000000000E+00 0. -1.
<scales pt_clust_5="13000.00000" pt_clust_6="13000.00000" pt_clust_7="13000.00000" pt_clust_8="13000.00000" pt_clust_9="29.10329"></scales>
<clustering>
<clus scale="   29.103">  1  9  2 -1</clus>
<clus scale="   89.992">  5  6 -1 -1</clus>
<clus scale="   90.325">  7  8 -1 -1</clus>
<clus scale="   93.057">  1  5  2 -1</clus>
<clus scale="   29.103">  1  5  2 -1</clus>
</clustering>
</event>
<event>
 9    1  0.1782981E-005  0.1292782E+03  0.7546771E-02  0.1228794E+00
          2   -1    0    0  502    0  0.00000000000E+00  0.00000000000E+00  0.30068559619E+03  0.30068559619E+03  0.00000000000E+00 0. -1.
         -2   -1    0    0    0  501 -0.00000000000E+00 -0.00000000000E+00 -0.80213970481E+02  0.80213970481E+02  0.00000000000E+00 0.  1.
         23    2    1    2    0    0  0.76337237467E+02  0.56484451899E+02  0.52322381490E+02  0.14128745436E+03  0.90590540478E+02 0.  0.
         23    2    1    2    0    0 -0.47936469572E+02 -0.76016862636E+02  0.98018911101E+02  0.16146876768E+03  0.91585956807E+02 0.  0.
        -11    1    4    4    0    0 -0.67576556604E+02 -0.81652068046E+02  0.91501253534E+02  0.14002189335E+03  0.00000000000E+00 0.  1.
         11    1    4    4    0    0  0.19640087032E+02  0.56352054101E+01  0.65176575667E+01  0.21446874336E+02  0.00000000000E+00 0. -1.
        -13    1    3    3    0    0  0.30743789619E+02 -0.23617357026E+02  0.11140827469E+02  0.40337057276E+02  0.00000000000E+00 0. -1.
         13    1    3    3    0    0  0.45593447849E+02  0.80101808924E+02  0.41181554021E+02  0.10095039708E+03  0.00000000000E+00 0.  1.
         21    1    1    2  502  501 -0.28400767896E+02  0.19532410737E+02  0.70130333118E+02  0.78143344628E+02  0.00000000000E+00 0.  1.
<scales pt_clust_5="13000.00000" pt_clust_6="13000.00000" pt_clust_7="13000.00000" pt_clust_8="13000.00000" pt_clust_9="34.46910"></scales>
<clustering>
<clus scale="   34.469">  1  9  2 -1</clus>
<clus scale="   90.591">  7  8 -1 -1</clus>
<clus scale="   91.586">  5  6 -1 -1</clus>
<clus scale="  128.575">  2  7  1 -1</clus>
<clus scale="   34.469">  1  5  2 -1</clus>
</clustering>
</event>
<event>
 9    1  0.1782981E-005  0.1191123E+03  0.7546771E-02  0.1244963E+00
         -1   -1    0    0    0  501 -0.00000000000E+00  0.00000000000E+00  0.32909121965E+03  0.32909121965E+03  0.00000000000E+00 0.  1.
          1   -1    0    0  502    0  0.00000000000E+00 -0.00000000000E+00 -0.31282602828E+03  0.31282602828E+03  0.00000000000E+00 0. -1.
         23    2    1    2    0    0  0.71599555042E+02  0.34927114076E+02  0.26469571662E+03  0.29111348231E+03  0.91306284602E+02 0.  0.
         23    2    1    2    0    0 -0.74096720776E+02  0.73822593728E+02 -0.12427047594E+03  0.18573271234E+03  0.90074357445E+02 0.  0.
        -11    1    4    4    0    0 -0.53123899617E+02  0.82210952349E+01 -0.98467304366E+02  0.11218531609E+03  0.00000000000E+00 0. -1.
         11    1    4    4    0    0 -0.20972821159E+02  0.65601498493E+02 -0.25803171572E+02  0.73547396250E+02  0.00000000000E+00 0.  1.
        -11    1    3    3    0    0  0.84133590680E+02  0.38832952417E+01  0.21760011024E+03  0.23333098602E+03  0.00000000000E+00 0.  1.
         11    1    3    3    0    0 -0.12534035637E+02  0.31043818834E+02  0.47095606381E+02  0.57782496291E+02  0.00000000000E+00 0. -1.
         21    1    1    2  502  501  0.24971657334E+01 -0.10874970780E+03 -0.12416004931E+03  0.16507105327E+03  0.00000000000E+00 0.  1.
<scales pt_clust_5="13000.00000" pt_clust_6="13000.00000" pt_clust_7="13000.00000" pt_clust_8="13000.00000" pt_clust_9="108.77837"></scales>
<clustering>
<clus scale="   90.074">  5  6 -1 -1</clus>
<clus scale="   91.306">  7  8 -1 -1</clus>
<clus scale="  108.778">  2  9  1 -1</clus>
<clus scale="  118.171">  2  5  1 -1</clus>
<clus scale="  108.778">  2  5  1 -1</clus>
</clustering>
</event>
<event>
 9    1  0.1782981E-005  0.1306313E+03  0.7546771E-02  0.1240131E+00
          1   -1    0    0  502    0  0.00000000000E+00  0.00000000000E+00  0.34742817382E+03  0.34742817382E+03  0.00000000000E+00 0. -1.
         -1   -1    0    0    0  501 -0.00000000000E+00 -0.00000000000E+00 -0.13548601955E+03  0.13548601955E+03  0.00000000000E+00 0.  1.
         23    2    1    2    0    0  0.25340713024E+02 -0.17086534359E+02 -0.71003425826E+02  0.14850840303E+03  0.12680361942E+03 0.  0.
         23    2    1    2    0    0  0.82470592954E+01  0.64142840063E+02  0.22709400071E+03  0.25402026133E+03  0.93660504419E+02 0.  0.
        -11    1    4    4    0    0 -0.34991631872E+02  0.60337480360E+02  0.15298987966E+03  0.16813961198E+03  0.00000000000E+00 0. -1.
         11    1    4    4    0    0  0.43238691167E+02  0.38053597025E+01  0.74104121051E+02  0.85880649352E+02  0.00000000000E+00 0.  1.
        -13    1    3    3    0    0 -0.29758366365E+02  0.18405520200E+02  0.16902338188E+02  0.38858880307E+02  0.00000000000E+00 0. -1.
         13    1    3    3    0    0  0.55099079389E+02 -0.35492054560E+02 -0.87905764014E+02  0.10964952272E+03  0.00000000000E+00 0.  1.
         21    1    1    2  502  501 -0.33587772319E+02 -0.47056305703E+02  0.55851579378E+02  0.80385529014E+02  0.00000000000E+00 0. -1.
<scales pt_clust_5="13000.00000" pt_clust_6="13000.00000" pt_clust_7="13000.00000" pt_clust_8="13000.00000" pt_clust_9="57.81379"></scales>
<clustering>
<clus scale="   57.814">  1  9  2 -1</clus>
<clus scale="   93.661">  5  6 -1 -1</clus>
<clus scale="   98.781">  1  5  2 -1</clus>
<clus scale="  126.804">  7  8 -1 -1</clus>
<clus scale="   57.814">  1  5  2 -1</clus>
</clustering>
</event>
<event>
 9    1  0.1782981E-005  0.1016811E+03  0.7546771E-02  0.1277681E+00
         -1   -1    0    0    0  501 -0.00000000000E+00  0.00000000000E+00  0.61603325368E+02  0.61603325368E+02  0.00000000000E+00 0.  1.
          1   -1    0    0  502    0  0.00000000000E+00 -0.00000000000E+00 -0.23382888361E+03  0.23382888361E+03  0.00000000000E+00 0. -1.
         23    2    1    2    0    0 -0.26214954206E+02 -0.22792519754E+02 -0.42864188164E+02  0.10491648421E+03  0.89237924961E+02 0.  0.
         23    2    1    2    0    0  0.28326812816E+02  0.43238052365E+02 -0.13334060236E+03  0.16957977387E+03  0.91135316820E+02 0.  0.
        -11    1    3    3    0    0  0.32062025331E+02 -0.69039517447E+01 -0.38820523925E+01  0.33025873929E+02  0.00000000000E+00 0.  1.
         11    1    3    3    0    0 -0.58276979536E+02 -0.15888568009E+02 -0.38982135771E+02  0.71890610281E+02  0.00000000000E+00 0. -1.
        -11    1    4    4    0    0 -0.49648005840E+01  0.60568884522E+02 -0.10914736899E+03  0.12492552652E+03  0.00000000000E+00 0.  1.
         11    1    4    4    0    0  0.33291613400E+02 -0.17330832157E+02 -0.24193233363E+02  0.44654247352E+02  0.00000000000E+00 0. -1.
         21    1    1    2  502  501 -0.21118586106E+01 -0.20445532611E+02  0.39792322783E+01  0.20935950899E+02  0.00000000000E+00 0. -1.
<scales pt_clust_5="13000.00000" pt_clust_6="13000.00000" pt_clust_7="13000.00000" pt_clust_8="13000.00000" pt_clust_9="20.55431"></scales>
<clustering>
<clus scale="   20.554">  1  9  2 -1</clus>
<clus scale="   89.238">  5  6 -1 -1</clus>
<clus scale="   91.135">  7  8 -1 -1</clus>
<clus scale="   99.984">  1  5  2 -1</clus>
<clus scale="  101.681">  2  5  1 -1</clus>
</clustering>
</event>
<event>
 9    1  0.1782981E-005  0.1029536E+03  0.7546771E-02  0.1275108E+00
          2   -1    0    0  502    0  0.00000000000E+00  0.00000000000E+00  0.37424954425E+02  0.37424954425E+02  0.00000000000E+00 0. -1.
         -2   -1    0    0    0  501 -0.00000000000E+00 -0.00000000000E+00 -0.66159125686E+03  0.66159125686E+03  0.00000000000E+00 0.  1.
         23    2    1    2    0    0  0.21364699071E+02 -0.57354799157E+02 -0.39207334131E+03  0.40661962761E+03  0.88724253964E+02 0.  0.
         23    2    1    2    0    0 -0.46813773735E+02  0.44777433441E+01 -0.20215139764E+03  0.22651687772E+03  0.90736589802E+02 0.  0.
        -11    1    4    4    0    0 -0.22330852462E+02  0.35354728221E+02 -0.17169344958E+03  0.17671237764E+03  0.00000000000E+00 0.  1.
         11    1    4    4    0    0 -0.24482921273E+02 -0.30876984877E+02 -0.30457948051E+02  0.49804500084E+02  0.00000000000E+00 0. -1.
        -13    1    3    3    0    0  0.17240633745E+02 -0.81484240398E+02 -0.29974404188E+03  0.31110032390E+03  0.00000000000E+00 0.  1.
         13    1    3    3    0    0  0.41240653263E+01  0.24129441242E+02 -0.92329299421E+02  0.95519303709E+02  0.00000000000E+00 0. -1.
         21    1    1    2  502  501  0.25449074664E+02  0.52877055812E+02 -0.29941563496E+02  0.65879705959E+02  0.00000000000E+00 0. -1.
<scales pt_clust_5="13000.00000" pt_clust_6="13000.00000" pt_clust_7="13000.00000" pt_clust_8="13000.00000" pt_clust_9="58.68252"></scales>
<clustering>
<clus scale="   58.683">  1  9  2 -1</clus>
<clus scale="   88.724">  7  8 -1 -1</clus>
<clus scale="   90.737">  5  6 -1 -1</clus>
<clus scale="  101.185">  2  7  1 -1</clus>
<clus scale="   58.683">  1  5  2 -1</clus>
</clustering>
</event>
<event>
 9    1  0.1782981E-005  0.1036890E+03  0.7546771E-02  0.1276732E+00
          1   -1    0    0  502    0  0.00000000000E+00  0.00000000000E+00  0.17483853867E+03  0.17483853867E+03  0.00000000000E+00 0. -1.
         -1   -1    0    0    0  501 -0.00000000000E+00 -0.00000000000E+00 -0.15143010035E+03  0.15143010035E+03  0.00000000000E+00 0.  1.
         23    2    1    2    0    0  0.86929727833E+01  0.22279807453E+02 -0.99202161961E+02  0.13816978058E+03  0.93155041362E+02 0.  0.
         23    2    1    2    0    0  0.25804752133E+02 -0.26923428835E+02  0.89216693970E+02  0.13986184752E+03  0.10104930310E+03 0.  0.
        -11    1    3    3    0    0 -0.21043442146E+02  0.48857288925E+02 -0.73469399619E+02  0.90706195041E+02  0.00000000000E+00 0.  1.
         11    1    3    3    0    0  0.29736414929E+02 -0.26577481472E+02 -0.25732762342E+02  0.47463585536E+02  0.00000000000E+00 0. -1.
        -11    1    4    4    0    0  0.41148201870E+02 -0.56171610167E+02  0.78962569761E+02  0.10527825858E+03  0.00000000000E+00 0. -1.
         11    1    4    4    0    0 -0.15343449738E+02  0.29248181332E+02  0.10254124209E+02  0.34583588946E+02  0.00000000000E+00 0.  1.
         21    1    1    2  502  501 -0.34497724916E+02  0.46436213814E+01  0.33393906305E+02  0.48237010917E+02  0.00000000000E+00 0. -1.
<scales pt_clust_5="13000.00000" pt_clust_6="13000.00000" pt_clust_7="13000.00000" pt_clust_8="13000.00000" pt_clust_9="34.80885"></scales>
<clustering>
<clus scale="   34.809">  1  9  2 -1</clus>
<clus scale="   93.155">  5  6 -1 -1</clus>
<clus scale="   96.012">  2  5  1 -1</clus>
<clus scale="  101.049">  7  8 -1 -1</clus>
<clus scale="   34.809">  1  5  2 -1</clus>
</clustering>
</event>
<event>
 9    1  0.1782981E-005  0.1200240E+03  0.7546771E-02  0.1243257E+00
         -4   -1    0    0    0  501 -0.00000000000E+00  0.00000000000E+00  0.43220864982E+02  0.43220864982E+02  0.00000000000E+00 0.  1.
          4   -1    0    0  502    0  0.00000000000E+00 -0.00000000000E+00 -0.57316593100E+03  0.57316593100E+03  0.00000000000E+00 0. -1.
         23    2    1    2    0    0  0.55431710618E+02 -0.40852428884E+02 -0.10697454724E+03  0.15645407537E+03  0.91064419258E+02 0.  0.
         23    2    1    2    0    0 -0.73654407650E+02  0.61307760113E+02 -0.23032780935E+03  0.26535188713E+03  0.90427379848E+02 0.  0.
        -13    1    4    4    0    0 -0.82522753868E+02  0.27246432820E+02 -0.20290730303E+03  0.22073456147E+03  0.00000000000E+00 0. -1.
         13    1    4    4    0    0  0.88683462182E+01  0.34061327292E+02 -0.27420506324E+02  0.44617325655E+02  0.00000000000E+00 0.  1.
        -13    1    3    3    0    0  0.54251000846E+02  0.16060661488E+02 -0.44899676727E+02  0.72229473973E+02  0.00000000000E+00 0. -1.
         13    1    3    3    0    0  0.11807097712E+01 -0.56913090372E+02 -0.62074870509E+02  0.84224601394E+02  0.00000000000E+00 0.  1.
         21    1    1    2  502  501  0.18222697032E+02 -0.20455331229E+02 -0.19264270943E+03  0.19458083348E+03  0.00000000000E+00 0. -1.
<scales pt_clust_5="13000.00000" pt_clust_6="13000.00000" pt_clust_7="13000.00000" pt_clust_8="13000.00000" pt_clust_9="27.39502"></scales>
<clustering>
<clus scale="   27.395">  2  9  1 -1</clus>
<clus scale="   90.427">  5  6 -1 -1</clus>
<clus scale="   91.064">  7  8 -1 -1</clus>
<clus scale="  119.541">  2  5  1 -1</clus>
<clus scale="   27.395">  2  5  1 -1</clus>
</clustering>
</event>
<event>
 9    1  0.1782981E-005  0.9903610E+02  0.7546771E-02  0.1283235E+00
         -2   -1    0    0    0  501 -0.00000000000E+00  0.00000000000E+00  0.29233207394E+03  0.29233207394E+03  0.00000000000E+00 0.  1.
          2   -1    0    0  502    0  0.00000000000E+00 -0.00000000000E+00 -0.22374284015E+03  0.22374284015E+03  0.00000000000E+00 0. -1.
         23    2    1    2    0    0  0.53106921844E+01  0.42668565950E+02  0.26529222227E+03  0.28286301116E+03  0.88219668534E+02 0.  0.
         23    2    1    2    0    0  0.77684997462E+01 -0.11454608706E+02 -0.13579720842E+03  0.16353485913E+03  0.90062260057E+02 0.  0.
        -11    1    3    3    0    0 -0.38549801252E+02  0.34627941069E+02  0.11587437718E+03  0.12693326107E+03  0.00000000000E+00 0.  1.
         11    1    3    3    0    0  0.43860493436E+02  0.80406248807E+01  0.14941784508E+03  0.15592975009E+03  0.00000000000E+00 0. -1.
        -13    1    4    4    0    0 -0.33472030667E+02 -0.30526049735E+02 -0.60325138333E+02  0.75440962774E+02  0.00000000000E+00 0. -1.
         13    1    4    4    0    0  0.41240530413E+02  0.19071441030E+02 -0.75472070087E+02  0.88093896355E+02  0.00000000000E+00 0.  1.
         21    1    1    2  502  501 -0.13079191931E+02 -0.31213957244E+02 -0.60905780056E+02  0.69677043800E+02  0.00000000000E+00 0. -1.
<scales pt_clust_5="13000.00000" pt_clust_6="13000.00000" pt_clust_7="13000.00000" pt_clust_8="13000.00000" pt_clust_9="33.84341"></scales>
<clustering>
<clus scale="   33.843">  2  9  1 -1</clus>
<clus scale="   88.220">  5  6 -1 -1</clus>
<clus scale="   90.062">  7  8 -1 -1</clus>
<clus scale="   97.363">  1  5  2 -1</clus>
<clus scale="   33.843">  2  5  1 -1</clus>
</clustering>
</event>
<event>
 9    1  0.1782981E-005  0.9784979E+02  0.7546771E-02  0.1284962E+00
          2   -1    0    0  502    0  0.00000000000E+00  0.00000000000E+00  0.23966235685E+03  0.23966235685E+03  0.00000000000E+00 0. -1.
         -2   -1    0    0    0  501 -0.00000000000E+00 -0.00000000000E+00 -0.57556891996E+02  0.57556891996E+02  0.00000000000E+00 0.  1.
         23    2    1    2    0    0 -0.90966810038E+01  0.10011148379E+02  0.56853127591E+02  0.11097279721E+03  0.94338279110E+02 0.  0.
         23    2    1    2    0    0  0.10993341218E+02 -0.43453610693E+02  0.93014033625E+02  0.13975662666E+03  0.94187230612E+02 0.  0.
        -11    1    3    3    0    0  0.21772268371E+02 -0.13437755148E+02  0.66306551959E+02  0.71071539776E+02  0.00000000000E+00 0. -1.
         11    1    3    3    0    0 -0.30868949375E+02  0.23448903527E+02 -0.94534243684E+01  0.39901257429E+02  0.00000000000E+00 0.  1.
        -13    1    4    4    0    0 -0.36074771300E+02 -0.79030581859E+01  0.10622997248E+02  0.38427796236E+02  0.00000000000E+00 0.  1.
         13    1    4    4    0    0  0.47068112517E+02 -0.35550552507E+02  0.82391036377E+02  0.10132883042E+03  0.00000000000E+00 0. -1.
         21    1    1    2  502  501 -0.18966602138E+01  0.33442462314E+02  0.32238303643E+02  0.46489824987E+02  0.00000000000E+00 0.  1.
<scales pt_clust_5="13000.00000" pt_clust_6="13000.00000" pt_clust_7="13000.00000" pt_clust_8="13000.00000" pt_clust_9="33.49620"></scales>
<clustering>
<clus scale="   33.496">  1  9  2 -1</clus>
<clus scale="   94.187">  7  8 -1 -1</clus>
<clus scale="   94.338">  5  6 -1 -1</clus>
<clus scale="   97.704">  1  7  2 -1</clus>
<clus scale="   33.496">  1  5  2 -1</clus>
</clustering>
</event>
<event>
 9    1  0.1782981E-005  0.1087479E+03  0.7546771E-02  0.1263370E+00
          1   -1    0    0  502    0  0.00000000000E+00  0.00000000000E+00  0.38318910093E+03  0.38318910093E+03  0.00000000000E+00 0. -1.
         -1   -1    0    0    0  501 -0.00000000000E+00 -0.00000000000E+00 -0.97775471338E+02  0.97775471338E+02  0.00000000000E+00 0.  1.
         23    2    1    2    0    0 -0.66913180259E+01  0.59339905593E+02 -0.50860075249E+02  0.11969652759E+03  0.90413015263E+02 0.  0.
         23    2    1    2    0    0 -0.17312511774E+02 -0.51862705733E+02  0.26324628532E+03  0.28403400837E+03  0.91581918890E+02 0.  0.
        -11    1    3    3    0    0 -0.26990016300E+02  0.58359730339E+02  0.67181558596E+00  0.64302180688E+02  0.00000000000E+00 0.  1.
         11    1    3    3    0    0  0.20298698274E+02  0.98017525421E+00 -0.51531890835E+02  0.55394346897E+02  0.00000000000E+00 0. -1.
        -13    1    4    4    0    0 -0.12994275701E+02  0.25305530811E+02  0.55274759639E+02  0.62165264769E+02  0.00000000000E+00 0.  1.
         13    1    4    4    0    0 -0.43182360725E+01 -0.77168236545E+02  0.20797152568E+03  0.22186874360E+03  0.00000000000E+00 0. -1.
         21    1    1    2  502  501  0.24003829800E+02 -0.74771998594E+01  0.73027419520E+02  0.77234036309E+02  0.00000000000E+00 0. -1.
<scales pt_clust_5="13000.00000" pt_clust_6="13000.00000" pt_clust_7="13000.00000" pt_clust_8="13000.00000" pt_clust_9="25.14145"></scales>
<clustering>
<clus scale="   25.141">  1  9  2 -1</clus>
<clus scale="   90.413">  5  6 -1 -1</clus>
<clus scale="   91.582">  7  8 -1 -1</clus>
<clus scale="  107.765">  2  5  1 -1</clus>
<clus scale="   25.141">  1  5  2 -1</clus>
</clustering>
</event>
<event>
 9    1  0.1782981E-005  0.1449590E+03  0.7546771E-02  0.1206828E+00
          1   -1    0    0  502    0  0.00000000000E+00  0.00000000000E+00  0.34956507506E+03  0.34956507506E+03  0.00000000000E+00 0. -1.
         -1   -1    0    0    0  501 -0.00000000000E+00 -0.00000000000E+00 -0.10768323697E+03  0.10768323697E+03  0.00000000000E+00 0.  1.
         23    2    1    2    0    0  0.71164253324E+00  0.11346368174E+03 -0.22642687412E+01  0.14654127632E+03  0.92707633134E+02 0.  0.
         23    2    1    2    0    0  0.41511343183E+02 -0.10323543369E+03  0.21178538273E+03  0.25653495761E+03  0.92608799569E+02 0.  0.
        -13    1    4    4    0    0 -0.16959754075E+02 -0.79504679578E+02  0.11008338291E+03  0.13684655102E+03  0.00000000000E+00 0. -1.
         13    1    4    4    0    0  0.58471097258E+02 -0.23730754107E+02  0.10170199982E+03  0.11968840659E+03  0.00000000000E+00 0.  1.
        -13    1    3    3    0    0 -0.36509725543E+02  0.10019026619E+03 -0.62838563441E+01  0.10682011210E+03  0.00000000000E+00 0. -1.
         13    1    3    3    0    0  0.37221368076E+02  0.13273415549E+02  0.40195876029E+01  0.39721164211E+02  0.00000000000E+00 0.  1.
         21    1    1    2  502  501 -0.42222985717E+02 -0.10228248058E+02  0.32360724113E+02  0.54172078105E+02  0.00000000000E+00 0. -1.
<scales pt_clust_5="13000.00000" pt_clust_6="13000.00000" pt_clust_7="13000.00000" pt_clust_8="13000.00000" pt_clust_9="43.44419"></scales>
<clustering>
<clus scale="   43.444">  1  9  2 -1</clus>
<clus scale="   92.609">  5  6 -1 -1</clus>
<clus scale="   92.708">  7  8 -1 -1</clus>
<clus scale="  144.896">  1  5  2 -1</clus>
<clus scale="   43.444">  1  5  2 -1</clus>
</clustering>
</event>
<event>
 9    1  0.1782981E-005  0.1159395E+03  0.7546771E-02  0.1253333E+00
         -1   -1    0    0    0  501 -0.00000000000E+00  0.00000000000E+00  0.10952111705E+03  0.10952111705E+03  0.00000000000E+00 0.  1.
          1   -1    0    0  502    0  0.00000000000E+00 -0.00000000000E+00 -0.19159223853E+03  0.19159223853E+03  0.00000000000E+00 0. -1.
         23    2    1    2    0    0  0.24490544085E+02 -0.71963419497E+02  0.42489239844E+02  0.11972923066E+03  0.82165885119E+02 0.  0.
         23    2    1    2    0    0 -0.25011763446E+02  0.49262734500E+02 -0.89816932630E+02  0.13987872037E+03  0.91905221305E+02 0.  0.
        -13    1    3    3    0    0  0.27143299822E+02 -0.21713570341E+02 -0.19524770685E+02  0.39867963737E+02  0.00000000000E+00 0. -1.
         13    1    3    3    0    0 -0.26527557376E+01 -0.50249849156E+02  0.62014010529E+02  0.79861266926E+02  0.00000000000E+00 0.  1.
        -13    1    4    4    0    0 -0.14593206671E+02 -0.14982500115E+02 -0.68142590784E+02  0.71280079050E+02  0.00000000000E+00 0.  1.
         13    1    4    4    0    0 -0.10418556775E+02  0.64245234615E+02 -0.21674341846E+02  0.68598641317E+02  0.00000000000E+00 0. -1.
         21    1    1    2  502  501  0.52121936115E+00  0.22700684997E+02 -0.34743428692E+02  0.41505404542E+02  0.00000000000E+00 0. -1.
<scales pt_clust_5="13000.00000" pt_clust_6="13000.00000" pt_clust_7="13000.00000" pt_clust_8="13000.00000" pt_clust_9="22.70667"></scales>
<clustering>
<clus scale="   22.707">  2  9  1 -1</clus>
<clus scale="   82.166">  5  6 -1 -1</clus>
<clus scale="   91.905">  7  8 -1 -1</clus>
<clus scale="  108.382">  1  5  2 -1</clus>
<clus scale="   22.707">  2  5  1 -1</clus>
</clustering>
</event>
<event>
 9    1  0.1782981E-005  0.9531290E+02  0.7546771E-02  0.1291450E+00
          2   -1    0    0  502    0  0.00000000000E+00  0.00000000000E+00  0.28849862910E+03  0.28849862910E+03  0.00000000000E+00 0. -1.
         -2   -1    0    0    0  501 -0.00000000000E+00 -0.00000000000E+00 -0.84895353727E+02  0.84895353727E+02  0.00000000000E+00 0.  1.
         23    2    1    2    0    0 -0.84639573640E+01 -0.21852840941E+02 -0.37412670863E+02  0.10263148678E+03  0.92651653555E+02 0.  0.
         23    2    1    2    0    0  0.26590751553E+02  0.56635967752E+01  0.15823900975E+03  0.18449144929E+03  0.90875553687E+02 0.  0.
        -11    1    4    4    0    0 -0.20077380324E+02  0.21758144232E+02  0.11537666809E+03  0.11911462371E+03  0.00000000000E+00 0.  1.
         11    1    4    4    0    0  0.46668131877E+02 -0.16094547457E+02  0.42862341659E+02  0.65376825582E+02  0.00000000000E+00 0. -1.
        -11    1    3    3    0    0  0.12618838879E+02  0.28431283318E+02 -0.36690591669E+02  0.48101688980E+02  0.00000000000E+00 0.  1.
         11    1    3    3    0    0 -0.21082796243E+02 -0.50284124259E+02 -0.72207919478E+00  0.54529797802E+02  0.00000000000E+00 0. -1.
         21    1    1    2  502  501 -0.18126794189E+02  0.16189244166E+02  0.82776936488E+02  0.86271046757E+02  0.00000000000E+00 0. -1.
<scales pt_clust_5="13000.00000" pt_clust_6="13000.00000" pt_clust_7="13000.00000" pt_clust_8="13000.00000" pt_clust_9="24.30375"></scales>
<clustering>
<clus scale="   24.304">  1  9  2 -1</clus>
<clus scale="   90.876">  5  6 -1 -1</clus>
<clus scale="   92.652">  7  8 -1 -1</clus>
<clus scale="   93.587">  1  5  2 -1</clus>
<clus scale="   24.304">  1  5  2 -1</clus>
</clustering>
</event>
<event>
 9    1  0.1782981E-005  0.1073393E+03  0.7546771E-02  0.1266591E+00
         -4   -1    0    0    0  501 -0.00000000000E+00  0.00000000000E+00  0.44127553475E+02  0.44127553475E+02  0.00000000000E+00 0.  1.
          4   -1    0    0  502    0  0.00000000000E+00 -0.00000000000E+00 -0.51072967981E+03  0.51072967981E+03  0.00000000000E+00 0. -1.
         23    2    1    2    0    0  0.30621925571E+01 -0.73771211369E+02 -0.90425371137E+02  0.14926738969E+03  0.93018477896E+02 0.  0.
         23    2    1    2    0    0 -0.98340421717E+01  0.17461110791E+02 -0.19921622874E+03  0.21976273766E+03  0.90592252956E+02 0.  0.
        -11    1    4    4    0    0 -0.22450924432E+02  0.50300590118E+02 -0.14523434376E+03  0.15532935326E+03  0.00000000000E+00 0.  1.
         11    1    4    4    0    0  0.12616882260E+02 -0.32839479328E+02 -0.53981884975E+02  0.64433384406E+02  0.00000000000E+00 0. -1.
        -11    1    3    3    0    0 -0.23494809313E+02  0.13772413910E+02 -0.22455778493E+02  0.35297980640E+02  0.00000000000E+00 0.  1.
         11    1    3    3    0    0  0.26557001871E+02 -0.87543625279E+02 -0.67969592645E+02  0.11396940905E+03  0.00000000000E+00 0. -1.
         21    1    1    2  502  501  0.67718496145E+01  0.56310100578E+02 -0.17696052646E+03  0.18582710593E+03  0.00000000000E+00 0.  1.
<scales pt_clust_5="13000.00000" pt_clust_6="13000.00000" pt_clust_7="13000.00000" pt_clust_8="13000.00000" pt_clust_9="56.71583"></scales>
<clustering>
<clus scale="   56.716">  2  9  1 -1</clus>
<clus scale="   90.592">  5  6 -1 -1</clus>
<clus scale="   93.018">  7  8 -1 -1</clus>
<clus scale="  105.244">  2  5  1 -1</clus>
<clus scale="   56.716">  2  5  1 -1</clus>
</clustering>
</event>
<event>
 9    1  0.1782981E-005  0.9619094E+02  0.7546771E-02  0.1288626E+00
         -3   -1    0    0    0  501 -0.00000000000E+00  0.00000000000E+00  0.23022556756E+03  0.23022556756E+03  0.00000000000E+00 0.  1.
          3   -1    0    0  502    0  0.00000000000E+00 -0.00000000000E+00 -0.18996465641E+03  0.18996465641E+03  0.00000000000E+00 0. -1.
         23    2    1    2    0    0 -0.14742704381E+01  0.32135671671E+02  0.19019495943E+03  0.21296451091E+03  0.90249019095E+02 0.  0.
         23    2    1    2    0    0  0.22016331827E+02 -0.48056695992E+02 -0.14805723356E+03  0.18116851185E+03  0.90038438344E+02 0.  0.
        -11    1    3    3    0    0 -0.96945737402E+01  0.62904441829E+02  0.11840396005E+03  0.13442637880E+03  0.00000000000E+00 0.  1.
         11    1    3    3    0    0  0.82203033021E+01 -0.30768770158E+02  0.71790999374E+02  0.78538132105E+02  0.00000000000E+00 0. -1.
        -13    1    4    4    0    0  0.36203784661E+02  0.13375366972E+02 -0.37021242231E+02  0.53480714671E+02  0.00000000000E+00 0.  1.
         13    1    4    4    0    0 -0.14187452834E+02 -0.61432062964E+02 -0.11103599132E+03  0.12768779717E+03  0.00000000000E+00 0. -1.
         21    1    1    2  502  501 -0.20542061389E+02  0.15921024321E+02 -0.18768147182E+01  0.26057201213E+02  0.00000000000E+00 0.  1.
<scales pt_clust_5="13000.00000" pt_clust_6="13000.00000" pt_clust_7="13000.00000" pt_clust_8="13000.00000" pt_clust_9="25.98952"></scales>
<clustering>
<clus scale="   25.990">  2  9  1 -1</clus>
<clus scale="   90.038">  7  8 -1 -1</clus>
<clus scale="   90.249">  5  6 -1 -1</clus>
<clus scale="   95.993">  2  7  1 -1</clus>
<clus scale="   25.990">  2  5  1 -1</clus>
</clustering>
</event>
<event>
 9    1  0.1782981E-005  0.1161409E+03  0.7546771E-02  0.1249841E+00
         -4   -1    0    0    0  501 -0.00000000000E+00  0.00000000000E+00  0.11431540855E+03  0.11431540855E+03  0.00000000000E+00 0.  1.
          4   -1    0    0  502    0  0.00000000000E+00 -0.00000000000E+00 -0.25774653834E+03  0.25774653834E+03  0.00000000000E+00 0. -1.
         23    2    1    2    0    0 -0.26341042967E+02 -0.71706170256E+02  0.57680605755E+02  0.13185781687E+03  0.90685203820E+02 0.  0.
         23    2    1    2    0    0  0.13798299190E+02  0.48650186672E+02 -0.15050667231E+03  0.18319736529E+03  0.91388087372E+02 0.  0.
        -11    1    3    3    0    0 -0.51145207001E+02 -0.55388037607E+02  0.10507423082E+02  0.76118807458E+02  0.00000000000E+00 0.  1.
         11    1    3    3    0    0  0.24804164034E+02 -0.16318132649E+02  0.47173182673E+02  0.55739009410E+02  0.00000000000E+00 0. -1.
        -13    1    4    4    0    0 -0.30829402037E+02  0.83180211065E+01 -0.98946235839E+02  0.10397114548E+03  0.00000000000E+00 0.  1.
         13    1    4    4    0    0  0.44627701227E+02  0.40332165565E+02 -0.51560436475E+02  0.79226219811E+02  0.00000000000E+00 0. -1.
         21    1    1    2  502  501  0.12542743777E+02  0.23055983584E+02 -0.50605063230E+02  0.57006764730E+02  0.00000000000E+00 0. -1.
<scales pt_clust_5="13000.00000" pt_clust_6="13000.00000" pt_clust_7="13000.00000" pt_clust_8="13000.00000" pt_clust_9="26.24688"></scales>
<clustering>
<clus scale="   26.247">  2  9  1 -1</clus>
<clus scale="   90.685">  5  6 -1 -1</clus>
<clus scale="   91.388">  7  8 -1 -1</clus>
<clus scale="  115.589">  1  5  2 -1</clus>
<clus scale="   26.247">  2  5  1 -1</clus>
</clustering>
</event>
<event>
 9    1  0.1782981E-005  0.1012771E+03  0.7546771E-02  0.1278814E+00
         -4   -1    0    0    0  501 -0.00000000000E+00  0.00000000000E+00  0.11201904978E+03  0.11201904978E+03  0.00000000000E+00 0.  1.
          4   -1    0    0  502    0  0.00000000000E+00 -0.00000000000E+00 -0.13459958743E+03  0.13459958743E+03  0.00000000000E+00 0. -1.
         23    2    1    2    0    0 -0.47066093041E+02 -0.24860012690E+02  0.72650673116E+01  0.10812080519E+03  0.93830112260E+02 0.  0.
         23    2    1    2    0    0  0.72133493609E+01  0.25883293435E+02 -0.18364249485E+02  0.97011571577E+02  0.91389398032E+02 0.  0.
        -13    1    4    4    0    0  0.43288186825E+02 -0.99410020784E+01 -0.82581358389E+01  0.45176182314E+02  0.00000000000E+00 0. -1.
         13    1    4    4    0    0 -0.36074837464E+02  0.35824295513E+02 -0.10106113647E+02  0.51835389263E+02  0.00000000000E+00 0.  1.
        -13    1    3    3    0    0  0.13354517325E+02 -0.34704987538E+02  0.24490606901E+02  0.44526049896E+02  0.00000000000E+00 0. -1.
         13    1    3    3    0    0 -0.60420610366E+02  0.98449748480E+01 -0.17225539589E+02  0.63594755294E+02  0.00000000000E+00 0.  1.
         21    1    1    2  502  501  0.39852743680E+02 -0.10232807446E+01 -0.11481355468E+02  0.41486260445E+02  0.00000000000E+00 0. -1.
<scales pt_clust_5="13000.00000" pt_clust_6="13000.00000" pt_clust_7="13000.00000" pt_clust_8="13000.00000" pt_clust_9="39.86588"></scales>
<clustering>
<clus scale="   39.866">  2  9  1 -1</clus>
<clus scale="   91.389">  5  6 -1 -1</clus>
<clus scale="   93.830">  7  8 -1 -1</clus>
<clus scale="   99.020">  2  5  1 -1</clus>
<clus scale="   39.866">  2  5  1 -1</clus>
</clustering>
</event>
<event>
 9    1  0.1782981E-005  0.1236283E+03  0.7546771E-02  0.1238750E+00
          2   -1    0    0  502    0  0.00000000000E+00  0.00000000000E+00  0.45305164761E+03  0.45305164761E+03  0.00000000000E+00 0. -1.
         -2   -1    0    0    0  501 -0.00000000000E+00 -0.00000000000E+00 -0.16107841881E+03  0.16107841881E+03  0.00000000000E+00 0.  1.
         23    2    1    2    0    0 -0.87052433457E+02 -0.16958140973E+02 -0.11441481478E+03  0.17273591836E+03  0.94240346636E+02 0.  0.
         23    2    1    2    0    0  0.69991687779E+01  0.21478922611E+02  0.22208040163E+03  0.24040094040E+03  0.89233261038E+02 0.  0.
        -13    1    4    4    0    0  0.41984906073E+02  0.98561797682E+01  0.58268977966E+02  0.72492416230E+02  0.00000000000E+00 0. -1.
         13    1    4    4    0    0 -0.34985737295E+02  0.11622742842E+02  0.16381142366E+03  0.16790852417E+03  0.00000000000E+00 0.  1.
        -13    1    3    3    0    0 -0.10471849524E+03 -0.27826896345E+02 -0.10027916739E+03  0.14763539826E+03  0.00000000000E+00 0.  1.
         13    1    3    3    0    0  0.17666061784E+02  0.10868755372E+02 -0.14135647383E+02  0.25100520098E+02  0.00000000000E+00 0. -1.
         21    1    1    2  502  501  0.80053264679E+02 -0.45207816380E+01  0.18430764194E+03  0.20099320767E+03  0.00000000000E+00 0. -1.
<scales pt_clust_5="13000.00000" pt_clust_6="13000.00000" pt_clust_7="13000.00000" pt_clust_8="13000.00000" pt_clust_9="80.18081"></scales>
<clustering>
<clus scale="   80.181">  1  9  2 -1</clus>
<clus scale="   89.233">  5  6 -1 -1</clus>
<clus scale="   94.240">  7  8 -1 -1</clus>
<clus scale="  119.855">  1  5  2 -1</clus>
<clus scale="   80.181">  1  5  2 -1</clus>
</clustering>
</event>
<event>
 9    1  0.1782981E-005  0.1024723E+03  0.7546771E-02  0.1281811E+00
          1   -1    0    0  502    0  0.00000000000E+00  0.00000000000E+00  0.40488815899E+03  0.40488815899E+03  0.00000000000E+00 0. -1.
         -1   -1    0    0    0  501 -0.00000000000E+00 -0.00000000000E+00 -0.47094294261E+02  0.47094294261E+02  0.00000000000E+00 0.  1.
         23    2    1    2    0    0 -0.11643091913E+02 -0.19319876358E+01  0.27969319220E+02  0.94407920768E+02  0.89393951252E+02 0.  0.
         23    2    1    2    0    0  0.40376280934E+01  0.32333725081E+02  0.25611830191E+03  0.27748259116E+03  0.10167709479E+03 0.  0.
        -11    1    3    3    0    0 -0.30689742496E+02  0.29191827367E+02  0.37634610464E+02  0.56660276952E+02  0.00000000000E+00 0. -1.
         11    1    3    3    0    0  0.19046650583E+02 -0.31123815003E+02 -0.96652912442E+01  0.37747643816E+02  0.00000000000E+00 0.  1.
        -11    1    4    4    0    0 -0.83871129648E+01  0.57370163041E+02  0.23607018225E+03  0.24308601403E+03  0.00000000000E+00 0. -1.
         11    1    4    4    0    0  0.12424741058E+02 -0.25036437961E+02  0.20048119662E+02  0.34396577128E+02  0.00000000000E+00 0.  1.
         21    1    1    2  502  501  0.76054638192E+01 -0.30401737445E+02  0.73706243596E+02  0.80091941321E+02  0.00000000000E+00 0. -1.
<scales pt_clust_5="13000.00000" pt_clust_6="13000.00000" pt_clust_7="13000.00000" pt_clust_8="13000.00000" pt_clust_9="31.33861"></scales>
<clustering>
<clus scale="   31.339">  1  9  2 -1</clus>
<clus scale="   89.394">  5  6 -1 -1</clus>
<clus scale="   90.297">  2  5  1 -1</clus>
<clus scale="  101.677">  7  8 -1 -1</clus>
<clus scale="   31.339">  1  5  2 -1</clus>
</clustering>
</event>
<event>
 9    1  0.1782981E-005  0.1607940E+03  0.7546771E-02  0.1193368E+00
          3   -1    0    0  502    0  0.00000000000E+00  0.00000000000E+00  0.10735833440E+03  0.10735833440E+03  0.00000000000E+00 0. -1.
         -3   -1    0    0    0  501 -0.00000000000E+00 -0.00000000000E+00 -0.41317285915E+03  0.41317285915E+03  0.00000000000E+00 0.  1.
         23    2    1    2    0    0 -0.10700970164E+03 -0.17973328804E+02 -0.19825206842E+03  0.25168580976E+03  0.11075986370E+03 0.  0.
         23    2    1    2    0    0  0.12015793644E+03  0.39577774280E+02 -0.15441450977E+03  0.21560307867E+03  0.81464819404E+02 0.  0.
        -13    1    4    4    0    0  0.98143499630E+02 -0.45288714619E+01 -0.12184027515E+03  0.15651744262E+03  0.00000000000E+00 0. -1.
         13    1    4    4    0    0  0.22014436806E+02  0.44106645741E+02 -0.32574234616E+02  0.59085636049E+02  0.00000000000E+00 0.  1.
        -13    1    3    3    0    0 -0.30265494386E+02 -0.74254548329E+01 -0.16408818431E+03  0.16702116560E+03  0.00000000000E+00 0.  1.
         13    1    3    3    0    0 -0.76744207253E+02 -0.10547873971E+02 -0.34163884116E+02  0.84664644156E+02  0.00000000000E+00 0. -1.
         21    1    1    2  502  501 -0.13148234797E+02 -0.21604445476E+02  0.46852053441E+02  0.53242305117E+02  0.00000000000E+00 0. -1.
<scales pt_clust_5="13000.00000" pt_clust_6="13000.00000" pt_clust_7="13000.00000" pt_clust_8="13000.00000" pt_clust_9="25.29087"></scales>
<clustering>
<clus scale="   25.291">  1  9  2 -1</clus>
<clus scale="   81.465">  5  6 -1 -1</clus>
<clus scale="  110.760">  7  8 -1 -1</clus>
<clus scale="  142.209">  1  5  2 -1</clus>
<clus scale="   25.291">  1  5  2 -1</clus>
</clustering>
</event>
<event>
 9    1  0.1782981E-005  0.1513223E+03  0.7546771E-02  0.1199233E+00
          2   -1    0    0  502    0  0.00000000000E+00  0.00000000000E+00  0.64731287179E+02  0.64731287179E+02  0.00000000000E+00 0. -1.
         -2   -1    0    0    0  501 -0.00000000000E+00 -0.00000000000E+00 -0.80379838670E+03  0.80379838670E+03  0.00000000000E+00 0.  1.
         23    2    1    2    0    0  0.37906810996E+02 -0.83454145509E+02 -0.29510417450E+03  0.32187121823E+03  0.90072673947E+02 0.  0.
         23    2    1    2    0    0 -0.12825669506E+03  0.13445412729E+03 -0.34920706924E+03  0.40614948122E+03  0.92109346517E+02 0.  0.
        -13    1    3    3    0    0 -0.17475004340E+02 -0.68879003111E+02 -0.17184170298E+03  0.18595500458E+03  0.00000000000E+00 0.  1.
         13    1    3    3    0    0  0.55381815336E+02 -0.14575142398E+02 -0.12326247153E+03  0.13591621365E+03  0.00000000000E+00 0. -1.
        -13    1    4    4    0    0 -0.90755510013E+02  0.62709480168E+02 -0.27511629586E+03  0.29640853184E+03  0.00000000000E+00 0.  1.
         13    1    4    4    0    0 -0.37501185045E+02  0.71744647122E+02 -0.74090773377E+02  0.10974094938E+03  0.00000000000E+00 0. -1.
         21    1    1    2  502  501  0.90349884063E+02 -0.50999981781E+02 -0.94755855787E+02  0.14050897444E+03  0.00000000000E+00 0. -1.
<scales pt_clust_5="13000.00000" pt_clust_6="13000.00000" pt_clust_7="13000.00000" pt_clust_8="13000.00000" pt_clust_9="103.75018"></scales>
<clustering>
<clus scale="   90.073">  5  6 -1 -1</clus>
<clus scale="   92.109">  7  8 -1 -1</clus>
<clus scale="  103.750">  1  9  2 -1</clus>
<clus scale="  150.091">  2  5  1 -1</clus>
<clus scale="  103.750">  1  5  2 -1</clus>
</clustering>
</event>
<event>
 9    1  0.1782981E-005  0.1330837E+03  0.7546771E-02  0.1225142E+00
         -2   -1    0    0    0  501 -0.00000000000E+00  0.00000000000E+00  0.11773550878E+03  0.11773550878E+03  0.00000000000E+00 0.  1.
          2   -1    0    0  502    0  0.00000000000E+00 -0.00000000000E+00 -0.35098518654E+03  0.35098518654E+03  0.00000000000E+00 0. -1.
         23    2    1    2    0    0 -0.80832619646E+02 -0.38104107495E+02  0.42630140772E+02  0.13494434572E+03  0.91688669593E+02 0.  0.
         23    2    1    2    0    0  0.92896885151E+02 -0.95019019807E+01 -0.17941418544E+03  0.22552896160E+03  0.99768457802E+02 0.  0.
        -11    1    3    3    0    0  0.14510809013E+02 -0.21442707718E+02  0.26083435521E+02  0.36751855750E+02  0.00000000000E+00 0. -1.
         11    1    3    3    0    0 -0.95343428659E+02 -0.16661399777E+02  0.16546705251E+02  0.98192489966E+02  0.00000000000E+00 0.  1.
        -13    1    4    4    0    0  0.60654187113E+02 -0.54317488784E+02 -0.10893071861E+03  0.13599713768E+03  0.00000000000E+00 0.  1.
         13    1    4    4    0    0  0.32242698038E+02  0.44815586803E+02 -0.70483466837E+02  0.89531823921E+02  0.00000000000E+00 0. -1.
         21    1    1    2  502  501 -0.12064265505E+02  0.47606009476E+02 -0.96465633091E+02  0.10824738800E+03  0.00000000000E+00 0. -1.
<scales pt_clust_5="13000.00000" pt_clust_6="13000.00000" pt_clust_7="13000.00000" pt_clust_8="13000.00000" pt_clust_9="49.11088"></scales>
<clustering>
<clus scale="   49.111">  2  9  1 -1</clus>
<clus scale="   91.689">  5  6 -1 -1</clus>
<clus scale="   99.768">  7  8 -1 -1</clus>
<clus scale="  127.139">  1  5  2 -1</clus>
<clus scale="   49.111">  2  5  1 -1</clus>
</clustering>
</event>
<event>
 9    1  0.1782981E-005  0.1877011E+03  0.7546771E-02  0.1161323E+00
          2   -1    0    0  502    0  0.00000000000E+00  0.00000000000E+00  0.24928300960E+03  0.24928300960E+03  0.00000000000E+00 0. -1.
         -2   -1    0    0    0  501 -0.00000000000E+00 -0.00000000000E+00 -0.21738700152E+03  0.21738700152E+03  0.00000000000E+00 0.  1.
         23    2    1    2    0    0  0.10493417974E+03  0.12071152556E+03 -0.10286870369E+03  0.21082540977E+03  0.91010596771E+02 0.  0.
         23    2    1    2    0    0 -0.10891939799E+03 -0.14060751347E+03  0.11671185475E+03  0.22868511046E+03  0.83912541408E+02 0.  0.
        -11    1    3    3    0    0  0.71443260416E+02  0.16349933005E+02 -0.29905273745E+02  0.79156712702E+02  0.00000000000E+00 0.  1.
         11    1    3    3    0    0  0.33490919321E+02  0.10436159255E+03 -0.72963429944E+02  0.13166869706E+03  0.00000000000E+00 0. -1.
        -11    1    4    4    0    0 -0.32312898380E+02 -0.55126971610E+02 -0.14962197937E+01  0.63916704189E+02  0.00000000000E+00 0.  1.
         11    1    4    4    0    0 -0.76606499606E+02 -0.85480541858E+02  0.11820807454E+03  0.16476840627E+03  0.00000000000E+00 0. -1.
         21    1    1    2  502  501  0.39852182496E+01  0.19895987909E+02  0.18052857019E+02  0.27159490899E+02  0.00000000000E+00 0. -1.
<scales pt_clust_5="13000.00000" pt_clust_6="13000.00000" pt_clust_7="13000.00000" pt_clust_8="13000.00000" pt_clust_9="20.29119"></scales>
<clustering>
<clus scale="   20.291">  1  9  2 -1</clus>
<clus scale="   83.913">  7  8 -1 -1</clus>
<clus scale="   91.011">  5  6 -1 -1</clus>
<clus scale="  184.364">  1  7  2 -1</clus>
<clus scale="   20.291">  1  5  2 -1</clus>
</clustering>
</event>
<event>
 9    1  0.1782981E-005  0.1073928E+03  0.7546771E-02  0.1265805E+00
          1   -1    0    0  502    0  0.00000000000E+00  0.00000000000E+00  0.57491789657E+03  0.57491789657E+03  0.00000000000E+00 0. -1.
         -1   -1    0    0    0  501 -0.00000000000E+00 -0.00000000000E+00 -0.32515901539E+02  0.32515901539E+02  0.00000000000E+00 0.  1.
         23    2    1    2    0    0  0.33039490680E+02 -0.36703951668E+02  0.13085892760E+03  0.16730353600E+03  0.91802103521E+02 0.  0.
         23    2    1    2    0    0 -0.29503425881E+02  0.60349809236E+02  0.22267005336E+03  0.24974999587E+03  0.90997561266E+02 0.  0.
        -11    1    3    3    0    0 -0.21353519768E+01 -0.27255341424E+02 -0.39846433251E+01  0.27627717000E+02  0.00000000000E+00 0.  1.
         11    1    3    3    0    0  0.35174842657E+02 -0.94486102436E+01  0.13484357093E+03  0.13967581900E+03  0.00000000000E+00 0. -1.
        -13    1    4    4    0    0 -0.55634126223E+02  0.25894293210E+02  0.17470810118E+03  0.18517178791E+03  0.00000000000E+00 0.  1.
         13    1    4    4    0    0  0.26130700342E+02  0.34455516026E+02  0.47961952186E+02  0.64578207954E+02  0.00000000000E+00 0. -1.
         21    1    1    2  502  501 -0.35360647991E+01 -0.23645857568E+02  0.18887301406E+03  0.19038026624E+03  0.00000000000E+00 0.  1.
<scales pt_clust_5="13000.00000" pt_clust_6="13000.00000" pt_clust_7="13000.00000" pt_clust_8="13000.00000" pt_clust_9="23.90879"></scales>
<clustering>
<clus scale="   23.909">  1  9  2 -1</clus>
<clus scale="   90.998">  7  8 -1 -1</clus>
<clus scale="   91.802">  5  6 -1 -1</clus>
<clus scale="  106.706">  1  7  2 -1</clus>
<clus scale="   23.909">  1  5  2 -1</clus>
</clustering>
</event>
<event>
 9    1  0.1782981E-005  0.1377888E+03  0.7546771E-02  0.1227006E+00
          1   -1    0    0  502    0  0.00000000000E+00  0.00000000000E+00  0.29168170204E+03  0.29168170204E+03  0.00000000000E+00 0. -1.
         -1   -1    0    0    0  501 -0.00000000000E+00 -0.00000000000E+00 -0.72596782805E+02  0.72596782805E+02  0.00000000000E+00 0.  1.
         23    2    1    2    0    0  0.33285797419E+02 -0.41758698111E+02  0.52586202970E+02  0.11787027310E+03  0.90974498404E+02 0.  0.
         23    2    1    2    0    0 -0.38280353626E+02  0.67044704348E+02  0.10337892362E+03  0.17822877257E+03  0.12295493348E+03 0.  0.
        -11    1    3    3    0    0  0.62366099150E+02 -0.17551864248E+02  0.46015264720E+02  0.79466992198E+02  0.00000000000E+00 0. -1.
         11    1    3    3    0    0 -0.29080301731E+02 -0.24206833863E+02  0.65709382501E+01  0.38403280901E+02  0.00000000000E+00 0.  1.
        -11    1    4    4    0    0  0.30725415695E+02  0.17284619420E+02  0.83822779988E+02  0.90934414185E+02  0.00000000000E+00 0. -1.
         11    1    4    4    0    0 -0.69005769320E+02  0.49760084928E+02  0.19556143629E+02  0.87294358381E+02  0.00000000000E+00 0.  1.
         21    1    1    2  502  501  0.49945562074E+01 -0.25286006237E+02  0.63119792648E+02  0.68179439182E+02  0.00000000000E+00 0. -1.
<scales pt_clust_5="13000.00000" pt_clust_6="13000.00000" pt_clust_7="13000.00000" pt_clust_8="13000.00000" pt_clust_9="25.77456"></scales>
<clustering>
<clus scale="   25.775">  1  9  2 -1</clus>
<clus scale="   90.974">  5  6 -1 -1</clus>
<clus scale="  110.201">  2  5  1 -1</clus>
<clus scale="  122.955">  7  8 -1 -1</clus>
<clus scale="   25.775">  1  5  2 -1</clus>
</clustering>
</event>
<event>
 9    1  0.1782981E-005  0.1087266E+03  0.7546771E-02  0.1268988E+00
         -2   -1    0    0    0  501 -0.00000000000E+00  0.00000000000E+00  0.48766716564E+02  0.48766716564E+02  0.00000000000E+00 0.  1.
          2   -1    0    0  502    0  0.00000000000E+00 -0.00000000000E+00 -0.54264178428E+03  0.54264178428E+03  0.00000000000E+00 0. -1.
         23    2    1    2    0    0 -0.64746504037E+02  0.28239953712E+02 -0.14779850864E+03  0.19450112182E+03  0.10486506788E+03 0.  0.
         23    2    1    2    0    0 -0.14581173914E+02  0.26995914390E+02 -0.19255286097E+03  0.21548685236E+03  0.91741971020E+02 0.  0.
        -11    1    3    3    0    0 -0.34063829249E+02  0.67864894018E+02 -0.96389137435E+02  0.12270637359E+03  0.00000000000E+00 0.  1.
         11    1    3    3    0    0 -0.30682674788E+02 -0.39624940306E+02 -0.51409371210E+02  0.71794748238E+02  0.00000000000E+00 0. -1.
        -11    1    4    4    0    0 -0.17411120908E+01  0.60309281816E+02 -0.10810207312E+03  0.12379943117E+03  0.00000000000E+00 0.  1.
         11    1    4    4    0    0 -0.12840061823E+02 -0.33313367426E+02 -0.84450787852E+02  0.91687421197E+02  0.00000000000E+00 0. -1.
         21    1    1    2  502  501  0.79327677951E+02 -0.55235868102E+02 -0.15352369810E+03  0.18142052666E+03  0.00000000000E+00 0. -1.
<scales pt_clust_5="13000.00000" pt_clust_6="13000.00000" pt_clust_7="13000.00000" pt_clust_8="13000.00000" pt_clust_9="96.66376"></scales>
<clustering>
<clus scale="   91.742">  7  8 -1 -1</clus>
<clus scale="   96.664">  2  9  1 -1</clus>
<clus scale="   96.664">  2  7  1 -1</clus>
<clus scale="  104.865">  5  6 -1 -1</clus>
<clus scale="   96.664">  2  5  1 -1</clus>
</clustering>
</event>
<event>
 9    1  0.1782981E-005  0.1649220E+03  0.7546771E-02  0.1208520E+00
         -1   -1    0    0    0  501 -0.00000000000E+00  0.00000000000E+00  0.26485318216E+03  0.26485318216E+03  0.00000000000E+00 0.  1.
          1   -1    0    0  502    0  0.00000000000E+00 -0.00000000000E+00 -0.50773323469E+03  0.50773323469E+03  0.00000000000E+00 0. -1.
         23    2    1    2    0    0 -0.22599420380E+02  0.16607483626E+02  0.31238414605E+02  0.99895955662E+02  0.90646682767E+02 0.  0.
         23    2    1    2    0    0 -0.97999567728E+02 -0.67730564872E+02  0.15736621028E+03  0.22176173932E+03  0.10110786417E+03 0.  0.
        -13    1    4    4    0    0 -0.96564373134E+02 -0.91067083634E+02  0.13702001618E+03  0.19076786080E+03  0.00000000000E+00 0.  1.
         13    1    4    4    0    0 -0.14351945942E+01  0.23336518763E+02  0.20346194093E+02  0.30993878518E+02  0.00000000000E+00 0. -1.
        -13    1    3    3    0    0 -0.48502249097E+02  0.80209317184E+01  0.47308522282E+02  0.68226826056E+02  0.00000000000E+00 0.  1.
         13    1    3    3    0    0  0.25902828718E+02  0.85865519075E+01 -0.16070107677E+02  0.31669129606E+02  0.00000000000E+00 0. -1.
         21    1    1    2  502  501  0.12059898811E+03  0.51123081246E+02 -0.43148467741E+03  0.45092872187E+03  0.00000000000E+00 0. -1.
<scales pt_clust_5="13000.00000" pt_clust_6="13000.00000" pt_clust_7="13000.00000" pt_clust_8="13000.00000" pt_clust_9="130.29380"></scales>
<clustering>
<clus scale="   90.647">  7  8 -1 -1</clus>
<clus scale="   94.886">  1  7  2 -1</clus>
<clus scale="  101.108">  5  6 -1 -1</clus>
<clus scale="  130.294">  2  9  1 -1</clus>
<clus scale="  130.294">  2  5  1 -1</clus>
</clustering>
</event>
<event>
 9    1  0.1782981E-005  0.9145639E+02  0.7546771E-02  0.1301534E+00
         -1   -1    0    0    0  501 -0.00000000000E+00  0.00000000000E+00  0.30168296570E+02  0.30168296570E+02  0.00000000000E+00 0.  1.
          1   -1    0    0  502    0  0.00000000000E+00 -0.00000000000E+00 -0.42111899466E+03  0.42111899466E+03  0.00000000000E+00 0. -1.
         23    2    1    2    0    0  0.33797191005E+00  0.69967128656E+01 -0.10293630599E+03  0.13525264104E+03  0.87454705998E+02 0.  0.
         23    2    1    2    0    0  0.22330417891E+02  0.13189731755E+02 -0.17447757382E+03  0.19851036527E+03  0.91056711802E+02 0.  0.
        -11    1    4    4    0    0 -0.12134503432E+02 -0.23411682207E+02 -0.13023924717E+02  0.29410468414E+02  0.00000000000E+00 0.  1.
         11    1    4    4    0    0  0.34464921322E+02  0.36601413963E+02 -0.16145364911E+03  0.16909989685E+03  0.00000000000E+00 0. -1.
        -11    1    3    3    0    0 -0.31701055178E+02  0.16338738008E+01 -0.50821645762E+01  0.32147392426E+02  0.00000000000E+00 0. -1.
         11    1    3    3    0    0  0.32039027088E+02  0.53628390647E+01 -0.97854141418E+02  0.10310524862E+03  0.00000000000E+00 0.  1.
         21    1    1    2  502  501 -0.22668389801E+02 -0.20186444621E+02 -0.11353681828E+03  0.11752428492E+03  0.00000000000E+00 0.  1.
<scales pt_clust_5="13000.00000" pt_clust_6="13000.00000" pt_clust_7="13000.00000" pt_clust_8="13000.00000" pt_clust_9="30.35372"></scales>
<clustering>
<clus scale="   30.354">  2  9  1 -1</clus>
<clus scale="   87.455">  7  8 -1 -1</clus>
<clus scale="   87.871">  1  7  2 -1</clus>
<clus scale="   91.057">  5  6 -1 -1</clus>
<clus scale="   30.354">  2  5  1 -1</clus>
</clustering>
</event>
<event>
 9    1  0.1782981E-005  0.2125118E+03  0.7546771E-02  0.1139682E+00
         -1   -1    0    0    0  501 -0.00000000000E+00  0.00000000000E+00  0.83414830288E+02  0.83414830288E+02  0.00000000000E+00 0.  1.
          1   -1    0    0  502    0  0.00000000000E+00 -0.00000000000E+00 -0.11060044831E+04  0.11060044831E+04  0.00000000000E+00 0. -1.
         23    2    1    2    0    0 -0.74393449347E+02  0.17787397608E+03 -0.97590756919E+02  0.23315408365E+03  0.87540471856E+02 0.  0.
         23    2    1    2    0    0  0.99960180842E+02 -0.16903641693E+03 -0.82504059040E+03  0.85271126773E+03  0.88652029329E+02 0.  0.
        -11    1    4    4    0    0  0.92193161274E+02 -0.83670395939E+02 -0.39299291690E+03  0.41224233998E+03  0.00000000000E+00 0.  1.
         11    1    4    4    0    0  0.77670195681E+01 -0.85366020992E+02 -0.43204767350E+03  0.44046892775E+03  0.00000000000E+00 0. -1.
        -13    1    3    3    0    0  0.72027922738E+01  0.43865717111E+02 -0.54732207547E+02  0.70510253844E+02  0.00000000000E+00 0. -1.
         13    1    3    3    0    0 -0.81596241621E+02  0.13400825897E+03 -0.42858549372E+02  0.16264382980E+03  0.00000000000E+00 0.  1.
         21    1    1    2  502  501 -0.25566731495E+02 -0.88375591521E+01 -0.99958305520E+02  0.10355396204E+03  0.00000000000E+00 0. -1.
<scales pt_clust_5="13000.00000" pt_clust_6="13000.00000" pt_clust_7="13000.00000" pt_clust_8="13000.00000" pt_clust_9="27.05107"></scales>
<clustering>
<clus scale="   27.051">  2  9  1 -1</clus>
<clus scale="   87.540">  7  8 -1 -1</clus>
<clus scale="   88.652">  5  6 -1 -1</clus>
<clus scale="  212.050">  1  7  2 -1</clus>
<clus scale="   27.051">  2  5  1 -1</clus>
</clustering>
</event>
<event>
 9    1  0.1782981E-005  0.9658249E+02  0.7546771E-02  0.1287697E+00
         -1   -1    0    0    0  501 -0.00000000000E+00  0.00000000000E+00  0.53985671492E+02  0.53985671492E+02  0.00000000000E+00 0.  1.
          1   -1    0    0  502    0  0.00000000000E+00 -0.00000000000E+00 -0.34998442842E+03  0.34998442842E+03  0.00000000000E+00 0. -1.
         23    2    1    2    0    0 -0.18583128483E+02 -0.12542028967E+02 -0.34891799732E+02  0.10020881222E+03  0.91223534265E+02 0.  0.
         23    2    1    2    0    0  0.23704513160E+02  0.56105267376E+02 -0.16572761833E+03  0.19877937208E+03  0.91312049135E+02 0.  0.
        -11    1    3    3    0    0 -0.66042810871E+01 -0.28953115037E+02 -0.60573708366E+02  0.67461644986E+02  0.00000000000E+00 0. -1.
         11    1    3    3    0    0 -0.11978847396E+02  0.16411086070E+02  0.25681908634E+02  0.32747167237E+02  0.00000000000E+00 0.  1.
        -13    1    4    4    0    0  0.36806504685E+02  0.13604512740E+02 -0.14405781871E+03  0.14930658621E+03  0.00000000000E+00 0. -1.
         13    1    4    4    0    0 -0.13101991526E+02  0.42500754635E+02 -0.21669799619E+02  0.49472785873E+02  0.00000000000E+00 0.  1.
         21    1    1    2  502  501 -0.51213846769E+01 -0.43563238409E+02 -0.95379338869E+02  0.10498191561E+03  0.00000000000E+00 0. -1.
<scales pt_clust_5="13000.00000" pt_clust_6="13000.00000" pt_clust_7="13000.00000" pt_clust_8="13000.00000" pt_clust_9="43.86325"></scales>
<clustering>
<clus scale="   43.863">  2  9  1 -1</clus>
<clus scale="   91.224">  5  6 -1 -1</clus>
<clus scale="   91.312">  7  8 -1 -1</clus>
<clus scale="   96.499">  1  5  2 -1</clus>
<clus scale="   43.863">  2  5  1 -1</clus>
</clustering>
</event>
<event>
 9    1  0.1782981E-005  0.1447327E+03  0.7546771E-02  0.1222243E+00
          1   -1    0    0  502    0  0.00000000000E+00  0.00000000000E+00  0.67779964335E+03  0.67779964335E+03  0.00000000000E+00 0. -1.
         -1   -1    0    0    0  501 -0.00000000000E+00 -0.00000000000E+00 -0.72167695180E+02  0.72167695180E+02  0.00000000000E+00 0.  1.
         23    2    1    2    0    0 -0.48172776873E+02 -0.10762596735E+02  0.10659674487E+03  0.14963151542E+03  0.92683733576E+02 0.  0.
         23    2    1    2    0    0 -0.41013607753E+02 -0.69026836329E+02  0.41955124314E+02  0.12785009482E+03  0.90214157065E+02 0.  0.
        -11    1    3    3    0    0 -0.39700943359E+02 -0.39659269848E+02  0.22769516638E+02  0.60559668728E+02  0.00000000000E+00 0.  1.
         11    1    3    3    0    0 -0.84718335133E+01  0.28896673113E+02  0.83827228228E+02  0.89071846688E+02  0.00000000000E+00 0. -1.
        -13    1    4    4    0    0 -0.32068754955E+02  0.72630580158E+01  0.38957886388E+02  0.50979152288E+02  0.00000000000E+00 0.  1.
         13    1    4    4    0    0 -0.89448527975E+01 -0.76289894345E+02  0.29972379258E+01  0.76870942533E+02  0.00000000000E+00 0. -1.
         21    1    1    2  502  501  0.89186384625E+02  0.79789433064E+02  0.45708007899E+03  0.47248572829E+03  0.00000000000E+00 0. -1.
<scales pt_clust_5="13000.00000" pt_clust_6="13000.00000" pt_clust_7="13000.00000" pt_clust_8="13000.00000" pt_clust_9="113.17666"></scales>
<clustering>
<clus scale="   90.214">  7  8 -1 -1</clus>
<clus scale="   92.684">  5  6 -1 -1</clus>
<clus scale="  105.008">  2  5  1 -1</clus>
<clus scale="  113.177">  1  9  2 -1</clus>
<clus scale="  113.177">  1  5  2 -1</clus>
</clustering>
</event>
<event>
 9    1  0.1782981E-005  0.1268366E+03  0.7546771E-02  0.1232938E+00
          2   -1    0    0  502    0  0.00000000000E+00  0.00000000000E+00  0.65139005818E+02  0.65139005818E+02  0.00000000000E+00 0. -1.
         -2   -1    0    0    0  501 -0.00000000000E+00 -0.00000000000E+00 -0.71649213922E+03  0.71649213922E+03  0.00000000000E+00 0.  1.
         23    2    1    2    0    0 -0.43891550438E+02  0.64483193657E+02 -0.38461043230E+03  0.40325163046E+03  0.92747735125E+02 0.  0.
         23    2    1    2    0    0  0.43169210620E+02 -0.90400695050E+02 -0.30425197135E+03  0.33278144435E+03  0.90212866159E+02 0.  0.
        -11    1    3    3    0    0  0.28532342485E+02  0.10511331666E+02 -0.82349443724E+02  0.87783902527E+02  0.00000000000E+00 0. -1.
         11    1    3    3    0    0 -0.72423892923E+02  0.53971861991E+02 -0.30226098858E+03  0.31546772793E+03  0.00000000000E+00 0.  1.
        -11    1    4    4    0    0  0.51372550780E+02 -0.82006284813E+01 -0.12604081922E+03  0.13635496833E+03  0.00000000000E+00 0. -1.
         11    1    4    4    0    0 -0.82033401602E+01 -0.82200066568E+02 -0.17821115214E+03  0.19642647602E+03  0.00000000000E+00 0.  1.
         21    1    1    2  502  501  0.72233981816E+00  0.25917501392E+02  0.37509270254E+02  0.45598070225E+02  0.00000000000E+00 0. -1.
<scales pt_clust_5="13000.00000" pt_clust_6="13000.00000" pt_clust_7="13000.00000" pt_clust_8="13000.00000" pt_clust_9="25.92757"></scales>
<clustering>
<clus scale="   25.928">  1  9  2 -1</clus>
<clus scale="   90.213">  7  8 -1 -1</clus>
<clus scale="   92.748">  5  6 -1 -1</clus>
<clus scale="  124.995">  1  7  2 -1</clus>
<clus scale="   25.928">  1  5  2 -1</clus>
</clustering>
</event>
<event>
 9    1  0.1782981E-005  0.1019349E+03  0.7546771E-02  0.1279188E+00
          3   -1    0    0  502    0  0.00000000000E+00  0.00000000000E+00  0.64163266044E+02  0.64163266044E+02  0.00000000000E+00 0. -1.
         -3   -1    0    0    0  501 -0.00000000000E+00 -0.00000000000E+00 -0.20042170438E+03  0.20042170438E+03  0.00000000000E+00 0.  1.
         23    2    1    2    0    0  0.37506079376E+02  0.40865664317E+02 -0.80818552171E+02  0.12983651398E+03  0.85142078190E+02 0.  0.
         23    2    1    2    0    0 -0.16383347411E+02 -0.29527455025E+02 -0.52405688755E+02  0.11058378906E+03  0.91335280786E+02 0.  0.
        -11    1    3    3    0    0 -0.22748672091E+02 -0.78224225828E+01 -0.16824997961E+02  0.29355969297E+02  0.00000000000E+00 0.  1.
         11    1    3    3    0    0  0.60254751467E+02  0.48688086900E+02 -0.63993554210E+02  0.10048054469E+03  0.00000000000E+00 0. -1.
        -13    1    4    4    0    0 -0.50263196782E+02 -0.16948700942E+02 -0.85050240664E+01  0.53721344443E+02  0.00000000000E+00 0.  1.
         13    1    4    4    0    0  0.33879849371E+02 -0.12578754084E+02 -0.43900664689E+02  0.56862444617E+02  0.00000000000E+00 0. -1.
         21    1    1    2  502  501 -0.21122731965E+02 -0.11338209292E+02 -0.30341974101E+01  0.24164667379E+02  0.00000000000E+00 0. -1.
<scales pt_clust_5="13000.00000" pt_clust_6="13000.00000" pt_clust_7="13000.00000" pt_clust_8="13000.00000" pt_clust_9="23.97342"></scales>
<clustering>
<clus scale="   23.973">  1  9  2 -1</clus>
<clus scale="   85.142">  5  6 -1 -1</clus>
<clus scale="   91.335">  7  8 -1 -1</clus>
<clus scale="   96.425">  2  5  1 -1</clus>
<clus scale="   23.973">  1  5  2 -1</clus>
</clustering>
</event>
<event>
 9    1  0.1782981E-005  0.1047312E+03  0.7546771E-02  0.1271266E+00
          2   -1    0    0  502    0  0.00000000000E+00  0.00000000000E+00  0.35555802524E+03  0.35555802524E+03  0.00000000000E+00 0. -1.
         -2   -1    0    0    0  501 -0.00000000000E+00 -0.00000000000E+00 -0.38229774993E+02  0.38229774993E+02  0.00000000000E+00 0.  1.
         23    2    1    2    0    0 -0.29963162961E+02  0.52267242861E+02  0.11672595270E+03  0.15882272761E+03  0.89275164293E+02 0.  0.
         23    2    1    2    0    0  0.11587782175E+02 -0.41857704671E+02  0.15587598992E+03  0.18550341376E+03  0.90707486714E+02 0.  0.
        -13    1    4    4    0    0 -0.15859381785E+02 -0.39178536232E+02  0.19824360480E+02  0.46684932905E+02  0.00000000000E+00 0.  1.
         13    1    4    4    0    0  0.27447163960E+02 -0.26791684390E+01  0.13605162944E+03  0.13881848085E+03  0.00000000000E+00 0. -1.
        -13    1    3    3    0    0  0.22769635286E+02 -0.11010039795E+02  0.25599194136E+02  0.35986052962E+02  0.00000000000E+00 0. -1.
         13    1    3    3    0    0 -0.52732798247E+02  0.63277282655E+02  0.91126758565E+02  0.12283667464E+03  0.00000000000E+00 0.  1.
         21    1    1    2  502  501  0.18375380785E+02 -0.10409538189E+02  0.44726307633E+02  0.49461658876E+02  0.00000000000E+00 0.  1.
<scales pt_clust_5="13000.00000" pt_clust_6="13000.00000" pt_clust_7="13000.00000" pt_clust_8="13000.00000" pt_clust_9="21.11902"></scales>
<clustering>
<clus scale="   21.119">  1  9  2 -1</clus>
<clus scale="   89.275">  7  8 -1 -1</clus>
<clus scale="   90.707">  5  6 -1 -1</clus>
<clus scale="  103.493">  2  7  1 -1</clus>
<clus scale="   21.119">  1  5  2 -1</clus>
</clustering>
</event>
<event>
 9    1  0.1782981E-005  0.9665455E+02  0.7546771E-02  0.1287639E+00
          1   -1    0    0  502    0  0.00000000000E+00  0.00000000000E+00  0.55157894230E+02  0.55157894230E+02  0.00000000000E+00 0. -1.
         -1   -1    0    0    0  501 -0.00000000000E+00 -0.00000000000E+00 -0.48932399119E+03  0.48932399119E+03  0.00000000000E+00 0.  1.
         23    2    1    2    0    0 -0.26933384858E+02  0.26306481516E+02 -0.40794651474E+03  0.41948662635E+03  0.90173347578E+02 0.  0.
         23    2    1    2    0    0  0.61618193765E+01 -0.14579165090E+02 -0.36761087097E+02  0.98916317215E+02  0.90457394468E+02 0.  0.
        -13    1    3    3    0    0 -0.56133407014E+02  0.62414625628E+01 -0.31486387152E+03  0.31988931340E+03  0.00000000000E+00 0.  1.
         13    1    3    3    0    0  0.29200022156E+02  0.20065018953E+02 -0.93082643213E+02  0.99597312951E+02  0.00000000000E+00 0. -1.
        -13    1    4    4    0    0 -0.21275164370E+01 -0.33134023834E+02 -0.59674404780E+02  0.68289270369E+02  0.00000000000E+00 0.  1.
         13    1    4    4    0    0  0.82893358134E+01  0.18554858744E+02  0.22913317683E+02  0.30627046846E+02  0.00000000000E+00 0. -1.
         21    1    1    2  502  501  0.20771565482E+02 -0.11727316425E+02  0.10541504874E+02  0.26078941852E+02  0.00000000000E+00 0.  1.
<scales pt_clust_5="13000.00000" pt_clust_6="13000.00000" pt_clust_7="13000.00000" pt_clust_8="13000.00000" pt_clust_9="23.85347"></scales>
<clustering>
<clus scale="   23.853">  1  9  2 -1</clus>
<clus scale="   90.173">  5  6 -1 -1</clus>
<clus scale="   90.457">  7  8 -1 -1</clus>
<clus scale="   96.389">  2  5  1 -1</clus>
<clus scale="   23.853">  1  5  2 -1</clus>
</clustering>
</event>
<event>
 9    1  0.1782981E-005  0.1000022E+03  0.7546771E-02  0.1285503E+00
         -2   -1    0    0    0  501 -0.00000000000E+00  0.00000000000E+00  0.43099073778E+02  0.43099073778E+02  0.00000000000E+00 0.  1.
          2   -1    0    0  502    0  0.00000000000E+00 -0.00000000000E+00 -0.49093039407E+03  0.49093039407E+03  0.00000000000E+00 0. -1.
         23    2    1    2    0    0 -0.44199967530E+01  0.29483596245E+02 -0.58883124929E+02  0.11870047653E+03  0.98659829251E+02 0.  0.
         23    2    1    2    0    0 -0.16784275885E+02  0.16168847115E+02 -0.20748121151E+03  0.22701002522E+03  0.89117646333E+02 0.  0.
        -13    1    3    3    0    0  0.43203482387E+02  0.32423261734E+02 -0.21714726153E+02  0.58218022328E+02  0.00000000000E+00 0. -1.
         13    1    3    3    0    0 -0.47623479140E+02 -0.29396654886E+01 -0.37168398776E+02  0.60482454201E+02  0.00000000000E+00 0.  1.
        -13    1    4    4    0    0 -0.37378932551E+02 -0.24756604692E+02 -0.12281836246E+03  0.13074564709E+03  0.00000000000E+00 0.  1.
         13    1    4    4    0    0  0.20594656666E+02  0.40925451807E+02 -0.84662849047E+02  0.96264378134E+02  0.00000000000E+00 0. -1.
         21    1    1    2  502  501  0.21204272638E+02 -0.45652443360E+02 -0.18146698386E+03  0.18831896610E+03  0.00000000000E+00 0. -1.
<scales pt_clust_5="13000.00000" pt_clust_6="13000.00000" pt_clust_7="13000.00000" pt_clust_8="13000.00000" pt_clust_9="50.33654"></scales>
<clustering>
<clus scale="   50.337">  2  9  1 -1</clus>
<clus scale="   89.118">  7  8 -1 -1</clus>
<clus scale="   90.602">  2  7  1 -1</clus>
<clus scale="   98.660">  5  6 -1 -1</clus>
<clus scale="   50.337">  2  5  1 -1</clus>
</clustering>
</event>
<event>
 9    1  0.1782981E-005  0.1163202E+03  0.7546771E-02  0.1250064E+00
         -1   -1    0    0    0  501 -0.00000000000E+00  0.00000000000E+00  0.46085547788E+02  0.46085547788E+02  0.00000000000E+00 0.  1.
          1   -1    0    0  502    0  0.00000000000E+00 -0.00000000000E+00 -0.35914961209E+03  0.35914961209E+03  0.00000000000E+00 0. -1.
         23    2    1    2    0    0 -0.35245064380E+02  0.42624717388E+02 -0.93294305296E+02  0.14383452173E+03  0.94474658749E+02 0.  0.
         23    2    1    2    0    0  0.49709968449E+02 -0.57737616209E+02 -0.19684637836E+03  0.23036655139E+03  0.92279672938E+02 0.  0.
        -13    1    4    4    0    0  0.36449946318E+02 -0.61839409569E+01 -0.13353731418E+02  0.39308546846E+02  0.00000000000E+00 0.  1.
         13    1    4    4    0    0  0.13260022131E+02 -0.51553675252E+02 -0.18349264694E+03  0.19105800455E+03  0.00000000000E+00 0. -1.
        -13    1    3    3    0    0 -0.14069505173E+02  0.66057343962E+02 -0.31685945449E+02  0.74602431637E+02  0.00000000000E+00 0.  1.
         13    1    3    3    0    0 -0.21175559207E+02 -0.23432626574E+02 -0.61608359848E+02  0.69232090096E+02  0.00000000000E+00 0. -1.
         21    1    1    2  502  501 -0.14464904069E+02  0.15112898821E+02 -0.22923380645E+02  0.31034086754E+02  0.00000000000E+00 0. -1.
<scales pt_clust_5="13000.00000" pt_clust_6="13000.00000" pt_clust_7="13000.00000" pt_clust_8="13000.00000" pt_clust_9="20.91968"></scales>
<clustering>
<clus scale="   20.920">  1  9  2 -1</clus>
<clus scale="   92.280">  5  6 -1 -1</clus>
<clus scale="   94.475">  7  8 -1 -1</clus>
<clus scale="  114.545">  2  5  1 -1</clus>
<clus scale="  114.545">  2  5  1 -1</clus>
</clustering>
</event>
<event>
 9    1  0.1782981E-005  0.1004381E+03  0.7546771E-02  0.1280413E+00
         -1   -1    0    0    0  501 -0.00000000000E+00  0.00000000000E+00  0.22928859165E+03  0.22928859165E+03  0.00000000000E+00 0.  1.
          1   -1    0    0  502    0  0.00000000000E+00 -0.00000000000E+00 -0.70945258562E+02  0.70945258562E+02  0.00000000000E+00 0. -1.
         23    2    1    2    0    0 -0.13759088309E+02 -0.32526453364E+02  0.11030062440E+03  0.14747820086E+03  0.91303391537E+02 0.  0.
         23    2    1    2    0    0 -0.10935239160E+02  0.58564714448E+02  0.46412982284E+02  0.11683271994E+03  0.89142101671E+02 0.  0.
        -11    1    4    4    0    0 -0.31429578272E+02  0.56815213762E+01  0.50736764165E+02  0.59952625576E+02  0.00000000000E+00 0.  1.
         11    1    4    4    0    0  0.20494339113E+02  0.52883193072E+02 -0.43237818814E+01  0.56880094365E+02  0.00000000000E+00 0. -1.
        -13    1    3    3    0    0  0.39199494571E+02 -0.10856331274E+02  0.45927343872E+02  0.61349663556E+02  0.00000000000E+00 0. -1.
         13    1    3    3    0    0 -0.52958582880E+02 -0.21670122091E+02  0.64373280530E+02  0.86128537304E+02  0.00000000000E+00 0.  1.
         21    1    1    2  502  501  0.24694327469E+02 -0.26038261084E+02  0.16297264037E+01  0.35922929412E+02  0.00000000000E+00 0. -1.
<scales pt_clust_5="13000.00000" pt_clust_6="13000.00000" pt_clust_7="13000.00000" pt_clust_8="13000.00000" pt_clust_9="35.88594"></scales>
<clustering>
<clus scale="   35.886">  2  9  1 -1</clus>
<clus scale="   89.142">  5  6 -1 -1</clus>
<clus scale="   91.303">  7  8 -1 -1</clus>
<clus scale="   98.478">  2  5  1 -1</clus>
<clus scale="   35.886">  2  5  1 -1</clus>
</clustering>
</event>
<event>
 9    1  0.1782981E-005  0.1539127E+03  0.7546771E-02  0.1216519E+00
         -2   -1    0    0    0  501 -0.00000000000E+00  0.00000000000E+00  0.61554271351E+03  0.61554271351E+03  0.00000000000E+00 0.  1.
          2   -1    0    0  502    0  0.00000000000E+00 -0.00000000000E+00 -0.12497722152E+03  0.12497722152E+03  0.00000000000E+00 0. -1.
         23    2    1    2    0    0 -0.28462077991E+02  0.25603165473E+02  0.38957888928E+03  0.40183366852E+03  0.90735738381E+02 0.  0.
         23    2    1    2    0    0  0.48879444181E+02 -0.12302341569E+03 -0.39422648130E+02  0.16657487318E+03  0.93107906842E+02 0.  0.
        -11    1    3    3    0    0 -0.44217355284E+02  0.44533312237E+02  0.34713123253E+03  0.35275839183E+03  0.00000000000E+00 0.  1.
         11    1    3    3    0    0  0.15755277293E+02 -0.18930146763E+02  0.42447656749E+02  0.49075276693E+02  0.00000000000E+00 0. -1.
        -11    1    4    4    0    0 -0.22771943042E+02 -0.28494062811E+02  0.10386265741E+02  0.37925552355E+02  0.00000000000E+00 0.  1.
         11    1    4    4    0    0  0.71651387223E+02 -0.94529352877E+02 -0.49808913871E+02  0.12864932082E+03  0.00000000000E+00 0. -1.
         21    1    1    2  502  501 -0.20417366190E+02  0.97420250216E+02  0.14040925084E+03  0.17211139333E+03  0.00000000000E+00 0.  1.
<scales pt_clust_5="13000.00000" pt_clust_6="13000.00000" pt_clust_7="13000.00000" pt_clust_8="13000.00000" pt_clust_9="122.55630"></scales>
<clustering>
<clus scale="   90.736">  5  6 -1 -1</clus>
<clus scale="   93.108">  7  8 -1 -1</clus>
<clus scale="   98.481">  1  5  2 -1</clus>
<clus scale="  122.556">  1  9  2 -1</clus>
<clus scale="  153.913">  2  5  1 -1</clus>
</clustering>
</event>
<event>
 9    1  0.1782981E-005  0.1741162E+03  0.7546771E-02  0.1173889E+00
         -2   -1    0    0    0  501 -0.00000000000E+00  0.00000000000E+00  0.25887792879E+02  0.25887792879E+02  0.00000000000E+00 0.  1.
          2   -1    0    0  502    0  0.00000000000E+00 -0.00000000000E+00 -0.17751357461E+04  0.17751357461E+04  0.00000000000E+00 0. -1.
         23    2    1    2    0    0 -0.13071545502E+03 -0.16364731195E+02 -0.48650000272E+03  0.51217117944E+03  0.91009503896E+02 0.  0.
         23    2    1    2    0    0  0.17817034773E+03 -0.15549791201E+01 -0.85110665355E+03  0.87409744370E+03  0.88975921369E+02 0.  0.
        -11    1    4    4    0    0  0.14621855639E+03 -0.26635600558E+02 -0.75925516258E+03  0.77366512352E+03  0.00000000000E+00 0.  1.
         11    1    4    4    0    0  0.31951791342E+02  0.25080621438E+02 -0.91851490972E+02  0.10043232017E+03  0.00000000000E+00 0. -1.
        -13    1    3    3    0    0 -0.93712407165E+01 -0.34608008114E+02 -0.14247699243E+03  0.14691911976E+03  0.00000000000E+00 0.  1.
         13    1    3    3    0    0 -0.12134421430E+03  0.18243276919E+02 -0.34402301029E+03  0.36525205968E+03  0.00000000000E+00 0. -1.
         21    1    1    2  502  501 -0.47454892713E+02  0.17919710315E+02 -0.41164129696E+03  0.41475491585E+03  0.00000000000E+00 0. -1.
<scales pt_clust_5="13000.00000" pt_clust_6="13000.00000" pt_clust_7="13000.00000" pt_clust_8="13000.00000" pt_clust_9="50.72556"></scales>
<clustering>
<clus scale="   50.726">  2  9  1 -1</clus>
<clus scale="   88.976">  5  6 -1 -1</clus>
<clus scale="   91.010">  7  8 -1 -1</clus>
<clus scale="  173.062">  2  5  1 -1</clus>
<clus scale="   50.726">  2  5  1 -1</clus>
</clustering>
</event>
<event>
 9    1  0.1782981E-005  0.1057305E+03  0.7546771E-02  0.1268832E+00
         -2   -1    0    0    0  501 -0.00000000000E+00  0.00000000000E+00  0.24453354470E+02  0.24453354470E+02  0.00000000000E+00 0.  1.
          2   -1    0    0  502    0  0.00000000000E+00 -0.00000000000E+00 -0.80230136224E+03  0.80230136224E+03  0.00000000000E+00 0. -1.
         23    2    1    2    0    0 -0.36116010728E+02  0.18705195083E+02 -0.17495881066E+03  0.20160598602E+03  0.91543091591E+02 0.  0.
         23    2    1    2    0    0  0.69351939145E+02 -0.31299712624E+02 -0.34612833424E+03  0.36593956898E+03  0.91200772532E+02 0.  0.
        -11    1    4    4    0    0  0.87197724960E+02 -0.54858235678E+01 -0.25162853644E+03  0.26636527148E+03  0.00000000000E+00 0.  1.
         11    1    4    4    0    0 -0.17845785815E+02 -0.25813889056E+02 -0.94499797797E+02  0.99574297503E+02  0.00000000000E+00 0. -1.
        -11    1    3    3    0    0  0.30346122468E+02  0.91376576480E+01 -0.72254854368E+02  0.78899606564E+02  0.00000000000E+00 0.  1.
         11    1    3    3    0    0 -0.66462133196E+02  0.95675374352E+01 -0.10270395629E+03  0.12270637946E+03  0.00000000000E+00 0. -1.
         21    1    1    2  502  501 -0.33235928418E+02  0.12594517541E+02 -0.25676086287E+03  0.25920916170E+03  0.00000000000E+00 0. -1.
<scales pt_clust_5="13000.00000" pt_clust_6="13000.00000" pt_clust_7="13000.00000" pt_clust_8="13000.00000" pt_clust_9="35.54221"></scales>
<clustering>
<clus scale="   35.542">  2  9  1 -1</clus>
<clus scale="   91.201">  5  6 -1 -1</clus>
<clus scale="   91.543">  7  8 -1 -1</clus>
<clus scale="  105.434">  2  5  1 -1</clus>
<clus scale="   35.542">  2  5  1 -1</clus>
</clustering>
</event>
<event>
 9    1  0.1782981E-005  0.1141581E+03  0.7546771E-02  0.1255029E+00
         -1   -1    0    0    0  501 -0.00000000000E+00  0.00000000000E+00  0.24217532622E+03  0.24217532622E+03  0.00000000000E+00 0.  1.
          1   -1    0    0  502    0  0.00000000000E+00 -0.00000000000E+00 -0.49776052153E+03  0.49776052153E+03  0.00000000000E+00 0. -1.
         23    2    1    2    0    0  0.29545532095E+02  0.57031397211E+02  0.21966126014E+03  0.24762072186E+03  0.94548579866E+02 0.  0.
         23    2    1    2    0    0 -0.85547818232E+01 -0.58986910409E+02 -0.40532932969E+03  0.41928882856E+03  0.89211077557E+02 0.  0.
        -11    1    4    4    0    0  0.25505676754E+02 -0.61467323670E+01 -0.35435981561E+02  0.44091162999E+02  0.00000000000E+00 0.  1.
         11    1    4    4    0    0 -0.34060458577E+02 -0.52840178042E+02 -0.36989334813E+03  0.37519766556E+03  0.00000000000E+00 0. -1.
        -13    1    3    3    0    0 -0.69898041492E+01  0.37125201466E+02  0.18245927945E+02  0.41952971677E+02  0.00000000000E+00 0. -1.
         13    1    3    3    0    0  0.36535336244E+02  0.19906195746E+02  0.20141533219E+03  0.20566775018E+03  0.00000000000E+00 0.  1.
         21    1    1    2  502  501 -0.20990750271E+02  0.19555131973E+01 -0.69917125754E+02  0.73026297335E+02  0.00000000000E+00 0.  1.
<scales pt_clust_5="13000.00000" pt_clust_6="13000.00000" pt_clust_7="13000.00000" pt_clust_8="13000.00000" pt_clust_9="21.08164"></scales>
<clustering>
<clus scale="   21.082">  2  9  1 -1</clus>
<clus scale="   89.211">  5  6 -1 -1</clus>
<clus scale="   94.549">  7  8 -1 -1</clus>
<clus scale="  109.778">  2  5  1 -1</clus>
<clus scale="   21.082">  2  5  1 -1</clus>
</clustering>
</event>
<event>
 9    1  0.1782981E-005  0.1449996E+03  0.7546771E-02  0.1207348E+00
         -1   -1    0    0    0  501 -0.00000000000E+00  0.00000000000E+00  0.60321531447E+03  0.60321531447E+03  0.00000000000E+00 0.  1.
          1   -1    0    0  502    0  0.00000000000E+00 -0.00000000000E+00 -0.76514691739E+02  0.76514691739E+02  0.00000000000E+00 0. -1.
         23    2    1    2    0    0 -0.42820651049E+01 -0.11262835187E+03  0.48869479483E+03  0.51004142239E+03  0.92823317853E+02 0.  0.
         23    2    1    2    0    0 -0.17446705798E+02  0.10543352184E+03  0.43231137389E+02  0.14621074484E+03  0.89933506521E+02 0.  0.
        -11    1    3    3    0    0 -0.41202834267E+01 -0.29943460069E+02  0.25561774231E+02  0.39585247735E+02  0.00000000000E+00 0. -1.
         11    1    3    3    0    0 -0.16178167820E+00 -0.82684891800E+02  0.46313302060E+03  0.47045617466E+03  0.00000000000E+00 0.  1.
        -13    1    4    4    0    0 -0.35165875893E+02  0.21947877672E+02  0.44553410538E+02  0.60855193305E+02  0.00000000000E+00 0.  1.
         13    1    4    4    0    0  0.17719170095E+02  0.83485644173E+02 -0.13222731487E+01  0.85355551536E+02  0.00000000000E+00 0. -1.
         21    1    1    2  502  501  0.21728770903E+02  0.71948300239E+01 -0.52253094807E+01  0.23477838981E+02  0.00000000000E+00 0. -1.
<scales pt_clust_5="13000.00000" pt_clust_6="13000.00000" pt_clust_7="13000.00000" pt_clust_8="13000.00000" pt_clust_9="22.88897"></scales>
<clustering>
<clus scale="   22.889">  2  9  1 -1</clus>
<clus scale="   89.934">  7  8 -1 -1</clus>
<clus scale="   92.823">  5  6 -1 -1</clus>
<clus scale="  143.167">  2  7  1 -1</clus>
<clus scale="   22.889">  2  5  1 -1</clus>
</clustering>
</event>
<event>
 9    1  0.1782981E-005  0.1051292E+03  0.7546771E-02  0.1270185E+00
         -2   -1    0    0    0  501 -0.00000000000E+00  0.00000000000E+00  0.62605077291E+03  0.62605077291E+03  0.00000000000E+00 0.  1.
          2   -1    0    0  502    0  0.00000000000E+00 -0.00000000000E+00 -0.63446929241E+02  0.63446929241E+02  0.00000000000E+00 0. -1.
         23    2    1    2    0    0 -0.24027125276E+02 -0.59586032000E+02  0.46079374174E+03  0.47414866877E+03  0.91423682439E+02 0.  0.
         23    2    1    2    0    0  0.11772265275E+02  0.16168867841E+02  0.13114721813E+03  0.16153548375E+03  0.92163448131E+02 0.  0.
        -11    1    3    3    0    0  0.26695716826E+02 -0.54353226947E+02  0.26398967636E+03  0.27084586724E+03  0.00000000000E+00 0.  1.
         11    1    3    3    0    0 -0.50722842102E+02 -0.52328050531E+01  0.19680406538E+03  0.20330280153E+03  0.00000000000E+00 0. -1.
        -13    1    4    4    0    0  0.36396840103E+02  0.13439712785E+02  0.13114106183E+03  0.13676013288E+03  0.00000000000E+00 0.  1.
         13    1    4    4    0    0 -0.24624574828E+02  0.27291550558E+01  0.61563012914E-02  0.24775350869E+02  0.00000000000E+00 0. -1.
         21    1    1    2  502  501  0.12254860002E+02  0.43417164159E+02 -0.29337116197E+02  0.53813549632E+02  0.00000000000E+00 0. -1.
<scales pt_clust_5="13000.00000" pt_clust_6="13000.00000" pt_clust_7="13000.00000" pt_clust_8="13000.00000" pt_clust_9="45.11354"></scales>
<clustering>
<clus scale="   45.114">  2  9  1 -1</clus>
<clus scale="   91.424">  5  6 -1 -1</clus>
<clus scale="   92.163">  7  8 -1 -1</clus>
<clus scale="  104.481">  1  5  2 -1</clus>
<clus scale="   45.114">  2  5  1 -1</clus>
</clustering>
</event>
<event>
 9    1  0.1782981E-005  0.1901927E+03  0.7546771E-02  0.1162655E+00
          1   -1    0    0  502    0  0.00000000000E+00  0.00000000000E+00  0.42215236787E+03  0.42215236787E+03  0.00000000000E+00 0. -1.
         -1   -1    0    0    0  501 -0.00000000000E+00 -0.00000000000E+00 -0.36134396530E+03  0.36134396530E+03  0.00000000000E+00 0.  1.
         23    2    1    2    0    0 -0.16194288253E+03 -0.79533045673E+02 -0.19236338622E+03  0.27925859862E+03  0.91818788854E+02 0.  0.
         23    2    1    2    0    0  0.10931533019E+03 -0.11188610364E+02 -0.58910221328E+02  0.17500338158E+03  0.12280367653E+03 0.  0.
        -13    1    4    4    0    0  0.95414310825E+02 -0.56612834927E+02 -0.62545049289E+02  0.12736085340E+03  0.00000000000E+00 0. -1.
         13    1    4    4    0    0  0.13901019366E+02  0.45424224563E+02  0.36348279608E+01  0.47642528174E+02  0.00000000000E+00 0.  1.
        -13    1    3    3    0    0 -0.14838346793E+03 -0.50596743412E+02 -0.19123598628E+03  0.24728300881E+03  0.00000000000E+00 0.  1.
         13    1    3    3    0    0 -0.13559414604E+02 -0.28936302261E+02 -0.11273999432E+01  0.31975589808E+02  0.00000000000E+00 0. -1.
         21    1    1    2  502  501  0.52627552342E+02  0.90721656038E+02  0.31208201012E+03  0.32923435298E+03  0.00000000000E+00 0. -1.
<scales pt_clust_5="13000.00000" pt_clust_6="13000.00000" pt_clust_7="13000.00000" pt_clust_8="13000.00000" pt_clust_9="104.88126"></scales>
<clustering>
<clus scale="   91.819">  7  8 -1 -1</clus>
<clus scale="  104.881">  1  9  2 -1</clus>
<clus scale="  122.804">  5  6 -1 -1</clus>
<clus scale="  171.823">  2  7  1 -1</clus>
<clus scale="  104.881">  1  5  2 -1</clus>
</clustering>
</event>
<event>
 9    1  0.1782981E-005  0.1150294E+03  0.7546771E-02  0.1252849E+00
         -2   -1    0    0    0  501 -0.00000000000E+00  0.00000000000E+00  0.22716823718E+02  0.22716823718E+02  0.00000000000E+00 0.  1.
          2   -1    0    0  502    0  0.00000000000E+00 -0.00000000000E+00 -0.75110725824E+03  0.75110725824E+03  0.00000000000E+00 0. -1.
         23    2    1    2    0    0  0.50583031477E+02  0.30513032581E+02 -0.23448522019E+03  0.25765513436E+03  0.88955952809E+02 0.  0.
         23    2    1    2    0    0 -0.69620240922E+02 -0.43696760258E+02 -0.37202936195E+03  0.39211271273E+03  0.92683054141E+02 0.  0.
        -11    1    3    3    0    0  0.28960314899E+02  0.59924587589E+02 -0.11672438029E+03  0.13436605595E+03  0.00000000000E+00 0.  1.
         11    1    3    3    0    0  0.21622716579E+02 -0.29411555008E+02 -0.11776083990E+03  0.12328907840E+03  0.00000000000E+00 0. -1.
        -11    1    4    4    0    0 -0.28311341755E+01  0.23970253945E+02 -0.12721040895E+03  0.12948002371E+03  0.00000000000E+00 0.  1.
         11    1    4    4    0    0 -0.66789106747E+02 -0.67667014203E+02 -0.24481895300E+03  0.26263268902E+03  0.00000000000E+00 0. -1.
         21    1    1    2  502  501  0.19037209445E+02  0.13183727677E+02 -0.12187585238E+03  0.12405623488E+03  0.00000000000E+00 0. -1.
<scales pt_clust_5="13000.00000" pt_clust_6="13000.00000" pt_clust_7="13000.00000" pt_clust_8="13000.00000" pt_clust_9="23.15655"></scales>
<clustering>
<clus scale="   23.157">  2  9  1 -1</clus>
<clus scale="   88.956">  5  6 -1 -1</clus>
<clus scale="   92.683">  7  8 -1 -1</clus>
<clus scale="  112.048">  1  5  2 -1</clus>
<clus scale="   23.157">  2  5  1 -1</clus>
</clustering>
</event>
<event>
 9    1  0.1782981E-005  0.1655370E+03  0.7546771E-02  0.1182633E+00
          1   -1    0    0  502    0  0.00000000000E+00  0.00000000000E+00  0.35215878378E+03  0.35215878378E+03  0.00000000000E+00 0. -1.
         -1   -1    0    0    0  501 -0.00000000000E+00 -0.00000000000E+00 -0.10714231761E+03  0.10714231761E+03  0.00000000000E+00 0.  1.
         23    2    1    2    0    0 -0.82254693102E+02 -0.10227421828E+03  0.46433031782E+02  0.16635787346E+03  0.91066269062E+02 0.  0.
         23    2    1    2    0    0  0.10604574229E+03  0.10592565826E+03  0.12420921600E+03  0.21477116516E+03  0.90734665420E+02 0.  0.
        -11    1    4    4    0    0  0.54920098724E+01  0.37568853575E+02  0.74102160410E+02  0.83262903558E+02  0.00000000000E+00 0.  1.
         11    1    4    4    0    0  0.10055373241E+03  0.68356804688E+02  0.50107055588E+02  0.13150826160E+03  0.00000000000E+00 0. -1.
        -11    1    3    3    0    0 -0.70944641461E+02 -0.16289608054E+02  0.16745521834E+02  0.74692074439E+02  0.00000000000E+00 0.  1.
         11    1    3    3    0    0 -0.11310051641E+02 -0.85984610227E+02  0.29687509947E+02  0.91665799025E+02  0.00000000000E+00 0. -1.
         21    1    1    2  502  501 -0.23791049184E+02 -0.36514399811E+01  0.74374218393E+02  0.78172062764E+02  0.00000000000E+00 0. -1.
<scales pt_clust_5="13000.00000" pt_clust_6="13000.00000" pt_clust_7="13000.00000" pt_clust_8="13000.00000" pt_clust_9="24.06963"></scales>
<clustering>
<clus scale="   24.070">  1  9  2 -1</clus>
<clus scale="   90.735">  5  6 -1 -1</clus>
<clus scale="   91.066">  7  8 -1 -1</clus>
<clus scale="  165.355">  1  5  2 -1</clus>
<clus scale="   24.070">  1  5  2 -1</clus>
</clustering>
</event>
<event>
 9    1  0.1782981E-005  0.1829751E+03  0.7546771E-02  0.1165147E+00
          1   -1    0    0  502    0  0.00000000000E+00  0.00000000000E+00  0.84330923756E+03  0.84330923756E+03  0.00000000000E+00 0. -1.
         -1   -1    0    0    0  501 -0.00000000000E+00 -0.00000000000E+00 -0.86641108519E+02  0.86641108519E+02  0.00000000000E+00 0.  1.
         23    2    1    2    0    0 -0.13604511461E+03 -0.53877538755E+02  0.14228722729E+03  0.22378206797E+03  0.91769801681E+02 0.  0.
         23    2    1    2    0    0  0.20510407207E+03 -0.43910699268E+02  0.41234243998E+03  0.47132531114E+03  0.90141173880E+02 0.  0.
        -11    1    3    3    0    0 -0.12788453068E+03 -0.74520149450E+02  0.13523946782E+03  0.20049294132E+03  0.00000000000E+00 0.  1.
         11    1    3    3    0    0 -0.81605839290E+01  0.20642610696E+02  0.70477594684E+01  0.23289126646E+02  0.00000000000E+00 0. -1.
        -13    1    4    4    0    0  0.11870756995E+03 -0.51563156504E+02  0.16817372700E+03  0.21220897419E+03  0.00000000000E+00 0.  1.
         13    1    4    4    0    0  0.86396502113E+02  0.76524572359E+01  0.24416871298E+03  0.25911633696E+03  0.00000000000E+00 0. -1.
         21    1    1    2  502  501 -0.69058957454E+02  0.97788238023E+02  0.20203846177E+03  0.23484296697E+03  0.00000000000E+00 0. -1.
<scales pt_clust_5="13000.00000" pt_clust_6="13000.00000" pt_clust_7="13000.00000" pt_clust_8="13000.00000" pt_clust_9="119.71499"></scales>
<clustering>
<clus scale="   90.141">  7  8 -1 -1</clus>
<clus scale="   91.770">  5  6 -1 -1</clus>
<clus scale="  119.715">  1  9  2 -1</clus>
<clus scale="  182.164">  1  7  2 -1</clus>
<clus scale="  119.715">  1  5  2 -1</clus>
</clustering>
</event>
<event>
 9    1  0.1782981E-005  0.1439990E+03  0.7546771E-02  0.1209032E+00
          1   -1    0    0  502    0  0.00000000000E+00  0.00000000000E+00  0.70391160706E+03  0.70391160706E+03  0.00000000000E+00 0. -1.
         -1   -1    0    0    0  501 -0.00000000000E+00 -0.00000000000E+00 -0.94396592078E+02  0.94396592078E+02  0.00000000000E+00 0.  1.
         23    2    1    2    0    0  0.99599628653E+01  0.12980065149E+03  0.61319724466E+02  0.17203202055E+03  0.94273524911E+02 0.  0.
         23    2    1    2    0    0 -0.67898466314E+02 -0.72129385730E+02  0.90531942816E+02  0.16136910733E+03  0.89616438879E+02 0.  0.
        -11    1    3    3    0    0 -0.26428081408E+02  0.11634137392E+03  0.32353909331E+02  0.12361445798E+03  0.00000000000E+00 0. -1.
         11    1    3    3    0    0  0.36388044273E+02  0.13459277564E+02  0.28965815135E+02  0.48417562568E+02  0.00000000000E+00 0.  1.
        -13    1    4    4    0    0  0.16335071193E+02 -0.15306971377E+02 -0.38202865183E+01  0.22709744885E+02  0.00000000000E+00 0.  1.
         13    1    4    4    0    0 -0.84233537507E+02 -0.56822414352E+02  0.94352229334E+02  0.13865936245E+03  0.00000000000E+00 0. -1.
         21    1    1    2  502  501  0.57938503448E+02 -0.57671265757E+02  0.45766334770E+03  0.46490707126E+03  0.00000000000E+00 0.  1.
<scales pt_clust_5="13000.00000" pt_clust_6="13000.00000" pt_clust_7="13000.00000" pt_clust_8="13000.00000" pt_clust_9="81.74867"></scales>
<clustering>
<clus scale="   81.749">  1  9  2 -1</clus>
<clus scale="   89.616">  7  8 -1 -1</clus>
<clus scale="   94.274">  5  6 -1 -1</clus>
<clus scale="  140.994">  1  7  2 -1</clus>
<clus scale="   81.749">  1  5  2 -1</clus>
</clustering>
</event>
<event>
 9    1  0.1782981E-005  0.1154937E+03  0.7546771E-02  0.1251113E+00
         -1   -1    0    0    0  501 -0.00000000000E+00  0.00000000000E+00  0.35203663070E+02  0.35203663070E+02  0.00000000000E+00 0.  1.
          1   -1    0    0  502    0  0.00000000000E+00 -0.00000000000E+00 -0.59369784436E+03  0.59369784436E+03  0.00000000000E+00 0. -1.
         23    2    1    2    0    0  0.75687083257E+02 -0.14650547597E+02 -0.11968913758E+03  0.16936291304E+03  0.91734036977E+02 0.  0.
         23    2    1    2    0    0 -0.55200564089E+02 -0.74319767688E+01 -0.34106784765E+03  0.35726496708E+03  0.90601564286E+02 0.  0.
        -11    1    4    4    0    0 -0.39170042229E+02 -0.48170929949E+02 -0.18293096733E+03  0.19317988899E+03  0.00000000000E+00 0.  1.
         11    1    4    4    0    0 -0.16030521860E+02  0.40738953180E+02 -0.15813688031E+03  0.16408507809E+03  0.00000000000E+00 0. -1.
        -13    1    3    3    0    0  0.85177608729E+02 -0.37306713946E+02 -0.79893496312E+02  0.12259684616E+03  0.00000000000E+00 0.  1.
         13    1    3    3    0    0 -0.94905254722E+01  0.22656166349E+02 -0.39795641272E+02  0.46766066882E+02  0.00000000000E+00 0. -1.
         21    1    1    2  502  501 -0.20486519168E+02  0.22082524366E+02 -0.97737196055E+02  0.10227362731E+03  0.00000000000E+00 0. -1.
<scales pt_clust_5="13000.00000" pt_clust_6="13000.00000" pt_clust_7="13000.00000" pt_clust_8="13000.00000" pt_clust_9="30.12201"></scales>
<clustering>
<clus scale="   30.122">  2  9  1 -1</clus>
<clus scale="   90.602">  5  6 -1 -1</clus>
<clus scale="   91.734">  7  8 -1 -1</clus>
<clus scale="  114.596">  2  5  1 -1</clus>
<clus scale="   30.122">  2  5  1 -1</clus>
</clustering>
</event>
<event>
 9    1  0.1782981E-005  0.1536550E+03  0.7546771E-02  0.1197785E+00
          2   -1    0    0  502    0  0.00000000000E+00  0.00000000000E+00  0.24353739268E+03  0.24353739268E+03  0.00000000000E+00 0. -1.
         -2   -1    0    0    0  501 -0.00000000000E+00 -0.00000000000E+00 -0.22239998595E+03  0.22239998595E+03  0.00000000000E+00 0.  1.
         23    2    1    2    0    0  0.11519719066E+03  0.38053233539E+02 -0.13068224292E+03  0.19508156127E+03  0.79123483320E+02 0.  0.
         23    2    1    2    0    0 -0.12542200473E+03 -0.61474345048E+02  0.61256500464E+02  0.17675598060E+03  0.89333887522E+02 0.  0.
        -11    1    3    3    0    0  0.66033691549E+02  0.19991626972E+02 -0.12450371080E+03  0.14234214967E+03  0.00000000000E+00 0.  1.
         11    1    3    3    0    0  0.49163499114E+02  0.18061606567E+02 -0.61785321204E+01  0.52739411601E+02  0.00000000000E+00 0. -1.
        -13    1    4    4    0    0 -0.48982451544E+02  0.19768228231E+02  0.90372682083E+01  0.53588577359E+02  0.00000000000E+00 0.  1.
         13    1    4    4    0    0 -0.76439553181E+02 -0.81242573279E+02  0.52219232255E+02  0.12316740324E+03  0.00000000000E+00 0. -1.
         21    1    1    2  502  501  0.10224814062E+02  0.23421111510E+02  0.90563149188E+02  0.94099836757E+02  0.00000000000E+00 0. -1.
<scales pt_clust_5="13000.00000" pt_clust_6="13000.00000" pt_clust_7="13000.00000" pt_clust_8="13000.00000" pt_clust_9="25.55573"></scales>
<clustering>
<clus scale="   25.556">  1  9  2 -1</clus>
<clus scale="   79.123">  5  6 -1 -1</clus>
<clus scale="   89.334">  7  8 -1 -1</clus>
<clus scale="  147.952">  2  5  1 -1</clus>
<clus scale="   25.556">  1  5  2 -1</clus>
</clustering>
</event>
<event>
 9    1  0.1782981E-005  0.9631662E+02  0.7546771E-02  0.1289359E+00
         -2   -1    0    0    0  501 -0.00000000000E+00  0.00000000000E+00  0.24757900417E+02  0.24757900417E+02  0.00000000000E+00 0.  1.
          2   -1    0    0  502    0  0.00000000000E+00 -0.00000000000E+00 -0.67033541120E+03  0.67033541120E+03  0.00000000000E+00 0. -1.
         23    2    1    2    0    0 -0.71293724012E+01  0.39100105782E+02 -0.20409063722E+03  0.22732153492E+03  0.91882783010E+02 0.  0.
         23    2    1    2    0    0 -0.38411370710E+02 -0.92225593633E+01 -0.24583394549E+03  0.26467895229E+03  0.89778226917E+02 0.  0.
        -13    1    3    3    0    0  0.26677235213E+02  0.45195950956E+02 -0.62447218700E+02  0.81572078463E+02  0.00000000000E+00 0.  1.
         13    1    3    3    0    0 -0.33806607615E+02 -0.60958451739E+01 -0.14164341852E+03  0.14574945645E+03  0.00000000000E+00 0. -1.
        -13    1    4    4    0    0 -0.67278645728E+02 -0.15913988027E+01 -0.15260003804E+03  0.16678045548E+03  0.00000000000E+00 0. -1.
         13    1    4    4    0    0  0.28867275018E+02 -0.76311605606E+01 -0.93233907454E+02  0.97898496810E+02  0.00000000000E+00 0.  1.
         21    1    1    2  502  501  0.45540743112E+02 -0.29877546419E+02 -0.19565292807E+03  0.20309282441E+03  0.00000000000E+00 0. -1.
<scales pt_clust_5="13000.00000" pt_clust_6="13000.00000" pt_clust_7="13000.00000" pt_clust_8="13000.00000" pt_clust_9="54.46675"></scales>
<clustering>
<clus scale="   54.467">  2  9  1 -1</clus>
<clus scale="   89.778">  7  8 -1 -1</clus>
<clus scale="   91.883">  5  6 -1 -1</clus>
<clus scale="   94.311">  2  7  1 -1</clus>
<clus scale="   54.467">  2  5  1 -1</clus>
</clustering>
</event>
<event>
 9    1  0.1782981E-005  0.1298553E+03  0.7546771E-02  0.1240989E+00
          2   -1    0    0  502    0  0.00000000000E+00  0.00000000000E+00  0.88006043220E+03  0.88006043220E+03  0.00000000000E+00 0. -1.
         -2   -1    0    0    0  501 -0.00000000000E+00 -0.00000000000E+00 -0.21571750780E+02  0.21571750780E+02  0.00000000000E+00 0.  1.
         23    2    1    2    0    0 -0.36052109518E+02 -0.68239088739E+01  0.18982903134E+03  0.21513676244E+03  0.94352769338E+02 0.  0.
         23    2    1    2    0    0  0.99426352018E+01  0.62034949128E+01  0.50307517058E+03  0.51886395150E+03  0.12648254252E+03 0.  0.
        -11    1    4    4    0    0 -0.13183904867E+02  0.60805849340E+02  0.33261476033E+03  0.33838402068E+03  0.00000000000E+00 0.  1.
         11    1    4    4    0    0  0.23126540069E+02 -0.54602354428E+02  0.17046041025E+03  0.18047993082E+03  0.00000000000E+00 0. -1.
        -11    1    3    3    0    0 -0.77248788712E+01  0.38120528070E+02  0.12717925630E+03  0.13299402861E+03  0.00000000000E+00 0.  1.
         11    1    3    3    0    0 -0.28327230647E+02 -0.44944436944E+02  0.62649775043E+02  0.82142733831E+02  0.00000000000E+00 0. -1.
         21    1    1    2  502  501  0.26109474316E+02  0.62041396114E+00  0.16558447950E+03  0.16763146904E+03  0.00000000000E+00 0.  1.
<scales pt_clust_5="13000.00000" pt_clust_6="13000.00000" pt_clust_7="13000.00000" pt_clust_8="13000.00000" pt_clust_9="26.11684"></scales>
<clustering>
<clus scale="   26.117">  1  9  2 -1</clus>
<clus scale="   94.353">  7  8 -1 -1</clus>
<clus scale="   98.828">  2  7  1 -1</clus>
<clus scale="  126.483">  5  6 -1 -1</clus>
<clus scale="   26.117">  1  5  2 -1</clus>
</clustering>
</event>
<event>
 9    1  0.1782981E-005  0.1159229E+03  0.7546771E-02  0.1253224E+00
          2   -1    0    0  502    0  0.00000000000E+00  0.00000000000E+00  0.17975327982E+03  0.17975327982E+03  0.00000000000E+00 0. -1.
         -2   -1    0    0    0  501 -0.00000000000E+00 -0.00000000000E+00 -0.14694313174E+03  0.14694313174E+03  0.00000000000E+00 0.  1.
         23    2    1    2    0    0 -0.67397559795E+01  0.19562241473E+02 -0.63456672996E+02  0.13011591702E+03  0.11169286867E+03 0.  0.
         23    2    1    2    0    0  0.18817547810E+02 -0.64033848577E+02  0.81751925297E+02  0.14826611683E+03  0.10413947493E+03 0.  0.
        -11    1    3    3    0    0 -0.41461091225E+02 -0.29177333187E+02 -0.14311642566E+02  0.52679806097E+02  0.00000000000E+00 0. -1.
         11    1    3    3    0    0  0.34721335245E+02  0.48739574660E+02 -0.49145030430E+02  0.77436110925E+02  0.00000000000E+00 0.  1.
        -11    1    4    4    0    0 -0.11800779016E+01 -0.38150733731E+02 -0.18785882800E+02  0.42541514555E+02  0.00000000000E+00 0.  1.
         11    1    4    4    0    0  0.19997625711E+02 -0.25883114846E+02  0.10053780810E+03  0.10572460227E+03  0.00000000000E+00 0. -1.
         21    1    1    2  502  501 -0.12077791830E+02  0.44471607105E+02  0.14514895775E+02  0.48314377708E+02  0.00000000000E+00 0.  1.
<scales pt_clust_5="13000.00000" pt_clust_6="13000.00000" pt_clust_7="13000.00000" pt_clust_8="13000.00000" pt_clust_9="46.08250"></scales>
<clustering>
<clus scale="   46.083">  1  9  2 -1</clus>
<clus scale="  104.139">  7  8 -1 -1</clus>
<clus scale="  108.664">  1  7  2 -1</clus>
<clus scale="  111.693">  5  6 -1 -1</clus>
<clus scale="   46.083">  1  5  2 -1</clus>
</clustering>
</event>
<event>
 9    1  0.2288286E-005  0.1028598E+03  0.7546771E-02  0.1276393E+00
         -2   -1    0    0    0  501 -0.00000000000E+00  0.00000000000E+00  0.71745609002E+02  0.71745609002E+02  0.00000000000E+00 0.  1.
          2   -1    0    0  502    0  0.00000000000E+00 -0.00000000000E+00 -0.70960004804E+03  0.70960004804E+03  0.00000000000E+00 0. -1.
         23    2    1    2    0    0 -0.49565886096E+01  0.47862653219E+01  0.19447054060E+02  0.10431354466E+03  0.10225288056E+03 0.  0.
         23    2    1    2    0    0  0.44403819853E+02 -0.33348303182E+02 -0.43165246708E+03  0.44618723589E+03  0.98363553157E+02 0.  0.
        -11    1    3    3    0    0  0.17533921743E+02  0.36587961815E+02  0.42738862977E+02  0.58929854659E+02  0.00000000000E+00 0.  1.
         11    1    3    3    0    0 -0.22490510353E+02 -0.31801696493E+02 -0.23291808917E+02  0.45383690004E+02  0.00000000000E+00 0. -1.
        -13    1    4    4    0    0  0.42180022270E+02 -0.66937270837E+02 -0.31392507335E+03  0.32374172450E+03  0.00000000000E+00 0. -1.
         13    1    4    4    0    0  0.22237975835E+01  0.33588967656E+02 -0.11772739374E+03  0.12244551139E+03  0.00000000000E+00 0.  1.
         21    1    1    2  502  501 -0.39447231244E+02  0.28562037860E+02 -0.22564902602E+03  0.23084487649E+03  0.00000000000E+00 0.  1.
<scales pt_clust_5="13000.00000" pt_clust_6="13000.00000" pt_clust_7="13000.00000" pt_clust_8="13000.00000" pt_clust_9="48.70189"></scales>
<clustering>
<clus scale="   48.702">  2  9  1 -1</clus>
<clus scale="   98.364">  7  8 -1 -1</clus>
<clus scale="   98.994">  2  7  1 -1</clus>
<clus scale="  102.253">  5  6 -1 -1</clus>
<clus scale="   48.702">  2  5  1 -1</clus>
</clustering>
</event>
<event>
 9    1  0.1782981E-005  0.1469025E+03  0.7546771E-02  0.1206680E+00
          1   -1    0    0  502    0  0.00000000000E+00  0.00000000000E+00  0.24225815767E+03  0.24225815767E+03  0.00000000000E+00 0. -1.
         -1   -1    0    0    0  501 -0.00000000000E+00 -0.00000000000E+00 -0.27662770190E+03  0.27662770190E+03  0.00000000000E+00 0.  1.
         23    2    1    2    0    0 -0.80447458604E+02  0.60854424206E+02 -0.20270412750E+03  0.24837184725E+03  0.10210071822E+03 0.  0.
         23    2    1    2    0    0  0.10521551552E+03 -0.95637487639E+02  0.13227426904E+03  0.21462426006E+03  0.91379740680E+02 0.  0.
        -11    1    4    4    0    0  0.10705682344E+03 -0.59407860803E+02  0.66050384092E+02  0.13911545783E+03  0.00000000000E+00 0.  1.
         11    1    4    4    0    0 -0.18413079155E+01 -0.36229626836E+02  0.66223884949E+02  0.75508802224E+02  0.00000000000E+00 0. -1.
        -13    1    3    3    0    0 -0.10336892951E+02  0.59109400749E+02 -0.14710923374E+03  0.15887699413E+03  0.00000000000E+00 0.  1.
         13    1    3    3    0    0 -0.70110565653E+02  0.17450234571E+01 -0.55594893766E+02  0.89494853125E+02  0.00000000000E+00 0. -1.
         21    1    1    2  502  501 -0.24768056919E+02  0.34783063433E+02  0.36060314230E+02  0.55889752260E+02  0.00000000000E+00 0. -1.
<scales pt_clust_5="13000.00000" pt_clust_6="13000.00000" pt_clust_7="13000.00000" pt_clust_8="13000.00000" pt_clust_9="42.70033"></scales>
<clustering>
<clus scale="   42.700">  1  9  2 -1</clus>
<clus scale="   91.380">  5  6 -1 -1</clus>
<clus scale="  102.101">  7  8 -1 -1</clus>
<clus scale="  139.664">  1  5  2 -1</clus>
<clus scale="   42.700">  1  5  2 -1</clus>
</clustering>
</event>
<event>
 9    1  0.1782981E-005  0.1942256E+03  0.7546771E-02  0.1155030E+00
         -1   -1    0    0    0  501 -0.00000000000E+00  0.00000000000E+00  0.24008007482E+03  0.24008007482E+03  0.00000000000E+00 0.  1.
          1   -1    0    0  502    0  0.00000000000E+00 -0.00000000000E+00 -0.28858280618E+03  0.28858280618E+03  0.00000000000E+00 0. -1.
         23    2    1    2    0    0 -0.12481525476E+03  0.11355554952E+03  0.12641128092E+03  0.23095598708E+03  0.94271657344E+02 0.  0.
         23    2    1    2    0    0  0.10048431060E+03 -0.14648621667E+03 -0.15047259722E+03  0.25002244726E+03  0.91180662801E+02 0.  0.
        -11    1    4    4    0    0 -0.28927276076E+01 -0.47402525230E+02 -0.73347265143E+02  0.87379566119E+02  0.00000000000E+00 0.  1.
         11    1    4    4    0    0  0.10337703821E+03 -0.99083691436E+02 -0.77125332074E+02  0.16264288114E+03  0.00000000000E+00 0. -1.
        -11    1    3    3    0    0 -0.90562233349E+02  0.10109616515E+03  0.13715214463E+03  0.19295767280E+03  0.00000000000E+00 0.  1.
         11    1    3    3    0    0 -0.34253021415E+02  0.12459384370E+02 -0.10740863712E+02  0.37998314281E+02  0.00000000000E+00 0. -1.
         21    1    1    2  502  501  0.24330944165E+02  0.32930667148E+02 -0.24441415065E+02  0.47684446659E+02  0.00000000000E+00 0.  1.
<scales pt_clust_5="13000.00000" pt_clust_6="13000.00000" pt_clust_7="13000.00000" pt_clust_8="13000.00000" pt_clust_9="40.94415"></scales>
<clustering>
<clus scale="   40.944">  2  9  1 -1</clus>
<clus scale="   91.181">  5  6 -1 -1</clus>
<clus scale="   94.272">  7  8 -1 -1</clus>
<clus scale="  192.744">  2  5  1 -1</clus>
<clus scale="   40.944">  2  5  1 -1</clus>
</clustering>
</event>
<event>
 9    1  0.1782981E-005  0.1053322E+03  0.7546771E-02  0.1286589E+00
         -3   -1    0    0    0  501 -0.00000000000E+00  0.00000000000E+00  0.21185593216E+03  0.21185593216E+03  0.00000000000E+00 0.  1.
          3   -1    0    0  502    0  0.00000000000E+00 -0.00000000000E+00 -0.85418925460E+02  0.85418925460E+02  0.00000000000E+00 0. -1.
         23    2    1    2    0    0  0.23804982268E+02 -0.39279353753E+02  0.12689546108E+03  0.14883864675E+03  0.62776905883E+02 0.  0.
         23    2    1    2    0    0 -0.44427842783E+02  0.26995279964E+01  0.45335937302E+01  0.10614783691E+03  0.96258449717E+02 0.  0.
        -11    1    3    3    0    0 -0.35332773372E+01 -0.39887025244E+02  0.35750709000E+02  0.53680275945E+02  0.00000000000E+00 0. -1.
         11    1    3    3    0    0  0.27338259605E+02  0.60767149148E+00  0.91144752080E+02  0.95158370806E+02  0.00000000000E+00 0.  1.
        -13    1    4    4    0    0 -0.13072693142E+02  0.15974798986E+02 -0.42987899885E+02  0.47686990314E+02  0.00000000000E+00 0. -1.
         13    1    4    4    0    0 -0.31355149641E+02 -0.13275270989E+02  0.47521493616E+02  0.58460846592E+02  0.00000000000E+00 0.  1.
         21    1    1    2  502  501  0.20622860515E+02  0.36579825756E+02 -0.49920481094E+01  0.42288373964E+02  0.00000000000E+00 0.  1.
<scales pt_clust_5="13000.00000" pt_clust_6="13000.00000" pt_clust_7="13000.00000" pt_clust_8="13000.00000" pt_clust_9="41.99269"></scales>
<clustering>
<clus scale="   41.993">  2  9  1 -1</clus>
<clus scale="   62.777">  5  6 -1 -1</clus>
<clus scale="   75.961">  1  5  2 -1</clus>
<clus scale="   96.258">  7  8 -1 -1</clus>
<clus scale="   41.993">  2  5  1 -1</clus>
</clustering>
</event>
<event>
 9    1  0.1782981E-005  0.1170343E+03  0.7546771E-02  0.1250649E+00
         -2   -1    0    0    0  501 -0.00000000000E+00  0.00000000000E+00  0.11760927222E+03  0.11760927222E+03  0.00000000000E+00 0.  1.
          2   -1    0    0  502    0  0.00000000000E+00 -0.00000000000E+00 -0.24204853140E+03  0.24204853140E+03  0.00000000000E+00 0. -1.
         23    2    1    2    0    0  0.89307300534E+02 -0.25101360421E+02  0.15248642067E+02  0.13106198150E+03  0.91317302232E+02 0.  0.
         23    2    1    2    0    0 -0.50695174773E+02 -0.32418030074E+02 -0.47992494598E+02  0.11367226430E+03  0.83649116641E+02 0.  0.
        -11    1    3    3    0    0 -0.10454612656E+02 -0.26571459715E+02  0.12714662796E+02  0.31257063957E+02  0.00000000000E+00 0. -1.
         11    1    3    3    0    0  0.99761913191E+02  0.14700992943E+01  0.25339792712E+01  0.99804917546E+02  0.00000000000E+00 0.  1.
        -11    1    4    4    0    0 -0.57466624935E+01  0.21906697918E+02  0.75937733915E+01  0.23887087261E+02  0.00000000000E+00 0.  1.
         11    1    4    4    0    0 -0.44948512279E+02 -0.54324727992E+02 -0.55586267989E+02  0.89785177042E+02  0.00000000000E+00 0. -1.
         21    1    1    2  502  501 -0.38612125762E+02  0.57519390495E+02 -0.91695406648E+02  0.11492355781E+03  0.00000000000E+00 0. -1.
<scales pt_clust_5="13000.00000" pt_clust_6="13000.00000" pt_clust_7="13000.00000" pt_clust_8="13000.00000" pt_clust_9="69.27753"></scales>
<clustering>
<clus scale="   69.278">  2  9  1 -1</clus>
<clus scale="   83.649">  7  8 -1 -1</clus>
<clus scale="   91.317">  5  6 -1 -1</clus>
<clus scale="  111.155">  2  7  1 -1</clus>
<clus scale="   69.278">  2  5  1 -1</clus>
</clustering>
</event>
<event>
 9    1  0.1782981E-005  0.1061105E+03  0.7546771E-02  0.1271415E+00
         -2   -1    0    0    0  501 -0.00000000000E+00  0.00000000000E+00  0.92131201685E+02  0.92131201685E+02  0.00000000000E+00 0.  1.
          2   -1    0    0  502    0  0.00000000000E+00 -0.00000000000E+00 -0.15952607001E+03  0.15952607001E+03  0.00000000000E+00 0. -1.
         23    2    1    2    0    0 -0.22580990984E+02 -0.39608169919E+02 -0.21745152368E+02  0.97176613717E+02  0.83016470196E+02 0.  0.
         23    2    1    2    0    0  0.21324978787E+01  0.66963687683E+02 -0.39270238367E+02  0.11973640728E+03  0.91137108753E+02 0.  0.
        -13    1    3    3    0    0  0.98695990401E+01  0.22382001522E+02 -0.89427474029E+01  0.26044878738E+02  0.00000000000E+00 0.  1.
         13    1    3    3    0    0 -0.32450590024E+02 -0.61990171442E+02 -0.12802404965E+02  0.71131734979E+02  0.00000000000E+00 0. -1.
        -13    1    4    4    0    0  0.93169498370E+01  0.33239985071E+02  0.27799287922E+02  0.44322709425E+02  0.00000000000E+00 0.  1.
         13    1    4    4    0    0 -0.71844519583E+01  0.33723702612E+02 -0.67069526288E+02  0.75413697856E+02  0.00000000000E+00 0. -1.
         21    1    1    2  502  501  0.20448493105E+02 -0.27355517764E+02 -0.63794775945E+01  0.34744250701E+02  0.00000000000E+00 0. -1.
<scales pt_clust_5="13000.00000" pt_clust_6="13000.00000" pt_clust_7="13000.00000" pt_clust_8="13000.00000" pt_clust_9="34.15355"></scales>
<clustering>
<clus scale="   34.154">  1  9  2 -1</clus>
<clus scale="   83.016">  5  6 -1 -1</clus>
<clus scale="   91.137">  7  8 -1 -1</clus>
<clus scale="   99.223">  1  5  2 -1</clus>
<clus scale="  106.111">  2  5  1 -1</clus>
</clustering>
</event>
<event>
 9    1  0.1782981E-005  0.1582521E+03  0.7546771E-02  0.1190739E+00
          1   -1    0    0  502    0  0.00000000000E+00  0.00000000000E+00  0.18812502468E+03  0.18812502468E+03  0.00000000000E+00 0. -1.
         -1   -1    0    0    0  501 -0.00000000000E+00 -0.00000000000E+00 -0.19190267637E+03  0.19190267637E+03  0.00000000000E+00 0.  1.
         23    2    1    2    0    0  0.35025963222E+02 -0.10067222883E+03 -0.11811691278E+02  0.14177548889E+03  0.92731102889E+02 0.  0.
         23    2    1    2    0    0 -0.68021729466E+02  0.14127505002E+03 -0.10788602338E+02  0.18265004019E+03  0.93054004760E+02 0.  0.
        -13    1    3    3    0    0  0.41069164067E+02 -0.12192182615E+01  0.22646542752E+01  0.41149621982E+02  0.00000000000E+00 0.  1.
         13    1    3    3    0    0 -0.60432008448E+01 -0.99453010568E+02 -0.14076345553E+02  0.10062586691E+03  0.00000000000E+00 0. -1.
        -13    1    4    4    0    0  0.44285936415E+01  0.88302002849E+02  0.14057724715E+02  0.89523604557E+02  0.00000000000E+00 0. -1.
         13    1    4    4    0    0 -0.72450323107E+02  0.52973047171E+02 -0.24846327052E+02  0.93126435629E+02  0.00000000000E+00 0.  1.
         21    1    1    2  502  501  0.32995766244E+02 -0.40602821190E+02  0.18822641924E+02  0.55602171969E+02  0.00000000000E+00 0. -1.
<scales pt_clust_5="13000.00000" pt_clust_6="13000.00000" pt_clust_7="13000.00000" pt_clust_8="13000.00000" pt_clust_9="52.31931"></scales>
<clustering>
<clus scale="   52.319">  1  9  2 -1</clus>
<clus scale="   92.731">  5  6 -1 -1</clus>
<clus scale="   93.054">  7  8 -1 -1</clus>
<clus scale="  158.062">  2  5  1 -1</clus>
<clus scale="   52.319">  1  5  2 -1</clus>
</clustering>
</event>
<event>
 9    1  0.1782981E-005  0.1008191E+03  0.7546771E-02  0.1282733E+00
         -1   -1    0    0    0  501 -0.00000000000E+00  0.00000000000E+00  0.14359638024E+03  0.14359638024E+03  0.00000000000E+00 0.  1.
          1   -1    0    0  502    0  0.00000000000E+00 -0.00000000000E+00 -0.11281169061E+03  0.11281169061E+03  0.00000000000E+00 0. -1.
         23    2    1    2    0    0  0.61092696946E+00 -0.55089605302E+01  0.48568708761E+02  0.10466001297E+03  0.92542298258E+02 0.  0.
         23    2    1    2    0    0  0.30532926076E+02 -0.20664923034E+02  0.13024588357E+01  0.10681137571E+03  0.10023809138E+03 0.  0.
        -13    1    3    3    0    0 -0.43937852120E+02 -0.60087082988E+01  0.93856807646E+01  0.45329134425E+02  0.00000000000E+00 0. -1.
         13    1    3    3    0    0  0.44548779089E+02  0.49974776857E+00  0.39183027997E+02  0.59330878547E+02  0.00000000000E+00 0.  1.
        -13    1    4    4    0    0  0.61705476224E+02 -0.10209164936E+02  0.23856687669E+02  0.66939781829E+02  0.00000000000E+00 0.  1.
         13    1    4    4    0    0 -0.31172550149E+02 -0.10455758098E+02 -0.22554228833E+02  0.39871593879E+02  0.00000000000E+00 0. -1.
         21    1    1    2  502  501 -0.31143853045E+02  0.26173883564E+02 -0.19086477965E+02  0.44936682170E+02  0.00000000000E+00 0. -1.
<scales pt_clust_5="13000.00000" pt_clust_6="13000.00000" pt_clust_7="13000.00000" pt_clust_8="13000.00000" pt_clust_9="40.68184"></scales>
<clustering>
<clus scale="   40.682">  2  9  1 -1</clus>
<clus scale="   92.542">  5  6 -1 -1</clus>
<clus scale="   93.171">  1  5  2 -1</clus>
<clus scale="  100.238">  7  8 -1 -1</clus>
<clus scale="   40.682">  2  5  1 -1</clus>
</clustering>
</event>
<event>
 9    1  0.1782981E-005  0.1884579E+03  0.7546771E-02  0.1160275E+00
          1   -1    0    0  502    0  0.00000000000E+00  0.00000000000E+00  0.85467951841E+03  0.85467951841E+03  0.00000000000E+00 0. -1.
         -1   -1    0    0    0  501 -0.00000000000E+00 -0.00000000000E+00 -0.55932332021E+02  0.55932332021E+02  0.00000000000E+00 0.  1.
         23    2    1    2    0    0 -0.94626303365E+02 -0.14229252968E+03  0.19669353250E+03  0.27587706380E+03  0.90655983311E+02 0.  0.
         23    2    1    2    0    0  0.76873320269E+02  0.13273761176E+03  0.48672659132E+03  0.51765875909E+03  0.86827617834E+02 0.  0.
        -11    1    3    3    0    0 -0.11253427485E+03 -0.12476279031E+03  0.17659801073E+03  0.24375515227E+03  0.00000000000E+00 0.  1.
         11    1    3    3    0    0  0.17907971487E+02 -0.17529739372E+02  0.20095521770E+02  0.32121911531E+02  0.00000000000E+00 0. -1.
        -11    1    4    4    0    0  0.21084869282E+02  0.89748214656E+02  0.37015189320E+03  0.38146000811E+03  0.00000000000E+00 0. -1.
         11    1    4    4    0    0  0.55788450987E+02  0.42989397109E+02  0.11657469812E+03  0.13619875099E+03  0.00000000000E+00 0.  1.
         21    1    1    2  502  501  0.17752983096E+02  0.95549179150E+01  0.11532706256E+03  0.11707602754E+03  0.00000000000E+00 0. -1.
<scales pt_clust_5="13000.00000" pt_clust_6="13000.00000" pt_clust_7="13000.00000" pt_clust_8="13000.00000" pt_clust_9="20.16097"></scales>
<clustering>
<clus scale="   20.161">  1  9  2 -1</clus>
<clus scale="   86.828">  7  8 -1 -1</clus>
<clus scale="   90.656">  5  6 -1 -1</clus>
<clus scale="  186.646">  1  7  2 -1</clus>
<clus scale="   20.161">  1  5  2 -1</clus>
</clustering>
</event>
<event>
 9    1  0.1782981E-005  0.1072433E+03  0.7546771E-02  0.1268639E+00
          2   -1    0    0  502    0  0.00000000000E+00  0.00000000000E+00  0.53330266796E+03  0.53330266796E+03  0.00000000000E+00 0. -1.
         -2   -1    0    0    0  501 -0.00000000000E+00 -0.00000000000E+00 -0.31890307896E+02  0.31890307896E+02  0.00000000000E+00 0.  1.
         23    2    1    2    0    0  0.40077803738E+02  0.10193611478E+02  0.10718706529E+03  0.14584624151E+03  0.89843859730E+02 0.  0.
         23    2    1    2    0    0 -0.60647677462E+02 -0.87112743390E+00  0.26914274318E+03  0.29224176541E+03  0.96377038754E+02 0.  0.
        -11    1    4    4    0    0  0.20172325245E+02  0.66743558129E+01  0.16566868379E+02  0.26943104112E+02  0.00000000000E+00 0.  1.
         11    1    4    4    0    0 -0.80820002707E+02 -0.75454832468E+01  0.25257587480E+03  0.26529866130E+03  0.00000000000E+00 0. -1.
        -11    1    3    3    0    0  0.52050017777E+02  0.37168489919E+02  0.93578600264E+02  0.11334749852E+03  0.00000000000E+00 0.  1.
         11    1    3    3    0    0 -0.11972214039E+02 -0.26974878441E+02  0.13608465026E+02  0.32498742995E+02  0.00000000000E+00 0. -1.
         21    1    1    2  502  501  0.20569873724E+02 -0.93224840445E+01  0.12508255159E+03  0.12710496893E+03  0.00000000000E+00 0. -1.
<scales pt_clust_5="13000.00000" pt_clust_6="13000.00000" pt_clust_7="13000.00000" pt_clust_8="13000.00000" pt_clust_9="22.58381"></scales>
<clustering>
<clus scale="   22.584">  1  9  2 -1</clus>
<clus scale="   89.844">  7  8 -1 -1</clus>
<clus scale="   96.377">  5  6 -1 -1</clus>
<clus scale="  101.413">  2  7  1 -1</clus>
<clus scale="   22.584">  1  5  2 -1</clus>
</clustering>
</event>
<event>
 9    1  0.1782981E-005  0.9877877E+02  0.7546771E-02  0.1284065E+00
          4   -1    0    0  502    0  0.00000000000E+00  0.00000000000E+00  0.32386699400E+03  0.32386699400E+03  0.00000000000E+00 0. -1.
         -4   -1    0    0    0  501 -0.00000000000E+00 -0.00000000000E+00 -0.57086787882E+02  0.57086787882E+02  0.00000000000E+00 0.  1.
         23    2    1    2    0    0 -0.17301992928E+02  0.28159523541E+02  0.22694998362E+02  0.10141845799E+03  0.93157516845E+02 0.  0.
         23    2    1    2    0    0 -0.13217824414E+02 -0.41445365210E+02  0.20337572928E+03  0.22694982706E+03  0.90841111630E+02 0.  0.
        -13    1    3    3    0    0 -0.47968984627E+02 -0.88722860195E+00  0.32635659854E+02  0.58024968375E+02  0.00000000000E+00 0.  1.
         13    1    3    3    0    0  0.30666991699E+02  0.29046752143E+02 -0.99406614924E+01  0.43393489613E+02  0.00000000000E+00 0. -1.
        -13    1    4    4    0    0 -0.51835869540E+02 -0.24190484724E+02  0.99139926431E+02  0.11445899674E+03  0.00000000000E+00 0.  1.
         13    1    4    4    0    0  0.38618045127E+02 -0.17254880486E+02  0.10423580285E+03  0.11249083032E+03  0.00000000000E+00 0. -1.
         21    1    1    2  502  501  0.30519817342E+02  0.13285841669E+02  0.40709478470E+02  0.52585496829E+02  0.00000000000E+00 0.  1.
<scales pt_clust_5="13000.00000" pt_clust_6="13000.00000" pt_clust_7="13000.00000" pt_clust_8="13000.00000" pt_clust_9="33.28623"></scales>
<clustering>
<clus scale="   33.286">  1  9  2 -1</clus>
<clus scale="   90.841">  7  8 -1 -1</clus>
<clus scale="   93.158">  5  6 -1 -1</clus>
<clus scale="   96.597">  1  7  2 -1</clus>
<clus scale="   33.286">  1  5  2 -1</clus>
</clustering>
</event>
<event>
 9    1  0.1782981E-005  0.1117991E+03  0.7546771E-02  0.1261775E+00
          2   -1    0    0  502    0  0.00000000000E+00  0.00000000000E+00  0.40732011821E+02  0.40732011821E+02  0.00000000000E+00 0. -1.
         -2   -1    0    0    0  501 -0.00000000000E+00 -0.00000000000E+00 -0.52072181334E+03  0.52072181334E+03  0.00000000000E+00 0.  1.
         23    2    1    2    0    0 -0.62985660137E+02 -0.29341112123E+01 -0.30895445907E+03  0.32500961129E+03  0.78756506170E+02 0.  0.
         23    2    1    2    0    0  0.69704554517E+02 -0.30530558767E+02 -0.16283861165E+03  0.20134130695E+03  0.90725236290E+02 0.  0.
        -13    1    3    3    0    0  0.78294584784E+01 -0.24393426878E+02 -0.10392888701E+03  0.10703996100E+03  0.00000000000E+00 0. -1.
         13    1    3    3    0    0 -0.70815118615E+02  0.21459315666E+02 -0.20502557206E+03  0.21796965030E+03  0.00000000000E+00 0.  1.
        -13    1    4    4    0    0  0.33798718212E+02 -0.44814260928E+02 -0.15073596333E+03  0.16084776024E+03  0.00000000000E+00 0.  1.
         13    1    4    4    0    0  0.35905836305E+02  0.14283702161E+02 -0.12102648323E+02  0.40493546703E+02  0.00000000000E+00 0. -1.
         21    1    1    2  502  501 -0.67188943800E+01  0.33464669980E+02 -0.81967308021E+01  0.35102906922E+02  0.00000000000E+00 0. -1.
<scales pt_clust_5="13000.00000" pt_clust_6="13000.00000" pt_clust_7="13000.00000" pt_clust_8="13000.00000" pt_clust_9="34.13250"></scales>
<clustering>
<clus scale="   34.133">  1  9  2 -1</clus>
<clus scale="   78.757">  5  6 -1 -1</clus>
<clus scale="   90.725">  7  8 -1 -1</clus>
<clus scale="  102.326">  2  5  1 -1</clus>
<clus scale="   34.133">  1  5  2 -1</clus>
</clustering>
</event>
<event>
 9    1  0.1782981E-005  0.1690749E+03  0.7546771E-02  0.1179213E+00
         -2   -1    0    0    0  501 -0.00000000000E+00  0.00000000000E+00  0.40775224246E+03  0.40775224246E+03  0.00000000000E+00 0.  1.
          2   -1    0    0  502    0  0.00000000000E+00 -0.00000000000E+00 -0.97723865258E+02  0.97723865258E+02  0.00000000000E+00 0. -1.
         23    2    1    2    0    0 -0.12851840429E+03  0.83320507963E+02  0.22194079717E+03  0.28490713378E+03  0.91951455365E+02 0.  0.
         23    2    1    2    0    0  0.12174307871E+03 -0.38109877538E+02  0.76435753619E+02  0.17339195412E+03  0.89154951302E+02 0.  0.
        -13    1    3    3    0    0 -0.37404835800E+02  0.56919553165E+01  0.64188853413E+01  0.38376062664E+02  0.00000000000E+00 0. -1.
         13    1    3    3    0    0 -0.91113568486E+02  0.77628552646E+02  0.21552191183E+03  0.24653107112E+03  0.00000000000E+00 0.  1.
        -13    1    4    4    0    0  0.87038374359E+02 -0.66147645021E+02  0.42316988973E+02  0.11722592336E+03  0.00000000000E+00 0. -1.
         13    1    4    4    0    0  0.34704704350E+02  0.28037767484E+02  0.34118764647E+02  0.56166030753E+02  0.00000000000E+00 0.  1.
         21    1    1    2  502  501  0.67753255771E+01 -0.45210630425E+02  0.11651826411E+02  0.47177019817E+02  0.00000000000E+00 0. -1.
<scales pt_clust_5="13000.00000" pt_clust_6="13000.00000" pt_clust_7="13000.00000" pt_clust_8="13000.00000" pt_clust_9="45.71549"></scales>
<clustering>
<clus scale="   45.715">  2  9  1 -1</clus>
<clus scale="   89.155">  7  8 -1 -1</clus>
<clus scale="   91.951">  5  6 -1 -1</clus>
<clus scale="  167.570">  2  7  1 -1</clus>
<clus scale="   45.715">  2  5  1 -1</clus>
</clustering>
</event>
<event>
 9    1  0.1782981E-005  0.1015425E+03  0.7546771E-02  0.1281002E+00
          2   -1    0    0  502    0  0.00000000000E+00  0.00000000000E+00  0.55598536817E+03  0.55598536817E+03  0.00000000000E+00 0. -1.
         -2   -1    0    0    0  501 -0.00000000000E+00 -0.00000000000E+00 -0.27413144950E+02  0.27413144950E+02  0.00000000000E+00 0.  1.
         23    2    1    2    0    0  0.73177583427E+01 -0.21769413115E+02  0.10627214877E+03  0.13741930723E+03  0.84040701207E+02 0.  0.
         23    2    1    2    0    0  0.57329817391E+01  0.53091830318E+02  0.35460926549E+03  0.37025958325E+03  0.92156488057E+02 0.  0.
        -13    1    3    3    0    0  0.23033558095E+02  0.16899014832E+02  0.65428957575E+01  0.29307524387E+02  0.00000000000E+00 0.  1.
         13    1    3    3    0    0 -0.15715799753E+02 -0.38668427947E+02  0.99729253013E+02  0.10811178284E+03  0.00000000000E+00 0. -1.
        -13    1    4    4    0    0  0.41601162726E+02  0.14545292131E+02  0.87065851126E+02  0.97584244095E+02  0.00000000000E+00 0.  1.
         13    1    4    4    0    0 -0.35868180987E+02  0.38546538186E+02  0.26754341437E+03  0.27267533916E+03  0.00000000000E+00 0. -1.
         21    1    1    2  502  501 -0.13050740082E+02 -0.31322417203E+02  0.67690808957E+02  0.75719622644E+02  0.00000000000E+00 0. -1.
<scales pt_clust_5="13000.00000" pt_clust_6="13000.00000" pt_clust_7="13000.00000" pt_clust_8="13000.00000" pt_clust_9="33.93252"></scales>
<clustering>
<clus scale="   33.933">  2  9  1 -1</clus>
<clus scale="   84.041">  5  6 -1 -1</clus>
<clus scale="   92.156">  7  8 -1 -1</clus>
<clus scale="   94.239">  2  5  1 -1</clus>
<clus scale="  101.543">  1  5  2 -1</clus>
</clustering>
</event>
<event>
 9    1  0.1782981E-005  0.1139705E+03  0.7546771E-02  0.1254215E+00
         -2   -1    0    0    0  501 -0.00000000000E+00  0.00000000000E+00  0.30440491495E+03  0.30440491495E+03  0.00000000000E+00 0.  1.
          2   -1    0    0  502    0  0.00000000000E+00 -0.00000000000E+00 -0.57747283207E+02  0.57747283207E+02  0.00000000000E+00 0. -1.
         23    2    1    2    0    0  0.42400937744E+02 -0.52849195235E+02  0.17547769701E+03  0.20954961318E+03  0.92345770219E+02 0.  0.
         23    2    1    2    0    0 -0.56139420022E+02  0.36857433158E+02  0.67917142121E+02  0.13126885194E+03  0.90048145097E+02 0.  0.
        -13    1    3    3    0    0  0.17246589820E+02 -0.71901535172E+02  0.15554738999E+03  0.17222736761E+03  0.00000000000E+00 0.  1.
         13    1    3    3    0    0  0.25154347924E+02  0.19052339938E+02  0.19930307020E+02  0.37322245572E+02  0.00000000000E+00 0. -1.
        -13    1    4    4    0    0 -0.67808710609E+02  0.16105487255E+02  0.12302569644E+02  0.70772601860E+02  0.00000000000E+00 0.  1.
         13    1    4    4    0    0  0.11669290587E+02  0.20751945903E+02  0.55614572476E+02  0.60496250076E+02  0.00000000000E+00 0. -1.
         21    1    1    2  502  501  0.13738482278E+02  0.15991762077E+02  0.32627926069E+01  0.21333733035E+02  0.00000000000E+00 0. -1.
<scales pt_clust_5="13000.00000" pt_clust_6="13000.00000" pt_clust_7="13000.00000" pt_clust_8="13000.00000" pt_clust_9="21.08275"></scales>
<clustering>
<clus scale="   21.083">  2  9  1 -1</clus>
<clus scale="   90.048">  7  8 -1 -1</clus>
<clus scale="   92.346">  5  6 -1 -1</clus>
<clus scale="  112.117">  2  7  1 -1</clus>
<clus scale="   21.083">  2  5  1 -1</clus>
</clustering>
</event>
<event>
 9    1  0.1782981E-005  0.1375724E+03  0.7546771E-02  0.1228283E+00
         -1   -1    0    0    0  501 -0.00000000000E+00  0.00000000000E+00  0.40110055510E+03  0.40110055510E+03  0.00000000000E+00 0.  1.
          1   -1    0    0  502    0  0.00000000000E+00 -0.00000000000E+00 -0.34807219560E+03  0.34807219560E+03  0.00000000000E+00 0. -1.
         23    2    1    2    0    0  0.44444775865E+02 -0.30472857373E+02  0.97492604196E+02  0.14536758444E+03  0.93396967807E+02 0.  0.
         23    2    1    2    0    0  0.84180519210E+02  0.52712570203E+02 -0.29286421413E+03  0.32319580045E+03  0.93920725273E+02 0.  0.
        -11    1    4    4    0    0  0.10063052893E+03  0.30941715009E+02 -0.19507923864E+03  0.22167499279E+03  0.00000000000E+00 0. -1.
         11    1    4    4    0    0 -0.16450009717E+02  0.21770855194E+02 -0.97784975494E+02  0.10152080766E+03  0.00000000000E+00 0.  1.
        -11    1    3    3    0    0  0.66746665651E+02 -0.24461546208E+02  0.36007414207E+02  0.79687003309E+02  0.00000000000E+00 0. -1.
         11    1    3    3    0    0 -0.22301889787E+02 -0.60113111645E+01  0.61485189990E+02  0.65680581134E+02  0.00000000000E+00 0.  1.
         21    1    1    2  502  501 -0.12862529507E+03 -0.22239712831E+02  0.24839996944E+03  0.28060936581E+03  0.00000000000E+00 0.  1.
<scales pt_clust_5="13000.00000" pt_clust_6="13000.00000" pt_clust_7="13000.00000" pt_clust_8="13000.00000" pt_clust_9="100.52400"></scales>
<clustering>
<clus scale="   93.397">  7  8 -1 -1</clus>
<clus scale="   93.921">  5  6 -1 -1</clus>
<clus scale="  107.828">  1  7  2 -1</clus>
<clus scale="  100.524">  1  9  2 -1</clus>
<clus scale="  137.572">  2  5  1 -1</clus>
</clustering>
</event>
<event>
 9    1  0.1782981E-005  0.1063941E+03  0.7546771E-02  0.1268748E+00
          4   -1    0    0  502    0  0.00000000000E+00  0.00000000000E+00  0.30155104469E+02  0.30155104469E+02  0.00000000000E+00 0. -1.
         -4   -1    0    0    0  501 -0.00000000000E+00 -0.00000000000E+00 -0.70188774680E+03  0.70188774680E+03  0.00000000000E+00 0.  1.
         23    2    1    2    0    0  0.29263645149E+02 -0.23270322214E+02 -0.38349460403E+03  0.39671958158E+03  0.94448114139E+02 0.  0.
         23    2    1    2    0    0 -0.52687426188E+02  0.43872029357E+02 -0.28096899195E+03  0.30329292641E+03  0.91336219192E+02 0.  0.
        -11    1    4    4    0    0 -0.78331732276E+02  0.31226386079E+02 -0.18845520115E+03  0.20646140150E+03  0.00000000000E+00 0.  1.
         11    1    4    4    0    0  0.25644306088E+02  0.12645643278E+02 -0.92513790802E+02  0.96831524914E+02  0.00000000000E+00 0. -1.
        -13    1    3    3    0    0  0.20576809492E+02  0.35743398826E+02 -0.17987530156E+03  0.18454300247E+03  0.00000000000E+00 0.  1.
         13    1    3    3    0    0  0.86868356568E+01 -0.59013721040E+02 -0.20361930247E+03  0.21217657911E+03  0.00000000000E+00 0. -1.
         21    1    1    2  502  501  0.23423781040E+02 -0.20601707143E+02 -0.72690463470E+01  0.32030343273E+02  0.00000000000E+00 0. -1.
<scales pt_clust_5="13000.00000" pt_clust_6="13000.00000" pt_clust_7="13000.00000" pt_clust_8="13000.00000" pt_clust_9="31.19461"></scales>
<clustering>
<clus scale="   31.195">  1  9  2 -1</clus>
<clus scale="   91.336">  5  6 -1 -1</clus>
<clus scale="   94.448">  7  8 -1 -1</clus>
<clus scale="  103.642">  1  5  2 -1</clus>
<clus scale="   31.195">  1  5  2 -1</clus>
</clustering>
</event>
<event>
 9    1  0.1782981E-005  0.1576226E+03  0.7546771E-02  0.1191564E+00
          3   -1    0    0  502    0  0.00000000000E+00  0.00000000000E+00  0.16175775279E+03  0.16175775279E+03  0.00000000000E+00 0. -1.
         -3   -1    0    0    0  501 -0.00000000000E+00 -0.00000000000E+00 -0.29045679599E+03  0.29045679599E+03  0.00000000000E+00 0.  1.
         23    2    1    2    0    0  0.95783723615E+02 -0.84691992137E+02 -0.16212466401E+03  0.22539527131E+03  0.90395610554E+02 0.  0.
         23    2    1    2    0    0 -0.70927428230E+02  0.11639279680E+03 -0.15130813046E+02  0.16372804428E+03  0.89442427054E+02 0.  0.
        -11    1    3    3    0    0  0.81180093518E+02 -0.61344517749E+02 -0.56803264554E+02  0.11653312107E+03  0.00000000000E+00 0.  1.
         11    1    3    3    0    0  0.14603630097E+02 -0.23347474389E+02 -0.10532139946E+03  0.10886215025E+03  0.00000000000E+00 0. -1.
        -13    1    4    4    0    0  0.68934511399E+01  0.30480811041E+02  0.26079067060E+02  0.40702791662E+02  0.00000000000E+00 0.  1.
         13    1    4    4    0    0 -0.77820879370E+02  0.85911985758E+02 -0.41209880105E+02  0.12302525262E+03  0.00000000000E+00 0. -1.
         21    1    1    2  502  501 -0.24856295385E+02 -0.31700804662E+02  0.48556433862E+02  0.63091233193E+02  0.00000000000E+00 0. -1.
<scales pt_clust_5="13000.00000" pt_clust_6="13000.00000" pt_clust_7="13000.00000" pt_clust_8="13000.00000" pt_clust_9="40.28370"></scales>
<clustering>
<clus scale="   40.284">  1  9  2 -1</clus>
<clus scale="   89.442">  7  8 -1 -1</clus>
<clus scale="   90.396">  5  6 -1 -1</clus>
<clus scale="  157.078">  1  7  2 -1</clus>
<clus scale="   40.284">  1  5  2 -1</clus>
</clustering>
</event>
<event>
 9    1  0.1782981E-005  0.1426639E+03  0.7546771E-02  0.1211697E+00
         -1   -1    0    0    0  501 -0.00000000000E+00  0.00000000000E+00  0.14710226173E+03  0.14710226173E+03  0.00000000000E+00 0.  1.
          1   -1    0    0  502    0  0.00000000000E+00 -0.00000000000E+00 -0.20416331554E+03  0.20416331554E+03  0.00000000000E+00 0. -1.
         23    2    1    2    0    0  0.42417455932E+02  0.89387710796E+02  0.45720254692E+02  0.14562684059E+03  0.96578629114E+02 0.  0.
         23    2    1    2    0    0 -0.79617569516E+01 -0.96896604891E+02 -0.79385673301E+02  0.16331930345E+03  0.10449290952E+03 0.  0.
        -11    1    4    4    0    0 -0.51619037238E+02 -0.23789235188E+02 -0.23722129258E+02  0.61588896181E+02  0.00000000000E+00 0. -1.
         11    1    4    4    0    0  0.43657280287E+02 -0.73107369703E+02 -0.55663544043E+02  0.10173040727E+03  0.00000000000E+00 0.  1.
        -13    1    3    3    0    0 -0.28021831658E+02  0.43328595944E+02  0.41725559598E+01  0.51768721243E+02  0.00000000000E+00 0. -1.
         13    1    3    3    0    0  0.70439287589E+02  0.46059114852E+02  0.41547698733E+02  0.93858119345E+02  0.00000000000E+00 0.  1.
         21    1    1    2  502  501 -0.34455698980E+02  0.75088940956E+01 -0.23395635200E+02  0.42319433233E+02  0.00000000000E+00 0. -1.
<scales pt_clust_5="13000.00000" pt_clust_6="13000.00000" pt_clust_7="13000.00000" pt_clust_8="13000.00000" pt_clust_9="35.26441"></scales>
<clustering>
<clus scale="   35.264">  2  9  1 -1</clus>
<clus scale="   96.579">  7  8 -1 -1</clus>
<clus scale="  104.493">  5  6 -1 -1</clus>
<clus scale="  136.973">  1  7  2 -1</clus>
<clus scale="   35.264">  2  5  1 -1</clus>
</clustering>
</event>
<event>
 9    1  0.1782981E-005  0.9318952E+02  0.7546771E-02  0.1297577E+00
         -1   -1    0    0    0  501 -0.00000000000E+00  0.00000000000E+00  0.12828318002E+03  0.12828318002E+03  0.00000000000E+00 0.  1.
          1   -1    0    0  502    0  0.00000000000E+00 -0.00000000000E+00 -0.11059506602E+03  0.11059506602E+03  0.00000000000E+00 0. -1.
         23    2    1    2    0    0 -0.52250137420E+01  0.12794132727E+02  0.68711376620E+02  0.11618589673E+03  0.92665628588E+02 0.  0.
         23    2    1    2    0    0  0.10188472995E+02  0.75533624124E+01 -0.34867102585E+02  0.96240922253E+02  0.88801700478E+02 0.  0.
        -11    1    3    3    0    0 -0.31790976938E+02  0.42947833280E+02  0.41425541952E+02  0.67611079892E+02  0.00000000000E+00 0. -1.
         11    1    3    3    0    0  0.26565963196E+02 -0.30153700553E+02  0.27285834668E+02  0.48574816841E+02  0.00000000000E+00 0.  1.
        -13    1    4    4    0    0  0.82877751921E+01 -0.36030098996E+02  0.47960573288E+01  0.37280791531E+02  0.00000000000E+00 0.  1.
         13    1    4    4    0    0  0.19006978028E+01  0.43583461408E+02 -0.39663159914E+02  0.58960130722E+02  0.00000000000E+00 0. -1.
         21    1    1    2  502  501 -0.49634592529E+01 -0.20347495139E+02 -0.16156160037E+02  0.26451427056E+02  0.00000000000E+00 0. -1.
<scales pt_clust_5="13000.00000" pt_clust_6="13000.00000" pt_clust_7="13000.00000" pt_clust_8="13000.00000" pt_clust_9="20.94413"></scales>
<clustering>
<clus scale="   20.944">  2  9  1 -1</clus>
<clus scale="   88.802">  7  8 -1 -1</clus>
<clus scale="   89.348">  2  7  1 -1</clus>
<clus scale="   92.666">  5  6 -1 -1</clus>
<clus scale="   20.944">  2  5  1 -1</clus>
</clustering>
</event>
<event>
 9    1  0.1782981E-005  0.1927016E+03  0.7546771E-02  0.1156407E+00
         -3   -1    0    0    0  501 -0.00000000000E+00  0.00000000000E+00  0.50919960428E+03  0.50919960428E+03  0.00000000000E+00 0.  1.
          3   -1    0    0  502    0  0.00000000000E+00 -0.00000000000E+00 -0.65185156877E+03  0.65185156877E+03  0.00000000000E+00 0. -1.
         23    2    1    2    0    0 -0.23084257535E+03  0.85469478761E+02  0.41184043679E+03  0.48809494021E+03  0.89614724715E+02 0.  0.
         23    2    1    2    0    0  0.15818356789E+03 -0.50565849071E+02 -0.56068182135E+03  0.59211129701E+03  0.93020089303E+02 0.  0.
        -13    1    3    3    0    0 -0.58210476363E+02 -0.83811520555E+01  0.14695286333E+03  0.15828407155E+03  0.00000000000E+00 0. -1.
         13    1    3    3    0    0 -0.17263209898E+03  0.93850630817E+02  0.26488757347E+03  0.32981086865E+03  0.00000000000E+00 0.  1.
        -13    1    4    4    0    0  0.11419054931E+03 -0.23638525682E+02 -0.49525210307E+03  0.50879554543E+03  0.00000000000E+00 0. -1.
         13    1    4    4    0    0  0.43993018571E+02 -0.26927323389E+02 -0.65429718274E+02  0.83315751580E+02  0.00000000000E+00 0.  1.
         21    1    1    2  502  501  0.72659007460E+02 -0.34903629690E+02  0.61894200596E+01  0.80844935841E+02  0.00000000000E+00 0. -1.
<scales pt_clust_5="13000.00000" pt_clust_6="13000.00000" pt_clust_7="13000.00000" pt_clust_8="13000.00000" pt_clust_9="80.60766"></scales>
<clustering>
<clus scale="   80.608">  1  9  2 -1</clus>
<clus scale="   89.615">  5  6 -1 -1</clus>
<clus scale="   93.020">  7  8 -1 -1</clus>
<clus scale="  191.081">  1  5  2 -1</clus>
<clus scale="  192.702">  2  5  1 -1</clus>
</clustering>
</event>
<event>
 9    1  0.1782981E-005  0.1094001E+03  0.7546771E-02  0.1261766E+00
          1   -1    0    0  502    0  0.00000000000E+00  0.00000000000E+00  0.92068786645E+02  0.92068786645E+02  0.00000000000E+00 0. -1.
         -1   -1    0    0    0  501 -0.00000000000E+00 -0.00000000000E+00 -0.33759990513E+03  0.33759990513E+03  0.00000000000E+00 0.  1.
         23    2    1    2    0    0  0.38180781842E+02 -0.29750761100E+02 -0.16199823236E+03  0.19210548628E+03  0.91204225138E+02 0.  0.
         23    2    1    2    0    0 -0.22547428464E+02  0.98328048598E+02 -0.95703906223E+02  0.16618127622E+03  0.90995534106E+02 0.  0.
        -11    1    3    3    0    0 -0.17620295848E+02  0.21043697348E+02 -0.36481867107E+02  0.45653462645E+02  0.00000000000E+00 0.  1.
         11    1    3    3    0    0  0.55801077690E+02 -0.50794458448E+02 -0.12551636525E+03  0.14645202363E+03  0.00000000000E+00 0. -1.
        -13    1    4    4    0    0 -0.93394366382E+01  0.44967038790E+02 -0.10100377038E+03  0.11095504173E+03  0.00000000000E+00 0.  1.
         13    1    4    4    0    0 -0.13207991825E+02  0.53361009807E+02  0.52998641547E+01  0.55226234489E+02  0.00000000000E+00 0. -1.
         21    1    1    2  502  501 -0.15633353378E+02 -0.68577287497E+02  0.12171020091E+02  0.71381929285E+02  0.00000000000E+00 0. -1.
<scales pt_clust_5="13000.00000" pt_clust_6="13000.00000" pt_clust_7="13000.00000" pt_clust_8="13000.00000" pt_clust_9="70.33666"></scales>
<clustering>
<clus scale="   70.337">  1  9  2 -1</clus>
<clus scale="   90.996">  7  8 -1 -1</clus>
<clus scale="   91.204">  5  6 -1 -1</clus>
<clus scale="  109.226">  1  7  2 -1</clus>
<clus scale="   70.337">  1  5  2 -1</clus>
</clustering>
</event>
<event>
 9    1  0.1782981E-005  0.1284353E+03  0.7546771E-02  0.1238289E+00
         -1   -1    0    0    0  501 -0.00000000000E+00  0.00000000000E+00  0.46129382088E+03  0.46129382088E+03  0.00000000000E+00 0.  1.
          1   -1    0    0  502    0  0.00000000000E+00 -0.00000000000E+00 -0.47281145249E+02  0.47281145249E+02  0.00000000000E+00 0. -1.
         23    2    1    2    0    0  0.63910645677E+02  0.32199730923E+02  0.26814677342E+03  0.28797604358E+03  0.76851260728E+02 0.  0.
         23    2    1    2    0    0 -0.68171691788E+02 -0.58647490093E+02  0.13194866895E+03  0.19041068212E+03  0.10372496792E+03 0.  0.
        -11    1    3    3    0    0 -0.17287234795E+02  0.12756897715E+02  0.57893047977E+02  0.61751048009E+02  0.00000000000E+00 0.  1.
         11    1    3    3    0    0  0.81197880472E+02  0.19442833208E+02  0.21025372545E+03  0.22622499557E+03  0.00000000000E+00 0. -1.
        -13    1    4    4    0    0 -0.21130208515E+02  0.29142266692E+02  0.48959371368E+02  0.60768227426E+02  0.00000000000E+00 0.  1.
         13    1    4    4    0    0 -0.47041483273E+02 -0.87789756785E+02  0.82989297580E+02  0.12964245469E+03  0.00000000000E+00 0. -1.
         21    1    1    2  502  501  0.42610461112E+01  0.26447759170E+02  0.13917233262E+02  0.30188240438E+02  0.00000000000E+00 0. -1.
<scales pt_clust_5="13000.00000" pt_clust_6="13000.00000" pt_clust_7="13000.00000" pt_clust_8="13000.00000" pt_clust_9="26.78881"></scales>
<clustering>
<clus scale="   26.789">  2  9  1 -1</clus>
<clus scale="   76.851">  5  6 -1 -1</clus>
<clus scale="  103.725">  7  8 -1 -1</clus>
<clus scale="  107.902">  1  5  2 -1</clus>
<clus scale="   26.789">  2  5  1 -1</clus>
</clustering>
</event>
<event>
 9    1  0.1782981E-005  0.9682418E+02  0.7546771E-02  0.1287907E+00
          1   -1    0    0  502    0  0.00000000000E+00  0.00000000000E+00  0.22125836303E+03  0.22125836303E+03  0.00000000000E+00 0. -1.
         -1   -1    0    0    0  501 -0.00000000000E+00 -0.00000000000E+00 -0.67539954074E+02  0.67539954074E+02  0.00000000000E+00 0.  1.
         23    2    1    2    0    0  0.43367422760E+02 -0.16351499278E+02  0.52980139084E+02  0.11642680043E+03  0.92737262396E+02 0.  0.
         23    2    1    2    0    0 -0.12233307180E+02 -0.16876753877E+02  0.59307702157E+02  0.11080901264E+03  0.91251055456E+02 0.  0.
        -13    1    4    4    0    0 -0.27040678738E+02 -0.22752703384E+01 -0.16797036661E+02  0.31914191237E+02  0.00000000000E+00 0.  1.
         13    1    4    4    0    0  0.14807371558E+02 -0.14601483539E+02  0.76104738819E+02  0.78894821406E+02  0.00000000000E+00 0. -1.
        -13    1    3    3    0    0  0.57917504106E+02  0.15939540967E+02  0.10270842276E+02  0.60942566808E+02  0.00000000000E+00 0. -1.
         13    1    3    3    0    0 -0.14550081347E+02 -0.32291040245E+02  0.42709296808E+02  0.55484233627E+02  0.00000000000E+00 0.  1.
         21    1    1    2  502  501 -0.31134115580E+02  0.33228253155E+02  0.41430567711E+02  0.61562504022E+02  0.00000000000E+00 0.  1.
<scales pt_clust_5="13000.00000" pt_clust_6="13000.00000" pt_clust_7="13000.00000" pt_clust_8="13000.00000" pt_clust_9="45.53515"></scales>
<clustering>
<clus scale="   45.535">  1  9  2 -1</clus>
<clus scale="   91.251">  5  6 -1 -1</clus>
<clus scale="   92.737">  7  8 -1 -1</clus>
<clus scale="   95.402">  1  5  2 -1</clus>
<clus scale="   45.535">  1  5  2 -1</clus>
</clustering>
</event>
<event>
 9    1  0.1782981E-005  0.1131134E+03  0.7546771E-02  0.1255327E+00
         -3   -1    0    0    0  501 -0.00000000000E+00  0.00000000000E+00  0.36254110305E+03  0.36254110305E+03  0.00000000000E+00 0.  1.
          3   -1    0    0  502    0  0.00000000000E+00 -0.00000000000E+00 -0.65648082702E+02  0.65648082702E+02  0.00000000000E+00 0. -1.
         23    2    1    2    0    0 -0.66961486988E+02 -0.36714975793E+02  0.21890467986E+03  0.24941002565E+03  0.91947114385E+02 0.  0.
         23    2    1    2    0    0  0.49749061803E+02 -0.38033862748E+01  0.83207212003E+02  0.13444811156E+03  0.93077492845E+02 0.  0.
        -11    1    4    4    0    0  0.20842951305E+02  0.15959430841E+02 -0.14965512052E+02  0.30217521455E+02  0.00000000000E+00 0. -1.
         11    1    4    4    0    0  0.28906110498E+02 -0.19762817116E+02  0.98172724055E+02  0.10423059010E+03  0.00000000000E+00 0.  1.
        -13    1    3    3    0    0 -0.73855185197E+02 -0.10362194098E+02  0.20635572032E+03  0.21941888423E+03  0.00000000000E+00 0.  1.
         13    1    3    3    0    0  0.68936982085E+01 -0.26352781696E+02  0.12548959531E+02  0.29991141415E+02  0.00000000000E+00 0. -1.
         21    1    1    2  502  501  0.17212425186E+02  0.40518362068E+02 -0.52188715107E+01  0.44331048547E+02  0.00000000000E+00 0.  1.
<scales pt_clust_5="13000.00000" pt_clust_6="13000.00000" pt_clust_7="13000.00000" pt_clust_8="13000.00000" pt_clust_9="44.02278"></scales>
<clustering>
<clus scale="   44.023">  2  9  1 -1</clus>
<clus scale="   91.947">  7  8 -1 -1</clus>
<clus scale="   93.077">  5  6 -1 -1</clus>
<clus scale="  112.185">  1  7  2 -1</clus>
<clus scale="   44.023">  2  5  1 -1</clus>
</clustering>
</event>
<event>
 9    1  0.1782981E-005  0.1214043E+03  0.7546771E-02  0.1243172E+00
          3   -1    0    0  502    0  0.00000000000E+00  0.00000000000E+00  0.14278867304E+03  0.14278867304E+03  0.00000000000E+00 0. -1.
         -3   -1    0    0    0  501 -0.00000000000E+00 -0.00000000000E+00 -0.13283531484E+03  0.13283531484E+03  0.00000000000E+00 0.  1.
         23    2    1    2    0    0  0.76354550424E+02  0.52173769408E+01 -0.46210217630E+02  0.13307242204E+03  0.98567981117E+02 0.  0.
         23    2    1    2    0    0 -0.59236268726E+02 -0.15756750412E+02  0.41470354103E+02  0.11765167174E+03  0.91459908579E+02 0.  0.
        -13    1    4    4    0    0  0.11475505900E+02  0.25336568917E+02  0.15503674026E+02  0.31843254677E+02  0.00000000000E+00 0.  1.
         13    1    4    4    0    0 -0.70711774626E+02 -0.41093319329E+02  0.25966680078E+02  0.85808417061E+02  0.00000000000E+00 0. -1.
        -13    1    3    3    0    0 -0.24010130350E+02  0.10426207946E+01 -0.12679280770E+02  0.27172367920E+02  0.00000000000E+00 0.  1.
         13    1    3    3    0    0  0.10036468077E+03  0.41747561462E+01 -0.33530936860E+02  0.10590005412E+03  0.00000000000E+00 0. -1.
         21    1    1    2  502  501 -0.17118281698E+02  0.10539373471E+02  0.14693221722E+02  0.24899894097E+02  0.00000000000E+00 0.  1.
<scales pt_clust_5="13000.00000" pt_clust_6="13000.00000" pt_clust_7="13000.00000" pt_clust_8="13000.00000" pt_clust_9="20.10259"></scales>
<clustering>
<clus scale="   20.103">  1  9  2 -1</clus>
<clus scale="   91.460">  5  6 -1 -1</clus>
<clus scale="   98.568">  7  8 -1 -1</clus>
<clus scale="  115.708">  1  5  2 -1</clus>
<clus scale="   20.103">  1  5  2 -1</clus>
</clustering>
</event>
<event>
 9    1  0.1782981E-005  0.1055537E+03  0.7546771E-02  0.1269807E+00
          1   -1    0    0  502    0  0.00000000000E+00  0.00000000000E+00  0.32885365834E+03  0.32885365834E+03  0.00000000000E+00 0. -1.
         -1   -1    0    0    0  501 -0.00000000000E+00 -0.00000000000E+00 -0.11891477533E+03  0.11891477533E+03  0.00000000000E+00 0.  1.
         23    2    1    2    0    0  0.49864833867E+02  0.31632522761E+02 -0.70441586693E+02  0.12858484039E+03  0.89916215947E+02 0.  0.
         23    2    1    2    0    0  0.70189862601E+01 -0.24393588811E+02  0.17682919222E+03  0.20081536180E+03  0.91727492979E+02 0.  0.
        -13    1    3    3    0    0  0.60508199770E+02  0.51363975224E+02 -0.70510026250E+02  0.10616573832E+03  0.00000000000E+00 0.  1.
         13    1    3    3    0    0 -0.10643365903E+02 -0.19731452462E+02  0.68439556961E-01  0.22419102078E+02  0.00000000000E+00 0. -1.
        -13    1    4    4    0    0  0.33540007262E+02 -0.48687277943E+02  0.10573969991E+03  0.12114564481E+03  0.00000000000E+00 0.  1.
         13    1    4    4    0    0 -0.26521021002E+02  0.24293689131E+02  0.71089492317E+02  0.79669716985E+02  0.00000000000E+00 0. -1.
         21    1    1    2  502  501 -0.56883820127E+02 -0.72389339499E+01  0.10355127748E+03  0.11836823148E+03  0.00000000000E+00 0. -1.
<scales pt_clust_5="13000.00000" pt_clust_6="13000.00000" pt_clust_7="13000.00000" pt_clust_8="13000.00000" pt_clust_9="57.34258"></scales>
<clustering>
<clus scale="   57.343">  1  9  2 -1</clus>
<clus scale="   89.916">  5  6 -1 -1</clus>
<clus scale="   91.727">  7  8 -1 -1</clus>
<clus scale="  103.984">  2  5  1 -1</clus>
<clus scale="   57.343">  1  5  2 -1</clus>
</clustering>
</event>
<event>
 9    1  0.1782981E-005  0.1124030E+03  0.7546771E-02  0.1256952E+00
          1   -1    0    0  502    0  0.00000000000E+00  0.00000000000E+00  0.27222539741E+03  0.27222539741E+03  0.00000000000E+00 0. -1.
         -1   -1    0    0    0  501 -0.00000000000E+00 -0.00000000000E+00 -0.22609988572E+03  0.22609988572E+03  0.00000000000E+00 0.  1.
         23    2    1    2    0    0 -0.14869873566E+02 -0.63744294758E+02 -0.19028590772E+03  0.22086820967E+03  0.91047191675E+02 0.  0.
         23    2    1    2    0    0 -0.29944214469E+01  0.75559762088E+02  0.22426874702E+03  0.25283629368E+03  0.88946479993E+02 0.  0.
        -11    1    4    4    0    0  0.96183872041E+01  0.92063585965E+02  0.15515866894E+03  0.18067216106E+03  0.00000000000E+00 0. -1.
         11    1    4    4    0    0 -0.12612808651E+02 -0.16503823877E+02  0.69110078084E+02  0.72164132624E+02  0.00000000000E+00 0.  1.
        -13    1    3    3    0    0  0.26347583670E+02 -0.42625922246E+02 -0.15425446474E+03  0.16219002529E+03  0.00000000000E+00 0.  1.
         13    1    3    3    0    0 -0.41217457236E+02 -0.21118372512E+02 -0.36031442982E+02  0.58678184378E+02  0.00000000000E+00 0. -1.
         21    1    1    2  502  501  0.17864295013E+02 -0.11815467330E+02  0.12142672383E+02  0.24620779784E+02  0.00000000000E+00 0. -1.
<scales pt_clust_5="13000.00000" pt_clust_6="13000.00000" pt_clust_7="13000.00000" pt_clust_8="13000.00000" pt_clust_9="21.41818"></scales>
<clustering>
<clus scale="   21.418">  1  9  2 -1</clus>
<clus scale="   88.946">  5  6 -1 -1</clus>
<clus scale="   91.047">  7  8 -1 -1</clus>
<clus scale="  110.708">  1  5  2 -1</clus>
<clus scale="   21.418">  1  5  2 -1</clus>
</clustering>
</event>
<event>
 9    1  0.1782981E-005  0.9199758E+02  0.7546771E-02  0.1298113E+00
          1   -1    0    0  502    0  0.00000000000E+00  0.00000000000E+00  0.36487485152E+02  0.36487485152E+02  0.00000000000E+00 0. -1.
         -1   -1    0    0    0  501 -0.00000000000E+00 -0.00000000000E+00 -0.30425668000E+03  0.30425668000E+03  0.00000000000E+00 0.  1.
         23    2    1    2    0    0 -0.69861305728E+01  0.13728598728E+02 -0.14070442636E+03  0.16873487410E+03  0.91850104489E+02 0.  0.
         23    2    1    2    0    0 -0.52539095531E+01  0.65171988652E+01 -0.98205302953E+02  0.13469200748E+03  0.91801840424E+02 0.  0.
        -11    1    3    3    0    0 -0.28980414087E+02  0.34298312707E+02 -0.29986668921E+02  0.53994805011E+02  0.00000000000E+00 0. -1.
         11    1    3    3    0    0  0.21994283514E+02 -0.20569713980E+02 -0.11071775744E+03  0.11474006909E+03  0.00000000000E+00 0.  1.
        -13    1    4    4    0    0  0.16012795110E+02  0.17579343493E+02  0.85568021024E+01  0.25271758687E+02  0.00000000000E+00 0.  1.
         13    1    4    4    0    0 -0.21266704663E+02 -0.11062144628E+02 -0.10676210505E+03  0.10942024880E+03  0.00000000000E+00 0. -1.
         21    1    1    2  502  501  0.12240040126E+02 -0.20245797593E+02 -0.28859465536E+02  0.37317283576E+02  0.00000000000E+00 0.  1.
<scales pt_clust_5="13000.00000" pt_clust_6="13000.00000" pt_clust_7="13000.00000" pt_clust_8="13000.00000" pt_clust_9="23.65821"></scales>
<clustering>
<clus scale="   23.658">  1  9  2 -1</clus>
<clus scale="   91.802">  7  8 -1 -1</clus>
<clus scale="   91.850">  5  6 -1 -1</clus>
<clus scale="   91.949">  1  7  2 -1</clus>
<clus scale="   23.658">  1  5  2 -1</clus>
</clustering>
</event>
<event>
 9    1  0.1782981E-005  0.1986314E+03  0.7546771E-02  0.1151643E+00
          2   -1    0    0  502    0  0.00000000000E+00  0.00000000000E+00  0.34438363023E+03  0.34438363023E+03  0.00000000000E+00 0. -1.
         -2   -1    0    0    0  501 -0.00000000000E+00 -0.00000000000E+00 -0.24846670727E+03  0.24846670727E+03  0.00000000000E+00 0.  1.
         23    2    1    2    0    0  0.17203202121E+02  0.17550396431E+03 -0.16494800567E+03  0.25868064524E+03  0.92791378858E+02 0.  0.
         23    2    1    2    0    0 -0.17145182680E+02 -0.14455114176E+03  0.23444925752E+03  0.29347733093E+03  0.99867409826E+02 0.  0.
        -11    1    4    4    0    0 -0.19751638090E+01 -0.47360208980E+02  0.10036528123E+02  0.48452270984E+02  0.00000000000E+00 0.  1.
         11    1    4    4    0    0 -0.15170018871E+02 -0.97190932784E+02  0.22441272939E+03  0.24502505995E+03  0.00000000000E+00 0. -1.
        -13    1    3    3    0    0  0.44660705713E+02  0.42867870927E+02 -0.35703166381E+02  0.71462921031E+02  0.00000000000E+00 0. -1.
         13    1    3    3    0    0 -0.27457503592E+02  0.13263609339E+03 -0.12924483929E+03  0.18721772420E+03  0.00000000000E+00 0.  1.
         21    1    1    2  502  501 -0.58019440712E-01 -0.30952822549E+02  0.26415671120E+02  0.40692361332E+02  0.00000000000E+00 0.  1.
<scales pt_clust_5="13000.00000" pt_clust_6="13000.00000" pt_clust_7="13000.00000" pt_clust_8="13000.00000" pt_clust_9="30.95288"></scales>
<clustering>
<clus scale="   30.953">  1  9  2 -1</clus>
<clus scale="   92.791">  7  8 -1 -1</clus>
<clus scale="   99.867">  5  6 -1 -1</clus>
<clus scale="  195.170">  2  7  1 -1</clus>
<clus scale="   30.953">  1  5  2 -1</clus>
</clustering>
</event>
<event>
 9    1  0.1782981E-005  0.9986462E+02  0.7546771E-02  0.1280682E+00
          1   -1    0    0  502    0  0.00000000000E+00  0.00000000000E+00  0.94834729803E+02  0.94834729803E+02  0.00000000000E+00 0. -1.
         -1   -1    0    0    0  501 -0.00000000000E+00 -0.00000000000E+00 -0.14543723261E+03  0.14543723261E+03  0.00000000000E+00 0.  1.
         23    2    1    2    0    0 -0.10871399721E+02  0.43885404186E+02 -0.48494769839E+02  0.11503767373E+03  0.94009614636E+02 0.  0.
         23    2    1    2    0    0  0.30657177488E+01 -0.17183662070E+02 -0.99499285560E+01  0.96330798666E+02  0.94212232889E+02 0.  0.
        -13    1    4    4    0    0  0.21469466520E+02  0.50168790149E+01  0.35921588552E+02  0.42148162378E+02  0.00000000000E+00 0. -1.
         13    1    4    4    0    0 -0.18403748772E+02 -0.22200541085E+02 -0.45871517108E+02  0.54182636288E+02  0.00000000000E+00 0.  1.
        -13    1    3    3    0    0 -0.18536313075E+02 -0.24783837022E+02 -0.58032641727E+00  0.30954325364E+02  0.00000000000E+00 0.  1.
         13    1    3    3    0    0  0.76649133543E+01  0.68669241209E+02 -0.47914443422E+02  0.84083348371E+02  0.00000000000E+00 0. -1.
         21    1    1    2  502  501  0.78056819722E+01 -0.26701742116E+02  0.78421955900E+01  0.28903490010E+02  0.00000000000E+00 0. -1.
<scales pt_clust_5="13000.00000" pt_clust_6="13000.00000" pt_clust_7="13000.00000" pt_clust_8="13000.00000" pt_clust_9="27.81927"></scales>
<clustering>
<clus scale="   27.819">  1  9  2 -1</clus>
<clus scale="   94.010">  7  8 -1 -1</clus>
<clus scale="   94.212">  5  6 -1 -1</clus>
<clus scale="   99.673">  2  7  1 -1</clus>
<clus scale="   27.819">  1  5  2 -1</clus>
</clustering>
</event>
<event>
 9    1  0.1782981E-005  0.1386384E+03  0.7546771E-02  0.1216950E+00
         -2   -1    0    0    0  501 -0.00000000000E+00  0.00000000000E+00  0.91250162268E+02  0.91250162268E+02  0.00000000000E+00 0.  1.
          2   -1    0    0  502    0  0.00000000000E+00 -0.00000000000E+00 -0.34849960962E+03  0.34849960962E+03  0.00000000000E+00 0. -1.
         23    2    1    2    0    0 -0.60359049610E+02  0.87373181511E+02 -0.16978442242E+01  0.13512340836E+03  0.83535412226E+02 0.  0.
         23    2    1    2    0    0  0.33846305651E+02 -0.94642310947E+02 -0.19057593860E+03  0.23407423516E+03  0.91481253641E+02 0.  0.
        -11    1    4    4    0    0  0.46298551136E+02 -0.21747638792E+02 -0.35485743596E+02  0.62255550988E+02  0.00000000000E+00 0.  1.
         11    1    4    4    0    0 -0.12452245485E+02 -0.72894672155E+02 -0.15509019500E+03  0.17181868418E+03  0.00000000000E+00 0. -1.
        -11    1    3    3    0    0  0.48412703629E+01  0.66441813350E+02  0.23500463164E+00  0.66618373496E+02  0.00000000000E+00 0.  1.
         11    1    3    3    0    0 -0.65200319973E+02  0.20931368160E+02 -0.19328488558E+01  0.68505034868E+02  0.00000000000E+00 0. -1.
         21    1    1    2  502  501  0.26512743959E+02  0.72691294365E+01 -0.64975664529E+02  0.70552128359E+02  0.00000000000E+00 0.  1.
<scales pt_clust_5="13000.00000" pt_clust_6="13000.00000" pt_clust_7="13000.00000" pt_clust_8="13000.00000" pt_clust_9="27.49120"></scales>
<clustering>
<clus scale="   27.491">  2  9  1 -1</clus>
<clus scale="   83.535">  7  8 -1 -1</clus>
<clus scale="   91.481">  5  6 -1 -1</clus>
<clus scale="  133.529">  1  7  2 -1</clus>
<clus scale="   27.491">  2  5  1 -1</clus>
</clustering>
</event>
<event>
 9    1  0.1782981E-005  0.1348424E+03  0.7546771E-02  0.1220885E+00
          1   -1    0    0  502    0  0.00000000000E+00  0.00000000000E+00  0.11949225575E+03  0.11949225575E+03  0.00000000000E+00 0. -1.
         -1   -1    0    0    0  501 -0.00000000000E+00 -0.00000000000E+00 -0.38672040622E+03  0.38672040622E+03  0.00000000000E+00 0.  1.
         23    2    1    2    0    0  0.81287620814E+02  0.55651984804E+02 -0.30110484175E+03  0.32987708819E+03  0.91923592593E+02 0.  0.
         23    2    1    2    0    0 -0.51912608729E+02 -0.76692195178E+02  0.43823229294E+02  0.13885870883E+03  0.93726484232E+02 0.  0.
        -11    1    3    3    0    0  0.42664313972E+02 -0.17743595329E+02 -0.65960406533E+02  0.80534800502E+02  0.00000000000E+00 0.  1.
         11    1    3    3    0    0  0.38623306842E+02  0.73395580132E+02 -0.23514443522E+03  0.24934228769E+03  0.00000000000E+00 0. -1.
        -11    1    4    4    0    0  0.15771419069E+02 -0.12989594479E+02  0.41069106077E+02  0.45870891622E+02  0.00000000000E+00 0. -1.
         11    1    4    4    0    0 -0.67684027798E+02 -0.63702600700E+02  0.27541232166E+01  0.92987817211E+02  0.00000000000E+00 0.  1.
         21    1    1    2  502  501 -0.29375012086E+02  0.21040210375E+02 -0.99465380145E+01  0.37476864945E+02  0.00000000000E+00 0.  1.
<scales pt_clust_5="13000.00000" pt_clust_6="13000.00000" pt_clust_7="13000.00000" pt_clust_8="13000.00000" pt_clust_9="36.13284"></scales>
<clustering>
<clus scale="   36.133">  1  9  2 -1</clus>
<clus scale="   91.924">  5  6 -1 -1</clus>
<clus scale="   93.726">  7  8 -1 -1</clus>
<clus scale="  133.596">  2  5  1 -1</clus>
<clus scale="   36.133">  1  5  2 -1</clus>
</clustering>
</event>
<event>
 9    1  0.1782981E-005  0.9270326E+02  0.7546771E-02  0.1297640E+00
          2   -1    0    0  502    0  0.00000000000E+00  0.00000000000E+00  0.18284801788E+03  0.18284801788E+03  0.00000000000E+00 0. -1.
         -2   -1    0    0    0  501 -0.00000000000E+00 -0.00000000000E+00 -0.10059792070E+03  0.10059792070E+03  0.00000000000E+00 0.  1.
         23    2    1    2    0    0 -0.44536784426E+01  0.14015500051E+01 -0.50520970875E+02  0.10530400881E+03  0.92275490669E+02 0.  0.
         23    2    1    2    0    0  0.28345754773E+02  0.16731762188E+01  0.10281933311E+03  0.13970507664E+03  0.90218688998E+02 0.  0.
        -13    1    3    3    0    0 -0.36561101824E+02 -0.45584041458E+01 -0.60779336285E+02  0.71074755956E+02  0.00000000000E+00 0.  1.
         13    1    3    3    0    0  0.32107423382E+02  0.59599541509E+01  0.10258365410E+02  0.34229252849E+02  0.00000000000E+00 0. -1.
        -13    1    4    4    0    0 -0.31548729895E+02  0.42096875143E+01  0.20456028013E+02  0.37835075116E+02  0.00000000000E+00 0.  1.
         13    1    4    4    0    0  0.59894484668E+02 -0.25365112955E+01  0.82363305102E+02  0.10187000152E+03  0.00000000000E+00 0. -1.
         21    1    1    2  502  501 -0.23892076330E+02 -0.30747262239E+01  0.29951734943E+02  0.38436853134E+02  0.00000000000E+00 0. -1.
<scales pt_clust_5="13000.00000" pt_clust_6="13000.00000" pt_clust_7="13000.00000" pt_clust_8="13000.00000" pt_clust_9="24.08911"></scales>
<clustering>
<clus scale="   24.089">  1  9  2 -1</clus>
<clus scale="   90.219">  7  8 -1 -1</clus>
<clus scale="   90.656">  1  7  2 -1</clus>
<clus scale="   92.275">  5  6 -1 -1</clus>
<clus scale="   24.089">  1  5  2 -1</clus>
</clustering>
</event>
<event>
 9    1  0.1782981E-005  0.1207146E+03  0.7546771E-02  0.1242615E+00
         -1   -1    0    0    0  501 -0.00000000000E+00  0.00000000000E+00  0.14597685799E+03  0.14597685799E+03  0.00000000000E+00 0.  1.
          1   -1    0    0  502    0  0.00000000000E+00 -0.00000000000E+00 -0.37163678236E+03  0.37163678236E+03  0.00000000000E+00 0. -1.
         23    2    1    2    0    0 -0.23133709527E+02 -0.88051116111E+02  0.82660648788E+02  0.15333481598E+03  0.91600302235E+02 0.  0.
         23    2    1    2    0    0  0.40469718915E+02  0.61734621484E+01 -0.11684967652E+03  0.15531568958E+03  0.93772100013E+02 0.  0.
        -13    1    3    3    0    0  0.22120137319E+02  0.64852866289E+01  0.23778967721E+02  0.33117951681E+02  0.00000000000E+00 0. -1.
         13    1    3    3    0    0 -0.45253846846E+02 -0.94536402740E+02  0.58881681067E+02  0.12021686430E+03  0.00000000000E+00 0.  1.
        -13    1    4    4    0    0 -0.84883536900E+01  0.39253032558E+02 -0.66504340696E+02  0.77689639237E+02  0.00000000000E+00 0.  1.
         13    1    4    4    0    0  0.48958072605E+02 -0.33079570409E+02 -0.50345335828E+02  0.77626050339E+02  0.00000000000E+00 0. -1.
         21    1    1    2  502  501 -0.17336009388E+02  0.81877653963E+02 -0.19147089664E+03  0.20896313478E+03  0.00000000000E+00 0.  1.
<scales pt_clust_5="13000.00000" pt_clust_6="13000.00000" pt_clust_7="13000.00000" pt_clust_8="13000.00000" pt_clust_9="83.69282"></scales>
<clustering>
<clus scale="   83.693">  2  9  1 -1</clus>
<clus scale="   91.600">  5  6 -1 -1</clus>
<clus scale="   93.772">  7  8 -1 -1</clus>
<clus scale="  119.035">  1  5  2 -1</clus>
<clus scale="   83.693">  2  5  1 -1</clus>
</clustering>
</event>
<event>
 9    1  0.1782981E-005  0.9609935E+02  0.7546771E-02  0.1289510E+00
         -4   -1    0    0    0  501 -0.00000000000E+00  0.00000000000E+00  0.73245996673E+02  0.73245996673E+02  0.00000000000E+00 0.  1.
          4   -1    0    0  502    0  0.00000000000E+00 -0.00000000000E+00 -0.20038072336E+03  0.20038072336E+03  0.00000000000E+00 0. -1.
         23    2    1    2    0    0 -0.68439782447E+01 -0.32529565049E+02 -0.70959021952E+01  0.97969573577E+02  0.91884018623E+02 0.  0.
         23    2    1    2    0    0 -0.20402152293E+02  0.22207198071E+02 -0.10826028798E+03  0.14423045698E+03  0.90403137674E+02 0.  0.
        -11    1    3    3    0    0 -0.22065077489E+02 -0.56705945170E+02  0.14022650938E+02  0.62442506369E+02  0.00000000000E+00 0.  1.
         11    1    3    3    0    0  0.15221099245E+02  0.24176380121E+02 -0.21118553133E+02  0.35527067208E+02  0.00000000000E+00 0. -1.
        -13    1    4    4    0    0 -0.17686027460E+02  0.54573370866E+02 -0.44248433690E+02  0.72449791297E+02  0.00000000000E+00 0.  1.
         13    1    4    4    0    0 -0.27161248333E+01 -0.32366172795E+02 -0.64011854291E+02  0.71780665679E+02  0.00000000000E+00 0. -1.
         21    1    1    2  502  501  0.27246130538E+02  0.10322366978E+02 -0.11778536508E+02  0.31426689479E+02  0.00000000000E+00 0. -1.
<scales pt_clust_5="13000.00000" pt_clust_6="13000.00000" pt_clust_7="13000.00000" pt_clust_8="13000.00000" pt_clust_9="29.13594"></scales>
<clustering>
<clus scale="   29.136">  1  9  2 -1</clus>
<clus scale="   90.403">  7  8 -1 -1</clus>
<clus scale="   91.884">  5  6 -1 -1</clus>
<clus scale="   94.684">  2  7  1 -1</clus>
<clus scale="   94.684">  2  5  1 -1</clus>
</clustering>
</event>
<event>
 9    1  0.1782981E-005  0.1018492E+03  0.7546771E-02  0.1277117E+00
         -1   -1    0    0    0  501 -0.00000000000E+00  0.00000000000E+00  0.33297692192E+02  0.33297692192E+02  0.00000000000E+00 0.  1.
          1   -1    0    0  502    0  0.00000000000E+00 -0.00000000000E+00 -0.80574592622E+03  0.80574592622E+03  0.00000000000E+00 0. -1.
         23    2    1    2    0    0 -0.44999202238E+02 -0.10750302028E+02 -0.76757218559E+02  0.12710428002E+03  0.90129519039E+02 0.  0.
         23    2    1    2    0    0  0.40908320692E+02 -0.30523281782E+02 -0.57069060404E+03  0.58023760382E+03  0.91557358607E+02 0.  0.
        -11    1    4    4    0    0 -0.21494650659E+01  0.30103862048E+02 -0.14613939635E+03  0.14922327525E+03  0.00000000000E+00 0.  1.
         11    1    4    4    0    0  0.43057785758E+02 -0.60627143830E+02 -0.42455120769E+03  0.43101432857E+03  0.00000000000E+00 0. -1.
        -13    1    3    3    0    0  0.59624588701E+01  0.28238907249E+02 -0.25073381206E+01  0.28970218205E+02  0.00000000000E+00 0.  1.
         13    1    3    3    0    0 -0.50961661108E+02 -0.38989209276E+02 -0.74249880439E+02  0.98134061813E+02  0.00000000000E+00 0. -1.
         21    1    1    2  502  501  0.40908815459E+01  0.41273583810E+02 -0.12500041143E+03  0.13170173458E+03  0.00000000000E+00 0.  1.
<scales pt_clust_5="13000.00000" pt_clust_6="13000.00000" pt_clust_7="13000.00000" pt_clust_8="13000.00000" pt_clust_9="41.47582"></scales>
<clustering>
<clus scale="   41.476">  2  9  1 -1</clus>
<clus scale="   90.130">  7  8 -1 -1</clus>
<clus scale="   91.557">  5  6 -1 -1</clus>
<clus scale="  100.568">  1  7  2 -1</clus>
<clus scale="   41.476">  2  5  1 -1</clus>
</clustering>
</event>
<event>
 9    1  0.1782981E-005  0.9353984E+02  0.7546771E-02  0.1295179E+00
         -1   -1    0    0    0  501 -0.00000000000E+00  0.00000000000E+00  0.69163338462E+02  0.69163338462E+02  0.00000000000E+00 0.  1.
          1   -1    0    0  502    0  0.00000000000E+00 -0.00000000000E+00 -0.35442872927E+03  0.35442872927E+03  0.00000000000E+00 0. -1.
         23    2    1    2    0    0  0.59209314186E+01 -0.11435710352E+02  0.10016706505E+02  0.93631223272E+02  0.92198908139E+02 0.  0.
         23    2    1    2    0    0  0.19583381577E+02  0.41476334732E+02 -0.24975608349E+03  0.26974849498E+03  0.91007439974E+02 0.  0.
        -11    1    3    3    0    0 -0.34737752969E+02  0.16843906751E+02 -0.10523078503E+02  0.40014545570E+02  0.00000000000E+00 0.  1.
         11    1    3    3    0    0  0.40658684387E+02 -0.28279617104E+02  0.20539785008E+02  0.53616677702E+02  0.00000000000E+00 0. -1.
        -13    1    4    4    0    0 -0.33890003374E+02  0.12290449754E+02 -0.13612171402E+03  0.14081444710E+03  0.00000000000E+00 0.  1.
         13    1    4    4    0    0  0.53473384952E+02  0.29185884979E+02 -0.11363436947E+03  0.12893404789E+03  0.00000000000E+00 0. -1.
         21    1    1    2  502  501 -0.25504312996E+02 -0.30040624380E+02 -0.45526013828E+02  0.60212349477E+02  0.00000000000E+00 0.  1.
<scales pt_clust_5="13000.00000" pt_clust_6="13000.00000" pt_clust_7="13000.00000" pt_clust_8="13000.00000" pt_clust_9="39.40697"></scales>
<clustering>
<clus scale="   39.407">  2  9  1 -1</clus>
<clus scale="   91.007">  7  8 -1 -1</clus>
<clus scale="   92.199">  5  6 -1 -1</clus>
<clus scale="   92.366">  2  7  1 -1</clus>
<clus scale="   39.407">  2  5  1 -1</clus>
</clustering>
</event>
<event>
 9    1  0.1782981E-005  0.9334822E+02  0.7546771E-02  0.1295025E+00
          3   -1    0    0  502    0  0.00000000000E+00  0.00000000000E+00  0.42482181100E+02  0.42482181100E+02  0.00000000000E+00 0. -1.
         -3   -1    0    0    0  501 -0.00000000000E+00 -0.00000000000E+00 -0.32212542842E+03  0.32212542842E+03  0.00000000000E+00 0.  1.
         23    2    1    2    0    0  0.99855593902E+01 -0.15876572055E+02 -0.17677259309E+03  0.19972326227E+03  0.91044246860E+02 0.  0.
         23    2    1    2    0    0 -0.30632100948E+02 -0.17549303528E+01 -0.97929021036E+02  0.13728780229E+03  0.91194528934E+02 0.  0.
        -11    1    4    4    0    0  0.50018470112E+01  0.40273464261E+02 -0.48752573475E+02  0.63433302118E+02  0.00000000000E+00 0.  1.
         11    1    4    4    0    0 -0.35633947959E+02 -0.42028394614E+02 -0.49176447561E+02  0.73854500172E+02  0.00000000000E+00 0. -1.
        -13    1    3    3    0    0  0.17320441183E+02 -0.52136663702E+02 -0.90762625929E+02  0.10609469190E+03  0.00000000000E+00 0.  1.
         13    1    3    3    0    0 -0.73348817924E+01  0.36260091647E+02 -0.86009967160E+02  0.93628570362E+02  0.00000000000E+00 0. -1.
         21    1    1    2  502  501  0.20646541558E+02  0.17631502408E+02 -0.49416331980E+01  0.27596544967E+02  0.00000000000E+00 0. -1.
<scales pt_clust_5="13000.00000" pt_clust_6="13000.00000" pt_clust_7="13000.00000" pt_clust_8="13000.00000" pt_clust_9="27.15050"></scales>
<clustering>
<clus scale="   27.150">  1  9  2 -1</clus>
<clus scale="   91.044">  7  8 -1 -1</clus>
<clus scale="   91.195">  5  6 -1 -1</clus>
<clus scale="   93.201">  2  7  1 -1</clus>
<clus scale="   27.150">  1  5  2 -1</clus>
</clustering>
</event>
<event>
 9    1  0.1782981E-005  0.9110288E+02  0.7546771E-02  0.1301504E+00
          2   -1    0    0  502    0  0.00000000000E+00  0.00000000000E+00  0.63843048264E+02  0.63843048264E+02  0.00000000000E+00 0. -1.
         -2   -1    0    0    0  501 -0.00000000000E+00 -0.00000000000E+00 -0.26132191191E+03  0.26132191191E+03  0.00000000000E+00 0.  1.
         23    2    1    2    0    0 -0.27751691848E+01 -0.89090719902E+01 -0.17849254998E+03  0.20057209344E+03  0.91008247661E+02 0.  0.
         23    2    1    2    0    0  0.62013600654E+01 -0.22176111553E+02 -0.12196325974E+02  0.92590814409E+02  0.88848588933E+02 0.  0.
        -11    1    3    3    0    0 -0.12619106576E+02  0.32533438870E+02 -0.13600106448E+03  0.14040639600E+03  0.00000000000E+00 0.  1.
         11    1    3    3    0    0  0.98439373910E+01 -0.41442510860E+02 -0.42491485491E+02  0.60165697444E+02  0.00000000000E+00 0. -1.
        -13    1    4    4    0    0 -0.47027543720E+01  0.32205765536E+02 -0.17358304210E+02  0.36886826341E+02  0.00000000000E+00 0.  1.
         13    1    4    4    0    0  0.10904114437E+02 -0.54381877089E+02  0.51619782363E+01  0.55703988068E+02  0.00000000000E+00 0. -1.
         21    1    1    2  502  501 -0.34261908806E+01  0.31085183543E+02 -0.67899876924E+01  0.32002052321E+02  0.00000000000E+00 0.  1.
<scales pt_clust_5="13000.00000" pt_clust_6="13000.00000" pt_clust_7="13000.00000" pt_clust_8="13000.00000" pt_clust_9="31.27343"></scales>
<clustering>
<clus scale="   31.273">  1  9  2 -1</clus>
<clus scale="   88.849">  7  8 -1 -1</clus>
<clus scale="   88.946">  1  7  2 -1</clus>
<clus scale="   91.008">  5  6 -1 -1</clus>
<clus scale="   31.273">  1  5  2 -1</clus>
</clustering>
</event>
<event>
 9    1  0.1782981E-005  0.1449925E+03  0.7546771E-02  0.1206815E+00
          1   -1    0    0  502    0  0.00000000000E+00  0.00000000000E+00  0.27556455235E+03  0.27556455235E+03  0.00000000000E+00 0. -1.
         -1   -1    0    0    0  501 -0.00000000000E+00 -0.00000000000E+00 -0.61032872164E+03  0.61032872164E+03  0.00000000000E+00 0.  1.
         23    2    1    2    0    0  0.65082541048E+02 -0.88656000417E+02 -0.55555060646E+03  0.57380307578E+03  0.92292306756E+02 0.  0.
         23    2    1    2    0    0 -0.79088432771E+02  0.12919194388E+03  0.18271771496E+03  0.25474427136E+03  0.92538326487E+02 0.  0.
        -11    1    3    3    0    0  0.40369390394E+02 -0.84025929420E+02 -0.52932840326E+03  0.53747428124E+03  0.00000000000E+00 0.  1.
         11    1    3    3    0    0  0.24713150654E+02 -0.46300709971E+01 -0.26222203198E+02  0.36328794547E+02  0.00000000000E+00 0. -1.
        -11    1    4    4    0    0  0.19735200416E+02  0.36661668579E+02  0.51280056369E+02  0.66054524899E+02  0.00000000000E+00 0.  1.
         11    1    4    4    0    0 -0.98823633188E+02  0.92530275298E+02  0.13143765859E+03  0.18868974646E+03  0.00000000000E+00 0. -1.
         21    1    1    2  502  501  0.14005891723E+02 -0.40535943460E+02  0.38068722213E+02  0.57345926848E+02  0.00000000000E+00 0. -1.
<scales pt_clust_5="13000.00000" pt_clust_6="13000.00000" pt_clust_7="13000.00000" pt_clust_8="13000.00000" pt_clust_9="42.88738"></scales>
<clustering>
<clus scale="   42.887">  1  9  2 -1</clus>
<clus scale="   92.292">  5  6 -1 -1</clus>
<clus scale="   92.538">  7  8 -1 -1</clus>
<clus scale="  144.836">  2  5  1 -1</clus>
<clus scale="   42.887">  1  5  2 -1</clus>
</clustering>
</event>
<event>
 9    1  0.1782981E-005  0.9802807E+02  0.7546771E-02  0.1285027E+00
          1   -1    0    0  502    0  0.00000000000E+00  0.00000000000E+00  0.42777918039E+02  0.42777918039E+02  0.00000000000E+00 0. -1.
         -1   -1    0    0    0  501 -0.00000000000E+00 -0.00000000000E+00 -0.33887368696E+03  0.33887368696E+03  0.00000000000E+00 0.  1.
         23    2    1    2    0    0 -0.47158943360E+01  0.23211402751E+02 -0.19252668193E+03  0.21415661518E+03  0.90749786178E+02 0.  0.
         23    2    1    2    0    0 -0.96766169559E+01 -0.42309101308E+02 -0.56121450492E+02  0.11436171700E+03  0.89695530217E+02 0.  0.
        -11    1    4    4    0    0 -0.47869207795E+02 -0.37328776183E+02 -0.29139193711E+02  0.67334918106E+02  0.00000000000E+00 0. -1.
         11    1    4    4    0    0  0.38192590839E+02 -0.49803251243E+01 -0.26982256781E+02  0.47026798895E+02  0.00000000000E+00 0.  1.
        -13    1    3    3    0    0  0.40335049107E+02  0.26724495809E+02 -0.10681381308E+03  0.11726169676E+03  0.00000000000E+00 0.  1.
         13    1    3    3    0    0 -0.45050943443E+02 -0.35130930576E+01 -0.85712868849E+02  0.96894918413E+02  0.00000000000E+00 0. -1.
         21    1    1    2  502  501  0.14392511292E+02  0.19097698556E+02 -0.47447636504E+02  0.53133272826E+02  0.00000000000E+00 0.  1.
<scales pt_clust_5="13000.00000" pt_clust_6="13000.00000" pt_clust_7="13000.00000" pt_clust_8="13000.00000" pt_clust_9="23.91373"></scales>
<clustering>
<clus scale="   23.914">  2  9  1 -1</clus>
<clus scale="   89.696">  5  6 -1 -1</clus>
<clus scale="   90.750">  7  8 -1 -1</clus>
<clus scale="   97.053">  1  5  2 -1</clus>
<clus scale="   97.053">  1  5  2 -1</clus>
</clustering>
</event>
<event>
 9    1  0.1782981E-005  0.1047463E+03  0.7546771E-02  0.1271365E+00
         -3   -1    0    0    0  501 -0.00000000000E+00  0.00000000000E+00  0.10869341675E+03  0.10869341675E+03  0.00000000000E+00 0.  1.
          3   -1    0    0  502    0  0.00000000000E+00 -0.00000000000E+00 -0.22279996762E+03  0.22279996762E+03  0.00000000000E+00 0. -1.
         23    2    1    2    0    0 -0.48922226001E+01 -0.53808816066E+02  0.11736865555E+02  0.10669027833E+03  0.91245487274E+02 0.  0.
         23    2    1    2    0    0 -0.29078624528E+02  0.39023757985E+02 -0.12608043831E+02  0.10566089688E+03  0.92934612861E+02 0.  0.
        -11    1    3    3    0    0 -0.47091404878E+02 -0.17314307568E+02  0.76047630752E+01  0.50746606599E+02  0.00000000000E+00 0.  1.
         11    1    3    3    0    0  0.42199182278E+02 -0.36494508499E+02  0.41321024796E+01  0.55943671728E+02  0.00000000000E+00 0. -1.
        -13    1    4    4    0    0 -0.26833534199E+02 -0.13353121600E+01  0.34409909326E+02  0.43656196307E+02  0.00000000000E+00 0.  1.
         13    1    4    4    0    0 -0.22450903282E+01  0.40359070145E+02 -0.47017953157E+02  0.62004700568E+02  0.00000000000E+00 0. -1.
         21    1    1    2  502  501  0.33970847128E+02  0.14785058082E+02 -0.11323537260E+03  0.11914220916E+03  0.00000000000E+00 0. -1.
<scales pt_clust_5="13000.00000" pt_clust_6="13000.00000" pt_clust_7="13000.00000" pt_clust_8="13000.00000" pt_clust_9="37.04884"></scales>
<clustering>
<clus scale="   37.049">  2  9  1 -1</clus>
<clus scale="   91.245">  5  6 -1 -1</clus>
<clus scale="   92.935">  7  8 -1 -1</clus>
<clus scale="  103.251">  1  5  2 -1</clus>
<clus scale="   37.049">  2  5  1 -1</clus>
</clustering>
</event>
<event>
 9    1  0.1782981E-005  0.1893309E+03  0.7546771E-02  0.1159168E+00
          1   -1    0    0  502    0  0.00000000000E+00  0.00000000000E+00  0.66778288983E+03  0.66778288983E+03  0.00000000000E+00 0. -1.
         -1   -1    0    0    0  501 -0.00000000000E+00 -0.00000000000E+00 -0.88114030801E+02  0.88114030801E+02  0.00000000000E+00 0.  1.
         23    2    1    2    0    0 -0.10069151417E+03 -0.10359733225E+03  0.15617385348E+03  0.23135951014E+03  0.90916236984E+02 0.  0.
         23    2    1    2    0    0  0.11416190951E+03  0.15681820151E+03  0.19449467234E+03  0.28904841905E+03  0.89977336477E+02 0.  0.
        -11    1    4    4    0    0  0.39476757973E+02  0.86059227523E+02  0.14904207544E+03  0.17657334259E+03  0.00000000000E+00 0. -1.
         11    1    4    4    0    0  0.74685151540E+02  0.70758973992E+02  0.45452596900E+02  0.11247507647E+03  0.00000000000E+00 0.  1.
        -11    1    3    3    0    0 -0.51725151373E+02 -0.75434642875E+02  0.35488560199E+02  0.98108687359E+02  0.00000000000E+00 0. -1.
         11    1    3    3    0    0 -0.48966362794E+02 -0.28162689376E+02  0.12068529328E+03  0.13325082278E+03  0.00000000000E+00 0.  1.
         21    1    1    2  502  501 -0.13470395345E+02 -0.53220869264E+02  0.22900033321E+03  0.23548899144E+03  0.00000000000E+00 0.  1.
<scales pt_clust_5="13000.00000" pt_clust_6="13000.00000" pt_clust_7="13000.00000" pt_clust_8="13000.00000" pt_clust_9="54.89911"></scales>
<clustering>
<clus scale="   54.899">  1  9  2 -1</clus>
<clus scale="   89.977">  5  6 -1 -1</clus>
<clus scale="   90.916">  7  8 -1 -1</clus>
<clus scale="  188.882">  1  5  2 -1</clus>
<clus scale="   54.899">  1  5  2 -1</clus>
</clustering>
</event>
<event>
 9    1  0.1782981E-005  0.1018415E+03  0.7546771E-02  0.1280274E+00
          1   -1    0    0  502    0  0.00000000000E+00  0.00000000000E+00  0.27302185595E+03  0.27302185595E+03  0.00000000000E+00 0. -1.
         -1   -1    0    0    0  501 -0.00000000000E+00 -0.00000000000E+00 -0.68845762531E+02  0.68845762531E+02  0.00000000000E+00 0.  1.
         23    2    1    2    0    0 -0.13526716482E+01  0.28920139119E+02  0.55038415542E+01  0.10308749364E+03  0.98785297018E+02 0.  0.
         23    2    1    2    0    0  0.28913178425E+02 -0.76285792399E+01  0.12924614325E+03  0.16110840146E+03  0.91417637062E+02 0.  0.
        -13    1    3    3    0    0 -0.81709733051E+01 -0.25019014517E+02 -0.28632103313E+02  0.38891043086E+02  0.00000000000E+00 0. -1.
         13    1    3    3    0    0  0.68183016569E+01  0.53939153635E+02  0.34135944868E+02  0.64196450559E+02  0.00000000000E+00 0.  1.
        -13    1    4    4    0    0  0.21654797992E+02  0.38989103118E+02  0.38877530918E+02  0.59165385558E+02  0.00000000000E+00 0.  1.
         13    1    4    4    0    0  0.72583804331E+01 -0.46617682358E+02  0.90368612336E+02  0.10194301590E+03  0.00000000000E+00 0. -1.
         21    1    1    2  502  501 -0.27560506777E+02 -0.21291559879E+02  0.69426108609E+02  0.77671723377E+02  0.00000000000E+00 0. -1.
<scales pt_clust_5="13000.00000" pt_clust_6="13000.00000" pt_clust_7="13000.00000" pt_clust_8="13000.00000" pt_clust_9="34.82689"></scales>
<clustering>
<clus scale="   34.827">  1  9  2 -1</clus>
<clus scale="   91.418">  7  8 -1 -1</clus>
<clus scale="   94.712">  1  7  2 -1</clus>
<clus scale="   98.785">  5  6 -1 -1</clus>
<clus scale="   34.827">  1  5  2 -1</clus>
</clustering>
</event>
<event>
 9    1  0.1782981E-005  0.1204534E+03  0.7546771E-02  0.1243076E+00
          2   -1    0    0  502    0  0.00000000000E+00  0.00000000000E+00  0.47632561703E+02  0.47632561703E+02  0.00000000000E+00 0. -1.
         -2   -1    0    0    0  501 -0.00000000000E+00 -0.00000000000E+00 -0.77759201281E+03  0.77759201281E+03  0.00000000000E+00 0.  1.
         23    2    1    2    0    0 -0.14791031667E+02 -0.68567474758E+02 -0.36815749109E+03  0.38622049096E+03  0.93306249420E+02 0.  0.
         23    2    1    2    0    0  0.38216310844E+02  0.74800046092E+02 -0.38561744255E+03  0.40502223755E+03  0.91031135317E+02 0.  0.
        -11    1    4    4    0    0 -0.17227611641E+02  0.47791023095E+02 -0.26194055638E+03  0.26682134016E+03  0.00000000000E+00 0. -1.
         11    1    4    4    0    0  0.55443922484E+02  0.27009022997E+02 -0.12367688617E+03  0.13820089738E+03  0.00000000000E+00 0.  1.
        -13    1    3    3    0    0 -0.36657319404E+02 -0.19482036309E+01 -0.61272106486E+02  0.71427064874E+02  0.00000000000E+00 0. -1.
         13    1    3    3    0    0  0.21866287737E+02 -0.66619271127E+02 -0.30688538460E+03  0.31479342609E+03  0.00000000000E+00 0.  1.
         21    1    1    2  502  501 -0.23425279177E+02 -0.62325713338E+01  0.23815482531E+02  0.33981846008E+02  0.00000000000E+00 0. -1.
<scales pt_clust_5="13000.00000" pt_clust_6="13000.00000" pt_clust_7="13000.00000" pt_clust_8="13000.00000" pt_clust_9="24.24023"></scales>
<clustering>
<clus scale="   24.240">  1  9  2 -1</clus>
<clus scale="   91.031">  5  6 -1 -1</clus>
<clus scale="   93.306">  7  8 -1 -1</clus>
<clus scale="  118.700">  1  5  2 -1</clus>
<clus scale="   24.240">  1  5  2 -1</clus>
</clustering>
</event>
<event>
 9    1  0.1782981E-005  0.9485707E+02  0.7546771E-02  0.1291942E+00
         -1   -1    0    0    0  501 -0.00000000000E+00  0.00000000000E+00  0.82151068392E+02  0.82151068392E+02  0.00000000000E+00 0.  1.
          1   -1    0    0  502    0  0.00000000000E+00 -0.00000000000E+00 -0.19191476263E+03  0.19191476263E+03  0.00000000000E+00 0. -1.
         23    2    1    2    0    0  0.39053183232E+02  0.12172694749E+02 -0.16897725571E+02  0.10133339479E+03  0.91156997275E+02 0.  0.
         23    2    1    2    0    0 -0.42977083152E+01  0.18428938673E+02 -0.38924034496E+02  0.10163999453E+03  0.91964732096E+02 0.  0.
        -11    1    3    3    0    0  0.59607677276E+02 -0.91256609615E+01 -0.31823200323E+02  0.68184081404E+02  0.00000000000E+00 0.  1.
         11    1    3    3    0    0 -0.20554494044E+02  0.21298355710E+02  0.14925474752E+02  0.33149313385E+02  0.00000000000E+00 0. -1.
        -11    1    4    4    0    0  0.41118318195E+02  0.20771651318E+02 -0.82875649323E+01  0.46806637587E+02  0.00000000000E+00 0.  1.
         11    1    4    4    0    0 -0.45416026510E+02 -0.23427126445E+01 -0.30636469564E+02  0.54833356945E+02  0.00000000000E+00 0. -1.
         21    1    1    2  502  501 -0.34755474917E+02 -0.30601633422E+02 -0.53941934173E+02  0.71092441702E+02  0.00000000000E+00 0. -1.
<scales pt_clust_5="13000.00000" pt_clust_6="13000.00000" pt_clust_7="13000.00000" pt_clust_8="13000.00000" pt_clust_9="46.30770"></scales>
<clustering>
<clus scale="   46.308">  2  9  1 -1</clus>
<clus scale="   91.157">  5  6 -1 -1</clus>
<clus scale="   91.965">  7  8 -1 -1</clus>
<clus scale="   94.074">  1  5  2 -1</clus>
<clus scale="   46.308">  2  5  1 -1</clus>
</clustering>
</event>
<event>
 9    1  0.1782981E-005  0.9253251E+02  0.7546771E-02  0.1296842E+00
         -1   -1    0    0    0  501 -0.00000000000E+00  0.00000000000E+00  0.60458333776E+02  0.60458333776E+02  0.00000000000E+00 0.  1.
          1   -1    0    0  502    0  0.00000000000E+00 -0.00000000000E+00 -0.53892785167E+03  0.53892785167E+03  0.00000000000E+00 0. -1.
         23    2    1    2    0    0  0.85997267536E+01  0.17262338654E+02  0.98271025607E+01  0.92945670482E+02  0.90390165840E+02 0.  0.
         23    2    1    2    0    0 -0.36947991746E+02 -0.46234996199E+01 -0.29776000784E+03  0.31339242477E+03  0.90372887488E+02 0.  0.
        -11    1    4    4    0    0  0.29593452494E+02  0.58244467735E+01 -0.10219583685E+03  0.10655367512E+03  0.00000000000E+00 0.  1.
         11    1    4    4    0    0 -0.66541444240E+02 -0.10447946393E+02 -0.19556417098E+03  0.20683874965E+03  0.00000000000E+00 0. -1.
        -13    1    3    3    0    0 -0.14614593758E+02  0.32900803024E+02 -0.28198023919E+02  0.45729396926E+02  0.00000000000E+00 0. -1.
         13    1    3    3    0    0  0.23214320512E+02 -0.15638464370E+02  0.38025126479E+02  0.47216273555E+02  0.00000000000E+00 0.  1.
         21    1    1    2  502  501  0.28348264992E+02 -0.12638839034E+02 -0.19053661261E+03  0.19304809019E+03  0.00000000000E+00 0. -1.
<scales pt_clust_5="13000.00000" pt_clust_6="13000.00000" pt_clust_7="13000.00000" pt_clust_8="13000.00000" pt_clust_9="31.03811"></scales>
<clustering>
<clus scale="   31.038">  2  9  1 -1</clus>
<clus scale="   90.373">  5  6 -1 -1</clus>
<clus scale="   90.390">  7  8 -1 -1</clus>
<clus scale="   92.516">  2  5  1 -1</clus>
<clus scale="   31.038">  2  5  1 -1</clus>
</clustering>
</event>
<event>
 9    1  0.1782981E-005  0.9997568E+02  0.7546771E-02  0.1287824E+00
         -2   -1    0    0    0  501 -0.00000000000E+00  0.00000000000E+00  0.20040053349E+03  0.20040053349E+03  0.00000000000E+00 0.  1.
          2   -1    0    0  502    0  0.00000000000E+00 -0.00000000000E+00 -0.11765196357E+03  0.11765196357E+03  0.00000000000E+00 0. -1.
         23    2    1    2    0    0 -0.29936862671E+02  0.56151886851E+01  0.91337703768E+02  0.12258385013E+03  0.75871457693E+02 0.  0.
         23    2    1    2    0    0  0.78998212889E+02 -0.47795629367E+02  0.44276138807E+01  0.12947136378E+03  0.90653684139E+02 0.  0.
        -11    1    4    4    0    0  0.92313585970E+02 -0.18235430803E+02 -0.86890756229E+01  0.94497773129E+02  0.00000000000E+00 0. -1.
         11    1    4    4    0    0 -0.13315373081E+02 -0.29560198565E+02  0.13116689504E+02  0.34973590651E+02  0.00000000000E+00 0.  1.
        -13    1    3    3    0    0 -0.40526915066E+02  0.26976684979E+02  0.84931888255E+02  0.97895852924E+02  0.00000000000E+00 0.  1.
         13    1    3    3    0    0  0.10590052395E+02 -0.21361496294E+02  0.64058155135E+01  0.24687997206E+02  0.00000000000E+00 0. -1.
         21    1    1    2  502  501 -0.49061350218E+02  0.42180440682E+02 -0.13016747724E+02  0.65997283146E+02  0.00000000000E+00 0.  1.
<scales pt_clust_5="13000.00000" pt_clust_6="13000.00000" pt_clust_7="13000.00000" pt_clust_8="13000.00000" pt_clust_9="64.70089"></scales>
<clustering>
<clus scale="   64.701">  2  9  1 -1</clus>
<clus scale="   75.871">  7  8 -1 -1</clus>
<clus scale="   86.796">  1  7  2 -1</clus>
<clus scale="   90.654">  5  6 -1 -1</clus>
<clus scale="   64.701">  2  5  1 -1</clus>
</clustering>
</event>
<event>
 9    1  0.1782981E-005  0.1655656E+03  0.7546771E-02  0.1183221E+00
          2   -1    0    0  502    0  0.00000000000E+00  0.00000000000E+00  0.18232160270E+03  0.18232160270E+03  0.00000000000E+00 0. -1.
         -2   -1    0    0    0  501 -0.00000000000E+00 -0.00000000000E+00 -0.39827447168E+03  0.39827447168E+03  0.00000000000E+00 0.  1.
         23    2    1    2    0    0  0.74693626054E+02 -0.11767215737E+03 -0.27049190251E+03  0.31833217146E+03  0.93507366909E+02 0.  0.
         23    2    1    2    0    0 -0.30876067831E+02  0.11920862609E+03 -0.36346510648E+02  0.16135542318E+03  0.97726535051E+02 0.  0.
        -11    1    4    4    0    0 -0.18637363431E+01  0.92546509622E+02  0.17928574797E+02  0.94285543699E+02  0.00000000000E+00 0. -1.
         11    1    4    4    0    0 -0.29012331488E+02  0.26662116467E+02 -0.54275085445E+02  0.67069879476E+02  0.00000000000E+00 0.  1.
        -13    1    3    3    0    0  0.63455771600E+02 -0.23874491425E+02 -0.15461891134E+03  0.16883019290E+03  0.00000000000E+00 0. -1.
         13    1    3    3    0    0  0.11237854454E+02 -0.93797665948E+02 -0.11587299118E+03  0.14950197856E+03  0.00000000000E+00 0.  1.
         21    1    1    2  502  501 -0.43817558224E+02 -0.15364687164E+01  0.90885544182E+02  0.10090847975E+03  0.00000000000E+00 0. -1.
<scales pt_clust_5="13000.00000" pt_clust_6="13000.00000" pt_clust_7="13000.00000" pt_clust_8="13000.00000" pt_clust_9="43.84449"></scales>
<clustering>
<clus scale="   43.844">  1  9  2 -1</clus>
<clus scale="   93.507">  7  8 -1 -1</clus>
<clus scale="   97.727">  5  6 -1 -1</clus>
<clus scale="  163.111">  2  7  1 -1</clus>
<clus scale="   43.844">  1  5  2 -1</clus>
</clustering>
</event>
<event>
 9    1  0.1782981E-005  0.9377000E+02  0.7546771E-02  0.1294587E+00
          2   -1    0    0  502    0  0.00000000000E+00  0.00000000000E+00  0.38338022199E+03  0.38338022199E+03  0.00000000000E+00 0. -1.
         -2   -1    0    0    0  501 -0.00000000000E+00 -0.00000000000E+00 -0.30211990040E+02  0.30211990040E+02  0.00000000000E+00 0.  1.
         23    2    1    2    0    0  0.67459462821E+00  0.81033269722E+01  0.12931394084E+03  0.15935952389E+03  0.92775231458E+02 0.  0.
         23    2    1    2    0    0 -0.25626206053E+02 -0.67532071088E+01  0.18105315338E+03  0.20467117962E+03  0.91693724835E+02 0.  0.
        -11    1    3    3    0    0  0.21093434947E+02 -0.37210738223E+02  0.69290412230E+02  0.81429314525E+02  0.00000000000E+00 0.  1.
         11    1    3    3    0    0 -0.20418840319E+02  0.45314065196E+02  0.60023528611E+02  0.77930209363E+02  0.00000000000E+00 0. -1.
        -13    1    4    4    0    0  0.33556750381E+02 -0.78508857866E+01  0.48455844546E+02  0.59461422573E+02  0.00000000000E+00 0.  1.
         13    1    4    4    0    0 -0.59182956434E+02  0.10976786778E+01  0.13259730883E+03  0.14520975704E+03  0.00000000000E+00 0. -1.
         21    1    1    2  502  501  0.24951611425E+02 -0.13501198634E+01  0.42801137732E+02  0.49561508528E+02  0.00000000000E+00 0.  1.
<scales pt_clust_5="13000.00000" pt_clust_6="13000.00000" pt_clust_7="13000.00000" pt_clust_8="13000.00000" pt_clust_9="24.98811"></scales>
<clustering>
<clus scale="   24.988">  1  9  2 -1</clus>
<clus scale="   91.694">  7  8 -1 -1</clus>
<clus scale="   92.700">  1  7  2 -1</clus>
<clus scale="   92.775">  5  6 -1 -1</clus>
<clus scale="   24.988">  1  5  2 -1</clus>
</clustering>
</event>
<event>
 9    1  0.1782981E-005  0.1170813E+03  0.7546771E-02  0.1249881E+00
          1   -1    0    0  502    0  0.00000000000E+00  0.00000000000E+00  0.73560279106E+02  0.73560279106E+02  0.00000000000E+00 0. -1.
         -1   -1    0    0    0  501 -0.00000000000E+00 -0.00000000000E+00 -0.29388236766E+03  0.29388236766E+03  0.00000000000E+00 0.  1.
         23    2    1    2    0    0  0.22362338777E+02  0.79953520257E+02 -0.17810274493E+03  0.21511684372E+03  0.87533017223E+02 0.  0.
         23    2    1    2    0    0 -0.12408690359E+02 -0.40566419028E+02 -0.14867148189E+02  0.10335069248E+03  0.93063008713E+02 0.  0.
        -11    1    4    4    0    0 -0.77221257130E+00  0.22310546888E+02 -0.30236796248E+02  0.37584846176E+02  0.00000000000E+00 0.  1.
         11    1    4    4    0    0 -0.11636477788E+02 -0.62876965916E+02  0.15369648059E+02  0.65765846300E+02  0.00000000000E+00 0. -1.
        -11    1    3    3    0    0  0.22036791757E+02  0.25691969551E+02 -0.15045752278E+03  0.15421790963E+03  0.00000000000E+00 0.  1.
         11    1    3    3    0    0  0.32554702047E+00  0.54261550706E+02 -0.27645222157E+02  0.60898934096E+02  0.00000000000E+00 0. -1.
         21    1    1    2  502  501 -0.99536484181E+01 -0.39387101229E+02 -0.27352195436E+02  0.48975110569E+02  0.00000000000E+00 0.  1.
<scales pt_clust_5="13000.00000" pt_clust_6="13000.00000" pt_clust_7="13000.00000" pt_clust_8="13000.00000" pt_clust_9="40.62535"></scales>
<clustering>
<clus scale="   40.625">  1  9  2 -1</clus>
<clus scale="   87.533">  7  8 -1 -1</clus>
<clus scale="   93.063">  5  6 -1 -1</clus>
<clus scale="  112.736">  2  7  1 -1</clus>
<clus scale="   40.625">  1  5  2 -1</clus>
</clustering>
</event>
<event>
 9    1  0.1782981E-005  0.2416203E+03  0.7546771E-02  0.1118760E+00
         -2   -1    0    0    0  501 -0.00000000000E+00  0.00000000000E+00  0.15646348059E+03  0.15646348059E+03  0.00000000000E+00 0.  1.
          2   -1    0    0  502    0  0.00000000000E+00 -0.00000000000E+00 -0.94956160747E+03  0.94956160747E+03  0.00000000000E+00 0. -1.
         23    2    1    2    0    0  0.18307839836E+03 -0.18171487732E+03 -0.12808841101E+03  0.30144586328E+03  0.89022305471E+02 0.  0.
         23    2    1    2    0    0 -0.21070077884E+03  0.31487717308E+02 -0.16992791205E+03  0.28646998149E+03  0.88336065423E+02 0.  0.
        -11    1    3    3    0    0  0.15010574336E+03 -0.10149144595E+03 -0.11261570931E+03  0.21334138317E+03  0.00000000000E+00 0. -1.
         11    1    3    3    0    0  0.32972654999E+02 -0.80223431363E+02 -0.15472701701E+02  0.88104480109E+02  0.00000000000E+00 0.  1.
        -11    1    4    4    0    0 -0.14909341668E+03 -0.14506053750E+02 -0.86327657643E+02  0.17289226983E+03  0.00000000000E+00 0.  1.
         11    1    4    4    0    0 -0.61607362161E+02  0.45993771058E+02 -0.83600254405E+02  0.11357771166E+03  0.00000000000E+00 0. -1.
         21    1    1    2  502  501  0.27622380488E+02  0.15022716001E+03 -0.49508180383E+03  0.51810924330E+03  0.00000000000E+00 0. -1.
<scales pt_clust_5="13000.00000" pt_clust_6="13000.00000" pt_clust_7="13000.00000" pt_clust_8="13000.00000" pt_clust_9="152.74553"></scales>
<clustering>
<clus scale="   88.336">  7  8 -1 -1</clus>
<clus scale="   89.022">  5  6 -1 -1</clus>
<clus scale="  152.746">  2  9  1 -1</clus>
<clus scale="  241.368">  2  7  1 -1</clus>
<clus scale="  152.746">  2  5  1 -1</clus>
</clustering>
</event>
<event>
 9    1  0.1782981E-005  0.1297879E+03  0.7546771E-02  0.1228364E+00
         -2   -1    0    0    0  501 -0.00000000000E+00  0.00000000000E+00  0.47753315822E+03  0.47753315822E+03  0.00000000000E+00 0.  1.
          2   -1    0    0  502    0  0.00000000000E+00 -0.00000000000E+00 -0.75935449259E+02  0.75935449259E+02  0.00000000000E+00 0. -1.
         23    2    1    2    0    0  0.74173245147E+02 -0.50828899359E+02  0.35443272427E+03  0.37756153490E+03  0.94047377921E+02 0.  0.
         23    2    1    2    0    0 -0.55470581037E+02  0.72540047723E+02  0.62052171662E+02  0.14361478334E+03  0.91846012991E+02 0.  0.
        -11    1    4    4    0    0 -0.74647629428E+02  0.28861908223E+02  0.27170359800E+02  0.84519268674E+02  0.00000000000E+00 0.  1.
         11    1    4    4    0    0  0.19177048391E+02  0.43678139500E+02  0.34881811862E+02  0.59095514669E+02  0.00000000000E+00 0. -1.
        -13    1    3    3    0    0  0.31569993517E+00 -0.48311519713E+02  0.20800715968E+03  0.21354409634E+03  0.00000000000E+00 0.  1.
         13    1    3    3    0    0  0.73857545212E+02 -0.25173796460E+01  0.14642556459E+03  0.16401743856E+03  0.00000000000E+00 0. -1.
         21    1    1    2  502  501 -0.18702664110E+02 -0.21711148364E+02 -0.14887186975E+02  0.32292289236E+02  0.00000000000E+00 0. -1.
<scales pt_clust_5="13000.00000" pt_clust_6="13000.00000" pt_clust_7="13000.00000" pt_clust_8="13000.00000" pt_clust_9="28.65595"></scales>
<clustering>
<clus scale="   28.656">  2  9  1 -1</clus>
<clus scale="   91.846">  5  6 -1 -1</clus>
<clus scale="   94.047">  7  8 -1 -1</clus>
<clus scale="  128.202">  2  5  1 -1</clus>
<clus scale="   28.656">  2  5  1 -1</clus>
</clustering>
</event>
<event>
 9    1  0.1782981E-005  0.9918557E+02  0.7546771E-02  0.1284870E+00
          1   -1    0    0  502    0  0.00000000000E+00  0.00000000000E+00  0.54800143172E+02  0.54800143172E+02  0.00000000000E+00 0. -1.
         -1   -1    0    0    0  501 -0.00000000000E+00 -0.00000000000E+00 -0.33549849882E+03  0.33549849882E+03  0.00000000000E+00 0.  1.
         23    2    1    2    0    0 -0.13287806412E+02 -0.24201290371E+02 -0.19459186062E+03  0.21650256709E+03  0.90802538983E+02 0.  0.
         23    2    1    2    0    0  0.27116883242E+02 -0.15493462303E+02 -0.33660986780E+02  0.10658411099E+03  0.96185955080E+02 0.  0.
        -13    1    4    4    0    0 -0.23913520156E+02 -0.34522549568E+02 -0.30737426041E+02  0.52042792340E+02  0.00000000000E+00 0.  1.
         13    1    4    4    0    0  0.51030403398E+02  0.19029087266E+02 -0.29235607390E+01  0.54541318654E+02  0.00000000000E+00 0. -1.
        -13    1    3    3    0    0  0.61771983551E+01  0.32542589124E+02 -0.50183688002E+02  0.60129696723E+02  0.00000000000E+00 0.  1.
         13    1    3    3    0    0 -0.19465004767E+02 -0.56743879496E+02 -0.14440817261E+03  0.15637287037E+03  0.00000000000E+00 0. -1.
         21    1    1    2  502  501 -0.13829076830E+02  0.39694752674E+02 -0.52445508248E+02  0.67211963900E+02  0.00000000000E+00 0.  1.
<scales pt_clust_5="13000.00000" pt_clust_6="13000.00000" pt_clust_7="13000.00000" pt_clust_8="13000.00000" pt_clust_9="42.03471"></scales>
<clustering>
<clus scale="   42.035">  2  9  1 -1</clus>
<clus scale="   90.803">  7  8 -1 -1</clus>
<clus scale="   93.974">  2  7  1 -1</clus>
<clus scale="   96.186">  5  6 -1 -1</clus>
<clus scale="   99.186">  1  5  2 -1</clus>
</clustering>
</event>
<event>
 9    1  0.1782981E-005  0.1682065E+03  0.7546771E-02  0.1180485E+00
         -1   -1    0    0    0  501 -0.00000000000E+00  0.00000000000E+00  0.15758022696E+03  0.15758022696E+03  0.00000000000E+00 0.  1.
          1   -1    0    0  502    0  0.00000000000E+00 -0.00000000000E+00 -0.22417150362E+03  0.22417150362E+03  0.00000000000E+00 0. -1.
         23    2    1    2    0    0 -0.10486831287E+03  0.78472539623E+02 -0.14251274675E+02  0.16178373282E+03  0.93891292760E+02 0.  0.
         23    2    1    2    0    0  0.10499776667E+03 -0.10681965128E+03 -0.17376510048E+02  0.17495665179E+03  0.88729465220E+02 0.  0.
        -13    1    4    4    0    0  0.28307547393E+02 -0.87245952849E+02  0.73978567924E+01  0.92021203062E+02  0.00000000000E+00 0.  1.
         13    1    4    4    0    0  0.76690219276E+02 -0.19573698431E+02 -0.24774366841E+02  0.82935448725E+02  0.00000000000E+00 0. -1.
        -13    1    3    3    0    0 -0.78674788804E+02  0.71923182614E+02  0.29293476648E+02  0.11054761130E+03  0.00000000000E+00 0. -1.
         13    1    3    3    0    0 -0.26193524067E+02  0.65493570083E+01 -0.43544751323E+02  0.51236121517E+02  0.00000000000E+00 0.  1.
         21    1    1    2  502  501 -0.12945379856E+00  0.28347111657E+02 -0.34963491933E+02  0.45011345967E+02  0.00000000000E+00 0. -1.
<scales pt_clust_5="13000.00000" pt_clust_6="13000.00000" pt_clust_7="13000.00000" pt_clust_8="13000.00000" pt_clust_9="28.34741"></scales>
<clustering>
<clus scale="   28.347">  2  9  1 -1</clus>
<clus scale="   88.729">  5  6 -1 -1</clus>
<clus scale="   93.891">  7  8 -1 -1</clus>
<clus scale="  165.381">  2  5  1 -1</clus>
<clus scale="   28.347">  2  5  1 -1</clus>
</clustering>
</event>
<event>
 9    1  0.1782981E-005  0.8731798E+02  0.7546771E-02  0.1311743E+00
         -2   -1    0    0    0  501 -0.00000000000E+00  0.00000000000E+00  0.32413237367E+03  0.32413237367E+03  0.00000000000E+00 0.  1.
          2   -1    0    0  502    0  0.00000000000E+00 -0.00000000000E+00 -0.65462642077E+02  0.65462642077E+02  0.00000000000E+00 0. -1.
         23    2    1    2    0    0 -0.18529603667E+01  0.54956465256E+01  0.16258714551E+03  0.18375221926E+03  0.85420504584E+02 0.  0.
         23    2    1    2    0    0  0.38088067943E-01 -0.34060140682E+02  0.13256895368E+03  0.15946953794E+03  0.81828548917E+02 0.  0.
        -11    1    3    3    0    0  0.86609687874E+01 -0.37600514279E+02  0.98703107905E+02  0.10597695299E+03  0.00000000000E+00 0.  1.
         11    1    3    3    0    0 -0.10513929154E+02  0.43096160805E+02  0.63884037605E+02  0.77775266268E+02  0.00000000000E+00 0. -1.
        -11    1    4    4    0    0 -0.37901448226E+02 -0.33642617726E+02  0.77182059824E+02  0.92333178564E+02  0.00000000000E+00 0.  1.
         11    1    4    4    0    0  0.37939536294E+02 -0.41752295553E+00  0.55386893853E+02  0.67136359376E+02  0.00000000000E+00 0. -1.
         21    1    1    2  502  501  0.18148722988E+01  0.28564494156E+02 -0.36486367597E+02  0.46373258547E+02  0.00000000000E+00 0. -1.
<scales pt_clust_5="13000.00000" pt_clust_6="13000.00000" pt_clust_7="13000.00000" pt_clust_8="13000.00000" pt_clust_9="28.62209"></scales>
<clustering>
<clus scale="   28.622">  2  9  1 -1</clus>
<clus scale="   81.829">  7  8 -1 -1</clus>
<clus scale="   83.807">  2  7  1 -1</clus>
<clus scale="   85.421">  5  6 -1 -1</clus>
<clus scale="   28.622">  2  5  1 -1</clus>
</clustering>
</event>
<event>
 9    1  0.1782981E-005  0.1626470E+03  0.7546771E-02  0.1186095E+00
          1   -1    0    0  502    0  0.00000000000E+00  0.00000000000E+00  0.59348221956E+03  0.59348221956E+03  0.00000000000E+00 0. -1.
         -1   -1    0    0    0  501 -0.00000000000E+00 -0.00000000000E+00 -0.61910250926E+02  0.61910250926E+02  0.00000000000E+00 0.  1.
         23    2    1    2    0    0 -0.40479486581E+02 -0.13753137188E+03  0.14954534854E+03  0.22722728020E+03  0.93353942125E+02 0.  0.
         23    2    1    2    0    0  0.29638813937E+02  0.11569482638E+03  0.23345473635E+03  0.27760636611E+03  0.91106687099E+02 0.  0.
        -11    1    3    3    0    0 -0.69729150062E+02 -0.10772662499E+03  0.12294583036E+03  0.17771566421E+03  0.00000000000E+00 0.  1.
         11    1    3    3    0    0  0.29249663480E+02 -0.29804746885E+02  0.26599518180E+02  0.49511615991E+02  0.00000000000E+00 0. -1.
        -11    1    4    4    0    0 -0.20472334002E+02  0.91403170170E+02  0.16040017736E+03  0.18574679775E+03  0.00000000000E+00 0. -1.
         11    1    4    4    0    0  0.50111147938E+02  0.24291656207E+02  0.73054558995E+02  0.91859568358E+02  0.00000000000E+00 0.  1.
         21    1    1    2  502  501  0.10840672644E+02  0.21836545499E+02  0.14857188374E+03  0.15055882418E+03  0.00000000000E+00 0.  1.
<scales pt_clust_5="13000.00000" pt_clust_6="13000.00000" pt_clust_7="13000.00000" pt_clust_8="13000.00000" pt_clust_9="24.37940"></scales>
<clustering>
<clus scale="   24.379">  1  9  2 -1</clus>
<clus scale="   91.107">  7  8 -1 -1</clus>
<clus scale="   93.354">  5  6 -1 -1</clus>
<clus scale="  161.368">  1  7  2 -1</clus>
<clus scale="   24.379">  1  5  2 -1</clus>
</clustering>
</event>
<event>
 9    1  0.1782981E-005  0.1725897E+03  0.7546771E-02  0.1189940E+00
          2   -1    0    0  502    0  0.00000000000E+00  0.00000000000E+00  0.94705549089E+03  0.94705549089E+03  0.00000000000E+00 0. -1.
         -2   -1    0    0    0  501 -0.00000000000E+00 -0.00000000000E+00 -0.10801529358E+03  0.10801529358E+03  0.00000000000E+00 0.  1.
         23    2    1    2    0    0 -0.46571534140E+02  0.69006189589E+02  0.50401265848E+02  0.13386956721E+03  0.91923943738E+02 0.  0.
         23    2    1    2    0    0  0.68396717893E+02  0.80082973864E+02  0.26628384828E+02  0.14443613664E+03  0.95191034068E+02 0.  0.
        -13    1    4    4    0    0  0.67110229672E+02  0.10023480901E+03  0.16200655555E+02  0.12170974120E+03  0.00000000000E+00 0.  1.
         13    1    4    4    0    0  0.12864882210E+01 -0.20151835144E+02  0.10427729273E+02  0.22726395434E+02  0.00000000000E+00 0. -1.
        -13    1    3    3    0    0 -0.50061866148E+02 -0.19634795941E+01  0.35135576795E+02  0.61192764696E+02  0.00000000000E+00 0. -1.
         13    1    3    3    0    0  0.34903320087E+01  0.70969669184E+02  0.15265689053E+02  0.72676802515E+02  0.00000000000E+00 0.  1.
         21    1    1    2  502  501 -0.21825183753E+02 -0.14908916345E+03  0.76201054663E+03  0.77676508062E+03  0.00000000000E+00 0. -1.
<scales pt_clust_5="13000.00000" pt_clust_6="13000.00000" pt_clust_7="13000.00000" pt_clust_8="13000.00000" pt_clust_9="143.96479"></scales>
<clustering>
<clus scale="   91.924">  7  8 -1 -1</clus>
<clus scale="   95.191">  5  6 -1 -1</clus>
<clus scale="  124.019">  2  7  1 -1</clus>
<clus scale="  143.965">  1  9  2 -1</clus>
<clus scale="  143.965">  1  5  2 -1</clus>
</clustering>
</event>
<event>
 9    1  0.1782981E-005  0.1980758E+03  0.7546771E-02  0.1152254E+00
          3   -1    0    0  502    0  0.00000000000E+00  0.00000000000E+00  0.16354849920E+03  0.16354849920E+03  0.00000000000E+00 0. -1.
         -3   -1    0    0    0  501 -0.00000000000E+00 -0.00000000000E+00 -0.45747175271E+03  0.45747175271E+03  0.00000000000E+00 0.  1.
         23    2    1    2    0    0  0.10810354622E+02  0.17477207852E+03 -0.33418560891E+03  0.38832216465E+03  0.91934428587E+02 0.  0.
         23    2    1    2    0    0  0.77040563190E+01 -0.15657277684E+03  0.15523788903E+01  0.18608842866E+03  0.10026019385E+03 0.  0.
        -13    1    3    3    0    0 -0.28660889580E+02  0.14632736088E+03 -0.25009226229E+03  0.29116882181E+03  0.00000000000E+00 0.  1.
         13    1    3    3    0    0  0.39471244201E+02  0.28444717636E+02 -0.84093346615E+02  0.97153342841E+02  0.00000000000E+00 0. -1.
        -13    1    4    4    0    0  0.48457105100E+02 -0.49805292462E+02 -0.13601712767E+02  0.70807236792E+02  0.00000000000E+00 0.  1.
         13    1    4    4    0    0 -0.40753048781E+02 -0.10676748438E+03  0.15154091658E+02  0.11528119187E+03  0.00000000000E+00 0. -1.
         21    1    1    2  502  501 -0.18514410941E+02 -0.18199301677E+02  0.38709976500E+02  0.46609658598E+02  0.00000000000E+00 0. -1.
<scales pt_clust_5="13000.00000" pt_clust_6="13000.00000" pt_clust_7="13000.00000" pt_clust_8="13000.00000" pt_clust_9="25.96147"></scales>
<clustering>
<clus scale="   25.961">  1  9  2 -1</clus>
<clus scale="   91.934">  5  6 -1 -1</clus>
<clus scale="  100.260">  7  8 -1 -1</clus>
<clus scale="  193.994">  2  5  1 -1</clus>
<clus scale="   25.961">  1  5  2 -1</clus>
</clustering>
</event>
<event>
 9    1  0.1782981E-005  0.1014071E+03  0.7546771E-02  0.1278143E+00
          1   -1    0    0  502    0  0.00000000000E+00  0.00000000000E+00  0.24143568626E+03  0.24143568626E+03  0.00000000000E+00 0. -1.
         -1   -1    0    0    0  501 -0.00000000000E+00 -0.00000000000E+00 -0.18514312784E+03  0.18514312784E+03  0.00000000000E+00 0.  1.
         23    2    1    2    0    0 -0.50868333820E+01 -0.28298815451E+02 -0.11903934456E+03  0.15369793916E+03  0.92876219329E+02 0.  0.
         23    2    1    2    0    0  0.44545856479E+02  0.74883726147E+02  0.58827370000E+02  0.14134960636E+03  0.94483575216E+02 0.  0.
        -11    1    3    3    0    0 -0.40422289361E+02 -0.34288153860E+02 -0.38402444367E+02  0.65455226725E+02  0.00000000000E+00 0.  1.
         11    1    3    3    0    0  0.35335455979E+02  0.59893384093E+01 -0.80636900197E+02  0.88242712431E+02  0.00000000000E+00 0. -1.
        -13    1    4    4    0    0  0.78226472619E+01 -0.22606235614E+02  0.66076443614E+01  0.24817265418E+02  0.00000000000E+00 0.  1.
         13    1    4    4    0    0  0.36723209217E+02  0.97489961761E+02  0.52219725638E+02  0.11653234094E+03  0.00000000000E+00 0. -1.
         21    1    1    2  502  501 -0.39459023097E+02 -0.46584910696E+02  0.11650453299E+03  0.13153126858E+03  0.00000000000E+00 0.  1.
<scales pt_clust_5="13000.00000" pt_clust_6="13000.00000" pt_clust_7="13000.00000" pt_clust_8="13000.00000" pt_clust_9="61.05054"></scales>
<clustering>
<clus scale="   61.051">  1  9  2 -1</clus>
<clus scale="   92.876">  5  6 -1 -1</clus>
<clus scale="   94.484">  7  8 -1 -1</clus>
<clus scale="   99.911">  2  5  1 -1</clus>
<clus scale="   61.051">  1  5  2 -1</clus>
</clustering>
</event>
<event>
 9    1  0.1782981E-005  0.2261213E+03  0.7546771E-02  0.1167131E+00
         -1   -1    0    0    0  501 -0.00000000000E+00  0.00000000000E+00  0.35392893902E+03  0.35392893902E+03  0.00000000000E+00 0.  1.
          1   -1    0    0  502    0  0.00000000000E+00 -0.00000000000E+00 -0.39911507372E+03  0.39911507372E+03  0.00000000000E+00 0. -1.
         23    2    1    2    0    0 -0.80149764398E+01 -0.20484815718E+03  0.23840595501E+03  0.32941667222E+03  0.98239183652E+02 0.  0.
         23    2    1    2    0    0 -0.49894380788E+01  0.10312840723E+02 -0.17666851410E+02  0.93886022962E+02  0.91494363174E+02 0.  0.
        -11    1    3    3    0    0 -0.44672806921E+02 -0.85427123452E+02  0.67334974750E+02  0.11759018634E+03  0.00000000000E+00 0. -1.
         11    1    3    3    0    0  0.36657830481E+02 -0.11942103373E+03  0.17107098026E+03  0.21182648588E+03  0.00000000000E+00 0.  1.
        -13    1    4    4    0    0 -0.29200002965E+02  0.12420614928E+02 -0.46425807252E+02  0.56234041535E+02  0.00000000000E+00 0. -1.
         13    1    4    4    0    0  0.24210564886E+02 -0.21077742056E+01  0.28758955842E+02  0.37651981426E+02  0.00000000000E+00 0.  1.
         21    1    1    2  502  501  0.13004414519E+02  0.19453531646E+03 -0.26592523830E+03  0.32974131757E+03  0.00000000000E+00 0. -1.
<scales pt_clust_5="13000.00000" pt_clust_6="13000.00000" pt_clust_7="13000.00000" pt_clust_8="13000.00000" pt_clust_9="203.66621"></scales>
<clustering>
<clus scale="   91.494">  7  8 -1 -1</clus>
<clus scale="   92.209">  2  7  1 -1</clus>
<clus scale="   98.239">  5  6 -1 -1</clus>
<clus scale="  203.666">  2  9  1 -1</clus>
<clus scale="   92.209">  2  5  1 -1</clus>
</clustering>
</event>
<event>
 9    1  0.1782981E-005  0.1025967E+03  0.7546771E-02  0.1275290E+00
          2   -1    0    0  502    0  0.00000000000E+00  0.00000000000E+00  0.51054879815E+03  0.51054879815E+03  0.00000000000E+00 0. -1.
         -2   -1    0    0    0  501 -0.00000000000E+00 -0.00000000000E+00 -0.36598630167E+02  0.36598630167E+02  0.00000000000E+00 0.  1.
         23    2    1    2    0    0 -0.16124728758E+02 -0.32546743161E+02  0.11290712844E+03  0.14827205792E+03  0.88979133168E+02 0.  0.
         23    2    1    2    0    0  0.25854858753E+02  0.79365803747E+02  0.26993250995E+03  0.29597819616E+03  0.88159674156E+02 0.  0.
        -11    1    4    4    0    0 -0.75271805502E+01  0.24900596201E+02  0.92916290222E+01  0.27623043064E+02  0.00000000000E+00 0.  1.
         11    1    4    4    0    0  0.33382039303E+02  0.54465207545E+02  0.26064088093E+03  0.26835515310E+03  0.00000000000E+00 0. -1.
        -13    1    3    3    0    0 -0.22764806167E+02  0.24718145540E+02  0.20518622407E+02  0.39373048957E+02  0.00000000000E+00 0.  1.
         13    1    3    3    0    0  0.66400774087E+01 -0.57264888701E+02  0.92388506037E+02  0.10889900897E+03  0.00000000000E+00 0. -1.
         21    1    1    2  502  501 -0.97301299952E+01 -0.46819060586E+02  0.91110529583E+02  0.10289717423E+03  0.00000000000E+00 0.  1.
<scales pt_clust_5="13000.00000" pt_clust_6="13000.00000" pt_clust_7="13000.00000" pt_clust_8="13000.00000" pt_clust_9="47.81945"></scales>
<clustering>
<clus scale="   47.819">  1  9  2 -1</clus>
<clus scale="   88.160">  5  6 -1 -1</clus>
<clus scale="   88.979">  7  8 -1 -1</clus>
<clus scale="  101.887">  1  5  2 -1</clus>
<clus scale="   47.819">  1  5  2 -1</clus>
</clustering>
</event>
<event>
 9    1  0.1782981E-005  0.9946352E+02  0.7546771E-02  0.1283191E+00
          1   -1    0    0  502    0  0.00000000000E+00  0.00000000000E+00  0.28668695107E+03  0.28668695107E+03  0.00000000000E+00 0. -1.
         -1   -1    0    0    0  501 -0.00000000000E+00 -0.00000000000E+00 -0.70134129950E+02  0.70134129950E+02  0.00000000000E+00 0.  1.
         23    2    1    2    0    0 -0.68164870667E+01 -0.32172038696E+02  0.20954085609E+02  0.97772705275E+02  0.89660044743E+02 0.  0.
         23    2    1    2    0    0  0.53765622388E+02  0.14684158423E+02  0.85841278090E+02  0.13839703210E+03  0.93159255098E+02 0.  0.
        -11    1    4    4    0    0 -0.92993084526E+01 -0.29886924351E+02  0.23219970659E+02  0.38972713817E+02  0.00000000000E+00 0.  1.
         11    1    4    4    0    0  0.63064930840E+02  0.44571082774E+02  0.62621307431E+02  0.99424318282E+02  0.00000000000E+00 0. -1.
        -13    1    3    3    0    0 -0.95900288887E+01  0.30620592622E+02  0.12125431065E+02  0.34301828306E+02  0.00000000000E+00 0. -1.
         13    1    3    3    0    0  0.27735418220E+01 -0.62792631318E+02  0.88286545438E+01  0.63470876969E+02  0.00000000000E+00 0.  1.
         21    1    1    2  502  501 -0.46949135321E+02  0.17487880273E+02  0.10975745742E+03  0.12065134365E+03  0.00000000000E+00 0. -1.
<scales pt_clust_5="13000.00000" pt_clust_6="13000.00000" pt_clust_7="13000.00000" pt_clust_8="13000.00000" pt_clust_9="50.10037"></scales>
<clustering>
<clus scale="   50.100">  1  9  2 -1</clus>
<clus scale="   89.660">  7  8 -1 -1</clus>
<clus scale="   93.159">  5  6 -1 -1</clus>
<clus scale="   96.194">  2  7  1 -1</clus>
<clus scale="   50.100">  1  5  2 -1</clus>
</clustering>
</event>
<event>
 9    1  0.1782981E-005  0.1000510E+03  0.7546771E-02  0.1280309E+00
          1   -1    0    0  502    0  0.00000000000E+00  0.00000000000E+00  0.18597433928E+03  0.18597433928E+03  0.00000000000E+00 0. -1.
         -1   -1    0    0    0  501 -0.00000000000E+00 -0.00000000000E+00 -0.10219363185E+03  0.10219363185E+03  0.00000000000E+00 0.  1.
         23    2    1    2    0    0 -0.60472801648E+01  0.48654943627E+02 -0.35469779016E+02  0.10913918069E+03  0.90826110790E+02 0.  0.
         23    2    1    2    0    0 -0.18540787769E+02 -0.22530493151E+02  0.72044122832E+02  0.11973713198E+03  0.91078214782E+02 0.  0.
        -11    1    3    3    0    0  0.12209663590E+02 -0.21809190164E+02 -0.25434306882E+02  0.35659790061E+02  0.00000000000E+00 0.  1.
         11    1    3    3    0    0 -0.18256943754E+02  0.70464133791E+02 -0.10035472134E+02  0.73479390628E+02  0.00000000000E+00 0. -1.
        -13    1    4    4    0    0  0.31829531459E+02 -0.29763838616E+02  0.42624736505E+02  0.60957963583E+02  0.00000000000E+00 0.  1.
         13    1    4    4    0    0 -0.50370319228E+02  0.72333454645E+01  0.29419386327E+02  0.58779168399E+02  0.00000000000E+00 0. -1.
         21    1    1    2  502  501  0.24588067934E+02 -0.26124450476E+02  0.47206363611E+02  0.59291658458E+02  0.00000000000E+00 0.  1.
<scales pt_clust_5="13000.00000" pt_clust_6="13000.00000" pt_clust_7="13000.00000" pt_clust_8="13000.00000" pt_clust_9="35.87562"></scales>
<clustering>
<clus scale="   35.876">  1  9  2 -1</clus>
<clus scale="   90.826">  5  6 -1 -1</clus>
<clus scale="   91.078">  7  8 -1 -1</clus>
<clus scale="   99.822">  2  5  1 -1</clus>
<clus scale="   35.876">  1  5  2 -1</clus>
</clustering>
</event>
<event>
 9    1  0.1782981E-005  0.1008374E+03  0.7546771E-02  0.1280559E+00
         -2   -1    0    0    0  501 -0.00000000000E+00  0.00000000000E+00  0.21145995974E+02  0.21145995974E+02  0.00000000000E+00 0.  1.
          2   -1    0    0  502    0  0.00000000000E+00 -0.00000000000E+00 -0.72474620953E+03  0.72474620953E+03  0.00000000000E+00 0. -1.
         23    2    1    2    0    0  0.36096715607E+02  0.28359214602E+01 -0.19892229824E+03  0.22177390460E+03  0.91118432260E+02 0.  0.
         23    2    1    2    0    0 -0.47764673467E+02 -0.32714431243E+02 -0.31799750325E+03  0.33470224341E+03  0.86899261362E+02 0.  0.
        -11    1    3    3    0    0 -0.10358828602E+02  0.38211584265E+02 -0.84416328699E+02  0.93239192688E+02  0.00000000000E+00 0. -1.
         11    1    3    3    0    0  0.46455544209E+02 -0.35375662805E+02 -0.11450596954E+03  0.12853471191E+03  0.00000000000E+00 0.  1.
        -13    1    4    4    0    0 -0.66023936419E+02  0.69978499281E+00 -0.21390549218E+03  0.22386426572E+03  0.00000000000E+00 0. -1.
         13    1    4    4    0    0  0.18259262952E+02 -0.33414216236E+02 -0.10409201107E+03  0.11083797769E+03  0.00000000000E+00 0.  1.
         21    1    1    2  502  501  0.11667957860E+02  0.29878509783E+02 -0.18668041206E+03  0.18941605749E+03  0.00000000000E+00 0. -1.
<scales pt_clust_5="13000.00000" pt_clust_6="13000.00000" pt_clust_7="13000.00000" pt_clust_8="13000.00000" pt_clust_9="32.07595"></scales>
<clustering>
<clus scale="   32.076">  2  9  1 -1</clus>
<clus scale="   86.899">  7  8 -1 -1</clus>
<clus scale="   91.118">  5  6 -1 -1</clus>
<clus scale="   97.042">  2  7  1 -1</clus>
<clus scale="   32.076">  2  5  1 -1</clus>
</clustering>
</event>
<event>
 9    1  0.1782981E-005  0.1013739E+03  0.7546771E-02  0.1277754E+00
          2   -1    0    0  502    0  0.00000000000E+00  0.00000000000E+00  0.23672479165E+03  0.23672479165E+03  0.00000000000E+00 0. -1.
         -2   -1    0    0    0  501 -0.00000000000E+00 -0.00000000000E+00 -0.13095916241E+03  0.13095916241E+03  0.00000000000E+00 0.  1.
         23    2    1    2    0    0  0.13529217629E+02 -0.41657002843E+02 -0.74130596114E+02  0.12487685266E+03  0.90446323498E+02 0.  0.
         23    2    1    2    0    0  0.34338537421E+02  0.56777335786E+02  0.11975477631E+03  0.16446847532E+03  0.91136556420E+02 0.  0.
        -11    1    3    3    0    0 -0.64454980335E+01  0.26139294541E+02 -0.34782201407E+02  0.43984186917E+02  0.00000000000E+00 0. -1.
         11    1    3    3    0    0  0.19974715663E+02 -0.67796297385E+02 -0.39348394707E+02  0.80892665742E+02  0.00000000000E+00 0.  1.
        -13    1    4    4    0    0  0.59264942335E+02  0.27955008537E+02  0.41870962437E+02  0.77762416293E+02  0.00000000000E+00 0.  1.
         13    1    4    4    0    0 -0.24926404914E+02  0.28822327248E+02  0.77883813869E+02  0.86706059031E+02  0.00000000000E+00 0. -1.
         21    1    1    2  502  501 -0.47867755050E+02 -0.15120332943E+02  0.60141449049E+02  0.78338626077E+02  0.00000000000E+00 0. -1.
<scales pt_clust_5="13000.00000" pt_clust_6="13000.00000" pt_clust_7="13000.00000" pt_clust_8="13000.00000" pt_clust_9="50.19907"></scales>
<clustering>
<clus scale="   50.199">  1  9  2 -1</clus>
<clus scale="   90.446">  5  6 -1 -1</clus>
<clus scale="   91.137">  7  8 -1 -1</clus>
<clus scale="  100.754">  2  5  1 -1</clus>
<clus scale="   50.199">  1  5  2 -1</clus>
</clustering>
</event>
<event>
 9    1  0.1782981E-005  0.1100788E+03  0.7546771E-02  0.1260721E+00
         -1   -1    0    0    0  501 -0.00000000000E+00  0.00000000000E+00  0.14193779265E+03  0.14193779265E+03  0.00000000000E+00 0.  1.
          1   -1    0    0  502    0  0.00000000000E+00 -0.00000000000E+00 -0.25271548012E+03  0.25271548012E+03  0.00000000000E+00 0. -1.
         23    2    1    2    0    0 -0.58641597089E+02 -0.28260940321E+02  0.92111121676E+02  0.14538438997E+03  0.91731371155E+02 0.  0.
         23    2    1    2    0    0  0.40830284975E+02 -0.10448843686E+02 -0.15998228091E+03  0.18879855635E+03  0.90963037368E+02 0.  0.
        -13    1    3    3    0    0 -0.83003588974E+01 -0.21268043472E+02 -0.14661267712E+02  0.27132607724E+02  0.00000000000E+00 0. -1.
         13    1    3    3    0    0 -0.50341238192E+02 -0.69928968490E+01  0.10677238939E+03  0.11825178225E+03  0.00000000000E+00 0.  1.
        -13    1    4    4    0    0 -0.90967192376E+01 -0.22742835817E+02 -0.12311724717E+03  0.12553024908E+03  0.00000000000E+00 0.  1.
         13    1    4    4    0    0  0.49927004213E+02  0.12293992131E+02 -0.36865033739E+02  0.63268307270E+02  0.00000000000E+00 0. -1.
         21    1    1    2  502  501  0.17811312114E+02  0.38709784008E+02 -0.42906528232E+02  0.60470326459E+02  0.00000000000E+00 0. -1.
<scales pt_clust_5="13000.00000" pt_clust_6="13000.00000" pt_clust_7="13000.00000" pt_clust_8="13000.00000" pt_clust_9="42.61092"></scales>
<clustering>
<clus scale="   42.611">  2  9  1 -1</clus>
<clus scale="   90.963">  7  8 -1 -1</clus>
<clus scale="   91.731">  5  6 -1 -1</clus>
<clus scale="  109.439">  2  7  1 -1</clus>
<clus scale="   42.611">  2  5  1 -1</clus>
</clustering>
</event>
<event>
 9    1  0.1782981E-005  0.2314688E+03  0.7546771E-02  0.1125626E+00
          1   -1    0    0  502    0  0.00000000000E+00  0.00000000000E+00  0.10405446156E+04  0.10405446156E+04  0.00000000000E+00 0. -1.
         -1   -1    0    0    0  501 -0.00000000000E+00 -0.00000000000E+00 -0.63774202853E+02  0.63774202853E+02  0.00000000000E+00 0.  1.
         23    2    1    2    0    0 -0.24770955932E+02  0.22823610904E+03  0.36506204248E+03  0.44097370436E+03  0.92098812997E+02 0.  0.
         23    2    1    2    0    0  0.41874168293E+01 -0.19117303291E+03  0.47710107860E+03  0.52221936638E+03  0.92319902808E+02 0.  0.
        -11    1    3    3    0    0 -0.24133419247E+02  0.63776848941E+01  0.28742219106E+02  0.38068516497E+02  0.00000000000E+00 0. -1.
         11    1    3    3    0    0 -0.63753668431E+00  0.22185842414E+03  0.33631982337E+03  0.40290518787E+03  0.00000000000E+00 0.  1.
        -13    1    4    4    0    0 -0.37038586617E+02 -0.53962805632E+02  0.19726886105E+03  0.20784331799E+03  0.00000000000E+00 0.  1.
         13    1    4    4    0    0  0.41226003446E+02 -0.13721022728E+03  0.27983221755E+03  0.31437604840E+03  0.00000000000E+00 0. -1.
         21    1    1    2  502  501  0.20583539102E+02 -0.37063076129E+02  0.13460729163E+03  0.14112574766E+03  0.00000000000E+00 0. -1.
<scales pt_clust_5="13000.00000" pt_clust_6="13000.00000" pt_clust_7="13000.00000" pt_clust_8="13000.00000" pt_clust_9="42.39521"></scales>
<clustering>
<clus scale="   42.395">  1  9  2 -1</clus>
<clus scale="   92.099">  5  6 -1 -1</clus>
<clus scale="   92.320">  7  8 -1 -1</clus>
<clus scale="  231.381">  2  5  1 -1</clus>
<clus scale="   42.395">  1  5  2 -1</clus>
</clustering>
</event>
<event>
 9    1  0.1782981E-005  0.9184456E+02  0.7546771E-02  0.1299734E+00
          2   -1    0    0  502    0  0.00000000000E+00  0.00000000000E+00  0.14675829143E+03  0.14675829143E+03  0.00000000000E+00 0. -1.
         -2   -1    0    0    0  501 -0.00000000000E+00 -0.00000000000E+00 -0.11795955961E+03  0.11795955961E+03  0.00000000000E+00 0.  1.
         23    2    1    2    0    0  0.26582862767E+01 -0.19547871439E+01 -0.69795955137E+02  0.11367842944E+03  0.89668401835E+02 0.  0.
         23    2    1    2    0    0  0.63734588352E+01 -0.16814262294E+02  0.81687145099E+02  0.12421192436E+03  0.91828492770E+02 0.  0.
        -11    1    3    3    0    0  0.27775503893E+02  0.20571476120E+01 -0.81170137953E+02  0.85815510067E+02  0.00000000000E+00 0. -1.
         11    1    3    3    0    0 -0.25117217616E+02 -0.40119347559E+01  0.11374182815E+02  0.27862919373E+02  0.00000000000E+00 0.  1.
        -13    1    4    4    0    0  0.35360780540E+02  0.19530190218E+02  0.61383602735E+02  0.73483058014E+02  0.00000000000E+00 0. -1.
         13    1    4    4    0    0 -0.28987321705E+02 -0.36344452513E+02  0.20303542364E+02  0.50728866344E+02  0.00000000000E+00 0.  1.
         21    1    1    2  502  501 -0.90317451118E+01  0.18769049438E+02  0.16907541855E+02  0.26827497240E+02  0.00000000000E+00 0. -1.
<scales pt_clust_5="13000.00000" pt_clust_6="13000.00000" pt_clust_7="13000.00000" pt_clust_8="13000.00000" pt_clust_9="20.82906"></scales>
<clustering>
<clus scale="   20.829">  1  9  2 -1</clus>
<clus scale="   89.668">  5  6 -1 -1</clus>
<clus scale="   89.685">  2  5  1 -1</clus>
<clus scale="   91.828">  7  8 -1 -1</clus>
<clus scale="   20.829">  1  5  2 -1</clus>
</clustering>
</event>
<event>
 9    1  0.1782981E-005  0.2827175E+03  0.7546771E-02  0.1094620E+00
         -1   -1    0    0    0  501 -0.00000000000E+00  0.00000000000E+00  0.46703209347E+02  0.46703209347E+02  0.00000000000E+00 0.  1.
          1   -1    0    0  502    0  0.00000000000E+00 -0.00000000000E+00 -0.22012135936E+04  0.22012135936E+04  0.00000000000E+00 0. -1.
         23    2    1    2    0    0  0.26765035247E+03  0.24153189602E+02 -0.59875483922E+03  0.66140569290E+03  0.82036853719E+02 0.  0.
         23    2    1    2    0    0 -0.26075812819E+03 -0.49846580991E+02 -0.13399992085E+04  0.13691210232E+04  0.91733386863E+02 0.  0.
        -13    1    4    4    0    0 -0.13645761429E+03  0.88538497210E+01 -0.51999325031E+03  0.53767281085E+03  0.00000000000E+00 0.  1.
         13    1    4    4    0    0 -0.12430051390E+03 -0.58700430712E+02 -0.82000595818E+03  0.83144821232E+03  0.00000000000E+00 0. -1.
        -13    1    3    3    0    0  0.14462712862E+03  0.46541928554E+02 -0.27223289919E+03  0.31175937652E+03  0.00000000000E+00 0.  1.
         13    1    3    3    0    0  0.12302322384E+03 -0.22388738952E+02 -0.32652194004E+03  0.34964631638E+03  0.00000000000E+00 0. -1.
         21    1    1    2  502  501 -0.68922242789E+01  0.25693391389E+02 -0.21575633649E+03  0.21739008683E+03  0.00000000000E+00 0.  1.
<scales pt_clust_5="13000.00000" pt_clust_6="13000.00000" pt_clust_7="13000.00000" pt_clust_8="13000.00000" pt_clust_9="26.60175"></scales>
<clustering>
<clus scale="   26.602">  2  9  1 -1</clus>
<clus scale="   82.037">  7  8 -1 -1</clus>
<clus scale="   91.733">  5  6 -1 -1</clus>
<clus scale="  279.722">  1  7  2 -1</clus>
<clus scale="   26.602">  2  5  1 -1</clus>
</clustering>
</event>
<event>
 9    1  0.1782981E-005  0.1621790E+03  0.7546771E-02  0.1187360E+00
         -2   -1    0    0    0  501 -0.00000000000E+00  0.00000000000E+00  0.27388775078E+03  0.27388775078E+03  0.00000000000E+00 0.  1.
          2   -1    0    0  502    0  0.00000000000E+00 -0.00000000000E+00 -0.16619400080E+03  0.16619400080E+03  0.00000000000E+00 0. -1.
         23    2    1    2    0    0 -0.90389076282E+02 -0.11658050302E+03  0.16925714041E+03  0.24055131478E+03  0.86346723557E+02 0.  0.
         23    2    1    2    0    0  0.47325359427E+02  0.79092996035E+02 -0.54309860236E+02  0.14197689139E+03  0.93340693713E+02 0.  0.
        -11    1    3    3    0    0 -0.17928531937E+02 -0.86028307974E+02  0.11620408878E+03  0.14569039872E+03  0.00000000000E+00 0.  1.
         11    1    3    3    0    0 -0.72460544345E+02 -0.30552195042E+02  0.53053051630E+02  0.94860916061E+02  0.00000000000E+00 0. -1.
        -13    1    4    4    0    0  0.52418046798E+01 -0.21457974798E+02 -0.11116503269E+02  0.24728482437E+02  0.00000000000E+00 0.  1.
         13    1    4    4    0    0  0.42083554747E+02  0.10055097083E+03 -0.43193356968E+02  0.11724840895E+03  0.00000000000E+00 0. -1.
         21    1    1    2  502  501  0.43063716855E+02  0.37487506981E+02 -0.72535301918E+01  0.57553545410E+02  0.00000000000E+00 0.  1.
<scales pt_clust_5="13000.00000" pt_clust_6="13000.00000" pt_clust_7="13000.00000" pt_clust_8="13000.00000" pt_clust_9="57.09463"></scales>
<clustering>
<clus scale="   57.095">  2  9  1 -1</clus>
<clus scale="   86.347">  5  6 -1 -1</clus>
<clus scale="   93.341">  7  8 -1 -1</clus>
<clus scale="  158.257">  1  5  2 -1</clus>
<clus scale="   57.095">  2  5  1 -1</clus>
</clustering>
</event>
<event>
 9    1  0.1782981E-005  0.9172799E+02  0.7546771E-02  0.1298831E+00
          1   -1    0    0  502    0  0.00000000000E+00  0.00000000000E+00  0.80268338038E+02  0.80268338038E+02  0.00000000000E+00 0. -1.
         -1   -1    0    0    0  501 -0.00000000000E+00 -0.00000000000E+00 -0.19968955860E+03  0.19968955860E+03  0.00000000000E+00 0.  1.
         23    2    1    2    0    0  0.71821620968E+01 -0.12051255831E+02 -0.10414957419E+03  0.13919927204E+03  0.91282458956E+02 0.  0.
         23    2    1    2    0    0 -0.12956309394E+02 -0.28668133961E+02 -0.22590462710E+02  0.98985732021E+02  0.91094007928E+02 0.  0.
        -11    1    3    3    0    0 -0.30980397382E+02  0.12172513666E+02 -0.99909834412E+01  0.34753055420E+02  0.00000000000E+00 0.  1.
         11    1    3    3    0    0  0.38162559478E+02 -0.24223769497E+02 -0.94158590747E+02  0.10444621662E+03  0.00000000000E+00 0. -1.
        -13    1    4    4    0    0 -0.26542659728E+02 -0.10744568330E+02 -0.53546330944E+02  0.60722056055E+02  0.00000000000E+00 0.  1.
         13    1    4    4    0    0  0.13586350334E+02 -0.17923565631E+02  0.30955868234E+02  0.38263675966E+02  0.00000000000E+00 0. -1.
         21    1    1    2  502  501  0.57741472973E+01  0.40719389792E+02  0.73188163341E+01  0.41772892581E+02  0.00000000000E+00 0.  1.
<scales pt_clust_5="13000.00000" pt_clust_6="13000.00000" pt_clust_7="13000.00000" pt_clust_8="13000.00000" pt_clust_9="41.12675"></scales>
<clustering>
<clus scale="   41.127">  1  9  2 -1</clus>
<clus scale="   91.094">  7  8 -1 -1</clus>
<clus scale="   91.282">  5  6 -1 -1</clus>
<clus scale="   91.540">  1  7  2 -1</clus>
<clus scale="   41.127">  1  5  2 -1</clus>
</clustering>
</event>
<event>
 9    1  0.1782981E-005  0.1047300E+03  0.7546771E-02  0.1270688E+00
          1   -1    0    0  502    0  0.00000000000E+00  0.00000000000E+00  0.38332201871E+03  0.38332201871E+03  0.00000000000E+00 0. -1.
         -1   -1    0    0    0  501 -0.00000000000E+00 -0.00000000000E+00 -0.57555276579E+02  0.57555276579E+02  0.00000000000E+00 0.  1.
         23    2    1    2    0    0 -0.69793377327E+02  0.24363175783E+02  0.10450216255E+03  0.15705242556E+03  0.90994958883E+02 0.  0.
         23    2    1    2    0    0  0.31762658029E+02  0.38768994439E+02  0.12200292558E+03  0.16019282501E+03  0.90912738162E+02 0.  0.
        -11    1    3    3    0    0 -0.30060288895E+02 -0.23085549852E+02  0.28065326466E+01  0.38005791741E+02  0.00000000000E+00 0. -1.
         11    1    3    3    0    0 -0.39733088432E+02  0.47448725635E+02  0.10169562991E+03  0.11904663382E+03  0.00000000000E+00 0.  1.
        -11    1    4    4    0    0 -0.14073210814E+02  0.45980302013E+02  0.28726295818E+02  0.56012886975E+02  0.00000000000E+00 0.  1.
         11    1    4    4    0    0  0.45835868843E+02 -0.72113075742E+01  0.93276629763E+02  0.10417993804E+03  0.00000000000E+00 0. -1.
         21    1    1    2  502  501  0.38030719298E+02 -0.63132170222E+02  0.99261653993E+02  0.12363204472E+03  0.00000000000E+00 0. -1.
<scales pt_clust_5="13000.00000" pt_clust_6="13000.00000" pt_clust_7="13000.00000" pt_clust_8="13000.00000" pt_clust_9="73.70215"></scales>
<clustering>
<clus scale="   73.702">  1  9  2 -1</clus>
<clus scale="   90.913">  7  8 -1 -1</clus>
<clus scale="   90.995">  5  6 -1 -1</clus>
<clus scale="  104.659">  1  7  2 -1</clus>
<clus scale="   73.702">  1  5  2 -1</clus>
</clustering>
</event>
<event>
 9    1  0.1782981E-005  0.1117062E+03  0.7546771E-02  0.1259088E+00
          2   -1    0    0  502    0  0.00000000000E+00  0.00000000000E+00  0.48867776311E+03  0.48867776311E+03  0.00000000000E+00 0. -1.
         -2   -1    0    0    0  501 -0.00000000000E+00 -0.00000000000E+00 -0.81557704671E+02  0.81557704671E+02  0.00000000000E+00 0.  1.
         23    2    1    2    0    0  0.23480482176E+02 -0.57273228387E+02 -0.29886432087E+02  0.11262821594E+03  0.89220852216E+02 0.  0.
         23    2    1    2    0    0  0.18090982367E+01  0.58665132619E+02  0.35874365058E+03  0.37534807368E+03  0.93510956379E+02 0.  0.
        -13    1    4    4    0    0  0.59032695516E+01 -0.19489573466E+02  0.23523482464E+02  0.31113442312E+02  0.00000000000E+00 0.  1.
         13    1    4    4    0    0 -0.40941713149E+01  0.78154706085E+02  0.33522016811E+03  0.34423463137E+03  0.00000000000E+00 0. -1.
        -13    1    3    3    0    0  0.40065685580E+02 -0.35674152239E+02 -0.54099542432E+02  0.76188350752E+02  0.00000000000E+00 0.  1.
         13    1    3    3    0    0 -0.16585203404E+02 -0.21599076147E+02  0.24213110345E+02  0.36439865188E+02  0.00000000000E+00 0. -1.
         21    1    1    2  502  501 -0.25289580413E+02 -0.13919042329E+01  0.78262839944E+02  0.82259178156E+02  0.00000000000E+00 0.  1.
<scales pt_clust_5="13000.00000" pt_clust_6="13000.00000" pt_clust_7="13000.00000" pt_clust_8="13000.00000" pt_clust_9="25.32786"></scales>
<clustering>
<clus scale="   25.328">  1  9  2 -1</clus>
<clus scale="   89.221">  7  8 -1 -1</clus>
<clus scale="   93.511">  5  6 -1 -1</clus>
<clus scale="  108.140">  2  7  1 -1</clus>
<clus scale="   25.328">  1  5  2 -1</clus>
</clustering>
</event>
<event>
 9    1  0.1782981E-005  0.4456783E+03  0.7546771E-02  0.1029047E+00
          2   -1    0    0  502    0  0.00000000000E+00  0.00000000000E+00  0.33035114509E+03  0.33035114509E+03  0.00000000000E+00 0. -1.
         -2   -1    0    0    0  501 -0.00000000000E+00 -0.00000000000E+00 -0.10093534578E+04  0.10093534578E+04  0.00000000000E+00 0.  1.
         23    2    1    2    0    0  0.45837934679E+02 -0.44801606827E+03 -0.70392705399E+03  0.84032847519E+03  0.88425874043E+02 0.  0.
         23    2    1    2    0    0 -0.22616677105E+02  0.43253765507E+03  0.68420541130E+02  0.44769738270E+03  0.90284211759E+02 0.  0.
        -11    1    4    4    0    0 -0.37305370724E+02  0.15335831775E+03 -0.74933545700E+01  0.15800827406E+03  0.00000000000E+00 0.  1.
         11    1    4    4    0    0  0.14688693620E+02  0.27917933732E+03  0.75913895700E+02  0.28968910864E+03  0.00000000000E+00 0. -1.
        -11    1    3    3    0    0  0.41332996850E+02 -0.14543125246E+03 -0.29635997120E+03  0.33269790855E+03  0.00000000000E+00 0. -1.
         11    1    3    3    0    0  0.45049378288E+01 -0.30258481580E+03 -0.40756708279E+03  0.50763056664E+03  0.00000000000E+00 0.  1.
         21    1    1    2  502  501 -0.23221257574E+02  0.15478413197E+02 -0.43495799817E+02  0.51678744955E+02  0.00000000000E+00 0. -1.
<scales pt_clust_5="13000.00000" pt_clust_6="13000.00000" pt_clust_7="13000.00000" pt_clust_8="13000.00000" pt_clust_9="27.90713"></scales>
<clustering>
<clus scale="   27.907">  2  9  1 -1</clus>
<clus scale="   88.426">  7  8 -1 -1</clus>
<clus scale="   90.284">  5  6 -1 -1</clus>
<clus scale="  445.306">  2  7  1 -1</clus>
<clus scale="  445.678">  1  5  2 -1</clus>
</clustering>
</event>
<event>
 9    1  0.1782981E-005  0.9838906E+02  0.7546771E-02  0.1286099E+00
         -2   -1    0    0    0  501 -0.00000000000E+00  0.00000000000E+00  0.67041012683E+02  0.67041012683E+02  0.00000000000E+00 0.  1.
          2   -1    0    0  502    0  0.00000000000E+00 -0.00000000000E+00 -0.27563358404E+03  0.27563358404E+03  0.00000000000E+00 0. -1.
         23    2    1    2    0    0 -0.10196198606E+02 -0.13151774615E+02 -0.20566024194E+02  0.95721605323E+02  0.91993112421E+02 0.  0.
         23    2    1    2    0    0  0.35313189099E+02 -0.13836143955E+02 -0.74541491513E+02  0.12762961223E+03  0.96407591805E+02 0.  0.
        -11    1    4    4    0    0  0.17636783621E+02 -0.42406506889E+02 -0.67012508727E-01  0.45927904956E+02  0.00000000000E+00 0.  1.
         11    1    4    4    0    0  0.17676405478E+02  0.28570362934E+02 -0.74474479004E+02  0.81701707276E+02  0.00000000000E+00 0. -1.
        -11    1    3    3    0    0  0.32127910872E+02 -0.97196233854E+01  0.18236377507E+02  0.38199989534E+02  0.00000000000E+00 0.  1.
         11    1    3    3    0    0 -0.42324109479E+02 -0.34321512298E+01 -0.38802401701E+02  0.57521615789E+02  0.00000000000E+00 0. -1.
         21    1    1    2  502  501 -0.25116990492E+02  0.26987918570E+02 -0.11348505565E+03  0.11932337917E+03  0.00000000000E+00 0. -1.
<scales pt_clust_5="13000.00000" pt_clust_6="13000.00000" pt_clust_7="13000.00000" pt_clust_8="13000.00000" pt_clust_9="36.86748"></scales>
<clustering>
<clus scale="   36.867">  2  9  1 -1</clus>
<clus scale="   91.993">  7  8 -1 -1</clus>
<clus scale="   94.068">  1  7  2 -1</clus>
<clus scale="   96.408">  5  6 -1 -1</clus>
<clus scale="   36.867">  2  5  1 -1</clus>
</clustering>
</event>
<event>
 9    1  0.2021446E-005  0.3255827E+03  0.7546771E-02  0.1073243E+00
          1   -1    0    0  502    0  0.00000000000E+00  0.00000000000E+00  0.27400014501E+04  0.27400014501E+04  0.00000000000E+00 0. -1.
         -1   -1    0    0    0  501 -0.00000000000E+00 -0.00000000000E+00 -0.46125337036E+02  0.46125337036E+02  0.00000000000E+00 0.  1.
         23    2    1    2    0    0  0.31333612966E+03  0.44467694940E+02  0.10758994787E+04  0.11252835460E+04  0.92447090742E+02 0.  0.
         23    2    1    2    0    0 -0.30890106656E+03  0.13365578319E+01  0.12774310255E+04  0.13172024242E+04  0.88150700921E+02 0.  0.
        -11    1    3    3    0    0  0.24524597630E+03  0.17496036282E+02  0.93111161060E+03  0.96302675538E+03  0.00000000000E+00 0.  1.
         11    1    3    3    0    0  0.68090153353E+02  0.26971658658E+02  0.14478786813E+03  0.16225679065E+03  0.00000000000E+00 0. -1.
        -13    1    4    4    0    0 -0.11365647845E+03 -0.41965734089E+02  0.46690409947E+03  0.48236744918E+03  0.00000000000E+00 0.  1.
         13    1    4    4    0    0 -0.19524458811E+03  0.43302291921E+02  0.81052692605E+03  0.83483497503E+03  0.00000000000E+00 0. -1.
         21    1    1    2  502  501 -0.44350630991E+01 -0.45804252772E+02  0.34054560878E+03  0.34364081687E+03  0.00000000000E+00 0.  1.
<scales pt_clust_5="13000.00000" pt_clust_6="13000.00000" pt_clust_7="13000.00000" pt_clust_8="13000.00000" pt_clust_9="46.01847"></scales>
<clustering>
<clus scale="   46.018">  1  9  2 -1</clus>
<clus scale="   88.151">  7  8 -1 -1</clus>
<clus scale="   92.447">  5  6 -1 -1</clus>
<clus scale="  324.389">  1  7  2 -1</clus>
<clus scale="   46.018">  1  5  2 -1</clus>
</clustering>
</event>
<event>
 9    1  0.1782981E-005  0.1331188E+03  0.7546771E-02  0.1223430E+00
          1   -1    0    0  502    0  0.00000000000E+00  0.00000000000E+00  0.10351198720E+04  0.10351198720E+04  0.00000000000E+00 0. -1.
         -1   -1    0    0    0  501 -0.00000000000E+00 -0.00000000000E+00 -0.47705038497E+02  0.47705038497E+02  0.00000000000E+00 0.  1.
         23    2    1    2    0    0 -0.77872101854E+02  0.37833498499E+02  0.11029932343E+03  0.16747819300E+03  0.91583658619E+02 0.  0.
         23    2    1    2    0    0  0.79783740159E+02 -0.11393374474E+03  0.41040426184E+03  0.44246798985E+03  0.89442274758E+02 0.  0.
        -11    1    3    3    0    0  0.15454055785E+02  0.26889125830E+02  0.37168596511E+02  0.48408237880E+02  0.00000000000E+00 0.  1.
         11    1    3    3    0    0 -0.93326157639E+02  0.10944372669E+02  0.73130726920E+02  0.11906995512E+03  0.00000000000E+00 0. -1.
        -13    1    4    4    0    0  0.31908136764E+02 -0.11306701233E+03  0.29206623297E+03  0.31480940728E+03  0.00000000000E+00 0.  1.
         13    1    4    4    0    0  0.47875603396E+02 -0.86673241147E+00  0.11833802887E+03  0.12765858257E+03  0.00000000000E+00 0. -1.
         21    1    1    2  502  501 -0.19116383049E+01  0.76100246244E+02  0.46671124819E+03  0.47287872761E+03  0.00000000000E+00 0. -1.
<scales pt_clust_5="13000.00000" pt_clust_6="13000.00000" pt_clust_7="13000.00000" pt_clust_8="13000.00000" pt_clust_9="76.12425"></scales>
<clustering>
<clus scale="   76.124">  1  9  2 -1</clus>
<clus scale="   89.442">  7  8 -1 -1</clus>
<clus scale="   91.584">  5  6 -1 -1</clus>
<clus scale="  131.655">  1  7  2 -1</clus>
<clus scale="   76.124">  1  5  2 -1</clus>
</clustering>
</event>
<event>
 9    1  0.1782981E-005  0.1301744E+03  0.7546771E-02  0.1241221E+00
          1   -1    0    0  502    0  0.00000000000E+00  0.00000000000E+00  0.40456473422E+03  0.40456473422E+03  0.00000000000E+00 0. -1.
         -1   -1    0    0    0  501 -0.00000000000E+00 -0.00000000000E+00 -0.46156856560E+02  0.46156856560E+02  0.00000000000E+00 0.  1.
         23    2    1    2    0    0  0.15089717434E+02  0.13894332701E+02  0.10351597434E+03  0.14007504774E+03  0.92112485595E+02 0.  0.
         23    2    1    2    0    0 -0.17783189428E+02 -0.53200079782E+02  0.19236011531E+03  0.23673834960E+03  0.12607990283E+03 0.  0.
        -11    1    3    3    0    0  0.24545633200E+02  0.34234168027E+02  0.10910862396E+03  0.11695793343E+03  0.00000000000E+00 0.  1.
         11    1    3    3    0    0 -0.94559157659E+01 -0.20339835326E+02 -0.55926496241E+01  0.23117114307E+02  0.00000000000E+00 0. -1.
        -13    1    4    4    0    0  0.23440967341E+02 -0.94087303407E-02 -0.84769354564E+01  0.24926641834E+02  0.00000000000E+00 0.  1.
         13    1    4    4    0    0 -0.41224156769E+02 -0.53190671052E+02  0.20083705076E+03  0.21181170777E+03  0.00000000000E+00 0. -1.
         21    1    1    2  502  501  0.26934719937E+01  0.39305747081E+02  0.62531788015E+02  0.73908193439E+02  0.00000000000E+00 0. -1.
<scales pt_clust_5="13000.00000" pt_clust_6="13000.00000" pt_clust_7="13000.00000" pt_clust_8="13000.00000" pt_clust_9="39.39793"></scales>
<clustering>
<clus scale="   39.398">  1  9  2 -1</clus>
<clus scale="   92.112">  5  6 -1 -1</clus>
<clus scale="   97.642">  2  5  1 -1</clus>
<clus scale="  126.080">  7  8 -1 -1</clus>
<clus scale="   39.398">  1  5  2 -1</clus>
</clustering>
</event>
<event>
 9    1  0.1782981E-005  0.1077895E+03  0.7546771E-02  0.1265700E+00
          1   -1    0    0  502    0  0.00000000000E+00  0.00000000000E+00  0.63749377434E+02  0.63749377434E+02  0.00000000000E+00 0. -1.
         -1   -1    0    0    0  501 -0.00000000000E+00 -0.00000000000E+00 -0.36380079014E+03  0.36380079014E+03  0.00000000000E+00 0.  1.
         23    2    1    2    0    0  0.40035231634E+02  0.55141130924E+02 -0.25318857262E+03  0.27756612725E+03  0.91077645991E+02 0.  0.
         23    2    1    2    0    0 -0.49032486171E+02 -0.27824674926E+02 -0.13481847921E+02  0.10592237904E+03  0.88653217217E+02 0.  0.
        -11    1    4    4    0    0 -0.38443964159E+02  0.15005359175E+02 -0.37436846079E+02  0.55719086753E+02  0.00000000000E+00 0.  1.
         11    1    4    4    0    0 -0.10588522011E+02 -0.42830034102E+02  0.23954998158E+02  0.50203292285E+02  0.00000000000E+00 0. -1.
        -13    1    3    3    0    0  0.37112205315E+02  0.79864964405E+01 -0.21048777120E+03  0.21388361726E+03  0.00000000000E+00 0.  1.
         13    1    3    3    0    0  0.29230263199E+01  0.47154634484E+02 -0.42700801417E+02  0.63682509984E+02  0.00000000000E+00 0. -1.
         21    1    1    2  502  501  0.89972545360E+01 -0.27316455998E+02 -0.33380992168E+02  0.44061661289E+02  0.00000000000E+00 0. -1.
<scales pt_clust_5="13000.00000" pt_clust_6="13000.00000" pt_clust_7="13000.00000" pt_clust_8="13000.00000" pt_clust_9="28.76003"></scales>
<clustering>
<clus scale="   28.760">  2  9  1 -1</clus>
<clus scale="   88.653">  5  6 -1 -1</clus>
<clus scale="   91.078">  7  8 -1 -1</clus>
<clus scale="  105.749">  1  5  2 -1</clus>
<clus scale="  105.749">  1  5  2 -1</clus>
</clustering>
</event>
<event>
 9    1  0.1782981E-005  0.9832697E+02  0.7546771E-02  0.1284707E+00
         -1   -1    0    0    0  501 -0.00000000000E+00  0.00000000000E+00  0.54331853417E+02  0.54331853417E+02  0.00000000000E+00 0.  1.
          1   -1    0    0  502    0  0.00000000000E+00 -0.00000000000E+00 -0.25242042589E+03  0.25242042589E+03  0.00000000000E+00 0. -1.
         23    2    1    2    0    0  0.19163403944E+01 -0.45419105246E+02 -0.69667618568E+02  0.12496442972E+03  0.93252153520E+02 0.  0.
         23    2    1    2    0    0  0.13104617047E+02  0.13668242453E+02 -0.94447390569E+02  0.13292119986E+03  0.91592488480E+02 0.  0.
        -13    1    3    3    0    0 -0.14896327209E+02  0.25935250297E+02 -0.14630458982E+02  0.33295466693E+02  0.00000000000E+00 0. -1.
         13    1    3    3    0    0  0.16812667603E+02 -0.71354355543E+02 -0.55037159586E+02  0.91668963025E+02  0.00000000000E+00 0.  1.
        -13    1    4    4    0    0  0.19860843176E+02  0.48813810874E+02 -0.76470877907E+02  0.92871074030E+02  0.00000000000E+00 0. -1.
         13    1    4    4    0    0 -0.67562261286E+01 -0.35145568421E+02 -0.17976512663E+02  0.40050125825E+02  0.00000000000E+00 0.  1.
         21    1    1    2  502  501 -0.15020957442E+02  0.31750862793E+02 -0.33973563340E+02  0.48866649737E+02  0.00000000000E+00 0.  1.
<scales pt_clust_5="13000.00000" pt_clust_6="13000.00000" pt_clust_7="13000.00000" pt_clust_8="13000.00000" pt_clust_9="35.12473"></scales>
<clustering>
<clus scale="   35.125">  2  9  1 -1</clus>
<clus scale="   91.592">  7  8 -1 -1</clus>
<clus scale="   93.252">  5  6 -1 -1</clus>
<clus scale="   96.754">  2  7  1 -1</clus>
<clus scale="   35.125">  2  5  1 -1</clus>
</clustering>
</event>
<event>
 9    1  0.1782981E-005  0.9149613E+02  0.7546771E-02  0.1300767E+00
         -3   -1    0    0    0  501 -0.00000000000E+00  0.00000000000E+00  0.15445795284E+03  0.15445795284E+03  0.00000000000E+00 0.  1.
          3   -1    0    0  502    0  0.00000000000E+00 -0.00000000000E+00 -0.83533542579E+02  0.83533542579E+02  0.00000000000E+00 0. -1.
         23    2    1    2    0    0  0.15123001338E+02 -0.48245495190E+01  0.77752046650E+02  0.11891830401E+03  0.88567493036E+02 0.  0.
         23    2    1    2    0    0  0.72813292882E+01  0.30281309171E+01  0.85917316280E+01  0.91816301254E+02  0.91072652264E+02 0.  0.
        -11    1    4    4    0    0  0.33075421896E+02 -0.40531511541E-01 -0.30426876177E+02  0.44941962244E+02  0.00000000000E+00 0. -1.
         11    1    4    4    0    0 -0.25794092608E+02  0.30686624287E+01  0.39018607805E+02  0.46874339010E+02  0.00000000000E+00 0.  1.
        -13    1    3    3    0    0  0.49731273974E+02  0.71626851985E+01  0.59872973542E+02  0.78161861743E+02  0.00000000000E+00 0. -1.
         13    1    3    3    0    0 -0.34608272636E+02 -0.11987234718E+02  0.17879073108E+02  0.40756442267E+02  0.00000000000E+00 0.  1.
         21    1    1    2  502  501 -0.22404330626E+02  0.17964186019E+01 -0.15419368020E+02  0.27256890152E+02  0.00000000000E+00 0. -1.
<scales pt_clust_5="13000.00000" pt_clust_6="13000.00000" pt_clust_7="13000.00000" pt_clust_8="13000.00000" pt_clust_9="22.47624"></scales>
<clustering>
<clus scale="   22.476">  2  9  1 -1</clus>
<clus scale="   88.567">  7  8 -1 -1</clus>
<clus scale="   89.003">  1  7  2 -1</clus>
<clus scale="   91.073">  5  6 -1 -1</clus>
<clus scale="   22.476">  2  5  1 -1</clus>
</clustering>
</event>
<event>
 9    1  0.1782981E-005  0.9657208E+02  0.7546771E-02  0.1288626E+00
         -1   -1    0    0    0  501 -0.00000000000E+00  0.00000000000E+00  0.17509176795E+03  0.17509176795E+03  0.00000000000E+00 0.  1.
          1   -1    0    0  502    0  0.00000000000E+00 -0.00000000000E+00 -0.89747367027E+02  0.89747367027E+02  0.00000000000E+00 0. -1.
         23    2    1    2    0    0  0.45686197945E+02  0.19113105438E+02  0.64645461764E+02  0.12102504695E+03  0.89529250979E+02 0.  0.
         23    2    1    2    0    0  0.28175221778E+01 -0.12382309189E+02  0.48546290106E+01  0.92346072250E+02  0.91339857812E+02 0.  0.
        -13    1    4    4    0    0  0.39935228225E+02 -0.30839297243E+02  0.64173847633E+01  0.50863223797E+02  0.00000000000E+00 0.  1.
         13    1    4    4    0    0 -0.37117706047E+02  0.18456988053E+02 -0.15627557526E+01  0.41482848453E+02  0.00000000000E+00 0. -1.
        -13    1    3    3    0    0  0.66899509728E+02 -0.82880243554E+01  0.38645414817E+02  0.77702662992E+02  0.00000000000E+00 0.  1.
         13    1    3    3    0    0 -0.21213311783E+02  0.27401129793E+02  0.26000046947E+02  0.43322383960E+02  0.00000000000E+00 0. -1.
         21    1    1    2  502  501 -0.48503720123E+02 -0.67307962487E+01  0.15844310149E+02  0.51468015777E+02  0.00000000000E+00 0. -1.
<scales pt_clust_5="13000.00000" pt_clust_6="13000.00000" pt_clust_7="13000.00000" pt_clust_8="13000.00000" pt_clust_9="48.96851"></scales>
<clustering>
<clus scale="   48.969">  2  9  1 -1</clus>
<clus scale="   89.529">  7  8 -1 -1</clus>
<clus scale="   91.340">  5  6 -1 -1</clus>
<clus scale="   94.861">  1  7  2 -1</clus>
<clus scale="   48.969">  2  5  1 -1</clus>
</clustering>
</event>
<event>
 9    1  0.1782981E-005  0.1294089E+03  0.7546771E-02  0.1260397E+00
          1   -1    0    0  502    0  0.00000000000E+00  0.00000000000E+00  0.17323902906E+03  0.17323902906E+03  0.00000000000E+00 0. -1.
         -1   -1    0    0    0  501 -0.00000000000E+00 -0.00000000000E+00 -0.24920388866E+03  0.24920388866E+03  0.00000000000E+00 0.  1.
         23    2    1    2    0    0 -0.19995652602E+02 -0.11805567236E+02 -0.16616745885E+03  0.17946238541E+03  0.63686151208E+02 0.  0.
         23    2    1    2    0    0  0.91532651766E+02  0.44294219050E+02  0.90132117638E+02  0.16441171080E+03  0.92559212601E+02 0.  0.
        -11    1    4    4    0    0  0.55366468898E+02  0.22979369097E+02  0.10413617748E+03  0.12015756632E+03  0.00000000000E+00 0. -1.
         11    1    4    4    0    0  0.36166182868E+02  0.21314849953E+02 -0.14004059845E+02  0.44254144483E+02  0.00000000000E+00 0.  1.
        -11    1    3    3    0    0  0.58415330489E+00  0.24943413185E+02 -0.74864538331E+02  0.78912699839E+02  0.00000000000E+00 0. -1.
         11    1    3    3    0    0 -0.20579805907E+02 -0.36748980420E+02 -0.91302920515E+02  0.10054968557E+03  0.00000000000E+00 0.  1.
         21    1    1    2  502  501 -0.71536999164E+02 -0.32488651814E+02  0.70481607423E-01  0.78568821511E+02  0.00000000000E+00 0.  1.
<scales pt_clust_5="13000.00000" pt_clust_6="13000.00000" pt_clust_7="13000.00000" pt_clust_8="13000.00000" pt_clust_9="90.44041"></scales>
<clustering>
<clus scale="   63.686">  7  8 -1 -1</clus>
<clus scale="   67.787">  2  7  1 -1</clus>
<clus scale="   90.440">  2  9  1 -1</clus>
<clus scale="   92.559">  5  6 -1 -1</clus>
<clus scale="  129.409">  1  5  2 -1</clus>
</clustering>
</event>
<event>
 9    1  0.1782981E-005  0.1196700E+03  0.7546771E-02  0.1274863E+00
          2   -1    0    0  502    0  0.00000000000E+00  0.00000000000E+00  0.83584640116E+03  0.83584640116E+03  0.00000000000E+00 0. -1.
         -2   -1    0    0    0  501 -0.00000000000E+00 -0.00000000000E+00 -0.30171747598E+02  0.30171747598E+02  0.00000000000E+00 0.  1.
         23    2    1    2    0    0  0.11688511219E+02  0.58515787579E+01  0.11940565695E+03  0.13582317832E+03  0.63398443107E+02 0.  0.
         23    2    1    2    0    0 -0.44203975093E+02  0.65904916646E+02  0.17107792221E+03  0.20901544938E+03  0.90124098671E+02 0.  0.
        -11    1    4    4    0    0 -0.54862700767E+01  0.39360357959E+02  0.96434426470E+01  0.40894167361E+02  0.00000000000E+00 0.  1.
         11    1    4    4    0    0 -0.38717705017E+02  0.26544558687E+02  0.16143447956E+03  0.16812128202E+03  0.00000000000E+00 0. -1.
        -11    1    3    3    0    0  0.31762976953E+02  0.18850300962E+02  0.93679377874E+02  0.10069779735E+03  0.00000000000E+00 0.  1.
         11    1    3    3    0    0 -0.20074465734E+02 -0.12998722204E+02  0.25726279077E+02  0.35125380974E+02  0.00000000000E+00 0. -1.
         21    1    1    2  502  501  0.32515463874E+02 -0.71756495404E+02  0.51519107440E+03  0.52117952105E+03  0.00000000000E+00 0.  1.
<scales pt_clust_5="13000.00000" pt_clust_6="13000.00000" pt_clust_7="13000.00000" pt_clust_8="13000.00000" pt_clust_9="78.73097"></scales>
<clustering>
<clus scale="   63.398">  7  8 -1 -1</clus>
<clus scale="   64.732">  2  7  1 -1</clus>
<clus scale="   78.731">  1  9  2 -1</clus>
<clus scale="   90.124">  5  6 -1 -1</clus>
<clus scale="   78.731">  1  5  2 -1</clus>
</clustering>
</event>
<event>
 9    1  0.1782981E-005  0.1334526E+03  0.7546771E-02  0.1222459E+00
          2   -1    0    0  502    0  0.00000000000E+00  0.00000000000E+00  0.42741428314E+02  0.42741428314E+02  0.00000000000E+00 0. -1.
         -2   -1    0    0    0  501 -0.00000000000E+00 -0.00000000000E+00 -0.51594492591E+03  0.51594492591E+03  0.00000000000E+00 0.  1.
         23    2    1    2    0    0  0.57432525858E+02 -0.85636622297E+02 -0.27925487106E+03  0.31133912948E+03  0.91195638224E+02 0.  0.
         23    2    1    2    0    0 -0.37168710165E+02  0.82716177297E+02 -0.18408067110E+03  0.22461997744E+03  0.91350762400E+02 0.  0.
        -13    1    3    3    0    0  0.30255727951E+02 -0.17411695236E+02 -0.20105025289E+03  0.20405827695E+03  0.00000000000E+00 0.  1.
         13    1    3    3    0    0  0.27176797907E+02 -0.68224927061E+02 -0.78204618174E+02  0.10728085254E+03  0.00000000000E+00 0. -1.
        -13    1    4    4    0    0 -0.45423654775E+02  0.27560637076E+01 -0.90178151767E+02  0.10100991712E+03  0.00000000000E+00 0. -1.
         13    1    4    4    0    0  0.82549446100E+01  0.79960113589E+02 -0.93902519333E+02  0.12361006032E+03  0.00000000000E+00 0.  1.
         21    1    1    2  502  501 -0.20263815692E+02  0.29204450003E+01 -0.98679554349E+01  0.22727247301E+02  0.00000000000E+00 0. -1.
<scales pt_clust_5="13000.00000" pt_clust_6="13000.00000" pt_clust_7="13000.00000" pt_clust_8="13000.00000" pt_clust_9="20.47318"></scales>
<clustering>
<clus scale="   20.473">  1  9  2 -1</clus>
<clus scale="   91.196">  5  6 -1 -1</clus>
<clus scale="   91.351">  7  8 -1 -1</clus>
<clus scale="  133.347">  2  5  1 -1</clus>
<clus scale="   20.473">  1  5  2 -1</clus>
</clustering>
</event>
<event>
 9    1  0.1782981E-005  0.1902798E+03  0.7546771E-02  0.1158640E+00
         -2   -1    0    0    0  501 -0.00000000000E+00  0.00000000000E+00  0.34641827884E+03  0.34641827884E+03  0.00000000000E+00 0.  1.
          2   -1    0    0  502    0  0.00000000000E+00 -0.00000000000E+00 -0.14278724368E+03  0.14278724368E+03  0.00000000000E+00 0. -1.
         23    2    1    2    0    0  0.15635261422E+03 -0.62815869295E+02  0.14860395849E+03  0.24225249314E+03  0.90615454231E+02 0.  0.
         23    2    1    2    0    0 -0.13801302464E+03  0.85145811414E+02  0.84357458746E+02  0.20577975924E+03  0.94507800179E+02 0.  0.
        -11    1    3    3    0    0  0.11527982873E+03 -0.85009628338E+02  0.98898247852E+02  0.17406015986E+03  0.00000000000E+00 0.  1.
         11    1    3    3    0    0  0.41072785486E+02  0.22193759043E+02  0.49705710636E+02  0.68192333278E+02  0.00000000000E+00 0. -1.
        -13    1    4    4    0    0 -0.33980981799E+02 -0.18509440544E+02  0.30816879752E+02  0.49467025288E+02  0.00000000000E+00 0.  1.
         13    1    4    4    0    0 -0.10403204285E+03  0.10365525196E+03  0.53540578994E+02  0.15631273395E+03  0.00000000000E+00 0. -1.
         21    1    1    2  502  501 -0.18339589574E+02 -0.22329942119E+02 -0.29330382075E+02  0.41173270133E+02  0.00000000000E+00 0. -1.
<scales pt_clust_5="13000.00000" pt_clust_6="13000.00000" pt_clust_7="13000.00000" pt_clust_8="13000.00000" pt_clust_9="28.89579"></scales>
<clustering>
<clus scale="   28.896">  2  9  1 -1</clus>
<clus scale="   90.615">  5  6 -1 -1</clus>
<clus scale="   94.508">  7  8 -1 -1</clus>
<clus scale="  188.377">  1  5  2 -1</clus>
<clus scale="   28.896">  2  5  1 -1</clus>
</clustering>
</event>
<event>
 9    1  0.1782981E-005  0.2318781E+03  0.7546771E-02  0.1125454E+00
          1   -1    0    0  502    0  0.00000000000E+00  0.00000000000E+00  0.98125344364E+03  0.98125344364E+03  0.00000000000E+00 0. -1.
         -1   -1    0    0    0  501 -0.00000000000E+00 -0.00000000000E+00 -0.73351848418E+02  0.73351848418E+02  0.00000000000E+00 0.  1.
         23    2    1    2    0    0 -0.17595496858E+03 -0.14488985015E+03  0.32308240185E+03  0.40609415974E+03  0.92612140379E+02 0.  0.
         23    2    1    2    0    0  0.14508389413E+03  0.13271785768E+03  0.35159423846E+03  0.41293723684E+03  0.90748481880E+02 0.  0.
        -11    1    3    3    0    0 -0.16120462530E+03 -0.88101811042E+02  0.21242067909E+03  0.28084053345E+03  0.00000000000E+00 0.  1.
         11    1    3    3    0    0 -0.14750343279E+02 -0.56788039110E+02  0.11066172277E+03  0.12525362629E+03  0.00000000000E+00 0. -1.
        -13    1    4    4    0    0  0.95290395431E+02  0.86576357839E+02  0.30368402330E+03  0.32984801228E+03  0.00000000000E+00 0.  1.
         13    1    4    4    0    0  0.49793498703E+02  0.46141499842E+02  0.47910215162E+02  0.83089224558E+02  0.00000000000E+00 0. -1.
         21    1    1    2  502  501  0.30871074447E+02  0.12171992472E+02  0.23322495491E+03  0.23557389548E+03  0.00000000000E+00 0.  1.
<scales pt_clust_5="13000.00000" pt_clust_6="13000.00000" pt_clust_7="13000.00000" pt_clust_8="13000.00000" pt_clust_9="33.18404"></scales>
<clustering>
<clus scale="   33.184">  1  9  2 -1</clus>
<clus scale="   90.748">  7  8 -1 -1</clus>
<clus scale="   92.612">  5  6 -1 -1</clus>
<clus scale="  231.140">  1  7  2 -1</clus>
<clus scale="   33.184">  1  5  2 -1</clus>
</clustering>
</event>
<event>
 9    1  0.1782981E-005  0.1173451E+03  0.7546771E-02  0.1248062E+00
          1   -1    0    0  502    0  0.00000000000E+00  0.00000000000E+00  0.31639577133E+03  0.31639577133E+03  0.00000000000E+00 0. -1.
         -1   -1    0    0    0  501 -0.00000000000E+00 -0.00000000000E+00 -0.63386250223E+02  0.63386250223E+02  0.00000000000E+00 0.  1.
         23    2    1    2    0    0 -0.71384003884E+02 -0.42009902501E+02  0.44767313941E+02  0.13036703846E+03  0.90171749462E+02 0.  0.
         23    2    1    2    0    0  0.43287287958E+02  0.29869039435E+02  0.17280105513E+03  0.20258655946E+03  0.91734184503E+02 0.  0.
        -11    1    3    3    0    0  0.25240186379E+01 -0.32752389395E+02 -0.13783155554E+02  0.35623939398E+02  0.00000000000E+00 0. -1.
         11    1    3    3    0    0 -0.73908022522E+02 -0.92575131052E+01  0.58550469496E+02  0.94743099063E+02  0.00000000000E+00 0.  1.
        -13    1    4    4    0    0  0.25280934884E+02  0.57164520073E+02  0.66038348146E+02  0.90928386380E+02  0.00000000000E+00 0.  1.
         13    1    4    4    0    0  0.18006353073E+02 -0.27295480638E+02  0.10676270698E+03  0.11165817308E+03  0.00000000000E+00 0. -1.
         21    1    1    2  502  501  0.28096715926E+02  0.12140863065E+02  0.35441152038E+02  0.46828423629E+02  0.00000000000E+00 0. -1.
<scales pt_clust_5="13000.00000" pt_clust_6="13000.00000" pt_clust_7="13000.00000" pt_clust_8="13000.00000" pt_clust_9="30.60761"></scales>
<clustering>
<clus scale="   30.608">  1  9  2 -1</clus>
<clus scale="   90.172">  5  6 -1 -1</clus>
<clus scale="   91.734">  7  8 -1 -1</clus>
<clus scale="  116.128">  2  5  1 -1</clus>
<clus scale="   30.608">  1  5  2 -1</clus>
</clustering>
</event>
<event>
 9    1  0.1782981E-005  0.9803423E+02  0.7546771E-02  0.1285877E+00
         -2   -1    0    0    0  501 -0.00000000000E+00  0.00000000000E+00  0.86340874853E+02  0.86340874853E+02  0.00000000000E+00 0.  1.
          2   -1    0    0  502    0  0.00000000000E+00 -0.00000000000E+00 -0.21499499224E+03  0.21499499224E+03  0.00000000000E+00 0. -1.
         23    2    1    2    0    0 -0.26461047695E+02  0.51866699610E+01  0.31122389499E+02  0.10136978783E+03  0.92629056817E+02 0.  0.
         23    2    1    2    0    0  0.54846981717E+01 -0.13950640701E+02 -0.11779748611E+03  0.15222665522E+03  0.95247071007E+02 0.  0.
        -13    1    3    3    0    0 -0.12497731369E+00 -0.32748457734E+02 -0.15072125535E+02  0.36050604314E+02  0.00000000000E+00 0. -1.
         13    1    3    3    0    0 -0.26336070382E+02  0.37935127695E+02  0.46194515034E+02  0.65319183519E+02  0.00000000000E+00 0.  1.
        -13    1    4    4    0    0  0.31158202053E+02  0.20266540481E+02 -0.13582056446E+02  0.39573204009E+02  0.00000000000E+00 0. -1.
         13    1    4    4    0    0 -0.25673503881E+02 -0.34217181182E+02 -0.10421542966E+03  0.11265345121E+03  0.00000000000E+00 0.  1.
         21    1    1    2  502  501  0.20976349524E+02  0.87639707401E+01 -0.41979020773E+02  0.47739424039E+02  0.00000000000E+00 0. -1.
<scales pt_clust_5="13000.00000" pt_clust_6="13000.00000" pt_clust_7="13000.00000" pt_clust_8="13000.00000" pt_clust_9="22.73355"></scales>
<clustering>
<clus scale="   22.734">  2  9  1 -1</clus>
<clus scale="   92.629">  5  6 -1 -1</clus>
<clus scale="   95.247">  7  8 -1 -1</clus>
<clus scale="   95.493">  1  5  2 -1</clus>
<clus scale="   22.734">  2  5  1 -1</clus>
</clustering>
</event>
<event>
 9    1  0.1782981E-005  0.9845147E+02  0.7546771E-02  0.1284138E+00
          2   -1    0    0  502    0  0.00000000000E+00  0.00000000000E+00  0.38239547566E+02  0.38239547566E+02  0.00000000000E+00 0. -1.
         -2   -1    0    0    0  501 -0.00000000000E+00 -0.00000000000E+00 -0.39085582514E+03  0.39085582514E+03  0.00000000000E+00 0.  1.
         23    2    1    2    0    0  0.21581799029E+02 -0.23288275962E+02 -0.18474766310E+03  0.20838190662E+03  0.91012098859E+02 0.  0.
         23    2    1    2    0    0 -0.47379530867E+02  0.10982074668E+02 -0.16197125161E+03  0.19152880493E+03  0.89906456154E+02 0.  0.
        -11    1    3    3    0    0 -0.21293681796E+02 -0.16553998733E+02 -0.15103827457E+03  0.15342755992E+03  0.00000000000E+00 0.  1.
         11    1    3    3    0    0  0.42875480825E+02 -0.67342772288E+01 -0.33709388527E+02  0.54954346695E+02  0.00000000000E+00 0. -1.
        -13    1    4    4    0    0 -0.48736754681E+02 -0.22770109422E+02 -0.14300724647E+03  0.15279012298E+03  0.00000000000E+00 0.  1.
         13    1    4    4    0    0  0.13572238143E+01  0.33752184090E+02 -0.18964005147E+02  0.38738681942E+02  0.00000000000E+00 0. -1.
         21    1    1    2  502  501  0.25797731838E+02  0.12306201294E+02 -0.58973628580E+01  0.29184661159E+02  0.00000000000E+00 0.  1.
<scales pt_clust_5="13000.00000" pt_clust_6="13000.00000" pt_clust_7="13000.00000" pt_clust_8="13000.00000" pt_clust_9="28.58261"></scales>
<clustering>
<clus scale="   28.583">  1  9  2 -1</clus>
<clus scale="   89.906">  7  8 -1 -1</clus>
<clus scale="   91.012">  5  6 -1 -1</clus>
<clus scale="   97.430">  1  7  2 -1</clus>
<clus scale="   28.583">  1  5  2 -1</clus>
</clustering>
</event>
<event>
 9    1  0.1782981E-005  0.1041414E+03  0.7546771E-02  0.1277216E+00
         -2   -1    0    0    0  501 -0.00000000000E+00  0.00000000000E+00  0.10348336288E+03  0.10348336288E+03  0.00000000000E+00 0.  1.
          2   -1    0    0  502    0  0.00000000000E+00 -0.00000000000E+00 -0.14355943370E+03  0.14355943370E+03  0.00000000000E+00 0. -1.
         23    2    1    2    0    0 -0.85261936201E+00 -0.29032262896E+02  0.31845707354E+02  0.11006375992E+03  0.10127330805E+03 0.  0.
         23    2    1    2    0    0 -0.14568945580E+02  0.12403583299E+02 -0.65174721162E+02  0.11331766669E+03  0.90703066387E+02 0.  0.
        -11    1    4    4    0    0  0.21415839323E+02  0.94337279368E+01 -0.72752828002E+02  0.76423866554E+02  0.00000000000E+00 0. -1.
         11    1    4    4    0    0 -0.35984784902E+02  0.29698553621E+01  0.75781068406E+01  0.36893800138E+02  0.00000000000E+00 0.  1.
        -13    1    3    3    0    0  0.24448228439E+02  0.14924404247E+02 -0.21981839011E+02  0.36106162386E+02  0.00000000000E+00 0. -1.
         13    1    3    3    0    0 -0.25300847801E+02 -0.43956667143E+02  0.53827546365E+02  0.73957597537E+02  0.00000000000E+00 0.  1.
         21    1    1    2  502  501  0.15421564942E+02  0.16628679597E+02 -0.67470570152E+01  0.23661369968E+02  0.00000000000E+00 0. -1.
<scales pt_clust_5="13000.00000" pt_clust_6="13000.00000" pt_clust_7="13000.00000" pt_clust_8="13000.00000" pt_clust_9="22.67901"></scales>
<clustering>
<clus scale="   22.679">  2  9  1 -1</clus>
<clus scale="   90.703">  5  6 -1 -1</clus>
<clus scale="   93.895">  2  5  1 -1</clus>
<clus scale="  101.273">  7  8 -1 -1</clus>
<clus scale="   22.679">  2  5  1 -1</clus>
</clustering>
</event>
<event>
 9    1  0.1782981E-005  0.9529534E+02  0.7546771E-02  0.1290617E+00
          1   -1    0    0  502    0  0.00000000000E+00  0.00000000000E+00  0.30954844328E+03  0.30954844328E+03  0.00000000000E+00 0. -1.
         -1   -1    0    0    0  501 -0.00000000000E+00 -0.00000000000E+00 -0.73945675239E+02  0.73945675239E+02  0.00000000000E+00 0.  1.
         23    2    1    2    0    0  0.40932792304E+01 -0.16005608205E+02 -0.19007920015E+01  0.93910047102E+02  0.92425913615E+02 0.  0.
         23    2    1    2    0    0  0.38504327214E+02  0.47638639319E+02  0.17861956179E+03  0.21032165925E+03  0.92618730965E+02 0.  0.
        -11    1    4    4    0    0 -0.36054416921E+01 -0.25448961062E+02  0.54444970092E+02  0.60207172308E+02  0.00000000000E+00 0.  1.
         11    1    4    4    0    0  0.42109768906E+02  0.73087600381E+02  0.12417459170E+03  0.15011448694E+03  0.00000000000E+00 0. -1.
        -13    1    3    3    0    0  0.27462973360E+02 -0.12992927606E+02 -0.39319992596E+02  0.49689967713E+02  0.00000000000E+00 0. -1.
         13    1    3    3    0    0 -0.23369694129E+02 -0.30126805986E+01  0.37419200594E+02  0.44220079390E+02  0.00000000000E+00 0.  1.
         21    1    1    2  502  501 -0.42597606444E+02 -0.31633031114E+02  0.58883998252E+02  0.79262412166E+02  0.00000000000E+00 0.  1.
<scales pt_clust_5="13000.00000" pt_clust_6="13000.00000" pt_clust_7="13000.00000" pt_clust_8="13000.00000" pt_clust_9="53.05850"></scales>
<clustering>
<clus scale="   53.059">  1  9  2 -1</clus>
<clus scale="   92.426">  7  8 -1 -1</clus>
<clus scale="   92.619">  5  6 -1 -1</clus>
<clus scale="   95.108">  2  7  1 -1</clus>
<clus scale="   53.059">  1  5  2 -1</clus>
</clustering>
</event>
<event>
 9    1  0.1782981E-005  0.1001941E+03  0.7546771E-02  0.1279910E+00
         -2   -1    0    0    0  501 -0.00000000000E+00  0.00000000000E+00  0.66525246011E+02  0.66525246011E+02  0.00000000000E+00 0.  1.
          2   -1    0    0  502    0  0.00000000000E+00 -0.00000000000E+00 -0.24689942699E+03  0.24689942699E+03  0.00000000000E+00 0. -1.
         23    2    1    2    0    0 -0.41095150931E+02 -0.18511897860E+02 -0.84018466207E+01  0.10216028077E+03  0.91294195592E+02 0.  0.
         23    2    1    2    0    0  0.21047676788E+02  0.27695546401E+02 -0.11972462300E+03  0.15455404077E+03  0.91339576186E+02 0.  0.
        -13    1    4    4    0    0 -0.25540931580E+02  0.22828723679E+02 -0.10693394907E+02  0.35886466884E+02  0.00000000000E+00 0.  1.
         13    1    4    4    0    0  0.46588608368E+02  0.48668227221E+01 -0.10903122809E+03  0.11866757389E+03  0.00000000000E+00 0. -1.
        -13    1    3    3    0    0 -0.10940624567E+02  0.36455973374E+02 -0.10315384561E+02  0.39435294081E+02  0.00000000000E+00 0.  1.
         13    1    3    3    0    0 -0.30154526364E+02 -0.54967871234E+02  0.19135379406E+01  0.62724986693E+02  0.00000000000E+00 0. -1.
         21    1    1    2  502  501  0.20047474143E+02 -0.91836485414E+01 -0.52247711355E+02  0.56710351453E+02  0.00000000000E+00 0. -1.
<scales pt_clust_5="13000.00000" pt_clust_6="13000.00000" pt_clust_7="13000.00000" pt_clust_8="13000.00000" pt_clust_9="22.05086"></scales>
<clustering>
<clus scale="   22.051">  2  9  1 -1</clus>
<clus scale="   91.294">  7  8 -1 -1</clus>
<clus scale="   91.340">  5  6 -1 -1</clus>
<clus scale="  100.153">  1  7  2 -1</clus>
<clus scale="   22.051">  2  5  1 -1</clus>
</clustering>
</event>
<event>
 9    1  0.1782981E-005  0.1357836E+03  0.7546771E-02  0.1219325E+00
          1   -1    0    0  502    0  0.00000000000E+00  0.00000000000E+00  0.24334159477E+02  0.24334159477E+02  0.00000000000E+00 0. -1.
         -1   -1    0    0    0  501 -0.00000000000E+00 -0.00000000000E+00 -0.93200171649E+03  0.93200171649E+03  0.00000000000E+00 0.  1.
         23    2    1    2    0    0 -0.10233716763E+03  0.40758054783E+02 -0.53105777967E+03  0.54982988459E+03  0.90312910098E+02 0.  0.
         23    2    1    2    0    0  0.86179120405E+02 -0.20580298177E+02 -0.31481342417E+03  0.33952081677E+03  0.91194865627E+02 0.  0.
        -11    1    3    3    0    0 -0.46342022896E+02 -0.23209805300E+02 -0.28034037002E+03  0.28509121560E+03  0.00000000000E+00 0.  1.
         11    1    3    3    0    0 -0.55995144729E+02  0.63967860083E+02 -0.25071740965E+03  0.26473866899E+03  0.00000000000E+00 0. -1.
        -13    1    4    4    0    0 -0.80336515910E+01 -0.28979246346E+02 -0.10791591725E+03  0.11202759246E+03  0.00000000000E+00 0.  1.
         13    1    4    4    0    0  0.94212771996E+02  0.83989481684E+01 -0.20689750692E+03  0.22749322431E+03  0.00000000000E+00 0. -1.
         21    1    1    2  502  501  0.16158047220E+02 -0.20177756605E+02 -0.61796353163E+02  0.66985174597E+02  0.00000000000E+00 0. -1.
<scales pt_clust_5="13000.00000" pt_clust_6="13000.00000" pt_clust_7="13000.00000" pt_clust_8="13000.00000" pt_clust_9="25.85004"></scales>
<clustering>
<clus scale="   25.850">  1  9  2 -1</clus>
<clus scale="   90.313">  5  6 -1 -1</clus>
<clus scale="   91.195">  7  8 -1 -1</clus>
<clus scale="  135.193">  2  5  1 -1</clus>
<clus scale="   25.850">  1  5  2 -1</clus>
</clustering>
</event>
<event>
 9    1  0.1782981E-005  0.1283207E+03  0.7546771E-02  0.1230613E+00
         -1   -1    0    0    0  501 -0.00000000000E+00  0.00000000000E+00  0.55685340674E+03  0.55685340674E+03  0.00000000000E+00 0.  1.
          1   -1    0    0  502    0  0.00000000000E+00 -0.00000000000E+00 -0.90069160095E+02  0.90069160095E+02  0.00000000000E+00 0. -1.
         23    2    1    2    0    0  0.31902559257E+02 -0.72656502153E+02  0.32972948960E+03  0.35079125277E+03  0.89645000497E+02 0.  0.
         23    2    1    2    0    0 -0.86659679136E+02  0.87156246263E+02  0.17122118036E+03  0.22998050729E+03  0.92022985603E+02 0.  0.
        -13    1    4    4    0    0 -0.75550271652E+02  0.62991003185E+02  0.17724492093E+03  0.20271031554E+03  0.00000000000E+00 0. -1.
         13    1    4    4    0    0 -0.11109407485E+02  0.24165243078E+02 -0.60237405748E+01  0.27270191752E+02  0.00000000000E+00 0.  1.
        -13    1    3    3    0    0 -0.30622741327E+02 -0.21097306178E+02  0.13091052419E+03  0.13608972760E+03  0.00000000000E+00 0. -1.
         13    1    3    3    0    0  0.62525300584E+02 -0.51559195975E+02  0.19881896540E+03  0.21470152516E+03  0.00000000000E+00 0.  1.
         21    1    1    2  502  501  0.54757119879E+02 -0.14499744110E+02 -0.34166423306E+02  0.66150806785E+02  0.00000000000E+00 0.  1.
<scales pt_clust_5="13000.00000" pt_clust_6="13000.00000" pt_clust_7="13000.00000" pt_clust_8="13000.00000" pt_clust_9="56.64437"></scales>
<clustering>
<clus scale="   56.644">  2  9  1 -1</clus>
<clus scale="   89.645">  7  8 -1 -1</clus>
<clus scale="   92.023">  5  6 -1 -1</clus>
<clus scale="  126.626">  1  7  2 -1</clus>
<clus scale="   56.644">  2  5  1 -1</clus>
</clustering>
</event>
<event>
 9    1  0.1782981E-005  0.1797593E+03  0.7546771E-02  0.1169307E+00
          2   -1    0    0  502    0  0.00000000000E+00  0.00000000000E+00  0.39285562568E+03  0.39285562568E+03  0.00000000000E+00 0. -1.
         -2   -1    0    0    0  501 -0.00000000000E+00 -0.00000000000E+00 -0.89547910698E+02  0.89547910698E+02  0.00000000000E+00 0.  1.
         23    2    1    2    0    0 -0.90729666468E+02  0.10643193066E+03  0.14298818297E+03  0.22441807486E+03  0.10177535858E+03 0.  0.
         23    2    1    2    0    0  0.11009670453E+03 -0.11173222711E+03  0.14345171462E+03  0.23176145402E+03  0.92355845602E+02 0.  0.
        -11    1    4    4    0    0  0.48952382675E+02  0.60052171913E+01  0.41131893695E+02  0.64220176596E+02  0.00000000000E+00 0.  1.
         11    1    4    4    0    0  0.61144321856E+02 -0.11773744430E+03  0.10231982093E+03  0.16754127742E+03  0.00000000000E+00 0. -1.
        -13    1    3    3    0    0 -0.56253221802E+02  0.76912689099E+01  0.91891949065E+02  0.10801717865E+03  0.00000000000E+00 0. -1.
         13    1    3    3    0    0 -0.34476444666E+02  0.98740661751E+02  0.51096233901E+02  0.11640089621E+03  0.00000000000E+00 0.  1.
         21    1    1    2  502  501 -0.19367038063E+02  0.53002964459E+01  0.16867817390E+02  0.26224007498E+02  0.00000000000E+00 0. -1.
<scales pt_clust_5="13000.00000" pt_clust_6="13000.00000" pt_clust_7="13000.00000" pt_clust_8="13000.00000" pt_clust_9="20.07923"></scales>
<clustering>
<clus scale="   20.079">  1  9  2 -1</clus>
<clus scale="   92.356">  5  6 -1 -1</clus>
<clus scale="  101.775">  7  8 -1 -1</clus>
<clus scale="  174.599">  1  5  2 -1</clus>
<clus scale="   20.079">  1  5  2 -1</clus>
</clustering>
</event>
<event>
 9    1  0.1782981E-005  0.1086346E+03  0.7546771E-02  0.1266557E+00
         -2   -1    0    0    0  501 -0.00000000000E+00  0.00000000000E+00  0.89942407619E+02  0.89942407619E+02  0.00000000000E+00 0.  1.
          2   -1    0    0  502    0  0.00000000000E+00 -0.00000000000E+00 -0.32339322733E+03  0.32339322733E+03  0.00000000000E+00 0. -1.
         23    2    1    2    0    0  0.21957753089E+02 -0.45634168746E+02  0.26839790301E+02  0.11385800919E+03  0.98380138420E+02 0.  0.
         23    2    1    2    0    0 -0.37556052654E+02  0.47168337575E+01 -0.21572802411E+03  0.23700075553E+03  0.90543205829E+02 0.  0.
        -11    1    4    4    0    0 -0.67169724920E+02  0.62498422806E+01 -0.13323364906E+03  0.14933866785E+03  0.00000000000E+00 0.  1.
         11    1    4    4    0    0  0.29613672266E+02 -0.15330085231E+01 -0.82494375052E+02  0.87662087674E+02  0.00000000000E+00 0. -1.
        -13    1    3    3    0    0 -0.30009578278E+02  0.12268730279E+02  0.12485459154E+02  0.34741664056E+02  0.00000000000E+00 0.  1.
         13    1    3    3    0    0  0.51967331367E+02 -0.57902899025E+02  0.14354331147E+02  0.79116345135E+02  0.00000000000E+00 0. -1.
         21    1    1    2  502  501  0.15598299565E+02  0.40917334989E+02 -0.44562585906E+02  0.62476870236E+02  0.00000000000E+00 0. -1.
<scales pt_clust_5="13000.00000" pt_clust_6="13000.00000" pt_clust_7="13000.00000" pt_clust_8="13000.00000" pt_clust_9="43.78967"></scales>
<clustering>
<clus scale="   43.790">  2  9  1 -1</clus>
<clus scale="   90.543">  5  6 -1 -1</clus>
<clus scale="   98.380">  7  8 -1 -1</clus>
<clus scale="  101.592">  2  5  1 -1</clus>
<clus scale="   43.790">  2  5  1 -1</clus>
</clustering>
</event>
<event>
 9    1  0.1782981E-005  0.9341108E+02  0.7546771E-02  0.1294801E+00
         -2   -1    0    0    0  501 -0.00000000000E+00  0.00000000000E+00  0.18501244694E+03  0.18501244694E+03  0.00000000000E+00 0.  1.
          2   -1    0    0  502    0  0.00000000000E+00 -0.00000000000E+00 -0.10680089746E+03  0.10680089746E+03  0.00000000000E+00 0. -1.
         23    2    1    2    0    0 -0.37872111259E+02  0.92468738167E+01  0.55407711418E+02  0.11377116618E+03  0.91400559529E+02 0.  0.
         23    2    1    2    0    0 -0.27496979221E+02 -0.27536156863E+02  0.41449954463E+02  0.10764833246E+03  0.91409742126E+02 0.  0.
        -11    1    4    4    0    0 -0.52361322219E+02 -0.84050792063E+01 -0.31436603326E+01  0.53124721376E+02  0.00000000000E+00 0. -1.
         11    1    4    4    0    0  0.24864342999E+02 -0.19131077657E+02  0.44593614796E+02  0.54523611084E+02  0.00000000000E+00 0.  1.
        -13    1    3    3    0    0  0.75865612834E+01  0.33974365346E+02 -0.39367004085E+01  0.35032999056E+02  0.00000000000E+00 0.  1.
         13    1    3    3    0    0 -0.45458672542E+02 -0.24727491529E+02  0.59344411826E+02  0.78738167122E+02  0.00000000000E+00 0. -1.
         21    1    1    2  502  501  0.65369090480E+02  0.18289283046E+02 -0.18646116393E+02  0.70393845761E+02  0.00000000000E+00 0. -1.
<scales pt_clust_5="13000.00000" pt_clust_6="13000.00000" pt_clust_7="13000.00000" pt_clust_8="13000.00000" pt_clust_9="67.87942"></scales>
<clustering>
<clus scale="   67.879">  2  9  1 -1</clus>
<clus scale="   91.401">  7  8 -1 -1</clus>
<clus scale="   91.410">  5  6 -1 -1</clus>
<clus scale="   93.402">  1  7  2 -1</clus>
<clus scale="   67.879">  2  5  1 -1</clus>
</clustering>
</event>
<event>
 9    1  0.1782981E-005  0.1494546E+03  0.7546771E-02  0.1204056E+00
          1   -1    0    0  502    0  0.00000000000E+00  0.00000000000E+00  0.19447745845E+03  0.19447745845E+03  0.00000000000E+00 0. -1.
         -1   -1    0    0    0  501 -0.00000000000E+00 -0.00000000000E+00 -0.13106543676E+03  0.13106543676E+03  0.00000000000E+00 0.  1.
         23    2    1    2    0    0 -0.82610068061E+02  0.65192288872E+02  0.25718013855E+02  0.14196889701E+03  0.91756708784E+02 0.  0.
         23    2    1    2    0    0  0.10082956040E+03 -0.84427816127E+02  0.24095969546E+02  0.15379376894E+03  0.76008231323E+02 0.  0.
        -11    1    3    3    0    0 -0.64589202373E+01  0.28132992997E+02  0.46532923644E+02  0.54758523797E+02  0.00000000000E+00 0.  1.
         11    1    3    3    0    0 -0.76151147824E+02  0.37059295876E+02 -0.20814909788E+02  0.87210373209E+02  0.00000000000E+00 0. -1.
        -13    1    4    4    0    0  0.73321444672E+01 -0.35131894301E+02  0.31617265811E+02  0.47829508016E+02  0.00000000000E+00 0. -1.
         13    1    4    4    0    0  0.93497415934E+02 -0.49295921826E+02 -0.75212962651E+01  0.10596426092E+03  0.00000000000E+00 0.  1.
         21    1    1    2  502  501 -0.18219492341E+02  0.19235527255E+02  0.13598038293E+02  0.29780229269E+02  0.00000000000E+00 0. -1.
<scales pt_clust_5="13000.00000" pt_clust_6="13000.00000" pt_clust_7="13000.00000" pt_clust_8="13000.00000" pt_clust_9="26.49444"></scales>
<clustering>
<clus scale="   26.494">  1  9  2 -1</clus>
<clus scale="   76.008">  7  8 -1 -1</clus>
<clus scale="   91.757">  5  6 -1 -1</clus>
<clus scale="  140.338">  1  7  2 -1</clus>
<clus scale="   26.494">  1  5  2 -1</clus>
</clustering>
</event>
<event>
 9    1  0.1782981E-005  0.1077868E+03  0.7546771E-02  0.1270223E+00
          1   -1    0    0  502    0  0.00000000000E+00  0.00000000000E+00  0.69129259601E+03  0.69129259601E+03  0.00000000000E+00 0. -1.
         -1   -1    0    0    0  501 -0.00000000000E+00 -0.00000000000E+00 -0.22520113558E+02  0.22520113558E+02  0.00000000000E+00 0.  1.
         23    2    1    2    0    0 -0.41361205787E+02 -0.19833621395E+02  0.19840020614E+03  0.22831768620E+03  0.10325793990E+03 0.  0.
         23    2    1    2    0    0  0.25580336369E+02  0.41716859038E+01  0.41506823449E+03  0.42588907480E+03  0.91804728537E+02 0.  0.
        -11    1    3    3    0    0  0.17206212244E+02  0.29651696221E+02  0.82627164477E+02  0.89456833937E+02  0.00000000000E+00 0.  1.
         11    1    3    3    0    0 -0.58567418031E+02 -0.49485317616E+02  0.11577304166E+03  0.13886085226E+03  0.00000000000E+00 0. -1.
        -13    1    4    4    0    0  0.60264301519E+02 -0.12544382184E+01  0.26526632939E+03  0.27202864769E+03  0.00000000000E+00 0.  1.
         13    1    4    4    0    0 -0.34683965150E+02  0.54261241221E+01  0.14980190510E+03  0.15386042712E+03  0.00000000000E+00 0. -1.
         21    1    1    2  502  501  0.15780869418E+02  0.15661935491E+02  0.55304041824E+02  0.59605948571E+02  0.00000000000E+00 0.  1.
<scales pt_clust_5="13000.00000" pt_clust_6="13000.00000" pt_clust_7="13000.00000" pt_clust_8="13000.00000" pt_clust_9="22.23358"></scales>
<clustering>
<clus scale="   22.234">  2  9  1 -1</clus>
<clus scale="   91.805">  7  8 -1 -1</clus>
<clus scale="   96.871">  1  7  2 -1</clus>
<clus scale="  103.258">  5  6 -1 -1</clus>
<clus scale="   96.871">  1  5  2 -1</clus>
</clustering>
</event>
<event>
 9    1  0.1782981E-005  0.9367380E+02  0.7546771E-02  0.1296128E+00
         -3   -1    0    0    0  501 -0.00000000000E+00  0.00000000000E+00  0.36100816501E+02  0.36100816501E+02  0.00000000000E+00 0.  1.
          3   -1    0    0  502    0  0.00000000000E+00 -0.00000000000E+00 -0.32030826051E+03  0.32030826051E+03  0.00000000000E+00 0. -1.
         23    2    1    2    0    0  0.87824017186E+01  0.86296645612E+01 -0.84059517305E+02  0.12531100735E+03  0.92115386464E+02 0.  0.
         23    2    1    2    0    0  0.86718564149E+00 -0.28499327849E+02 -0.15585860633E+03  0.18160603035E+03  0.88746162707E+02 0.  0.
        -13    1    3    3    0    0  0.35612851469E+02  0.21446172415E+02 -0.62823227834E+01  0.42043799550E+02  0.00000000000E+00 0.  1.
         13    1    3    3    0    0 -0.26830449750E+02 -0.12816507854E+02 -0.77777194521E+02  0.83267207801E+02  0.00000000000E+00 0. -1.
        -13    1    4    4    0    0 -0.34819750567E+02  0.45295566130E+01 -0.10724712795E+03  0.11284891832E+03  0.00000000000E+00 0.  1.
         13    1    4    4    0    0  0.35686936208E+02 -0.33028884462E+02 -0.48611478374E+02  0.68757112028E+02  0.00000000000E+00 0. -1.
         21    1    1    2  502  501 -0.96495873601E+01  0.19869663288E+02 -0.44289320379E+02  0.49492039310E+02  0.00000000000E+00 0.  1.
<scales pt_clust_5="13000.00000" pt_clust_6="13000.00000" pt_clust_7="13000.00000" pt_clust_8="13000.00000" pt_clust_9="22.08887"></scales>
<clustering>
<clus scale="   22.089">  2  9  1 -1</clus>
<clus scale="   88.746">  7  8 -1 -1</clus>
<clus scale="   90.363">  2  7  1 -1</clus>
<clus scale="   92.115">  5  6 -1 -1</clus>
<clus scale="   22.089">  2  5  1 -1</clus>
</clustering>
</event>
<event>
 9    1  0.1782981E-005  0.9784446E+02  0.7546771E-02  0.1285260E+00
         -4   -1    0    0    0  501 -0.00000000000E+00  0.00000000000E+00  0.20915521860E+03  0.20915521860E+03  0.00000000000E+00 0.  1.
          4   -1    0    0  502    0  0.00000000000E+00 -0.00000000000E+00 -0.69426859931E+02  0.69426859931E+02  0.00000000000E+00 0. -1.
         23    2    1    2    0    0 -0.23689751334E+02 -0.21199507000E+01  0.80516000312E+02  0.12483207491E+03  0.92382477288E+02 0.  0.
         23    2    1    2    0    0  0.35076239231E+02 -0.21150868756E+02  0.72244697911E+02  0.12474957226E+03  0.93088439647E+02 0.  0.
        -11    1    4    4    0    0  0.32795183282E+01 -0.44084119426E+02  0.73224052654E+02  0.85533190710E+02  0.00000000000E+00 0. -1.
         11    1    4    4    0    0  0.31796720903E+02  0.22933250669E+02 -0.97935474247E+00  0.39216381553E+02  0.00000000000E+00 0.  1.
        -13    1    3    3    0    0 -0.54502814963E+02  0.86003136981E+01  0.72729095619E+02  0.91290983039E+02  0.00000000000E+00 0.  1.
         13    1    3    3    0    0  0.30813063629E+02 -0.10720264398E+02  0.77869046927E+01  0.33541091867E+02  0.00000000000E+00 0. -1.
         21    1    1    2  502  501 -0.11386487897E+02  0.23270819456E+02 -0.13032339556E+02  0.29000431360E+02  0.00000000000E+00 0. -1.
<scales pt_clust_5="13000.00000" pt_clust_6="13000.00000" pt_clust_7="13000.00000" pt_clust_8="13000.00000" pt_clust_9="25.90720"></scales>
<clustering>
<clus scale="   25.907">  2  9  1 -1</clus>
<clus scale="   92.382">  7  8 -1 -1</clus>
<clus scale="   93.088">  5  6 -1 -1</clus>
<clus scale="   97.173">  1  7  2 -1</clus>
<clus scale="   25.907">  2  5  1 -1</clus>
</clustering>
</event>
<event>
 9    1  0.1782981E-005  0.1022001E+03  0.7546771E-02  0.1276619E+00
          3   -1    0    0  502    0  0.00000000000E+00  0.00000000000E+00  0.67550250772E+02  0.67550250772E+02  0.00000000000E+00 0. -1.
         -3   -1    0    0    0  501 -0.00000000000E+00 -0.00000000000E+00 -0.20172307085E+03  0.20172307085E+03  0.00000000000E+00 0.  1.
         23    2    1    2    0    0 -0.27194734644E+02  0.24711103218E+02 -0.62454847919E+02  0.11691341750E+03  0.91749370290E+02 0.  0.
         23    2    1    2    0    0  0.22649743530E+02 -0.51056382872E+02 -0.66981897472E+02  0.12520919313E+03  0.89838757450E+02 0.  0.
        -11    1    3    3    0    0  0.45363723871E+01  0.53611199501E+02 -0.22646487664E+02  0.58374675930E+02  0.00000000000E+00 0.  1.
         11    1    3    3    0    0 -0.31731107031E+02 -0.28900096283E+02 -0.39808360255E+02  0.58538741571E+02  0.00000000000E+00 0. -1.
        -13    1    4    4    0    0  0.44351137936E+02 -0.27648866715E+02 -0.75820760196E+02  0.92088386583E+02  0.00000000000E+00 0.  1.
         13    1    4    4    0    0 -0.21701394406E+02 -0.23407516157E+02  0.88388627234E+01  0.33120806543E+02  0.00000000000E+00 0. -1.
         21    1    1    2  502  501  0.45449911140E+01  0.26345279654E+02 -0.47360746900E+01  0.27150710999E+02  0.00000000000E+00 0. -1.
<scales pt_clust_5="13000.00000" pt_clust_6="13000.00000" pt_clust_7="13000.00000" pt_clust_8="13000.00000" pt_clust_9="26.73445"></scales>
<clustering>
<clus scale="   26.734">  1  9  2 -1</clus>
<clus scale="   89.839">  7  8 -1 -1</clus>
<clus scale="   91.749">  5  6 -1 -1</clus>
<clus scale="  100.488">  1  7  2 -1</clus>
<clus scale="   26.734">  1  5  2 -1</clus>
</clustering>
</event>
<event>
 9    1  0.1782981E-005  0.1259867E+03  0.7546771E-02  0.1233646E+00
         -1   -1    0    0    0  501 -0.00000000000E+00  0.00000000000E+00  0.74783611161E+02  0.74783611161E+02  0.00000000000E+00 0.  1.
          1   -1    0    0  502    0  0.00000000000E+00 -0.00000000000E+00 -0.34652931956E+03  0.34652931956E+03  0.00000000000E+00 0. -1.
         23    2    1    2    0    0  0.81246704424E+02  0.25120406839E+02 -0.67497950625E+02  0.14245779804E+03  0.92229003387E+02 0.  0.
         23    2    1    2    0    0 -0.74813740265E+02 -0.46592072146E+02 -0.75131251454E+02  0.14780747858E+03  0.91839146668E+02 0.  0.
        -13    1    3    3    0    0  0.82859949166E+02  0.49352261019E+02 -0.36593142421E+02  0.10315267770E+03  0.00000000000E+00 0.  1.
         13    1    3    3    0    0 -0.16132447421E+01 -0.24231854180E+02 -0.30904808204E+02  0.39305120350E+02  0.00000000000E+00 0. -1.
        -13    1    4    4    0    0 -0.18882329662E+02 -0.35977202284E+02  0.13198419333E+02  0.42721185968E+02  0.00000000000E+00 0.  1.
         13    1    4    4    0    0 -0.55931410603E+02 -0.10614869862E+02 -0.88329670787E+02  0.10508629261E+03  0.00000000000E+00 0. -1.
         21    1    1    2  502  501 -0.64329641590E+01  0.21471665307E+02 -0.12911650632E+03  0.13104765410E+03  0.00000000000E+00 0. -1.
<scales pt_clust_5="13000.00000" pt_clust_6="13000.00000" pt_clust_7="13000.00000" pt_clust_8="13000.00000" pt_clust_9="22.41463"></scales>
<clustering>
<clus scale="   22.415">  2  9  1 -1</clus>
<clus scale="   91.839">  7  8 -1 -1</clus>
<clus scale="   92.229">  5  6 -1 -1</clus>
<clus scale="  125.702">  2  7  1 -1</clus>
<clus scale="   22.415">  2  5  1 -1</clus>
</clustering>
</event>
<event>
 9    1  0.1782981E-005  0.9339765E+02  0.7546771E-02  0.1295115E+00
         -1   -1    0    0    0  501 -0.00000000000E+00  0.00000000000E+00  0.10976803755E+03  0.10976803755E+03  0.00000000000E+00 0.  1.
          1   -1    0    0  502    0  0.00000000000E+00 -0.00000000000E+00 -0.44126714953E+03  0.44126714953E+03  0.00000000000E+00 0. -1.
         23    2    1    2    0    0  0.88158671104E+01 -0.13298786241E+02  0.79333757725E+02  0.12254706559E+03  0.92029130947E+02 0.  0.
         23    2    1    2    0    0 -0.28722166599E+02 -0.17864943428E+01 -0.34446558963E+03  0.35757661103E+03  0.91522324593E+02 0.  0.
        -11    1    3    3    0    0  0.49497382333E+01 -0.44467063859E+02  0.79401843773E+02  0.91139851171E+02  0.00000000000E+00 0.  1.
         11    1    3    3    0    0  0.38661288770E+01  0.31168277618E+02 -0.68086048835E-01  0.31407214424E+02  0.00000000000E+00 0. -1.
        -13    1    4    4    0    0  0.14733276689E+02 -0.27298974068E+02 -0.50079952763E+02  0.58909295496E+02  0.00000000000E+00 0.  1.
         13    1    4    4    0    0 -0.43455443288E+02  0.25512479725E+02 -0.29438563687E+03  0.29866731554E+03  0.00000000000E+00 0. -1.
         21    1    1    2  502  501  0.19906299489E+02  0.15085280584E+02 -0.66367280073E+02  0.70911510447E+02  0.00000000000E+00 0. -1.
<scales pt_clust_5="13000.00000" pt_clust_6="13000.00000" pt_clust_7="13000.00000" pt_clust_8="13000.00000" pt_clust_9="24.97652"></scales>
<clustering>
<clus scale="   24.977">  2  9  1 -1</clus>
<clus scale="   91.522">  7  8 -1 -1</clus>
<clus scale="   92.029">  5  6 -1 -1</clus>
<clus scale="   92.898">  2  7  1 -1</clus>
<clus scale="   24.977">  2  5  1 -1</clus>
</clustering>
</event>
<event>
 9    1  0.1782981E-005  0.9423810E+02  0.7546771E-02  0.1294097E+00
          4   -1    0    0  502    0  0.00000000000E+00  0.00000000000E+00  0.16038627570E+03  0.16038627570E+03  0.00000000000E+00 0. -1.
         -4   -1    0    0    0  501 -0.00000000000E+00 -0.00000000000E+00 -0.21890668535E+03  0.21890668535E+03  0.00000000000E+00 0.  1.
         23    2    1    2    0    0  0.34459336538E+02  0.63152831090E+01 -0.12679029908E+03  0.15947223424E+03  0.90157001277E+02 0.  0.
         23    2    1    2    0    0  0.54272571452E+02 -0.41064842359E+02  0.51051851837E+02  0.12298403860E+03  0.88808495565E+02 0.  0.
        -11    1    4    4    0    0  0.51431127565E+02 -0.64068913788E+02  0.20576952132E+02  0.84695912272E+02  0.00000000000E+00 0. -1.
         11    1    4    4    0    0  0.28414438871E+01  0.23004071429E+02  0.30474899705E+02  0.38288126328E+02  0.00000000000E+00 0.  1.
        -11    1    3    3    0    0  0.60854407829E+02  0.41575175633E+01 -0.11563337824E+03  0.13073493056E+03  0.00000000000E+00 0. -1.
         11    1    3    3    0    0 -0.26395071290E+02  0.21577655456E+01 -0.11156920835E+02  0.28737303685E+02  0.00000000000E+00 0.  1.
         21    1    1    2  502  501 -0.88731907990E+02  0.34749559250E+02  0.17218037595E+02  0.96836688204E+02  0.00000000000E+00 0.  1.
<scales pt_clust_5="13000.00000" pt_clust_6="13000.00000" pt_clust_7="13000.00000" pt_clust_8="13000.00000" pt_clust_9="95.29367"></scales>
<clustering>
<clus scale="   88.808">  5  6 -1 -1</clus>
<clus scale="   90.157">  7  8 -1 -1</clus>
<clus scale="   95.294">  1  9  2 -1</clus>
<clus scale="   95.294">  1  5  2 -1</clus>
<clus scale="   94.238">  1  5  2 -1</clus>
</clustering>
</event>
<event>
 9    1  0.1782981E-005  0.9736349E+02  0.7546771E-02  0.1286029E+00
          2   -1    0    0  502    0  0.00000000000E+00  0.00000000000E+00  0.37838238572E+03  0.37838238572E+03  0.00000000000E+00 0. -1.
         -2   -1    0    0    0  501 -0.00000000000E+00 -0.00000000000E+00 -0.11791161443E+03  0.11791161443E+03  0.00000000000E+00 0.  1.
         23    2    1    2    0    0  0.42876080367E+01  0.36221922867E+02 -0.74341394582E+02  0.12255330255E+03  0.90345214250E+02 0.  0.
         23    2    1    2    0    0 -0.49788697958E+02 -0.21936726323E+02  0.15393813402E+03  0.18668500691E+03  0.90521866380E+02 0.  0.
        -13    1    3    3    0    0 -0.56273585358E+01 -0.28412516373E+02 -0.37878997435E+02  0.47683924937E+02  0.00000000000E+00 0. -1.
         13    1    3    3    0    0  0.99149665726E+01  0.64634439240E+02 -0.36462397147E+02  0.74869377610E+02  0.00000000000E+00 0.  1.
        -13    1    4    4    0    0 -0.76134831384E+02 -0.20280739990E+02  0.10772228347E+03  0.13346127273E+03  0.00000000000E+00 0. -1.
         13    1    4    4    0    0  0.26346133425E+02 -0.16559863329E+01  0.46215850552E+02  0.53223734174E+02  0.00000000000E+00 0.  1.
         21    1    1    2  502  501  0.45501089922E+02 -0.14285196544E+02  0.18087403185E+03  0.18705569070E+03  0.00000000000E+00 0. -1.
<scales pt_clust_5="13000.00000" pt_clust_6="13000.00000" pt_clust_7="13000.00000" pt_clust_8="13000.00000" pt_clust_9="47.69084"></scales>
<clustering>
<clus scale="   47.691">  1  9  2 -1</clus>
<clus scale="   90.345">  5  6 -1 -1</clus>
<clus scale="   90.522">  7  8 -1 -1</clus>
<clus scale="   97.199">  2  5  1 -1</clus>
<clus scale="   47.691">  1  5  2 -1</clus>
</clustering>
</event>
<event>
 9    1  0.1782981E-005  0.3166505E+03  0.7546771E-02  0.1077205E+00
          1   -1    0    0  502    0  0.00000000000E+00  0.00000000000E+00  0.17982604113E+04  0.17982604113E+04  0.00000000000E+00 0. -1.
         -1   -1    0    0    0  501 -0.00000000000E+00 -0.00000000000E+00 -0.65652034171E+02  0.65652034171E+02  0.00000000000E+00 0.  1.
         23    2    1    2    0    0  0.10204639860E+02 -0.31149549365E+03  0.64703483931E+03  0.72398228474E+03  0.91447734276E+02 0.  0.
         23    2    1    2    0    0  0.25883233163E+02  0.29094245294E+03  0.96714710440E+03  0.10144328213E+04  0.91558586612E+02 0.  0.
        -11    1    4    4    0    0  0.25446650161E+01  0.13275377241E+03  0.59059101347E+03  0.60533278831E+03  0.00000000000E+00 0. -1.
         11    1    4    4    0    0  0.23338568147E+02  0.15818868053E+03  0.37655609093E+03  0.40910003303E+03  0.00000000000E+00 0.  1.
        -13    1    3    3    0    0 -0.16699532169E+02 -0.23462721966E+03  0.54378828401E+03  0.59248164900E+03  0.00000000000E+00 0.  1.
         13    1    3    3    0    0  0.26904172029E+02 -0.76868273991E+02  0.10324655530E+03  0.13150063574E+03  0.00000000000E+00 0. -1.
         21    1    1    2  502  501 -0.36087873022E+02  0.20553040707E+02  0.11842643347E+03  0.12549733944E+03  0.00000000000E+00 0. -1.
<scales pt_clust_5="13000.00000" pt_clust_6="13000.00000" pt_clust_7="13000.00000" pt_clust_8="13000.00000" pt_clust_9="41.53025"></scales>
<clustering>
<clus scale="   41.530">  1  9  2 -1</clus>
<clus scale="   91.448">  7  8 -1 -1</clus>
<clus scale="   91.559">  5  6 -1 -1</clus>
<clus scale="  316.618">  2  7  1 -1</clus>
<clus scale="   41.530">  1  5  2 -1</clus>
</clustering>
</event>
<event>
 9    1  0.1782981E-005  0.1137041E+03  0.7546771E-02  0.1254709E+00
         -2   -1    0    0    0  501 -0.00000000000E+00  0.00000000000E+00  0.28389697248E+03  0.28389697248E+03  0.00000000000E+00 0.  1.
          2   -1    0    0  502    0  0.00000000000E+00 -0.00000000000E+00 -0.14678063800E+03  0.14678063800E+03  0.00000000000E+00 0. -1.
         23    2    1    2    0    0 -0.66404537339E+02 -0.11433992051E+02  0.23546031015E+03  0.26207315619E+03  0.93276378497E+02 0.  0.
         23    2    1    2    0    0  0.40636972248E+02  0.29296758338E+02 -0.86296829974E+02  0.13501607015E+03  0.90953464876E+02 0.  0.
        -11    1    3    3    0    0 -0.28302094647E+02 -0.52118064379E+02  0.11885398179E+03  0.13282910142E+03  0.00000000000E+00 0.  1.
         11    1    3    3    0    0 -0.38102442691E+02  0.40684072328E+02  0.11660632836E+03  0.12924405477E+03  0.00000000000E+00 0. -1.
        -11    1    4    4    0    0  0.64871602080E+01  0.48159984040E+02 -0.10423561149E+02  0.49700281059E+02  0.00000000000E+00 0. -1.
         11    1    4    4    0    0  0.34149812040E+02 -0.18863225702E+02 -0.75873268825E+02  0.85315789092E+02  0.00000000000E+00 0.  1.
         21    1    1    2  502  501  0.25767565091E+02 -0.17862766287E+02 -0.12047145697E+02  0.33588384147E+02  0.00000000000E+00 0.  1.
<scales pt_clust_5="13000.00000" pt_clust_6="13000.00000" pt_clust_7="13000.00000" pt_clust_8="13000.00000" pt_clust_9="31.35356"></scales>
<clustering>
<clus scale="   31.354">  2  9  1 -1</clus>
<clus scale="   90.953">  7  8 -1 -1</clus>
<clus scale="   93.276">  5  6 -1 -1</clus>
<clus scale="  111.806">  2  7  1 -1</clus>
<clus scale="   31.354">  2  5  1 -1</clus>
</clustering>
</event>
<event>
 9    1  0.1782981E-005  0.1481847E+03  0.7546771E-02  0.1215576E+00
          2   -1    0    0  502    0  0.00000000000E+00  0.00000000000E+00  0.40622679544E+03  0.40622679544E+03  0.00000000000E+00 0. -1.
         -2   -1    0    0    0  501 -0.00000000000E+00 -0.00000000000E+00 -0.21701293452E+03  0.21701293452E+03  0.00000000000E+00 0.  1.
         23    2    1    2    0    0 -0.61725741423E+01  0.15186204863E+02 -0.11888880727E+03  0.16372713448E+03  0.11137012428E+03 0.  0.
         23    2    1    2    0    0 -0.10830706184E+03  0.11464313787E+02  0.14581762071E+02  0.14333169865E+03  0.92029875141E+02 0.  0.
        -11    1    4    4    0    0 -0.54329445207E+02 -0.40103476378E+02  0.12345812064E+02  0.68646897305E+02  0.00000000000E+00 0. -1.
         11    1    4    4    0    0 -0.53977616629E+02  0.51567790164E+02  0.22359500071E+01  0.74684801344E+02  0.00000000000E+00 0.  1.
        -13    1    3    3    0    0 -0.45895651968E+02  0.43689574561E+02 -0.61014580517E+02  0.87965725317E+02  0.00000000000E+00 0.  1.
         13    1    3    3    0    0  0.39723077825E+02 -0.28503369699E+02 -0.57874226753E+02  0.75761409163E+02  0.00000000000E+00 0. -1.
         21    1    1    2  502  501  0.11447963598E+03 -0.26650518649E+02  0.29352090611E+03  0.31618089683E+03  0.00000000000E+00 0. -1.
<scales pt_clust_5="13000.00000" pt_clust_6="13000.00000" pt_clust_7="13000.00000" pt_clust_8="13000.00000" pt_clust_9="116.14304"></scales>
<clustering>
<clus scale="   92.030">  5  6 -1 -1</clus>
<clus scale="  111.370">  7  8 -1 -1</clus>
<clus scale="  112.570">  2  7  1 -1</clus>
<clus scale="  116.143">  1  9  2 -1</clus>
<clus scale="  116.143">  1  5  2 -1</clus>
</clustering>
</event>
<event>
 9    1  0.1782981E-005  0.1030647E+03  0.7546771E-02  0.1274701E+00
         -3   -1    0    0    0  501 -0.00000000000E+00  0.00000000000E+00  0.68396737768E+02  0.68396737768E+02  0.00000000000E+00 0.  1.
          3   -1    0    0  502    0  0.00000000000E+00 -0.00000000000E+00 -0.36468657774E+03  0.36468657774E+03  0.00000000000E+00 0. -1.
         23    2    1    2    0    0 -0.68314728127E+02 -0.61256431797E+02 -0.69758116059E+02  0.14681871158E+03  0.90941117208E+02 0.  0.
         23    2    1    2    0    0  0.10439817113E+02  0.30930414350E+02 -0.18333766992E+03  0.20793900812E+03  0.92521616767E+02 0.  0.
        -11    1    3    3    0    0 -0.24850580970E+02 -0.62194068225E+01  0.20293126553E+02  0.32680932990E+02  0.00000000000E+00 0.  1.
         11    1    3    3    0    0 -0.43464147157E+02 -0.55037024974E+02 -0.90051242612E+02  0.11413777859E+03  0.00000000000E+00 0. -1.
        -13    1    4    4    0    0  0.44288818720E+02 -0.33699136550E+00 -0.13060005338E+03  0.13790571768E+03  0.00000000000E+00 0. -1.
         13    1    4    4    0    0 -0.33849001607E+02  0.31267405716E+02 -0.52737616548E+02  0.70033290435E+02  0.00000000000E+00 0.  1.
         21    1    1    2  502  501  0.57874911014E+02  0.30326017446E+02 -0.43194053985E+02  0.78325595808E+02  0.00000000000E+00 0.  1.
<scales pt_clust_5="13000.00000" pt_clust_6="13000.00000" pt_clust_7="13000.00000" pt_clust_8="13000.00000" pt_clust_9="65.33891"></scales>
<clustering>
<clus scale="   65.339">  1  9  2 -1</clus>
<clus scale="   90.941">  5  6 -1 -1</clus>
<clus scale="   92.522">  7  8 -1 -1</clus>
<clus scale="  101.648">  1  5  2 -1</clus>
<clus scale="  103.065">  2  5  1 -1</clus>
</clustering>
</event>
<event>
 9    1  0.1782981E-005  0.1562826E+03  0.7546771E-02  0.1193721E+00
         -2   -1    0    0    0  501 -0.00000000000E+00  0.00000000000E+00  0.31030669472E+03  0.31030669472E+03  0.00000000000E+00 0.  1.
          2   -1    0    0  502    0  0.00000000000E+00 -0.00000000000E+00 -0.12518041521E+03  0.12518041521E+03  0.00000000000E+00 0. -1.
         23    2    1    2    0    0 -0.83881214519E+02  0.85370952084E+02  0.18871499463E+03  0.24219336262E+03  0.93381037118E+02 0.  0.
         23    2    1    2    0    0  0.10511874138E+03 -0.97522959521E+02 -0.17803749498E+01  0.16875859036E+03  0.88969740156E+02 0.  0.
        -11    1    3    3    0    0 -0.23143034306E+02  0.72952284281E+02  0.53311709353E+02  0.93272579962E+02  0.00000000000E+00 0. -1.
         11    1    3    3    0    0 -0.60738180213E+02  0.12418667803E+02  0.13540328527E+03  0.14892078266E+03  0.00000000000E+00 0.  1.
        -13    1    4    4    0    0  0.49447885513E+02  0.68115097636E+01 -0.69025600879E+01  0.50389834121E+02  0.00000000000E+00 0.  1.
         13    1    4    4    0    0  0.55670855869E+02 -0.10433446928E+03  0.51221851382E+01  0.11836875624E+03  0.00000000000E+00 0. -1.
         21    1    1    2  502  501 -0.21237526862E+02  0.12152007437E+02 -0.18083401611E+01  0.24535156941E+02  0.00000000000E+00 0. -1.
<scales pt_clust_5="13000.00000" pt_clust_6="13000.00000" pt_clust_7="13000.00000" pt_clust_8="13000.00000" pt_clust_9="24.46843"></scales>
<clustering>
<clus scale="   24.468">  2  9  1 -1</clus>
<clus scale="   88.970">  7  8 -1 -1</clus>
<clus scale="   93.381">  5  6 -1 -1</clus>
<clus scale="  153.688">  2  7  1 -1</clus>
<clus scale="   24.468">  2  5  1 -1</clus>
</clustering>
</event>
<event>
 9    1  0.1782981E-005  0.1697430E+03  0.7546771E-02  0.1178465E+00
         -2   -1    0    0    0  501 -0.00000000000E+00  0.00000000000E+00  0.13015385602E+03  0.13015385602E+03  0.00000000000E+00 0.  1.
          2   -1    0    0  502    0  0.00000000000E+00 -0.00000000000E+00 -0.32805198365E+03  0.32805198365E+03  0.00000000000E+00 0. -1.
         23    2    1    2    0    0 -0.12896681276E+03  0.73734129843E+02 -0.12382743681E+02  0.17459733969E+03  0.90894103149E+02 0.  0.
         23    2    1    2    0    0  0.12711703798E+03 -0.39994077116E+02 -0.98323971389E+02  0.19009831205E+03  0.93335402431E+02 0.  0.
        -13    1    3    3    0    0 -0.59638503781E+02  0.30458708375E+02  0.39543613532E+02  0.77770054779E+02  0.00000000000E+00 0.  1.
         13    1    3    3    0    0 -0.69328308978E+02  0.43275421468E+02 -0.51926357213E+02  0.96827284907E+02  0.00000000000E+00 0. -1.
        -13    1    4    4    0    0  0.36223993198E+02 -0.59513722733E+02 -0.44655401225E+02  0.82753644846E+02  0.00000000000E+00 0.  1.
         13    1    4    4    0    0  0.90893044777E+02  0.19519645617E+02 -0.53668570164E+02  0.10734466720E+03  0.00000000000E+00 0. -1.
         21    1    1    2  502  501  0.18497747838E+01 -0.33740052727E+02 -0.87191412552E+02  0.93510187935E+02  0.00000000000E+00 0. -1.
<scales pt_clust_5="13000.00000" pt_clust_6="13000.00000" pt_clust_7="13000.00000" pt_clust_8="13000.00000" pt_clust_9="33.79072"></scales>
<clustering>
<clus scale="   33.791">  2  9  1 -1</clus>
<clus scale="   90.894">  5  6 -1 -1</clus>
<clus scale="   93.335">  7  8 -1 -1</clus>
<clus scale="  168.413">  1  5  2 -1</clus>
<clus scale="   33.791">  2  5  1 -1</clus>
</clustering>
</event>
<event>
 9    1  0.1782981E-005  0.1240911E+03  0.7546771E-02  0.1237584E+00
          1   -1    0    0  502    0  0.00000000000E+00  0.00000000000E+00  0.60466605530E+03  0.60466605530E+03  0.00000000000E+00 0. -1.
         -1   -1    0    0    0  501 -0.00000000000E+00 -0.00000000000E+00 -0.25341347093E+03  0.25341347093E+03  0.00000000000E+00 0.  1.
         23    2    1    2    0    0  0.45739332312E+02  0.91973105043E+02 -0.15907421561E+03  0.21136254917E+03  0.93906243383E+02 0.  0.
         23    2    1    2    0    0 -0.53135510956E+02 -0.20356872695E+02 -0.22491198182E+02  0.10905666854E+03  0.90275789480E+02 0.  0.
        -13    1    4    4    0    0 -0.32050786393E+02  0.23092769646E+02 -0.41371042517E+02  0.57202203430E+02  0.00000000000E+00 0.  1.
         13    1    4    4    0    0 -0.21084724564E+02 -0.43449642341E+02  0.18879844335E+02  0.51854465107E+02  0.00000000000E+00 0. -1.
        -13    1    3    3    0    0 -0.11433251333E+02  0.64438511266E+02 -0.40746214937E+02  0.77092768804E+02  0.00000000000E+00 0.  1.
         13    1    3    3    0    0  0.57172583644E+02  0.27534593777E+02 -0.11832800067E+03  0.13426978036E+03  0.00000000000E+00 0. -1.
         21    1    1    2  502  501  0.73961786442E+01 -0.71616232348E+02  0.53281799816E+03  0.53766030852E+03  0.00000000000E+00 0. -1.
<scales pt_clust_5="13000.00000" pt_clust_6="13000.00000" pt_clust_7="13000.00000" pt_clust_8="13000.00000" pt_clust_9="71.99714"></scales>
<clustering>
<clus scale="   71.997">  1  9  2 -1</clus>
<clus scale="   90.276">  5  6 -1 -1</clus>
<clus scale="   93.906">  7  8 -1 -1</clus>
<clus scale="  121.367">  1  5  2 -1</clus>
<clus scale="   71.997">  1  5  2 -1</clus>
</clustering>
</event>
<event>
 9    1  0.1782981E-005  0.1043605E+03  0.7546771E-02  0.1271745E+00
         -3   -1    0    0    0  501 -0.00000000000E+00  0.00000000000E+00  0.32015332150E+03  0.32015332150E+03  0.00000000000E+00 0.  1.
          3   -1    0    0  502    0  0.00000000000E+00 -0.00000000000E+00 -0.63008388288E+02  0.63008388288E+02  0.00000000000E+00 0. -1.
         23    2    1    2    0    0 -0.10849914517E+02 -0.53030179098E+02  0.22351373309E+03  0.24774876475E+03  0.92147387471E+02 0.  0.
         23    2    1    2    0    0 -0.85104506469E+00  0.24206676814E+02  0.10474715993E+02  0.96632415170E+02  0.92959219588E+02 0.  0.
        -13    1    4    4    0    0  0.19937926783E+02  0.37311025443E+02  0.39998416885E+02  0.58219471806E+02  0.00000000000E+00 0.  1.
         13    1    4    4    0    0 -0.20788971848E+02 -0.13104348629E+02 -0.29523700893E+02  0.38412943364E+02  0.00000000000E+00 0. -1.
        -13    1    3    3    0    0  0.34939501728E+02 -0.49958221311E+02  0.12559151050E+03  0.13960594603E+03  0.00000000000E+00 0. -1.
         13    1    3    3    0    0 -0.45789416245E+02 -0.30719577871E+01  0.97922222591E+02  0.10814281873E+03  0.00000000000E+00 0.  1.
         21    1    1    2  502  501  0.11700959582E+02  0.28823502285E+02  0.23156484127E+02  0.38780529860E+02  0.00000000000E+00 0. -1.
<scales pt_clust_5="13000.00000" pt_clust_6="13000.00000" pt_clust_7="13000.00000" pt_clust_8="13000.00000" pt_clust_9="31.10799"></scales>
<clustering>
<clus scale="   31.108">  2  9  1 -1</clus>
<clus scale="   92.147">  7  8 -1 -1</clus>
<clus scale="   92.959">  5  6 -1 -1</clus>
<clus scale="  103.638">  1  7  2 -1</clus>
<clus scale="   31.108">  2  5  1 -1</clus>
</clustering>
</event>
<event>
 9    1  0.1782981E-005  0.9794544E+02  0.7546771E-02  0.1284774E+00
         -2   -1    0    0    0  501 -0.00000000000E+00  0.00000000000E+00  0.54904103497E+02  0.54904103497E+02  0.00000000000E+00 0.  1.
          2   -1    0    0  502    0  0.00000000000E+00 -0.00000000000E+00 -0.39596984052E+03  0.39596984052E+03  0.00000000000E+00 0. -1.
         23    2    1    2    0    0 -0.34865115779E+02  0.15110201688E+02 -0.15690674372E+02  0.10092598029E+03  0.92173541442E+02 0.  0.
         23    2    1    2    0    0  0.98139215983E+01 -0.12813910378E+02 -0.18574414370E+03  0.20806904066E+03  0.92365195859E+02 0.  0.
        -11    1    4    4    0    0  0.45972241757E+01  0.35942242737E+02 -0.38477366625E+02  0.52853448568E+02  0.00000000000E+00 0. -1.
         11    1    4    4    0    0  0.52166974225E+01 -0.48756153115E+02 -0.14726677708E+03  0.15521559209E+03  0.00000000000E+00 0.  1.
        -13    1    3    3    0    0 -0.59761961179E+02  0.20854015131E+02 -0.31683287213E+02  0.70782855549E+02  0.00000000000E+00 0. -1.
         13    1    3    3    0    0  0.24896845400E+02 -0.57438134427E+01  0.15992612840E+02  0.30143124741E+02  0.00000000000E+00 0.  1.
         21    1    1    2  502  501  0.25051194181E+02 -0.22962913100E+01 -0.13963091895E+03  0.14187892307E+03  0.00000000000E+00 0. -1.
<scales pt_clust_5="13000.00000" pt_clust_6="13000.00000" pt_clust_7="13000.00000" pt_clust_8="13000.00000" pt_clust_9="25.15622"></scales>
<clustering>
<clus scale="   25.156">  2  9  1 -1</clus>
<clus scale="   92.174">  7  8 -1 -1</clus>
<clus scale="   92.365">  5  6 -1 -1</clus>
<clus scale="   97.765">  1  7  2 -1</clus>
<clus scale="   25.156">  2  5  1 -1</clus>
</clustering>
</event>
<event>
 9    1  0.1782981E-005  0.1281859E+03  0.7546771E-02  0.1231776E+00
          1   -1    0    0  502    0  0.00000000000E+00  0.00000000000E+00  0.47814644800E+03  0.47814644800E+03  0.00000000000E+00 0. -1.
         -1   -1    0    0    0  501 -0.00000000000E+00 -0.00000000000E+00 -0.63238254659E+02  0.63238254659E+02  0.00000000000E+00 0.  1.
         23    2    1    2    0    0  0.12823234505E+02 -0.73552866259E+02  0.65428659346E+02  0.13557036080E+03  0.92325260825E+02 0.  0.
         23    2    1    2    0    0 -0.66393157341E+02  0.87469040371E+02  0.21608692674E+03  0.26139486877E+03  0.97851076382E+02 0.  0.
        -11    1    3    3    0    0  0.74676541064E+01 -0.93611943296E+02  0.38324983258E+02  0.10142862578E+03  0.00000000000E+00 0.  1.
         11    1    3    3    0    0  0.53555803984E+01  0.20059077038E+02  0.27103676087E+02  0.34141735024E+02  0.00000000000E+00 0. -1.
        -13    1    4    4    0    0 -0.94154267875E+01  0.24194173267E+02 -0.31987740758E+01  0.26157989932E+02  0.00000000000E+00 0.  1.
         13    1    4    4    0    0 -0.56977730553E+02  0.63274867104E+02  0.21928570081E+03  0.23523687884E+03  0.00000000000E+00 0. -1.
         21    1    1    2  502  501  0.53569922836E+02 -0.13916174113E+02  0.13339260726E+03  0.14441947309E+03  0.00000000000E+00 0.  1.
<scales pt_clust_5="13000.00000" pt_clust_6="13000.00000" pt_clust_7="13000.00000" pt_clust_8="13000.00000" pt_clust_9="55.34796"></scales>
<clustering>
<clus scale="   55.348">  1  9  2 -1</clus>
<clus scale="   92.325">  5  6 -1 -1</clus>
<clus scale="   97.851">  7  8 -1 -1</clus>
<clus scale="  124.019">  2  5  1 -1</clus>
<clus scale="   55.348">  1  5  2 -1</clus>
</clustering>
</event>
<event>
 9    1  0.1782981E-005  0.1483229E+03  0.7546771E-02  0.1203630E+00
         -1   -1    0    0    0  501 -0.00000000000E+00  0.00000000000E+00  0.90691532078E+02  0.90691532078E+02  0.00000000000E+00 0.  1.
          1   -1    0    0  502    0  0.00000000000E+00 -0.00000000000E+00 -0.40001452559E+03  0.40001452559E+03  0.00000000000E+00 0. -1.
         23    2    1    2    0    0 -0.71825044322E+02  0.72455677750E+02 -0.76457804650E+02  0.15637646577E+03  0.90549107802E+02 0.  0.
         23    2    1    2    0    0  0.10680257232E+03 -0.68610819756E+02 -0.81200718816E+02  0.17863655457E+03  0.95933455328E+02 0.  0.
        -11    1    3    3    0    0 -0.25280251422E+02  0.39108420878E+02  0.14608512493E+02  0.48805412945E+02  0.00000000000E+00 0.  1.
         11    1    3    3    0    0 -0.46544792900E+02  0.33347256873E+02 -0.91066317143E+02  0.10757105282E+03  0.00000000000E+00 0. -1.
        -13    1    4    4    0    0  0.16883667593E+02  0.21335998036E+02  0.95550399456E+00  0.27224915637E+02  0.00000000000E+00 0.  1.
         13    1    4    4    0    0  0.89918904732E+02 -0.89946817791E+02 -0.82156222811E+02  0.15141163894E+03  0.00000000000E+00 0. -1.
         21    1    1    2  502  501 -0.34977528002E+02 -0.38448579946E+01 -0.15166447004E+03  0.15569303733E+03  0.00000000000E+00 0. -1.
<scales pt_clust_5="13000.00000" pt_clust_6="13000.00000" pt_clust_7="13000.00000" pt_clust_8="13000.00000" pt_clust_9="35.18821"></scales>
<clustering>
<clus scale="   35.188">  2  9  1 -1</clus>
<clus scale="   90.549">  5  6 -1 -1</clus>
<clus scale="   95.933">  7  8 -1 -1</clus>
<clus scale="  144.899">  1  5  2 -1</clus>
<clus scale="   35.188">  2  5  1 -1</clus>
</clustering>
</event>
<event>
 9    1  0.1782981E-005  0.1450822E+03  0.7546771E-02  0.1206780E+00
          1   -1    0    0  502    0  0.00000000000E+00  0.00000000000E+00  0.51672886549E+03  0.51672886549E+03  0.00000000000E+00 0. -1.
         -1   -1    0    0    0  501 -0.00000000000E+00 -0.00000000000E+00 -0.69252369352E+02  0.69252369352E+02  0.00000000000E+00 0.  1.
         23    2    1    2    0    0 -0.77203172283E+02  0.90526812908E+02  0.57835385617E+02  0.16065568344E+03  0.91158560350E+02 0.  0.
         23    2    1    2    0    0  0.55911830714E+02 -0.78780642339E+02  0.24729127743E+03  0.28091374881E+03  0.91798888639E+02 0.  0.
        -13    1    4    4    0    0  0.44529021550E+02  0.83820136126E+01  0.87831129679E+02  0.98830153561E+02  0.00000000000E+00 0.  1.
         13    1    4    4    0    0  0.11382809165E+02 -0.87162655952E+02  0.15946014775E+03  0.18208359525E+03  0.00000000000E+00 0. -1.
        -13    1    3    3    0    0 -0.15568605985E+02  0.40707221539E+02 -0.21430674795E+02  0.48566791122E+02  0.00000000000E+00 0.  1.
         13    1    3    3    0    0 -0.61634566298E+02  0.49819591369E+02  0.79266060412E+02  0.11208889231E+03  0.00000000000E+00 0. -1.
         21    1    1    2  502  501  0.21291341568E+02 -0.11746170569E+02  0.14234983309E+03  0.14441180260E+03  0.00000000000E+00 0. -1.
<scales pt_clust_5="13000.00000" pt_clust_6="13000.00000" pt_clust_7="13000.00000" pt_clust_8="13000.00000" pt_clust_9="24.31653"></scales>
<clustering>
<clus scale="   24.317">  1  9  2 -1</clus>
<clus scale="   91.159">  7  8 -1 -1</clus>
<clus scale="   91.799">  5  6 -1 -1</clus>
<clus scale="  144.678">  2  7  1 -1</clus>
<clus scale="   24.317">  1  5  2 -1</clus>
</clustering>
</event>
<event>
 9    1  0.1782981E-005  0.1138309E+03  0.7546771E-02  0.1267189E+00
         -1   -1    0    0    0  501 -0.00000000000E+00  0.00000000000E+00  0.42035335197E+03  0.42035335197E+03  0.00000000000E+00 0.  1.
          1   -1    0    0  502    0  0.00000000000E+00 -0.00000000000E+00 -0.73189691778E+02  0.73189691778E+02  0.00000000000E+00 0. -1.
         23    2    1    2    0    0 -0.13792256615E+02  0.34338741299E+01  0.36618722534E+03  0.38355088087E+03  0.11320855259E+03 0.  0.
         23    2    1    2    0    0 -0.61734766674E+00  0.11433510968E+02 -0.19336835866E+02  0.89285304751E+02  0.86410914426E+02 0.  0.
        -11    1    4    4    0    0  0.84246503833E+01  0.42045063557E+02 -0.33450924920E+02  0.54384983972E+02  0.00000000000E+00 0. -1.
         11    1    4    4    0    0 -0.90419980501E+01 -0.30611552589E+02  0.14114089054E+02  0.34900320779E+02  0.00000000000E+00 0.  1.
        -13    1    3    3    0    0  0.38675767632E+02 -0.23401837666E+02  0.24078087421E+03  0.24498753110E+03  0.00000000000E+00 0.  1.
         13    1    3    3    0    0 -0.52468024247E+02  0.26835711796E+02  0.12540635113E+03  0.13856334977E+03  0.00000000000E+00 0. -1.
         21    1    1    2  502  501  0.14409604282E+02 -0.14867385098E+02  0.31327072246E+00  0.20706858133E+02  0.00000000000E+00 0.  1.
<scales pt_clust_5="13000.00000" pt_clust_6="13000.00000" pt_clust_7="13000.00000" pt_clust_8="13000.00000" pt_clust_9="20.70449"></scales>
<clustering>
<clus scale="   20.704">  2  9  1 -1</clus>
<clus scale="   86.411">  5  6 -1 -1</clus>
<clus scale="   87.225">  2  5  1 -1</clus>
<clus scale="  113.209">  7  8 -1 -1</clus>
<clus scale="   20.704">  2  5  1 -1</clus>
</clustering>
</event>
<event>
 9    1  0.1782981E-005  0.1015678E+03  0.7546771E-02  0.1280377E+00
          1   -1    0    0  502    0  0.00000000000E+00  0.00000000000E+00  0.16226373364E+03  0.16226373364E+03  0.00000000000E+00 0. -1.
         -1   -1    0    0    0  501 -0.00000000000E+00 -0.00000000000E+00 -0.91494562940E+02  0.91494562940E+02  0.00000000000E+00 0.  1.
         23    2    1    2    0    0  0.15477848254E+02  0.33692118628E+02 -0.21308984436E+02  0.10567379532E+03  0.96634132458E+02 0.  0.
         23    2    1    2    0    0 -0.16321661190E+02 -0.13503168229E+02  0.60206726139E+02  0.11034733490E+03  0.90016400010E+02 0.  0.
        -13    1    3    3    0    0  0.26904681642E+02 -0.93096220300E+01 -0.46515056947E+02  0.54536056691E+02  0.00000000000E+00 0.  1.
         13    1    3    3    0    0 -0.11426833389E+02  0.43001740658E+02  0.25206072511E+02  0.51137738631E+02  0.00000000000E+00 0. -1.
        -13    1    4    4    0    0 -0.51965868701E+02 -0.19176009102E+02  0.28438058385E+02  0.62264709103E+02  0.00000000000E+00 0. -1.
         13    1    4    4    0    0  0.35644207511E+02  0.56728408732E+01  0.31768667754E+02  0.48082625796E+02  0.00000000000E+00 0.  1.
         21    1    1    2  502  501  0.84381293648E+00 -0.20188950399E+02  0.31871428998E+02  0.37737166360E+02  0.00000000000E+00 0. -1.
<scales pt_clust_5="13000.00000" pt_clust_6="13000.00000" pt_clust_7="13000.00000" pt_clust_8="13000.00000" pt_clust_9="20.20658"></scales>
<clustering>
<clus scale="   20.207">  1  9  2 -1</clus>
<clus scale="   90.016">  7  8 -1 -1</clus>
<clus scale="   95.293">  1  7  2 -1</clus>
<clus scale="   96.634">  5  6 -1 -1</clus>
<clus scale="   20.207">  1  5  2 -1</clus>
</clustering>
</event>
<event>
 9    1  0.1782981E-005  0.1707083E+03  0.7546771E-02  0.1177177E+00
         -2   -1    0    0    0  501 -0.00000000000E+00  0.00000000000E+00  0.22975925381E+03  0.22975925381E+03  0.00000000000E+00 0.  1.
          2   -1    0    0  502    0  0.00000000000E+00 -0.00000000000E+00 -0.32177344863E+03  0.32177344863E+03  0.00000000000E+00 0. -1.
         23    2    1    2    0    0 -0.22651406512E+02  0.96917815090E+02 -0.70792506704E+01  0.13513526262E+03  0.91133277763E+02 0.  0.
         23    2    1    2    0    0 -0.39858929363E+02 -0.20474219532E+03  0.49441404584E+02  0.23311993939E+03  0.91609785850E+02 0.  0.
        -11    1    4    4    0    0 -0.47902852482E+02 -0.89881064767E+02  0.58789100696E+02  0.11759867108E+03  0.00000000000E+00 0.  1.
         11    1    4    4    0    0  0.80439231185E+01 -0.11486113055E+03 -0.93476961115E+01  0.11552126831E+03  0.00000000000E+00 0. -1.
        -13    1    3    3    0    0 -0.45065008951E+02  0.16403980459E+02 -0.17200971424E+02  0.50949180804E+02  0.00000000000E+00 0.  1.
         13    1    3    3    0    0  0.22413602439E+02  0.80513834630E+02  0.10121720754E+02  0.84186081820E+02  0.00000000000E+00 0. -1.
         21    1    1    2  502  501  0.62510335875E+02  0.10782438023E+03 -0.13437634874E+03  0.18327750043E+03  0.00000000000E+00 0. -1.
<scales pt_clust_5="13000.00000" pt_clust_6="13000.00000" pt_clust_7="13000.00000" pt_clust_8="13000.00000" pt_clust_9="124.63402"></scales>
<clustering>
<clus scale="   91.133">  7  8 -1 -1</clus>
<clus scale="   91.610">  5  6 -1 -1</clus>
<clus scale="  124.634">  2  9  1 -1</clus>
<clus scale="  170.453">  1  7  2 -1</clus>
<clus scale="  124.634">  2  5  1 -1</clus>
</clustering>
</event>
<event>
 9    1  0.1825838E-005  0.1424160E+03  0.7546771E-02  0.1222352E+00
          2   -1    0    0  502    0  0.00000000000E+00  0.00000000000E+00  0.71991923129E+03  0.71991923129E+03  0.00000000000E+00 0. -1.
         -2   -1    0    0    0  501 -0.00000000000E+00 -0.00000000000E+00 -0.93464895914E+02  0.93464895914E+02  0.00000000000E+00 0.  1.
         23    2    1    2    0    0  0.65271285896E+02 -0.30787628978E+01 -0.46820569696E+02  0.12012129061E+03  0.89258832435E+02 0.  0.
         23    2    1    2    0    0 -0.44489546488E+02  0.22828435966E+01  0.64002999469E+03  0.65404883085E+03  0.12710998352E+03 0.  0.
        -13    1    3    3    0    0  0.68666561167E+02 -0.25851995442E+02 -0.58929049495E+02  0.94106615949E+02  0.00000000000E+00 0.  1.
         13    1    3    3    0    0 -0.33952752717E+01  0.22773232544E+02  0.12108479799E+02  0.26014674661E+02  0.00000000000E+00 0. -1.
        -13    1    4    4    0    0 -0.66129965455E+02 -0.43971555457E+02  0.46456395982E+03  0.47130281432E+03  0.00000000000E+00 0. -1.
         13    1    4    4    0    0  0.21640418966E+02  0.46254399053E+02  0.17546603487E+03  0.18274601653E+03  0.00000000000E+00 0.  1.
         21    1    1    2  502  501 -0.20781739407E+02  0.79591930128E+00  0.33244910386E+02  0.39214005749E+02  0.00000000000E+00 0. -1.
<scales pt_clust_5="13000.00000" pt_clust_6="13000.00000" pt_clust_7="13000.00000" pt_clust_8="13000.00000" pt_clust_9="20.79698"></scales>
<clustering>
<clus scale="   20.797">  1  9  2 -1</clus>
<clus scale="   89.259">  5  6 -1 -1</clus>
<clus scale="  109.966">  2  5  1 -1</clus>
<clus scale="  127.110">  7  8 -1 -1</clus>
<clus scale="   20.797">  1  5  2 -1</clus>
</clustering>
</event>
<event>
 9    1  0.1782981E-005  0.1040111E+03  0.7546771E-02  0.1273520E+00
         -1   -1    0    0    0  501 -0.00000000000E+00  0.00000000000E+00  0.18198067138E+03  0.18198067138E+03  0.00000000000E+00 0.  1.
          1   -1    0    0  502    0  0.00000000000E+00 -0.00000000000E+00 -0.25465834167E+03  0.25465834167E+03  0.00000000000E+00 0. -1.
         23    2    1    2    0    0 -0.35028983557E+02 -0.37337942050E+02  0.13812443418E+03  0.17377007974E+03  0.92176622249E+02 0.  0.
         23    2    1    2    0    0  0.35086919713E+02  0.10763629614E+02 -0.68534404059E+02  0.11814058081E+03  0.88956644702E+02 0.  0.
        -11    1    3    3    0    0 -0.41027827626E+02 -0.14607951439E+02  0.14323773885E+03  0.14971213951E+03  0.00000000000E+00 0.  1.
         11    1    3    3    0    0  0.59988440693E+01 -0.22729990611E+02 -0.51133046733E+01  0.24057940228E+02  0.00000000000E+00 0. -1.
        -13    1    4    4    0    0 -0.15283502155E+02 -0.28362488991E+02 -0.19192940676E+02  0.37501802513E+02  0.00000000000E+00 0.  1.
         13    1    4    4    0    0  0.50370421868E+02  0.39126118605E+02 -0.49341463383E+02  0.80638778296E+02  0.00000000000E+00 0. -1.
         21    1    1    2  502  501 -0.57936155712E-01  0.26574312436E+02 -0.14226770041E+03  0.14472835250E+03  0.00000000000E+00 0. -1.
<scales pt_clust_5="13000.00000" pt_clust_6="13000.00000" pt_clust_7="13000.00000" pt_clust_8="13000.00000" pt_clust_9="26.57438"></scales>
<clustering>
<clus scale="   26.574">  2  9  1 -1</clus>
<clus scale="   88.957">  7  8 -1 -1</clus>
<clus scale="   92.177">  5  6 -1 -1</clus>
<clus scale="  101.168">  2  7  1 -1</clus>
<clus scale="   26.574">  2  5  1 -1</clus>
</clustering>
</event>
<event>
 9    1  0.1782981E-005  0.2652294E+03  0.7546771E-02  0.1104054E+00
         -2   -1    0    0    0  501 -0.00000000000E+00  0.00000000000E+00  0.28848956868E+03  0.28848956868E+03  0.00000000000E+00 0.  1.
          2   -1    0    0  502    0  0.00000000000E+00 -0.00000000000E+00 -0.52457375789E+03  0.52457375789E+03  0.00000000000E+00 0. -1.
         23    2    1    2    0    0 -0.23689878474E+03  0.72613617785E+02  0.16588009300E+03  0.31142518131E+03  0.89864712756E+02 0.  0.
         23    2    1    2    0    0  0.25241245832E+03 -0.58167386851E+02 -0.34416095302E+03  0.44007035725E+03  0.90109176733E+02 0.  0.
        -11    1    4    4    0    0  0.18047912129E+03 -0.21334265939E+02 -0.17357188567E+03  0.25130671225E+03  0.00000000000E+00 0. -1.
         11    1    4    4    0    0  0.71933337028E+02 -0.36833120912E+02 -0.17058906735E+03  0.18876364500E+03  0.00000000000E+00 0.  1.
        -11    1    3    3    0    0 -0.17853464404E+03  0.80811728859E+02  0.15846306711E+03  0.25202320981E+03  0.00000000000E+00 0.  1.
         11    1    3    3    0    0 -0.58364140698E+02 -0.81981110738E+01  0.74170258878E+01  0.59401971496E+02  0.00000000000E+00 0. -1.
         21    1    1    2  502  501 -0.15513673583E+02 -0.14446230934E+02 -0.57803329188E+02  0.61567788018E+02  0.00000000000E+00 0.  1.
<scales pt_clust_5="13000.00000" pt_clust_6="13000.00000" pt_clust_7="13000.00000" pt_clust_8="13000.00000" pt_clust_9="21.19829"></scales>
<clustering>
<clus scale="   21.198">  2  9  1 -1</clus>
<clus scale="   89.865">  7  8 -1 -1</clus>
<clus scale="   90.109">  5  6 -1 -1</clus>
<clus scale="  265.146">  1  7  2 -1</clus>
<clus scale="   21.198">  2  5  1 -1</clus>
</clustering>
</event>
<event>
 9    1  0.1782981E-005  0.4007335E+03  0.7546771E-02  0.1043615E+00
          2   -1    0    0  502    0  0.00000000000E+00  0.00000000000E+00  0.71630605196E+03  0.71630605196E+03  0.00000000000E+00 0. -1.
         -2   -1    0    0    0  501 -0.00000000000E+00 -0.00000000000E+00 -0.26784481823E+03  0.26784481823E+03  0.00000000000E+00 0.  1.
         23    2    1    2    0    0  0.21808736407E+03 -0.32573446186E+03  0.53808876873E+02  0.40590547300E+03  0.90547334399E+02 0.  0.
         23    2    1    2    0    0 -0.23196141067E+03  0.31126330898E+03  0.38830247537E+03  0.55721626430E+03  0.94974782307E+02 0.  0.
        -13    1    4    4    0    0 -0.19274736910E+03  0.30264278281E+03  0.35849493489E+03  0.50721082463E+03  0.00000000000E+00 0.  1.
         13    1    4    4    0    0 -0.39214041569E+02  0.86205261689E+01  0.29807540472E+02  0.50005439670E+02  0.00000000000E+00 0. -1.
        -13    1    3    3    0    0  0.20478204657E+03 -0.24996171222E+03  0.60249292998E+02  0.32870430706E+03  0.00000000000E+00 0. -1.
         13    1    3    3    0    0  0.13305317502E+02 -0.75772749647E+02 -0.64404161243E+01  0.77201165942E+02  0.00000000000E+00 0.  1.
         21    1    1    2  502  501  0.13874046598E+02  0.14471152887E+02  0.63498814963E+01  0.21029132885E+02  0.00000000000E+00 0.  1.
<scales pt_clust_5="13000.00000" pt_clust_6="13000.00000" pt_clust_7="13000.00000" pt_clust_8="13000.00000" pt_clust_9="20.04753"></scales>
<clustering>
<clus scale="   20.048">  2  9  1 -1</clus>
<clus scale="   90.547">  7  8 -1 -1</clus>
<clus scale="   94.975">  5  6 -1 -1</clus>
<clus scale="  399.707">  2  7  1 -1</clus>
<clus scale="  400.733">  1  5  2 -1</clus>
</clustering>
</event>
<event>
 9    1  0.1782981E-005  0.1104301E+03  0.7546771E-02  0.1260242E+00
         -1   -1    0    0    0  501 -0.00000000000E+00  0.00000000000E+00  0.28396305325E+03  0.28396305325E+03  0.00000000000E+00 0.  1.
          1   -1    0    0  502    0  0.00000000000E+00 -0.00000000000E+00 -0.67652965514E+02  0.67652965514E+02  0.00000000000E+00 0. -1.
         23    2    1    2    0    0 -0.50086920264E+02 -0.44870278028E+02  0.16394859238E+03  0.19927842429E+03  0.91163084717E+02 0.  0.
         23    2    1    2    0    0  0.49760585306E+02  0.15378050776E+02  0.60042482506E+02  0.12185980704E+03  0.92369435265E+02 0.  0.
        -11    1    4    4    0    0  0.32547180613E+01 -0.22715298410E+02  0.57251765217E+02  0.61679353045E+02  0.00000000000E+00 0.  1.
         11    1    4    4    0    0  0.46505867245E+02  0.38093349186E+02  0.27907172893E+01  0.60180453998E+02  0.00000000000E+00 0. -1.
        -13    1    3    3    0    0 -0.55109788160E+02 -0.11179554063E+02  0.15376660299E+03  0.16372611085E+03  0.00000000000E+00 0.  1.
         13    1    3    3    0    0  0.50228678958E+01 -0.33690723965E+02  0.10181989387E+02  0.35552313441E+02  0.00000000000E+00 0. -1.
         21    1    1    2  502  501  0.32633495754E+00  0.29492227252E+02 -0.76809871482E+01  0.30477787426E+02  0.00000000000E+00 0. -1.
<scales pt_clust_5="13000.00000" pt_clust_6="13000.00000" pt_clust_7="13000.00000" pt_clust_8="13000.00000" pt_clust_9="29.49403"></scales>
<clustering>
<clus scale="   29.494">  2  9  1 -1</clus>
<clus scale="   91.163">  7  8 -1 -1</clus>
<clus scale="   92.369">  5  6 -1 -1</clus>
<clus scale="  109.423">  1  7  2 -1</clus>
<clus scale="   29.494">  2  5  1 -1</clus>
</clustering>
</event>
<event>
 9    1  0.1782981E-005  0.1061376E+03  0.7546771E-02  0.1268859E+00
          1   -1    0    0  502    0  0.00000000000E+00  0.00000000000E+00  0.13931745712E+03  0.13931745712E+03  0.00000000000E+00 0. -1.
         -1   -1    0    0    0  501 -0.00000000000E+00 -0.00000000000E+00 -0.18539362595E+03  0.18539362595E+03  0.00000000000E+00 0.  1.
         23    2    1    2    0    0 -0.35437762896E+02 -0.20061274217E+02 -0.10042171094E+03  0.14318967297E+03  0.93597396623E+02 0.  0.
         23    2    1    2    0    0  0.68248014062E+02  0.35828251017E+02  0.42671728235E+01  0.11961056121E+03  0.91362041325E+02 0.  0.
        -13    1    3    3    0    0 -0.34566900315E+02 -0.54611605808E+02 -0.80720724047E+02  0.10340760793E+03  0.00000000000E+00 0.  1.
         13    1    3    3    0    0 -0.87086258086E+00  0.34550331590E+02 -0.19700986897E+02  0.39782065046E+02  0.00000000000E+00 0. -1.
        -13    1    4    4    0    0  0.78079816534E+01  0.27995064276E+02 -0.36222646440E+02  0.46441019761E+02  0.00000000000E+00 0.  1.
         13    1    4    4    0    0  0.60440032408E+02  0.78331867406E+01  0.40489819263E+02  0.73169541450E+02  0.00000000000E+00 0. -1.
         21    1    1    2  502  501 -0.32810251166E+02 -0.15766976799E+02  0.50078369290E+02  0.61910848885E+02  0.00000000000E+00 0.  1.
<scales pt_clust_5="13000.00000" pt_clust_6="13000.00000" pt_clust_7="13000.00000" pt_clust_8="13000.00000" pt_clust_9="36.40206"></scales>
<clustering>
<clus scale="   36.402">  1  9  2 -1</clus>
<clus scale="   91.362">  7  8 -1 -1</clus>
<clus scale="   93.597">  5  6 -1 -1</clus>
<clus scale="  104.172">  1  7  2 -1</clus>
<clus scale="   36.402">  1  5  2 -1</clus>
</clustering>
</event>
<event>
 9    1  0.2121876E-005  0.1392208E+03  0.7546771E-02  0.1214500E+00
         -2   -1    0    0    0  501 -0.00000000000E+00  0.00000000000E+00  0.10183441291E+03  0.10183441291E+03  0.00000000000E+00 0.  1.
          2   -1    0    0  502    0  0.00000000000E+00 -0.00000000000E+00 -0.78255500036E+03  0.78255500036E+03  0.00000000000E+00 0. -1.
         23    2    1    2    0    0 -0.10595153380E+03  0.79882736572E+01  0.37419857736E+02  0.14483305936E+03  0.91032023482E+02 0.  0.
         23    2    1    2    0    0  0.91515209027E+02 -0.44692594107E+02 -0.58758851819E+03  0.60317666240E+03  0.90495071186E+02 0.  0.
        -11    1    4    4    0    0  0.47707243109E+02  0.22967039895E+02 -0.29372950050E+03  0.29846354120E+03  0.00000000000E+00 0.  1.
         11    1    4    4    0    0  0.43807965918E+02 -0.67659634002E+02 -0.29385901769E+03  0.30471312120E+03  0.00000000000E+00 0. -1.
        -13    1    3    3    0    0 -0.10818798744E+03 -0.17083642979E+02  0.13942581625E+02  0.11041235015E+03  0.00000000000E+00 0.  1.
         13    1    3    3    0    0  0.22364536379E+01  0.25071916636E+02  0.23477276111E+02  0.34420709206E+02  0.00000000000E+00 0. -1.
         21    1    1    2  502  501  0.14436324778E+02  0.36704320450E+02 -0.13055192700E+03  0.13637969151E+03  0.00000000000E+00 0.  1.
<scales pt_clust_5="13000.00000" pt_clust_6="13000.00000" pt_clust_7="13000.00000" pt_clust_8="13000.00000" pt_clust_9="39.44128"></scales>
<clustering>
<clus scale="   39.441">  2  9  1 -1</clus>
<clus scale="   90.495">  5  6 -1 -1</clus>
<clus scale="   91.032">  7  8 -1 -1</clus>
<clus scale="  138.870">  2  5  1 -1</clus>
<clus scale="   39.441">  2  5  1 -1</clus>
</clustering>
</event>
<event>
 9    1  0.1782981E-005  0.1129970E+03  0.7546771E-02  0.1258478E+00
         -2   -1    0    0    0  501 -0.00000000000E+00  0.00000000000E+00  0.50725826350E+02  0.50725826350E+02  0.00000000000E+00 0.  1.
          2   -1    0    0  502    0  0.00000000000E+00 -0.00000000000E+00 -0.48116052209E+03  0.48116052209E+03  0.00000000000E+00 0. -1.
         23    2    1    2    0    0 -0.69262619008E+02  0.37100080889E+02 -0.17816282453E+03  0.21419209996E+03  0.89233050195E+02 0.  0.
         23    2    1    2    0    0  0.11579196573E+02 -0.49551722703E+02 -0.22924745252E+03  0.25434960021E+03  0.97723454847E+02 0.  0.
        -11    1    3    3    0    0 -0.17660667212E+02  0.55512301656E+02 -0.12472600185E+03  0.13765932711E+03  0.00000000000E+00 0.  1.
         11    1    3    3    0    0 -0.51601951797E+02 -0.18412220768E+02 -0.53436822683E+02  0.76532772858E+02  0.00000000000E+00 0. -1.
        -13    1    4    4    0    0  0.91330576969E+01 -0.76403432143E+02 -0.20134868966E+03  0.21555090353E+03  0.00000000000E+00 0. -1.
         13    1    4    4    0    0  0.24461388760E+01  0.26851709440E+02 -0.27898762860E+02  0.38798696684E+02  0.00000000000E+00 0.  1.
         21    1    1    2  502  501  0.57683422436E+02  0.12451641814E+02 -0.23024418691E+02  0.63344648265E+02  0.00000000000E+00 0.  1.
<scales pt_clust_5="13000.00000" pt_clust_6="13000.00000" pt_clust_7="13000.00000" pt_clust_8="13000.00000" pt_clust_9="59.01204"></scales>
<clustering>
<clus scale="   59.012">  1  9  2 -1</clus>
<clus scale="   89.233">  5  6 -1 -1</clus>
<clus scale="   97.723">  7  8 -1 -1</clus>
<clus scale="  105.740">  1  5  2 -1</clus>
<clus scale="  112.997">  2  5  1 -1</clus>
</clustering>
</event>
<event>
 9    1  0.1782981E-005  0.1188770E+03  0.7546771E-02  0.1246298E+00
         -1   -1    0    0    0  501 -0.00000000000E+00  0.00000000000E+00  0.46651975677E+02  0.46651975677E+02  0.00000000000E+00 0.  1.
          1   -1    0    0  502    0  0.00000000000E+00 -0.00000000000E+00 -0.51104906135E+03  0.51104906135E+03  0.00000000000E+00 0. -1.
         23    2    1    2    0    0  0.57235193375E+02 -0.25632198036E+02 -0.74633922405E+02  0.13418146480E+03  0.92203938019E+02 0.  0.
         23    2    1    2    0    0 -0.83054302930E+02  0.32405821424E+02 -0.26172616337E+03  0.29272973418E+03  0.96135103812E+02 0.  0.
        -11    1    4    4    0    0 -0.26703285730E+02  0.20748751272E+02 -0.11114534262E+02  0.35596474825E+02  0.00000000000E+00 0.  1.
         11    1    4    4    0    0 -0.56351017200E+02  0.11657070152E+02 -0.25061162910E+03  0.25713325935E+03  0.00000000000E+00 0. -1.
        -13    1    3    3    0    0  0.78853085698E+02 -0.21399560710E+01 -0.59752049729E+02  0.98958051632E+02  0.00000000000E+00 0.  1.
         13    1    3    3    0    0 -0.21617892323E+02 -0.23492241965E+02 -0.14881872676E+02  0.35223413171E+02  0.00000000000E+00 0. -1.
         21    1    1    2  502  501  0.25819109555E+02 -0.67736233882E+01 -0.12803699990E+03  0.13078983804E+03  0.00000000000E+00 0. -1.
<scales pt_clust_5="13000.00000" pt_clust_6="13000.00000" pt_clust_7="13000.00000" pt_clust_8="13000.00000" pt_clust_9="26.69285"></scales>
<clustering>
<clus scale="   26.693">  2  9  1 -1</clus>
<clus scale="   92.204">  7  8 -1 -1</clus>
<clus scale="   96.135">  5  6 -1 -1</clus>
<clus scale="  115.721">  1  7  2 -1</clus>
<clus scale="   26.693">  2  5  1 -1</clus>
</clustering>
</event>
<event>
 9    1  0.1782981E-005  0.1229338E+03  0.7546771E-02  0.1239388E+00
         -1   -1    0    0    0  501 -0.00000000000E+00  0.00000000000E+00  0.23330459300E+03  0.23330459300E+03  0.00000000000E+00 0.  1.
          1   -1    0    0  502    0  0.00000000000E+00 -0.00000000000E+00 -0.89575651090E+02  0.89575651090E+02  0.00000000000E+00 0. -1.
         23    2    1    2    0    0 -0.73344596235E+02  0.44015681567E+01  0.11521770713E+03  0.16429876459E+03  0.91214913312E+02 0.  0.
         23    2    1    2    0    0  0.88575554728E+02  0.92007435081E+01  0.38940101606E+02  0.13565188635E+03  0.94629911655E+02 0.  0.
        -13    1    4    4    0    0 -0.20366020744E+02  0.46091773664E+01  0.72073511792E+01  0.22089934992E+02  0.00000000000E+00 0.  1.
         13    1    4    4    0    0  0.10894157547E+03  0.45915661417E+01  0.31732750426E+02  0.11356195135E+03  0.00000000000E+00 0. -1.
        -13    1    3    3    0    0 -0.35333462546E+02 -0.40659229468E+02  0.77257195878E+02  0.94182274507E+02  0.00000000000E+00 0.  1.
         13    1    3    3    0    0 -0.38011133689E+02  0.45060797625E+02  0.37960511247E+02  0.70116490080E+02  0.00000000000E+00 0. -1.
         21    1    1    2  502  501 -0.15230958493E+02 -0.13602311665E+02 -0.10428866819E+02  0.22929593158E+02  0.00000000000E+00 0.  1.
<scales pt_clust_5="13000.00000" pt_clust_6="13000.00000" pt_clust_7="13000.00000" pt_clust_8="13000.00000" pt_clust_9="20.42070"></scales>
<clustering>
<clus scale="   20.421">  2  9  1 -1</clus>
<clus scale="   91.215">  7  8 -1 -1</clus>
<clus scale="   94.630">  5  6 -1 -1</clus>
<clus scale="  120.325">  1  7  2 -1</clus>
<clus scale="   20.421">  2  5  1 -1</clus>
</clustering>
</event>
<event>
 9    1  0.1782981E-005  0.1073673E+03  0.7546771E-02  0.1269265E+00
          3   -1    0    0  502    0  0.00000000000E+00  0.00000000000E+00  0.96852386676E+02  0.96852386676E+02  0.00000000000E+00 0. -1.
         -3   -1    0    0    0  501 -0.00000000000E+00 -0.00000000000E+00 -0.25522056766E+03  0.25522056766E+03  0.00000000000E+00 0.  1.
         23    2    1    2    0    0 -0.36259884686E+02 -0.94385327707E+01 -0.13335057470E+03  0.16425659380E+03  0.88283564126E+02 0.  0.
         23    2    1    2    0    0  0.85808685806E+02 -0.15368356040E+02 -0.11033838711E+02  0.13066733447E+03  0.96710339541E+02 0.  0.
        -11    1    3    3    0    0  0.18248342323E+02  0.23029493767E+02 -0.63045534507E+02  0.69556444719E+02  0.00000000000E+00 0.  1.
         11    1    3    3    0    0 -0.54508227009E+02 -0.32468026538E+02 -0.70305040194E+02  0.94700149079E+02  0.00000000000E+00 0. -1.
        -13    1    4    4    0    0  0.10709977573E+03 -0.18482223056E+02 -0.91182946151E+01  0.10906464976E+03  0.00000000000E+00 0.  1.
         13    1    4    4    0    0 -0.21291089920E+02  0.31138670160E+01 -0.19155440961E+01  0.21602684716E+02  0.00000000000E+00 0. -1.
         21    1    1    2  502  501 -0.49548801120E+02  0.24806888811E+02 -0.13983767573E+02  0.57149026068E+02  0.00000000000E+00 0. -1.
<scales pt_clust_5="13000.00000" pt_clust_6="13000.00000" pt_clust_7="13000.00000" pt_clust_8="13000.00000" pt_clust_9="55.41178"></scales>
<clustering>
<clus scale="   55.412">  1  9  2 -1</clus>
<clus scale="   88.284">  5  6 -1 -1</clus>
<clus scale="   96.710">  7  8 -1 -1</clus>
<clus scale="   99.844">  2  5  1 -1</clus>
<clus scale="   55.412">  1  5  2 -1</clus>
</clustering>
</event>
<event>
 9    1  0.1782981E-005  0.1831630E+03  0.7546771E-02  0.1164816E+00
          1   -1    0    0  502    0  0.00000000000E+00  0.00000000000E+00  0.29429949600E+03  0.29429949600E+03  0.00000000000E+00 0. -1.
         -1   -1    0    0    0  501 -0.00000000000E+00 -0.00000000000E+00 -0.15700970796E+03  0.15700970796E+03  0.00000000000E+00 0.  1.
         23    2    1    2    0    0 -0.15497231212E+03  0.60717140271E+02  0.86833425306E+01  0.19022781845E+03  0.91696422120E+02 0.  0.
         23    2    1    2    0    0  0.13444442622E+03 -0.65233176824E+02  0.53576521794E+02  0.18316297858E+03  0.91364992948E+02 0.  0.
        -11    1    4    4    0    0  0.89714193228E+02 -0.19071723028E+02  0.71655218847E+02  0.11639088226E+03  0.00000000000E+00 0.  1.
         11    1    4    4    0    0  0.44730232992E+02 -0.46161453797E+02 -0.18078697053E+02  0.66772096322E+02  0.00000000000E+00 0. -1.
        -11    1    3    3    0    0 -0.97121256536E+02  0.33752357073E+02  0.49860883560E+02  0.11427102777E+03  0.00000000000E+00 0. -1.
         11    1    3    3    0    0 -0.57851055579E+02  0.26964783198E+02 -0.41177541029E+02  0.75956790676E+02  0.00000000000E+00 0.  1.
         21    1    1    2  502  501  0.20527885896E+02  0.45160365535E+01  0.75029923712E+02  0.77918406925E+02  0.00000000000E+00 0. -1.
<scales pt_clust_5="13000.00000" pt_clust_6="13000.00000" pt_clust_7="13000.00000" pt_clust_8="13000.00000" pt_clust_9="21.01877"></scales>
<clustering>
<clus scale="   21.019">  1  9  2 -1</clus>
<clus scale="   91.365">  5  6 -1 -1</clus>
<clus scale="   91.696">  7  8 -1 -1</clus>
<clus scale="  182.997">  1  5  2 -1</clus>
<clus scale="   21.019">  1  5  2 -1</clus>
</clustering>
</event>
<event>
 9    1  0.1782981E-005  0.1517546E+03  0.7546771E-02  0.1198394E+00
          1   -1    0    0  502    0  0.00000000000E+00  0.00000000000E+00  0.43817183369E+03  0.43817183369E+03  0.00000000000E+00 0. -1.
         -1   -1    0    0    0  501 -0.00000000000E+00 -0.00000000000E+00 -0.64472270528E+02  0.64472270528E+02  0.00000000000E+00 0.  1.
         23    2    1    2    0    0  0.10884028209E+03 -0.83096196787E+02  0.19455186172E+03  0.25477043519E+03  0.91139249626E+02 0.  0.
         23    2    1    2    0    0 -0.88826377507E+02  0.60057698070E+02  0.15247872394E+03  0.20734512155E+03  0.90803005109E+02 0.  0.
        -13    1    3    3    0    0  0.74230307736E+02 -0.93298384244E+02  0.17991236267E+03  0.21583138171E+03  0.00000000000E+00 0. -1.
         13    1    3    3    0    0  0.34609974355E+02  0.10202187457E+02  0.14639499056E+02  0.38939053486E+02  0.00000000000E+00 0.  1.
        -13    1    4    4    0    0 -0.56981939307E+02  0.39062156707E+02  0.15440268710E+03  0.16915372676E+03  0.00000000000E+00 0. -1.
         13    1    4    4    0    0 -0.31844438200E+02  0.20995541363E+02 -0.19239631608E+01  0.38191394785E+02  0.00000000000E+00 0.  1.
         21    1    1    2  502  501 -0.20013904584E+02  0.23038498717E+02  0.26668977502E+02  0.40528547480E+02  0.00000000000E+00 0.  1.
<scales pt_clust_5="13000.00000" pt_clust_6="13000.00000" pt_clust_7="13000.00000" pt_clust_8="13000.00000" pt_clust_9="30.51768"></scales>
<clustering>
<clus scale="   30.518">  2  9  1 -1</clus>
<clus scale="   90.803">  7  8 -1 -1</clus>
<clus scale="   91.139">  5  6 -1 -1</clus>
<clus scale="  151.553">  1  7  2 -1</clus>
<clus scale="  151.553">  1  5  2 -1</clus>
</clustering>
</event>
<event>
 9    1  0.1782981E-005  0.2581900E+03  0.7546771E-02  0.1108394E+00
         -1   -1    0    0    0  501 -0.00000000000E+00  0.00000000000E+00  0.34077666446E+03  0.34077666446E+03  0.00000000000E+00 0.  1.
          1   -1    0    0  502    0  0.00000000000E+00 -0.00000000000E+00 -0.39805689690E+03  0.39805689690E+03  0.00000000000E+00 0. -1.
         23    2    1    2    0    0  0.44443769753E+02 -0.24371516699E+03  0.15310232867E+03  0.30593960948E+03  0.93735747271E+02 0.  0.
         23    2    1    2    0    0 -0.51625663181E+02  0.22206330288E+03 -0.25639236681E+02  0.24674756128E+03  0.90827688268E+02 0.  0.
        -11    1    4    4    0    0 -0.55328287107E+02  0.54884809033E+02 -0.28788713282E+01  0.77986213633E+02  0.00000000000E+00 0.  1.
         11    1    4    4    0    0  0.37026239266E+01  0.16717849385E+03 -0.22760365353E+02  0.16876134765E+03  0.00000000000E+00 0. -1.
        -13    1    3    3    0    0  0.33114752696E+02 -0.43115345389E+02  0.17513656452E+01  0.54392896005E+02  0.00000000000E+00 0. -1.
         13    1    3    3    0    0  0.11329017056E+02 -0.20059982160E+03  0.15135096303E+03  0.25154671348E+03  0.00000000000E+00 0.  1.
         21    1    1    2  502  501  0.71818934278E+01  0.21651864107E+02 -0.18474332443E+03  0.18614639060E+03  0.00000000000E+00 0. -1.
<scales pt_clust_5="13000.00000" pt_clust_6="13000.00000" pt_clust_7="13000.00000" pt_clust_8="13000.00000" pt_clust_9="22.81190"></scales>
<clustering>
<clus scale="   22.812">  2  9  1 -1</clus>
<clus scale="   90.828">  5  6 -1 -1</clus>
<clus scale="   93.736">  7  8 -1 -1</clus>
<clus scale="  257.149">  2  5  1 -1</clus>
<clus scale="   22.812">  2  5  1 -1</clus>
</clustering>
</event>
<event>
 9    1  0.1782981E-005  0.1076665E+03  0.7546771E-02  0.1265888E+00
          1   -1    0    0  502    0  0.00000000000E+00  0.00000000000E+00  0.24928811995E+03  0.24928811995E+03  0.00000000000E+00 0. -1.
         -1   -1    0    0    0  501 -0.00000000000E+00 -0.00000000000E+00 -0.84303409653E+02  0.84303409653E+02  0.00000000000E+00 0.  1.
         23    2    1    2    0    0  0.58642258629E+02  0.36045754316E+02  0.26561468730E+02  0.11794020509E+03  0.92011789754E+02 0.  0.
         23    2    1    2    0    0 -0.48833810835E+02  0.87883978967E+01  0.45836362415E+02  0.11231383353E+03  0.89729861606E+02 0.  0.
        -11    1    3    3    0    0  0.41982687517E+02 -0.25835149979E+02  0.21108702851E+02  0.53624419453E+02  0.00000000000E+00 0. -1.
         11    1    3    3    0    0  0.16659571112E+02  0.61880904295E+02  0.54527658783E+01  0.64315785634E+02  0.00000000000E+00 0.  1.
        -13    1    4    4    0    0 -0.68922280842E+02 -0.13443069320E+02  0.42706273079E+02  0.82187728217E+02  0.00000000000E+00 0. -1.
         13    1    4    4    0    0  0.20088470008E+02  0.22231467217E+02  0.31300893364E+01  0.30126105310E+02  0.00000000000E+00 0.  1.
         21    1    1    2  502  501 -0.98084477943E+01 -0.44834152213E+02  0.92586879157E+02  0.10333749099E+03  0.00000000000E+00 0. -1.
<scales pt_clust_5="13000.00000" pt_clust_6="13000.00000" pt_clust_7="13000.00000" pt_clust_8="13000.00000" pt_clust_9="45.89452"></scales>
<clustering>
<clus scale="   45.895">  1  9  2 -1</clus>
<clus scale="   89.730">  7  8 -1 -1</clus>
<clus scale="   92.012">  5  6 -1 -1</clus>
<clus scale="  105.723">  1  7  2 -1</clus>
<clus scale="   45.895">  1  5  2 -1</clus>
</clustering>
</event>
<event>
 9    1  0.1782981E-005  0.1016085E+03  0.7546771E-02  0.1279499E+00
          1   -1    0    0  502    0  0.00000000000E+00  0.00000000000E+00  0.46775873654E+03  0.46775873654E+03  0.00000000000E+00 0. -1.
         -1   -1    0    0    0  501 -0.00000000000E+00 -0.00000000000E+00 -0.49581868792E+02  0.49581868792E+02  0.00000000000E+00 0.  1.
         23    2    1    2    0    0  0.72929779448E+02  0.34583866712E+02  0.12171464522E+03  0.17273961714E+03  0.92248164759E+02 0.  0.
         23    2    1    2    0    0  0.10328072983E+02 -0.10960269514E+02  0.16729399310E+03  0.18911987734E+03  0.86903689688E+02 0.  0.
        -11    1    3    3    0    0  0.95250502754E+02  0.27382047152E+02  0.99387711083E+02  0.14035794205E+03  0.00000000000E+00 0. -1.
         11    1    3    3    0    0 -0.22320723306E+02  0.72018195599E+01  0.22326934138E+02  0.32381675094E+02  0.00000000000E+00 0.  1.
        -13    1    4    4    0    0 -0.25605223128E+02 -0.35422714697E+02  0.69523059863E+02  0.82120959691E+02  0.00000000000E+00 0.  1.
         13    1    4    4    0    0  0.35933296111E+02  0.24462445183E+02  0.97770933234E+02  0.10699891765E+03  0.00000000000E+00 0. -1.
         21    1    1    2  502  501 -0.83257852431E+02 -0.23623597198E+02  0.12916822943E+03  0.15548111084E+03  0.00000000000E+00 0.  1.
<scales pt_clust_5="13000.00000" pt_clust_6="13000.00000" pt_clust_7="13000.00000" pt_clust_8="13000.00000" pt_clust_9="86.54446"></scales>
<clustering>
<clus scale="   86.544">  1  9  2 -1</clus>
<clus scale="   86.904">  7  8 -1 -1</clus>
<clus scale="   92.248">  5  6 -1 -1</clus>
<clus scale="   96.782">  1  7  2 -1</clus>
<clus scale="   86.544">  1  5  2 -1</clus>
</clustering>
</event>
<event>
 9    1  0.1782981E-005  0.9235181E+02  0.7546771E-02  0.1297325E+00
          1   -1    0    0  502    0  0.00000000000E+00  0.00000000000E+00  0.51742710000E+02  0.51742710000E+02  0.00000000000E+00 0. -1.
         -1   -1    0    0    0  501 -0.00000000000E+00 -0.00000000000E+00 -0.27256224110E+03  0.27256224110E+03  0.00000000000E+00 0.  1.
         23    2    1    2    0    0  0.17236747428E+02 -0.87786896842E+01 -0.16562741470E+03  0.19023941813E+03  0.91566505089E+02 0.  0.
         23    2    1    2    0    0  0.38363054636E+01 -0.97084183167E+01 -0.51808928010E+02  0.10582916132E+03  0.91687925809E+02 0.  0.
        -11    1    3    3    0    0 -0.14790450336E+02  0.25801980542E+02 -0.16866882933E+02  0.34190515657E+02  0.00000000000E+00 0. -1.
         11    1    3    3    0    0  0.32027197764E+02 -0.34580670226E+02 -0.14876053177E+03  0.15604890247E+03  0.00000000000E+00 0.  1.
        -11    1    4    4    0    0 -0.33450385646E+02  0.43801850638E+01  0.73189446375E+01  0.34520736836E+02  0.00000000000E+00 0. -1.
         11    1    4    4    0    0  0.37286691110E+02 -0.14088603381E+02 -0.59127872647E+02  0.71308424488E+02  0.00000000000E+00 0.  1.
         21    1    1    2  502  501 -0.21073052891E+02  0.18487108001E+02 -0.33831883910E+01  0.28236371652E+02  0.00000000000E+00 0. -1.
<scales pt_clust_5="13000.00000" pt_clust_6="13000.00000" pt_clust_7="13000.00000" pt_clust_8="13000.00000" pt_clust_9="28.03296"></scales>
<clustering>
<clus scale="   28.033">  1  9  2 -1</clus>
<clus scale="   91.567">  5  6 -1 -1</clus>
<clus scale="   91.688">  7  8 -1 -1</clus>
<clus scale="   92.231">  2  5  1 -1</clus>
<clus scale="   28.033">  1  5  2 -1</clus>
</clustering>
</event>
<event>
 9    1  0.1782981E-005  0.1035009E+03  0.7546771E-02  0.1279103E+00
          4   -1    0    0  502    0  0.00000000000E+00  0.00000000000E+00  0.23790217943E+03  0.23790217943E+03  0.00000000000E+00 0. -1.
         -4   -1    0    0    0  501 -0.00000000000E+00 -0.00000000000E+00 -0.18574044456E+03  0.18574044456E+03  0.00000000000E+00 0.  1.
         23    2    1    2    0    0  0.21610420660E+02 -0.28424439736E+02 -0.15240854655E+03  0.17820866390E+03  0.85176309929E+02 0.  0.
         23    2    1    2    0    0 -0.41037716441E+02  0.85131537530E+01  0.14359341328E+03  0.17841114622E+03  0.97236314205E+02 0.  0.
        -11    1    3    3    0    0  0.40934888197E+02 -0.45975847783E+02 -0.78073143618E+02  0.99422630248E+02  0.00000000000E+00 0.  1.
         11    1    3    3    0    0 -0.19324467537E+02  0.17551408047E+02 -0.74335402928E+02  0.78786033651E+02  0.00000000000E+00 0. -1.
        -13    1    4    4    0    0 -0.17507044928E+02 -0.10637018734E+02 -0.93282386967E+01  0.22509083207E+02  0.00000000000E+00 0.  1.
         13    1    4    4    0    0 -0.23530671513E+02  0.19150172488E+02  0.15292165197E+03  0.15590206301E+03  0.00000000000E+00 0. -1.
         21    1    1    2  502  501  0.19427295781E+02  0.19911285983E+02  0.60976868141E+02  0.67022813871E+02  0.00000000000E+00 0.  1.
<scales pt_clust_5="13000.00000" pt_clust_6="13000.00000" pt_clust_7="13000.00000" pt_clust_8="13000.00000" pt_clust_9="27.81868"></scales>
<clustering>
<clus scale="   27.819">  1  9  2 -1</clus>
<clus scale="   85.176">  5  6 -1 -1</clus>
<clus scale="   92.263">  2  5  1 -1</clus>
<clus scale="   97.236">  7  8 -1 -1</clus>
<clus scale="   27.819">  1  5  2 -1</clus>
</clustering>
</event>
<event>
 9    1  0.1782981E-005  0.1044845E+03  0.7546771E-02  0.1272532E+00
         -2   -1    0    0    0  501 -0.00000000000E+00  0.00000000000E+00  0.57566415017E+02  0.57566415017E+02  0.00000000000E+00 0.  1.
          2   -1    0    0  502    0  0.00000000000E+00 -0.00000000000E+00 -0.73088015977E+03  0.73088015977E+03  0.00000000000E+00 0. -1.
         23    2    1    2    0    0 -0.28294439552E+02  0.28918062257E+02 -0.33000160200E+02  0.10279672777E+03  0.88551267816E+02 0.  0.
         23    2    1    2    0    0  0.11228468332E+03 -0.51570616152E+02 -0.46752647349E+03  0.49219989226E+03  0.91718874679E+02 0.  0.
        -11    1    3    3    0    0 -0.10375359223E+02  0.60018687030E+02 -0.26004706308E+02  0.66227906671E+02  0.00000000000E+00 0.  1.
         11    1    3    3    0    0 -0.17919080330E+02 -0.31100624773E+02 -0.69954538912E+01  0.36568821095E+02  0.00000000000E+00 0. -1.
        -11    1    4    4    0    0  0.45981387868E+02 -0.69014892698E+02 -0.29829477931E+03  0.30960800831E+03  0.00000000000E+00 0. -1.
         11    1    4    4    0    0  0.66303295450E+02  0.17444276546E+02 -0.16923169418E+03  0.18259188396E+03  0.00000000000E+00 0.  1.
         21    1    1    2  502  501 -0.83990243766E+02  0.22652553895E+02 -0.17278711106E+03  0.19344995475E+03  0.00000000000E+00 0.  1.
<scales pt_clust_5="13000.00000" pt_clust_6="13000.00000" pt_clust_7="13000.00000" pt_clust_8="13000.00000" pt_clust_9="86.99137"></scales>
<clustering>
<clus scale="   86.991">  2  9  1 -1</clus>
<clus scale="   88.551">  5  6 -1 -1</clus>
<clus scale="   91.719">  7  8 -1 -1</clus>
<clus scale="  101.715">  1  5  2 -1</clus>
<clus scale="   86.991">  2  5  1 -1</clus>
</clustering>
</event>
<event>
 9    1  0.1782981E-005  0.2683053E+03  0.7546771E-02  0.1103108E+00
          2   -1    0    0  502    0  0.00000000000E+00  0.00000000000E+00  0.11222161559E+04  0.11222161559E+04  0.00000000000E+00 0. -1.
         -2   -1    0    0    0  501 -0.00000000000E+00 -0.00000000000E+00 -0.73614198813E+02  0.73614198813E+02  0.00000000000E+00 0.  1.
         23    2    1    2    0    0  0.23313560204E+03  0.11145309287E+03  0.41684595901E+03  0.49910113591E+03  0.92560193785E+02 0.  0.
         23    2    1    2    0    0 -0.21181581589E+03 -0.12920686173E+03  0.60553738884E+03  0.65855664932E+03  0.73898430966E+02 0.  0.
        -11    1    3    3    0    0  0.33067539461E+02  0.18342388200E+02  0.14027005588E+03  0.14527764435E+03  0.00000000000E+00 0. -1.
         11    1    3    3    0    0  0.20006806258E+03  0.93110704673E+02  0.27657590314E+03  0.35382349157E+03  0.00000000000E+00 0.  1.
        -11    1    4    4    0    0 -0.18718752284E+03 -0.98149554127E+02  0.55784596622E+03  0.59654390091E+03  0.00000000000E+00 0. -1.
         11    1    4    4    0    0 -0.24628293051E+02 -0.31057307600E+02  0.47691422623E+02  0.62012748413E+02  0.00000000000E+00 0.  1.
         21    1    1    2  502  501 -0.21319786142E+02  0.17753768854E+02  0.26218609186E+02  0.38172569435E+02  0.00000000000E+00 0. -1.
<scales pt_clust_5="13000.00000" pt_clust_6="13000.00000" pt_clust_7="13000.00000" pt_clust_8="13000.00000" pt_clust_9="27.74400"></scales>
<clustering>
<clus scale="   27.744">  2  9  1 -1</clus>
<clus scale="   73.898">  7  8 -1 -1</clus>
<clus scale="   92.560">  5  6 -1 -1</clus>
<clus scale="  262.453">  1  7  2 -1</clus>
<clus scale="  262.453">  1  5  2 -1</clus>
</clustering>
</event>
<event>
 9    1  0.1782981E-005  0.9887042E+02  0.7546771E-02  0.1283694E+00
         -1   -1    0    0    0  501 -0.00000000000E+00  0.00000000000E+00  0.25001737027E+03  0.25001737027E+03  0.00000000000E+00 0.  1.
          1   -1    0    0  502    0  0.00000000000E+00 -0.00000000000E+00 -0.53145231111E+02  0.53145231111E+02  0.00000000000E+00 0. -1.
         23    2    1    2    0    0  0.49919834361E+02 -0.43578174911E+01  0.10976266358E+03  0.15231171678E+03  0.92951795667E+02 0.  0.
         23    2    1    2    0    0 -0.23486149698E+02 -0.23155110362E+01  0.55644208198E+02  0.10921753198E+03  0.90968294298E+02 0.  0.
        -11    1    3    3    0    0  0.46459147699E+01 -0.41556705257E+02  0.69863530734E+02  0.81421478754E+02  0.00000000000E+00 0. -1.
         11    1    3    3    0    0  0.45273919591E+02  0.37198887766E+02  0.39899132845E+02  0.70890238030E+02  0.00000000000E+00 0.  1.
        -13    1    4    4    0    0 -0.56419152874E+02 -0.21331838096E+01  0.18131555327E+02  0.59299448418E+02  0.00000000000E+00 0. -1.
         13    1    4    4    0    0  0.32933003176E+02 -0.18232722658E+00  0.37512652871E+02  0.49918083565E+02  0.00000000000E+00 0.  1.
         21    1    1    2  502  501 -0.26433684663E+02  0.66733285273E+01  0.31465267380E+02  0.41633352613E+02  0.00000000000E+00 0. -1.
<scales pt_clust_5="13000.00000" pt_clust_6="13000.00000" pt_clust_7="13000.00000" pt_clust_8="13000.00000" pt_clust_9="27.26303"></scales>
<clustering>
<clus scale="   27.263">  1  9  2 -1</clus>
<clus scale="   90.968">  7  8 -1 -1</clus>
<clus scale="   92.952">  5  6 -1 -1</clus>
<clus scale="   97.008">  2  7  1 -1</clus>
<clus scale="   97.008">  2  5  1 -1</clus>
</clustering>
</event>
<event>
 9    1  0.1782981E-005  0.9283028E+02  0.7546771E-02  0.1301700E+00
         -1   -1    0    0    0  501 -0.00000000000E+00  0.00000000000E+00  0.10599267406E+03  0.10599267406E+03  0.00000000000E+00 0.  1.
          1   -1    0    0  502    0  0.00000000000E+00 -0.00000000000E+00 -0.19913660340E+03  0.19913660340E+03  0.00000000000E+00 0. -1.
         23    2    1    2    0    0 -0.88573843496E+01  0.12837080670E-01  0.45096789719E+02  0.10344378523E+03  0.92673851966E+02 0.  0.
         23    2    1    2    0    0 -0.96321699918E+01 -0.14013599425E+02 -0.29142064893E+02  0.90148945280E+02  0.83596726738E+02 0.  0.
        -11    1    4    4    0    0  0.30780496166E+02 -0.56867690982E+01 -0.36663110132E+02  0.48207488334E+02  0.00000000000E+00 0. -1.
         11    1    4    4    0    0 -0.40412666158E+02 -0.83268303272E+01  0.75210452386E+01  0.41941456946E+02  0.00000000000E+00 0.  1.
        -13    1    3    3    0    0  0.14843671588E+02  0.33340283558E+02 -0.70535798424E+01  0.37170715389E+02  0.00000000000E+00 0.  1.
         13    1    3    3    0    0 -0.23701055937E+02 -0.33327446478E+02  0.52150369561E+02  0.66273069845E+02  0.00000000000E+00 0. -1.
         21    1    1    2  502  501  0.18489554341E+02  0.14000762345E+02 -0.10909865416E+03  0.11153654695E+03  0.00000000000E+00 0. -1.
<scales pt_clust_5="13000.00000" pt_clust_6="13000.00000" pt_clust_7="13000.00000" pt_clust_8="13000.00000" pt_clust_9="23.19235"></scales>
<clustering>
<clus scale="   23.192">  2  9  1 -1</clus>
<clus scale="   83.597">  5  6 -1 -1</clus>
<clus scale="   83.770">  2  5  1 -1</clus>
<clus scale="   92.674">  7  8 -1 -1</clus>
<clus scale="   23.192">  2  5  1 -1</clus>
</clustering>
</event>
<event>
 9    1  0.1782981E-005  0.9621240E+02  0.7546771E-02  0.1290478E+00
         -2   -1    0    0    0  501 -0.00000000000E+00  0.00000000000E+00  0.10081669585E+03  0.10081669585E+03  0.00000000000E+00 0. -1.
          2   -1    0    0  502    0  0.00000000000E+00 -0.00000000000E+00 -0.13336344285E+03  0.13336344285E+03  0.00000000000E+00 0.  1.
         23    2    1    2    0    0  0.83266805652E+01  0.38410180360E+01  0.25963851474E+02  0.96136020962E+02  0.92108229351E+02 0.  0.
         23    2    1    2    0    0 -0.30965328905E+02 -0.18625287642E+02 -0.56453337615E+02  0.11092741902E+03  0.88386424465E+02 0.  0.
        -11    1    4    4    0    0  0.18262713884E+02 -0.35930083536E+02 -0.38516621937E+02  0.55749688670E+02  0.00000000000E+00 0.  1.
         11    1    4    4    0    0 -0.49228042789E+02  0.17304795894E+02 -0.17936715677E+02  0.55177730355E+02  0.00000000000E+00 0. -1.
        -13    1    3    3    0    0  0.49969542592E+01 -0.42956633240E+02  0.23349834156E+02  0.49147295412E+02  0.00000000000E+00 0.  1.
         13    1    3    3    0    0  0.33297263060E+01  0.46797651276E+02  0.26140173185E+01  0.46988725550E+02  0.00000000000E+00 0. -1.
         21    1    1    2  502  501  0.22638648340E+02  0.14784269606E+02 -0.20572608601E+01  0.27116698705E+02  0.00000000000E+00 0. -1.
<scales pt_clust_5="13000.00000" pt_clust_6="13000.00000" pt_clust_7="13000.00000" pt_clust_8="13000.00000" pt_clust_9="27.03855"></scales>
<clustering>
<clus scale="   27.039">  1  9  2 -1</clus>
<clus scale="   88.386">  5  6 -1 -1</clus>
<clus scale="   92.108">  7  8 -1 -1</clus>
<clus scale="   92.656">  2  5  1 -1</clus>
<clus scale="   92.656">  2  5  1 -1</clus>
</clustering>
</event>
<event>
 9    1  0.1782981E-005  0.1159675E+03  0.7546771E-02  0.1250566E+00
          1   -1    0    0  502    0  0.00000000000E+00  0.00000000000E+00  0.33034328953E+03  0.33034328953E+03  0.00000000000E+00 0. -1.
         -1   -1    0    0    0  501 -0.00000000000E+00 -0.00000000000E+00 -0.19043822709E+03  0.19043822709E+03  0.00000000000E+00 0.  1.
         23    2    1    2    0    0 -0.65349361679E+02  0.19690813207E+02 -0.14984123563E+03  0.18826541043E+03  0.91286371779E+02 0.  0.
         23    2    1    2    0    0  0.69560504946E+02 -0.46936493892E+02  0.27256651758E+03  0.30003217630E+03  0.93193894649E+02 0.  0.
        -13    1    3    3    0    0 -0.13337265943E+02  0.39427931200E+02 -0.11578202617E+03  0.12303626297E+03  0.00000000000E+00 0. -1.
         13    1    3    3    0    0 -0.52012095736E+02 -0.19737117994E+02 -0.34059209466E+02  0.65229147465E+02  0.00000000000E+00 0.  1.
        -13    1    4    4    0    0  0.55991500613E+02 -0.71554052120E+02  0.24205914992E+03  0.25854914925E+03  0.00000000000E+00 0. -1.
         13    1    4    4    0    0  0.13569004333E+02  0.24617558228E+02  0.30507367662E+02  0.41483027051E+02  0.00000000000E+00 0.  1.
         21    1    1    2  502  501 -0.42111432674E+01  0.27245680686E+02  0.17179780483E+02  0.32483929890E+02  0.00000000000E+00 0.  1.
<scales pt_clust_5="13000.00000" pt_clust_6="13000.00000" pt_clust_7="13000.00000" pt_clust_8="13000.00000" pt_clust_9="27.56920"></scales>
<clustering>
<clus scale="   27.569">  1  9  2 -1</clus>
<clus scale="   91.286">  5  6 -1 -1</clus>
<clus scale="   93.194">  7  8 -1 -1</clus>
<clus scale="  114.440">  2  5  1 -1</clus>
<clus scale="   27.569">  1  5  2 -1</clus>
</clustering>
</event>
<event>
 9    1  0.1782981E-005  0.9558883E+02  0.7546771E-02  0.1292413E+00
          1   -1    0    0  502    0  0.00000000000E+00  0.00000000000E+00  0.69688401329E+02  0.69688401329E+02  0.00000000000E+00 0. -1.
         -1   -1    0    0    0  501 -0.00000000000E+00 -0.00000000000E+00 -0.22001973422E+03  0.22001973422E+03  0.00000000000E+00 0.  1.
         23    2    1    2    0    0 -0.18775081157E+02 -0.22371807161E+02 -0.10287069438E+03  0.14226670154E+03  0.93831941139E+02 0.  0.
         23    2    1    2    0    0 -0.25437255726E+02  0.11401343903E+02 -0.37763030047E+02  0.10086756358E+03  0.89281433241E+02 0.  0.
        -11    1    4    4    0    0  0.76536026749E+01 -0.33846613641E+02 -0.26567468178E+02  0.43703561116E+02  0.00000000000E+00 0.  1.
         11    1    4    4    0    0 -0.33090858401E+02  0.45247957544E+02 -0.11195561869E+02  0.57164002460E+02  0.00000000000E+00 0. -1.
        -11    1    3    3    0    0  0.37573534594E+02 -0.15014142978E+02 -0.33059757190E+02  0.52250765896E+02  0.00000000000E+00 0.  1.
         11    1    3    3    0    0 -0.56348615751E+02 -0.73576641828E+01 -0.69810937189E+02  0.90015935647E+02  0.00000000000E+00 0. -1.
         21    1    1    2  502  501  0.44212336884E+02  0.10970463257E+02 -0.96976084639E+01  0.46573870429E+02  0.00000000000E+00 0. -1.
<scales pt_clust_5="13000.00000" pt_clust_6="13000.00000" pt_clust_7="13000.00000" pt_clust_8="13000.00000" pt_clust_9="45.55307"></scales>
<clustering>
<clus scale="   45.553">  1  9  2 -1</clus>
<clus scale="   89.281">  5  6 -1 -1</clus>
<clus scale="   91.126">  1  5  2 -1</clus>
<clus scale="   93.832">  7  8 -1 -1</clus>
<clus scale="   45.553">  1  5  2 -1</clus>
</clustering>
</event>
<event>
 9    1  0.1782981E-005  0.9947577E+02  0.7546771E-02  0.1281517E+00
         -2   -1    0    0    0  501 -0.00000000000E+00  0.00000000000E+00  0.39356874073E+03  0.39356874073E+03  0.00000000000E+00 0.  1.
          2   -1    0    0  502    0  0.00000000000E+00 -0.00000000000E+00 -0.10776351703E+03  0.10776351703E+03  0.00000000000E+00 0. -1.
         23    2    1    2    0    0 -0.25967885850E+02 -0.23474661996E+02  0.30899891501E+03  0.32396259762E+03  0.90807732727E+02 0.  0.
         23    2    1    2    0    0  0.52321346304E+02  0.65401199234E+02 -0.25981383987E+01  0.12373649687E+03  0.91044660435E+02 0.  0.
        -11    1    3    3    0    0 -0.14689747601E+02  0.24012055202E+02  0.31670357094E+02  0.42371912844E+02  0.00000000000E+00 0. -1.
         11    1    3    3    0    0 -0.11278138250E+02 -0.47486717198E+02  0.27732855792E+03  0.28159068477E+03  0.00000000000E+00 0.  1.
        -13    1    4    4    0    0  0.59905521398E+02  0.40275725365E+02  0.33113022800E+02  0.79418372098E+02  0.00000000000E+00 0.  1.
         13    1    4    4    0    0 -0.75841750940E+01  0.25125473869E+02 -0.35711161199E+02  0.44318124770E+02  0.00000000000E+00 0. -1.
         21    1    1    2  502  501 -0.26353460454E+02 -0.41926537238E+02 -0.20595552925E+02  0.53633163276E+02  0.00000000000E+00 0. -1.
<scales pt_clust_5="13000.00000" pt_clust_6="13000.00000" pt_clust_7="13000.00000" pt_clust_8="13000.00000" pt_clust_9="49.52110"></scales>
<clustering>
<clus scale="   49.521">  2  9  1 -1</clus>
<clus scale="   90.808">  5  6 -1 -1</clus>
<clus scale="   91.045">  7  8 -1 -1</clus>
<clus scale="   99.259">  1  5  2 -1</clus>
<clus scale="   49.521">  2  5  1 -1</clus>
</clustering>
</event>
<event>
 9    1  0.1782981E-005  0.9788443E+02  0.7546771E-02  0.1286984E+00
          3   -1    0    0  502    0  0.00000000000E+00  0.00000000000E+00  0.86443485457E+02  0.86443485457E+02  0.00000000000E+00 0. -1.
         -3   -1    0    0    0  501 -0.00000000000E+00 -0.00000000000E+00 -0.23433180958E+03  0.23433180958E+03  0.00000000000E+00 0.  1.
         23    2    1    2    0    0  0.57470835897E+02  0.15812829180E+01 -0.11608822179E+03  0.15661782311E+03  0.88018576696E+02 0.  0.
         23    2    1    2    0    0  0.97578484872E+01 -0.46486311259E+01 -0.27022487985E+02  0.96689477825E+02  0.92205286653E+02 0.  0.
        -13    1    3    3    0    0  0.80625987394E+02  0.50325638498E+00 -0.78986643168E+02  0.11287024811E+03  0.00000000000E+00 0.  1.
         13    1    3    3    0    0 -0.23155151497E+02  0.10780265330E+01 -0.37101578621E+02  0.43747574998E+02  0.00000000000E+00 0. -1.
        -13    1    4    4    0    0  0.27936387803E+02  0.37350690293E+02 -0.18283529548E+02  0.50097936899E+02  0.00000000000E+00 0.  1.
         13    1    4    4    0    0 -0.18178539316E+02 -0.41999321419E+02 -0.87389584374E+01  0.46591540926E+02  0.00000000000E+00 0. -1.
         21    1    1    2  502  501 -0.67228684384E+02  0.30673482079E+01 -0.47776143471E+01  0.67467994100E+02  0.00000000000E+00 0. -1.
<scales pt_clust_5="13000.00000" pt_clust_6="13000.00000" pt_clust_7="13000.00000" pt_clust_8="13000.00000" pt_clust_9="67.29862"></scales>
<clustering>
<clus scale="   67.299">  1  9  2 -1</clus>
<clus scale="   88.019">  5  6 -1 -1</clus>
<clus scale="   92.205">  7  8 -1 -1</clus>
<clus scale="   93.951">  2  5  1 -1</clus>
<clus scale="   67.299">  1  5  2 -1</clus>
</clustering>
</event>
<event>
 9    1  0.1782981E-005  0.1146592E+03  0.7546771E-02  0.1257150E+00
         -2   -1    0    0    0  501 -0.00000000000E+00  0.00000000000E+00  0.50805305458E+02  0.50805305458E+02  0.00000000000E+00 0.  1.
          2   -1    0    0  502    0  0.00000000000E+00 -0.00000000000E+00 -0.53093718170E+03  0.53093718170E+03  0.00000000000E+00 0. -1.
         23    2    1    2    0    0  0.13180377260E+01 -0.51356532250E+02 -0.13725112891E+03  0.18048736858E+03  0.10534983246E+03 0.  0.
         23    2    1    2    0    0  0.74980688000E+02  0.71994947033E+01 -0.18941326340E+03  0.22427035049E+03  0.93519353402E+02 0.  0.
        -11    1    4    4    0    0  0.86611582503E+00  0.39286182031E+02 -0.64140295435E+02  0.75220554064E+02  0.00000000000E+00 0. -1.
         11    1    4    4    0    0  0.74114572175E+02 -0.32086687327E+02 -0.12527296796E+03  0.14904979642E+03  0.00000000000E+00 0.  1.
        -13    1    3    3    0    0 -0.43112077190E+02 -0.55739002262E+02 -0.66898349369E+02  0.97164174062E+02  0.00000000000E+00 0.  1.
         13    1    3    3    0    0  0.44430114916E+02  0.43824700117E+01 -0.70352779544E+02  0.83323194516E+02  0.00000000000E+00 0. -1.
         21    1    1    2  502  501 -0.76298725726E+02  0.44157037547E+02 -0.15346748394E+03  0.17698476810E+03  0.00000000000E+00 0.  1.
<scales pt_clust_5="13000.00000" pt_clust_6="13000.00000" pt_clust_7="13000.00000" pt_clust_8="13000.00000" pt_clust_9="88.15520"></scales>
<clustering>
<clus scale="   88.155">  2  9  1 -1</clus>
<clus scale="   93.519">  5  6 -1 -1</clus>
<clus scale="  103.894">  2  5  1 -1</clus>
<clus scale="  105.350">  7  8 -1 -1</clus>
<clus scale="   88.155">  2  5  1 -1</clus>
</clustering>
</event>
<event>
 9    1  0.1782981E-005  0.2260441E+03  0.7546771E-02  0.1129533E+00
         -2   -1    0    0    0  501 -0.00000000000E+00  0.00000000000E+00  0.25078766542E+03  0.25078766542E+03  0.00000000000E+00 0.  1.
          2   -1    0    0  502    0  0.00000000000E+00 -0.00000000000E+00 -0.55324005302E+03  0.55324005302E+03  0.00000000000E+00 0. -1.
         23    2    1    2    0    0  0.11378137530E+03  0.18093925429E+03  0.13619439616E+03  0.26920060463E+03  0.90746002004E+02 0.  0.
         23    2    1    2    0    0 -0.14384411612E+03 -0.11941787507E+03 -0.20849922851E+03  0.29470933920E+03  0.91814528785E+02 0.  0.
        -13    1    4    4    0    0  0.69800708462E+01 -0.31114440115E+02 -0.46645722691E+02  0.56503568189E+02  0.00000000000E+00 0.  1.
         13    1    4    4    0    0 -0.15082418697E+03 -0.88303434952E+02 -0.16185350582E+03  0.23820577101E+03  0.00000000000E+00 0. -1.
        -13    1    3    3    0    0 -0.68632714581E+01  0.27426116481E+02  0.46308803376E+02  0.54256811834E+02  0.00000000000E+00 0. -1.
         13    1    3    3    0    0  0.12064464676E+03  0.15351313781E+03  0.89885592789E+02  0.21494379280E+03  0.00000000000E+00 0.  1.
         21    1    1    2  502  501  0.30062740816E+02 -0.61521379223E+02 -0.23014755526E+03  0.24011777460E+03  0.00000000000E+00 0. -1.
<scales pt_clust_5="13000.00000" pt_clust_6="13000.00000" pt_clust_7="13000.00000" pt_clust_8="13000.00000" pt_clust_9="68.47371"></scales>
<clustering>
<clus scale="   68.474">  2  9  1 -1</clus>
<clus scale="   90.746">  7  8 -1 -1</clus>
<clus scale="   91.815">  5  6 -1 -1</clus>
<clus scale="  225.612">  1  7  2 -1</clus>
<clus scale="   68.474">  2  5  1 -1</clus>
</clustering>
</event>
<event>
 9    1  0.1782981E-005  0.1407940E+03  0.7546771E-02  0.1213206E+00
         -3   -1    0    0    0  501 -0.00000000000E+00  0.00000000000E+00  0.55438927978E+03  0.55438927978E+03  0.00000000000E+00 0.  1.
          3   -1    0    0  502    0  0.00000000000E+00 -0.00000000000E+00 -0.45093240651E+02  0.45093240651E+02  0.00000000000E+00 0. -1.
         23    2    1    2    0    0  0.81986973335E+02 -0.43189171301E+02  0.21949937121E+03  0.25381175987E+03  0.87482953613E+02 0.  0.
         23    2    1    2    0    0 -0.11333763791E+03  0.52875546287E+02  0.24798402188E+03  0.29252015004E+03  0.91818949615E+02 0.  0.
        -11    1    3    3    0    0  0.18590593985E+02 -0.29601318861E+02  0.12869932600E+02  0.37248938618E+02  0.00000000000E+00 0. -1.
         11    1    3    3    0    0  0.63396379350E+02 -0.13587852439E+02  0.20662943861E+03  0.21656282125E+03  0.00000000000E+00 0.  1.
        -11    1    4    4    0    0 -0.12231512498E+02  0.42621655577E+02  0.12699663680E+03  0.13451528233E+03  0.00000000000E+00 0.  1.
         11    1    4    4    0    0 -0.10110612542E+03  0.10253890710E+02  0.12098738508E+03  0.15800486771E+03  0.00000000000E+00 0. -1.
         21    1    1    2  502  501  0.31350664579E+02 -0.96863749862E+01  0.41812646039E+02  0.53150610521E+02  0.00000000000E+00 0.  1.
<scales pt_clust_5="13000.00000" pt_clust_6="13000.00000" pt_clust_7="13000.00000" pt_clust_8="13000.00000" pt_clust_9="32.81296"></scales>
<clustering>
<clus scale="   32.813">  2  9  1 -1</clus>
<clus scale="   87.483">  5  6 -1 -1</clus>
<clus scale="   91.819">  7  8 -1 -1</clus>
<clus scale="  138.005">  1  5  2 -1</clus>
<clus scale="   32.813">  2  5  1 -1</clus>
</clustering>
</event>
<event>
 9    1  0.1782981E-005  0.1503271E+03  0.7546771E-02  0.1200875E+00
          1   -1    0    0  502    0  0.00000000000E+00  0.00000000000E+00  0.31048113941E+03  0.31048113941E+03  0.00000000000E+00 0. -1.
         -1   -1    0    0    0  501 -0.00000000000E+00 -0.00000000000E+00 -0.25818683926E+03  0.25818683926E+03  0.00000000000E+00 0.  1.
         23    2    1    2    0    0  0.75871690743E+02 -0.86898320446E+02 -0.20405802974E+03  0.25150756573E+03  0.91151218138E+02 0.  0.
         23    2    1    2    0    0 -0.64433432761E+02  0.10910320930E+03  0.19778536374E+03  0.25348953767E+03  0.95303295119E+02 0.  0.
        -13    1    4    4    0    0 -0.68126277736E+02  0.28120082937E+02  0.12189080539E+03  0.14244050415E+03  0.00000000000E+00 0.  1.
         13    1    4    4    0    0  0.36928449749E+01  0.80983126359E+02  0.75894558350E+02  0.11104903352E+03  0.00000000000E+00 0. -1.
        -13    1    3    3    0    0  0.18702669735E+02 -0.45296617202E+02 -0.16197853129E+03  0.16922948320E+03  0.00000000000E+00 0.  1.
         13    1    3    3    0    0  0.57169021008E+02 -0.41601703244E+02 -0.42079498448E+02  0.82278082534E+02  0.00000000000E+00 0. -1.
         21    1    1    2  502  501 -0.11438257982E+02 -0.22204888850E+02  0.58566966148E+02  0.63670875275E+02  0.00000000000E+00 0.  1.
<scales pt_clust_5="13000.00000" pt_clust_6="13000.00000" pt_clust_7="13000.00000" pt_clust_8="13000.00000" pt_clust_9="24.97781"></scales>
<clustering>
<clus scale="   24.978">  1  9  2 -1</clus>
<clus scale="   91.151">  7  8 -1 -1</clus>
<clus scale="   95.303">  5  6 -1 -1</clus>
<clus scale="  147.730">  2  7  1 -1</clus>
<clus scale="   24.978">  1  5  2 -1</clus>
</clustering>
</event>
<event>
 9    1  0.1782981E-005  0.1577058E+03  0.7546771E-02  0.1191502E+00
         -2   -1    0    0    0  501 -0.00000000000E+00  0.00000000000E+00  0.86770320411E+02  0.86770320411E+02  0.00000000000E+00 0.  1.
          2   -1    0    0  502    0  0.00000000000E+00 -0.00000000000E+00 -0.46361720498E+03  0.46361720498E+03  0.00000000000E+00 0. -1.
         23    2    1    2    0    0 -0.98536620574E+02 -0.89114517437E+02 -0.28213996757E+02  0.16366208572E+03  0.91314762643E+02 0.  0.
         23    2    1    2    0    0  0.88896951379E+02  0.70962639861E+02 -0.32095736729E+03  0.35225301130E+03  0.90167555871E+02 0.  0.
        -11    1    4    4    0    0  0.10197226141E+03  0.45786001299E+02 -0.21200997915E+03  0.23967255010E+03  0.00000000000E+00 0. -1.
         11    1    4    4    0    0 -0.13075310030E+02  0.25176638562E+02 -0.10894738815E+03  0.11258046121E+03  0.00000000000E+00 0.  1.
        -13    1    3    3    0    0 -0.59302245309E+02 -0.47975875018E+02 -0.61325622266E+02  0.97873759654E+02  0.00000000000E+00 0. -1.
         13    1    3    3    0    0 -0.39234375265E+02 -0.41138642419E+02  0.33111625509E+02  0.65788326064E+02  0.00000000000E+00 0.  1.
         21    1    1    2  502  501  0.96396691946E+01  0.18151877576E+02 -0.27675520519E+02  0.34472428370E+02  0.00000000000E+00 0. -1.
<scales pt_clust_5="13000.00000" pt_clust_6="13000.00000" pt_clust_7="13000.00000" pt_clust_8="13000.00000" pt_clust_9="20.55271"></scales>
<clustering>
<clus scale="   20.553">  2  9  1 -1</clus>
<clus scale="   90.168">  5  6 -1 -1</clus>
<clus scale="   91.315">  7  8 -1 -1</clus>
<clus scale="  157.044">  2  5  1 -1</clus>
<clus scale="   20.553">  2  5  1 -1</clus>
</clustering>
</event>
<event>
 9    1  0.1782981E-005  0.1044559E+03  0.7546771E-02  0.1274945E+00
          1   -1    0    0  502    0  0.00000000000E+00  0.00000000000E+00  0.14744830861E+03  0.14744830861E+03  0.00000000000E+00 0. -1.
         -1   -1    0    0    0  501 -0.00000000000E+00 -0.00000000000E+00 -0.10455376412E+03  0.10455376412E+03  0.00000000000E+00 0.  1.
         23    2    1    2    0    0 -0.13892707647E+02  0.44772473148E+02 -0.22472664174E+02  0.98039158916E+02  0.83120841961E+02 0.  0.
         23    2    1    2    0    0  0.39561566960E+02 -0.45801624122E+02  0.37231227131E+02  0.11586326885E+03  0.91516263266E+02 0.  0.
        -11    1    3    3    0    0  0.17077804192E+02  0.17828560930E+02 -0.44916124560E+02  0.51253948397E+02  0.00000000000E+00 0.  1.
         11    1    3    3    0    0 -0.30970511839E+02  0.26943912217E+02  0.22443460386E+02  0.46785210518E+02  0.00000000000E+00 0. -1.
        -11    1    4    4    0    0  0.42933384134E+02 -0.71712030085E+02  0.28955215602E+02  0.88455046451E+02  0.00000000000E+00 0.  1.
         11    1    4    4    0    0 -0.33718171740E+01  0.25910405963E+02  0.82760115290E+01  0.27408222398E+02  0.00000000000E+00 0. -1.
         21    1    1    2  502  501 -0.25668859313E+02  0.10291509742E+01  0.28135981523E+02  0.38099644965E+02  0.00000000000E+00 0. -1.
<scales pt_clust_5="13000.00000" pt_clust_6="13000.00000" pt_clust_7="13000.00000" pt_clust_8="13000.00000" pt_clust_9="25.68948"></scales>
<clustering>
<clus scale="   25.689">  1  9  2 -1</clus>
<clus scale="   83.121">  5  6 -1 -1</clus>
<clus scale="   91.516">  7  8 -1 -1</clus>
<clus scale="   97.185">  2  5  1 -1</clus>
<clus scale="   25.689">  1  5  2 -1</clus>
</clustering>
</event>
<event>
 9    1  0.1782981E-005  0.1017663E+03  0.7546771E-02  0.1285218E+00
         -1   -1    0    0    0  501 -0.00000000000E+00  0.00000000000E+00  0.38232901238E+03  0.38232901238E+03  0.00000000000E+00 0.  1.
          1   -1    0    0  502    0  0.00000000000E+00 -0.00000000000E+00 -0.37410416052E+02  0.37410416052E+02  0.00000000000E+00 0. -1.
         23    2    1    2    0    0  0.35928037370E+02 -0.15566696831E+02  0.16115539517E+03  0.18841690652E+03  0.89424400194E+02 0.  0.
         23    2    1    2    0    0 -0.29649220923E+02  0.57590342549E+02  0.14256392633E+03  0.17213814406E+03  0.71493661916E+02 0.  0.
        -11    1    4    4    0    0 -0.30603527580E+02  0.36814779052E+01  0.16354262070E+02  0.34893997589E+02  0.00000000000E+00 0.  1.
         11    1    4    4    0    0  0.95430665696E+00  0.53908864643E+02  0.12620966426E+03  0.13724414647E+03  0.00000000000E+00 0. -1.
        -13    1    3    3    0    0 -0.25581296562E+02  0.69487177776E+01  0.79104686781E+02  0.83428046143E+02  0.00000000000E+00 0. -1.
         13    1    3    3    0    0  0.61509333932E+02 -0.22515414609E+02  0.82050708388E+02  0.10498886037E+03  0.00000000000E+00 0.  1.
         21    1    1    2  502  501 -0.62788164463E+01 -0.42023645718E+02  0.41199274830E+02  0.59184377854E+02  0.00000000000E+00 0.  1.
<scales pt_clust_5="13000.00000" pt_clust_6="13000.00000" pt_clust_7="13000.00000" pt_clust_8="13000.00000" pt_clust_9="42.49012"></scales>
<clustering>
<clus scale="   42.490">  2  9  1 -1</clus>
<clus scale="   71.494">  5  6 -1 -1</clus>
<clus scale="   86.435">  2  5  1 -1</clus>
<clus scale="   89.424">  7  8 -1 -1</clus>
<clus scale="   42.490">  2  5  1 -1</clus>
</clustering>
</event>
<event>
 9    1  0.1782981E-005  0.1075966E+03  0.7546771E-02  0.1265371E+00
         -2   -1    0    0    0  501 -0.00000000000E+00  0.00000000000E+00  0.33907575946E+03  0.33907575946E+03  0.00000000000E+00 0.  1.
          2   -1    0    0  502    0  0.00000000000E+00 -0.00000000000E+00 -0.36981736804E+03  0.36981736804E+03  0.00000000000E+00 0. -1.
         23    2    1    2    0    0 -0.36988684263E+02  0.48053235855E+02  0.30475752784E+03  0.32395244863E+03  0.91601102405E+02 0.  0.
         23    2    1    2    0    0  0.20044245358E+01  0.27072476042E+02 -0.11837783826E+03  0.15254139073E+03  0.92296406317E+02 0.  0.
        -11    1    4    4    0    0 -0.18683916641E+01 -0.32020294712E+02 -0.20260329387E+02  0.37937726708E+02  0.00000000000E+00 0. -1.
         11    1    4    4    0    0  0.38728161999E+01  0.59092770754E+02 -0.98117508874E+02  0.11460366403E+03  0.00000000000E+00 0.  1.
        -11    1    3    3    0    0 -0.61722767906E+02  0.46220025137E+02  0.27286426450E+03  0.28355052044E+03  0.00000000000E+00 0.  1.
         11    1    3    3    0    0  0.24734083643E+02  0.18332107189E+01  0.31893263335E+02  0.40401928189E+02  0.00000000000E+00 0. -1.
         21    1    1    2  502  501  0.34984259727E+02 -0.75125711897E+02 -0.21712129815E+03  0.23239928814E+03  0.00000000000E+00 0. -1.
<scales pt_clust_5="13000.00000" pt_clust_6="13000.00000" pt_clust_7="13000.00000" pt_clust_8="13000.00000" pt_clust_9="82.87202"></scales>
<clustering>
<clus scale="   82.872">  2  9  1 -1</clus>
<clus scale="   91.601">  7  8 -1 -1</clus>
<clus scale="   92.296">  5  6 -1 -1</clus>
<clus scale="  107.001">  1  7  2 -1</clus>
<clus scale="   82.872">  2  5  1 -1</clus>
</clustering>
</event>
<event>
 9    1  0.1782981E-005  0.9463367E+02  0.7546771E-02  0.1295049E+00
          1   -1    0    0  502    0  0.00000000000E+00  0.00000000000E+00  0.69492401039E+03  0.69492401039E+03  0.00000000000E+00 0. -1.
         -1   -1    0    0    0  501 -0.00000000000E+00 -0.00000000000E+00 -0.59376435952E+02  0.59376435952E+02  0.00000000000E+00 0.  1.
         23    2    1    2    0    0  0.56688141764E+00  0.18032544747E+02 -0.80340503615E+01  0.94563568589E+02  0.92478259686E+02 0.  0.
         23    2    1    2    0    0  0.36624676371E+02 -0.37636945663E+02  0.41232865142E+03  0.42469330264E+03  0.87129661568E+02 0.  0.
        -13    1    3    3    0    0  0.42499117960E+01 -0.33589910332E+02 -0.22710677075E+02  0.40769089757E+02  0.00000000000E+00 0. -1.
         13    1    3    3    0    0 -0.36830303783E+01  0.51622455079E+02  0.14676626714E+02  0.53794478832E+02  0.00000000000E+00 0.  1.
        -13    1    4    4    0    0 -0.14992646330E+02 -0.45460395698E+02  0.15938480578E+03  0.16641797780E+03  0.00000000000E+00 0. -1.
         13    1    4    4    0    0  0.51617322701E+02  0.78234500359E+01  0.25294384564E+03  0.25827532483E+03  0.00000000000E+00 0.  1.
         21    1    1    2  502  501 -0.37191557789E+02  0.19604400916E+02  0.23125297338E+03  0.23504357511E+03  0.00000000000E+00 0. -1.
<scales pt_clust_5="13000.00000" pt_clust_6="13000.00000" pt_clust_7="13000.00000" pt_clust_8="13000.00000" pt_clust_9="42.04218"></scales>
<clustering>
<clus scale="   42.042">  1  9  2 -1</clus>
<clus scale="   87.130">  7  8 -1 -1</clus>
<clus scale="   89.414">  1  7  2 -1</clus>
<clus scale="   92.478">  5  6 -1 -1</clus>
<clus scale="   42.042">  1  5  2 -1</clus>
</clustering>
</event>
<event>
 9    1  0.1782981E-005  0.1477582E+03  0.7546771E-02  0.1208488E+00
          1   -1    0    0  502    0  0.00000000000E+00  0.00000000000E+00  0.25469120758E+03  0.25469120758E+03  0.00000000000E+00 0. -1.
         -1   -1    0    0    0  501 -0.00000000000E+00 -0.00000000000E+00 -0.28450806909E+03  0.28450806909E+03  0.00000000000E+00 0.  1.
         23    2    1    2    0    0 -0.68350351556E+02 -0.66154123937E+02 -0.20367432638E+03  0.24253440846E+03  0.91058055039E+02 0.  0.
         23    2    1    2    0    0  0.11952683232E+03  0.14543382502E+02  0.99011547696E+02  0.19233552368E+03  0.11265652875E+03 0.  0.
        -11    1    4    4    0    0  0.86019072290E+02  0.39182951299E+02  0.11403213926E+03  0.14811452749E+03  0.00000000000E+00 0. -1.
         11    1    4    4    0    0  0.33507760033E+02 -0.24639568796E+02 -0.15020591559E+02  0.44220996186E+02  0.00000000000E+00 0.  1.
        -13    1    3    3    0    0 -0.32291058951E+02 -0.84325439390E+02 -0.15398196207E+03  0.17850472504E+03  0.00000000000E+00 0.  1.
         13    1    3    3    0    0 -0.36059292605E+02  0.18171315453E+02 -0.49692364308E+02  0.64029683421E+02  0.00000000000E+00 0. -1.
         21    1    1    2  502  501 -0.51176480768E+02  0.51610741435E+02  0.74845917165E+02  0.10432934454E+03  0.00000000000E+00 0. -1.
<scales pt_clust_5="13000.00000" pt_clust_6="13000.00000" pt_clust_7="13000.00000" pt_clust_8="13000.00000" pt_clust_9="72.68219"></scales>
<clustering>
<clus scale="   72.682">  1  9  2 -1</clus>
<clus scale="   91.058">  7  8 -1 -1</clus>
<clus scale="  112.657">  5  6 -1 -1</clus>
<clus scale="  132.032">  2  7  1 -1</clus>
<clus scale="   72.682">  1  5  2 -1</clus>
</clustering>
</event>
<event>
 9    1  0.1782981E-005  0.1455162E+03  0.7546771E-02  0.1206625E+00
          2   -1    0    0  502    0  0.00000000000E+00  0.00000000000E+00  0.40793358756E+03  0.40793358756E+03  0.00000000000E+00 0. -1.
         -2   -1    0    0    0  501 -0.00000000000E+00 -0.00000000000E+00 -0.78195889707E+02  0.78195889707E+02  0.00000000000E+00 0.  1.
         23    2    1    2    0    0  0.79418894674E+02 -0.70659309548E+02  0.96331693785E+02  0.17031382069E+03  0.91798166840E+02 0.  0.
         23    2    1    2    0    0 -0.77841123068E+02  0.91796616277E+02  0.98526756865E+02  0.17928109529E+03  0.89153407726E+02 0.  0.
        -11    1    3    3    0    0  0.93862062623E+02 -0.36776468240E+02  0.84756064634E+02  0.13170491983E+03  0.00000000000E+00 0.  1.
         11    1    3    3    0    0 -0.14443167949E+02 -0.33882841307E+02  0.11575629151E+02  0.38608900861E+02  0.00000000000E+00 0. -1.
        -11    1    4    4    0    0 -0.26128522532E+02 -0.11043928623E+02  0.95665211155E+00  0.28382798177E+02  0.00000000000E+00 0.  1.
         11    1    4    4    0    0 -0.51712600536E+02  0.10284054490E+03  0.97570104753E+02  0.15089829711E+03  0.00000000000E+00 0. -1.
         21    1    1    2  502  501 -0.15777716065E+01 -0.21137306729E+02  0.13487924720E+03  0.13653456128E+03  0.00000000000E+00 0. -1.
<scales pt_clust_5="13000.00000" pt_clust_6="13000.00000" pt_clust_7="13000.00000" pt_clust_8="13000.00000" pt_clust_9="21.19611"></scales>
<clustering>
<clus scale="   21.196">  1  9  2 -1</clus>
<clus scale="   89.153">  7  8 -1 -1</clus>
<clus scale="   91.798">  5  6 -1 -1</clus>
<clus scale="  143.862">  1  7  2 -1</clus>
<clus scale="   21.196">  1  5  2 -1</clus>
</clustering>
</event>
<event>
 9    1  0.1782981E-005  0.1199967E+03  0.7546771E-02  0.1245742E+00
         -1   -1    0    0    0  501 -0.00000000000E+00  0.00000000000E+00  0.11507515403E+03  0.11507515403E+03  0.00000000000E+00 0.  1.
          1   -1    0    0  502    0  0.00000000000E+00 -0.00000000000E+00 -0.28670851367E+03  0.28670851367E+03  0.00000000000E+00 0. -1.
         23    2    1    2    0    0  0.68267259351E+02 -0.21899553505E+02  0.54341262364E+02  0.12720387955E+03  0.89932447059E+02 0.  0.
         23    2    1    2    0    0 -0.65099509438E+02 -0.52757438279E+01 -0.13209675113E+03  0.17679642524E+03  0.97681342720E+02 0.  0.
        -11    1    3    3    0    0  0.35934404786E+02  0.31606791861E+02  0.41582374306E+02  0.63398458908E+02  0.00000000000E+00 0.  1.
         11    1    3    3    0    0  0.32332854565E+02 -0.53506345365E+02  0.12758888058E+02  0.63805420641E+02  0.00000000000E+00 0. -1.
        -13    1    4    4    0    0 -0.39192526775E+02  0.27951083463E+02 -0.12515728331E+03  0.13409572248E+03  0.00000000000E+00 0. -1.
         13    1    4    4    0    0 -0.25906982663E+02 -0.33226827290E+02 -0.69394678222E+01  0.42700702760E+02  0.00000000000E+00 0.  1.
         21    1    1    2  502  501 -0.31677499132E+01  0.27175297332E+02 -0.93877870871E+02  0.97783362920E+02  0.00000000000E+00 0. -1.
<scales pt_clust_5="13000.00000" pt_clust_6="13000.00000" pt_clust_7="13000.00000" pt_clust_8="13000.00000" pt_clust_9="27.35930"></scales>
<clustering>
<clus scale="   27.359">  2  9  1 -1</clus>
<clus scale="   89.932">  5  6 -1 -1</clus>
<clus scale="   97.681">  7  8 -1 -1</clus>
<clus scale="  113.778">  1  5  2 -1</clus>
<clus scale="   27.359">  2  5  1 -1</clus>
</clustering>
</event>
<event>
 9    1  0.1782981E-005  0.1497713E+03  0.7546771E-02  0.1202570E+00
         -2   -1    0    0    0  501 -0.00000000000E+00  0.00000000000E+00  0.42642633173E+03  0.42642633173E+03  0.00000000000E+00 0.  1.
          2   -1    0    0  502    0  0.00000000000E+00 -0.00000000000E+00 -0.84515957115E+02  0.84515957115E+02  0.00000000000E+00 0. -1.
         23    2    1    2    0    0 -0.39748212213E+01 -0.12833489144E+03  0.25843392794E+03  0.30245696621E+03  0.90589611641E+02 0.  0.
         23    2    1    2    0    0  0.14497961791E+02  0.85967001393E+02  0.95541431016E+02  0.16319361874E+03  0.99516209389E+02 0.  0.
        -11    1    3    3    0    0  0.32910999537E+02 -0.33493833752E+02  0.13233389497E+03  0.14041805635E+03  0.00000000000E+00 0.  1.
         11    1    3    3    0    0 -0.36885820759E+02 -0.94841057692E+02  0.12610003296E+03  0.16203890987E+03  0.00000000000E+00 0. -1.
        -13    1    4    4    0    0 -0.36811645736E+02  0.42127311314E+02  0.14620008974E+02  0.57823457893E+02  0.00000000000E+00 0. -1.
         13    1    4    4    0    0  0.51309607527E+02  0.43839690079E+02  0.80921422043E+02  0.10537016084E+03  0.00000000000E+00 0.  1.
         21    1    1    2  502  501 -0.10523140569E+02  0.42367890051E+02 -0.12064984336E+02  0.45291703896E+02  0.00000000000E+00 0.  1.
<scales pt_clust_5="13000.00000" pt_clust_6="13000.00000" pt_clust_7="13000.00000" pt_clust_8="13000.00000" pt_clust_9="43.65518"></scales>
<clustering>
<clus scale="   43.655">  2  9  1 -1</clus>
<clus scale="   90.590">  5  6 -1 -1</clus>
<clus scale="   99.516">  7  8 -1 -1</clus>
<clus scale="  143.995">  1  5  2 -1</clus>
<clus scale="   43.655">  2  5  1 -1</clus>
</clustering>
</event>
<event>
 9    1  0.1782981E-005  0.1136075E+03  0.7546771E-02  0.1262376E+00
         -2   -1    0    0    0  501 -0.00000000000E+00  0.00000000000E+00  0.22594319683E+03  0.22594319683E+03  0.00000000000E+00 0.  1.
          2   -1    0    0  502    0  0.00000000000E+00 -0.00000000000E+00 -0.73936284462E+02  0.73936284462E+02  0.00000000000E+00 0. -1.
         23    2    1    2    0    0 -0.25517764145E+02 -0.46084954434E+02  0.87949354646E+02  0.13570447459E+03  0.88913644224E+02 0.  0.
         23    2    1    2    0    0 -0.60283773403E+01  0.18677206077E+02  0.50449132280E+02  0.12022579788E+03  0.10734965379E+03 0.  0.
        -11    1    4    4    0    0 -0.34167732538E+02  0.33984710580E+02  0.68272652976E+02  0.83567635149E+02  0.00000000000E+00 0.  1.
         11    1    4    4    0    0  0.28139355198E+02 -0.15307504504E+02 -0.17823520696E+02  0.36658162735E+02  0.00000000000E+00 0. -1.
        -11    1    3    3    0    0  0.32872811537E+02 -0.12115012825E+02  0.38034900726E+02  0.51711207173E+02  0.00000000000E+00 0.  1.
         11    1    3    3    0    0 -0.58390575681E+02 -0.33969941609E+02  0.49914453920E+02  0.83993267417E+02  0.00000000000E+00 0. -1.
         21    1    1    2  502  501  0.31546141485E+02  0.27407748357E+02  0.13608425441E+02  0.43949208817E+02  0.00000000000E+00 0.  1.
<scales pt_clust_5="13000.00000" pt_clust_6="13000.00000" pt_clust_7="13000.00000" pt_clust_8="13000.00000" pt_clust_9="41.78928"></scales>
<clustering>
<clus scale="   41.789">  2  9  1 -1</clus>
<clus scale="   88.914">  7  8 -1 -1</clus>
<clus scale="   96.376">  1  7  2 -1</clus>
<clus scale="  107.350">  5  6 -1 -1</clus>
<clus scale="   41.789">  2  5  1 -1</clus>
</clustering>
</event>
<event>
 9    1  0.1782981E-005  0.1098345E+03  0.7546771E-02  0.1262965E+00
         -2   -1    0    0    0  501 -0.00000000000E+00  0.00000000000E+00  0.97969645144E+02  0.97969645144E+02  0.00000000000E+00 0. -1.
          2   -1    0    0  502    0  0.00000000000E+00 -0.00000000000E+00 -0.21336905501E+03  0.21336905501E+03  0.00000000000E+00 0.  1.
         23    2    1    2    0    0 -0.48207959637E+02  0.17137675710E+02 -0.39164410360E+01  0.10352927061E+03  0.89918096412E+02 0.  0.
         23    2    1    2    0    0  0.92197382535E+02  0.68857061787E+01 -0.78505279130E+02  0.14781176106E+03  0.84483534265E+02 0.  0.
        -11    1    4    4    0    0  0.70729166931E+02  0.67256420281E+01 -0.96476009712E+02  0.11981431369E+03  0.00000000000E+00 0.  1.
         11    1    4    4    0    0  0.21468215604E+02  0.16006415063E+00  0.17970730582E+02  0.27997447373E+02  0.00000000000E+00 0. -1.
        -11    1    3    3    0    0 -0.66708632183E+02 -0.10844306001E+02  0.77188718877E+01  0.68023683843E+02  0.00000000000E+00 0.  1.
         11    1    3    3    0    0  0.18500672546E+02  0.27981981711E+02 -0.11635312924E+02  0.35505586771E+02  0.00000000000E+00 0. -1.
         21    1    1    2  502  501 -0.43989422898E+02 -0.24023381889E+02 -0.32977689696E+02  0.59997668471E+02  0.00000000000E+00 0. -1.
<scales pt_clust_5="13000.00000" pt_clust_6="13000.00000" pt_clust_7="13000.00000" pt_clust_8="13000.00000" pt_clust_9="50.12177"></scales>
<clustering>
<clus scale="   50.122">  2  9  1 -1</clus>
<clus scale="   84.484">  5  6 -1 -1</clus>
<clus scale="   89.918">  7  8 -1 -1</clus>
<clus scale="  105.432">  2  5  1 -1</clus>
<clus scale="   50.122">  2  5  1 -1</clus>
</clustering>
</event>
<event>
 9    1  0.1782981E-005  0.1480481E+03  0.7546771E-02  0.1203835E+00
          3   -1    0    0  502    0  0.00000000000E+00  0.00000000000E+00  0.38459862486E+02  0.38459862486E+02  0.00000000000E+00 0. -1.
         -3   -1    0    0    0  501 -0.00000000000E+00 -0.00000000000E+00 -0.71168956728E+03  0.71168956728E+03  0.00000000000E+00 0.  1.
         23    2    1    2    0    0  0.88033160142E+02 -0.85391895925E+02 -0.46067181454E+03  0.48587221248E+03  0.93870511699E+02 0.  0.
         23    2    1    2    0    0 -0.74006479271E+02  0.67201238055E+02 -0.17695392563E+03  0.22190635340E+03  0.89088565563E+02 0.  0.
        -11    1    4    4    0    0 -0.55055391187E+01  0.26281986824E+02  0.10118822370E+01  0.26871503458E+02  0.00000000000E+00 0.  1.
         11    1    4    4    0    0 -0.68500940153E+02  0.40919251231E+02 -0.17796580787E+03  0.19503484994E+03  0.00000000000E+00 0. -1.
        -11    1    3    3    0    0  0.72736436226E+02 -0.28355459572E+02 -0.36645897115E+03  0.37468226376E+03  0.00000000000E+00 0.  1.
         11    1    3    3    0    0  0.15296723916E+02 -0.57036436353E+02 -0.94212843397E+02  0.11118994872E+03  0.00000000000E+00 0. -1.
         21    1    1    2  502  501 -0.14026680871E+02  0.18190657870E+02 -0.35603964624E+02  0.42370863892E+02  0.00000000000E+00 0. -1.
<scales pt_clust_5="13000.00000" pt_clust_6="13000.00000" pt_clust_7="13000.00000" pt_clust_8="13000.00000" pt_clust_9="22.97059"></scales>
<clustering>
<clus scale="   22.971">  1  9  2 -1</clus>
<clus scale="   89.089">  5  6 -1 -1</clus>
<clus scale="   93.871">  7  8 -1 -1</clus>
<clus scale="  145.063">  1  5  2 -1</clus>
<clus scale="   22.971">  1  5  2 -1</clus>
</clustering>
</event>
<event>
 9    1  0.1782981E-005  0.3494358E+03  0.7546771E-02  0.1062887E+00
          2   -1    0    0  502    0  0.00000000000E+00  0.00000000000E+00  0.17516336156E+04  0.17516336156E+04  0.00000000000E+00 0. -1.
         -2   -1    0    0    0  501 -0.00000000000E+00 -0.00000000000E+00 -0.82090521578E+02  0.82090521578E+02  0.00000000000E+00 0.  1.
         23    2    1    2    0    0  0.16576023715E+03 -0.30227673734E+03  0.57236976246E+03  0.67458290941E+03  0.92775398278E+02 0.  0.
         23    2    1    2    0    0 -0.14085549041E+03  0.29312437955E+03  0.92116475789E+03  0.98114395233E+03  0.91305930434E+02 0.  0.
        -11    1    3    3    0    0  0.13720622098E+03 -0.28811816077E+03  0.47595177025E+03  0.57303377671E+03  0.00000000000E+00 0.  1.
         11    1    3    3    0    0  0.28554016170E+02 -0.14158576567E+02  0.96417992212E+02  0.10154913270E+03  0.00000000000E+00 0. -1.
        -13    1    4    4    0    0 -0.95157275056E+02  0.26579878884E+03  0.81216029199E+03  0.85983035712E+03  0.00000000000E+00 0. -1.
         13    1    4    4    0    0 -0.45698215350E+02  0.27325590718E+02  0.10900446591E+03  0.12131359520E+03  0.00000000000E+00 0.  1.
         21    1    1    2  502  501 -0.24904746741E+02  0.91523577843E+01  0.17600857369E+03  0.17799727547E+03  0.00000000000E+00 0. -1.
<scales pt_clust_5="13000.00000" pt_clust_6="13000.00000" pt_clust_7="13000.00000" pt_clust_8="13000.00000" pt_clust_9="26.53323"></scales>
<clustering>
<clus scale="   26.533">  1  9  2 -1</clus>
<clus scale="   91.306">  7  8 -1 -1</clus>
<clus scale="   92.775">  5  6 -1 -1</clus>
<clus scale="  349.048">  1  7  2 -1</clus>
<clus scale="   26.533">  1  5  2 -1</clus>
</clustering>
</event>
<event>
 9    1  0.1782981E-005  0.1138994E+03  0.7546771E-02  0.1253722E+00
         -1   -1    0    0    0  501 -0.00000000000E+00  0.00000000000E+00  0.16499166362E+03  0.16499166362E+03  0.00000000000E+00 0.  1.
          1   -1    0    0  502    0  0.00000000000E+00 -0.00000000000E+00 -0.36539141532E+03  0.36539141532E+03  0.00000000000E+00 0. -1.
         23    2    1    2    0    0  0.90496210854E+02 -0.33429686039E+02  0.85422044245E+02  0.15786432148E+03  0.91198192222E+02 0.  0.
         23    2    1    2    0    0  0.17230701591E+01  0.37799720627E+02 -0.33362272389E+02  0.10370784990E+03  0.90611749030E+02 0.  0.
        -11    1    4    4    0    0  0.50293039497E+01  0.60048254201E+02  0.36805626092E+01  0.60370798172E+02  0.00000000000E+00 0.  1.
         11    1    4    4    0    0 -0.33062337906E+01 -0.22248533574E+02 -0.37042834999E+02  0.43337051732E+02  0.00000000000E+00 0. -1.
        -13    1    3    3    0    0  0.64910826143E+02 -0.55035754030E+02  0.90231906031E+02  0.12403284419E+03  0.00000000000E+00 0.  1.
         13    1    3    3    0    0  0.25585384711E+02  0.21606067992E+02 -0.48098617859E+01  0.33831477285E+02  0.00000000000E+00 0. -1.
         21    1    1    2  502  501 -0.92219281013E+02 -0.43700345885E+01 -0.25245952355E+03  0.26881090756E+03  0.00000000000E+00 0. -1.
<scales pt_clust_5="13000.00000" pt_clust_6="13000.00000" pt_clust_7="13000.00000" pt_clust_8="13000.00000" pt_clust_9="92.32277"></scales>
<clustering>
<clus scale="   90.612">  5  6 -1 -1</clus>
<clus scale="   91.198">  7  8 -1 -1</clus>
<clus scale="   92.323">  2  9  1 -1</clus>
<clus scale="  113.430">  2  5  1 -1</clus>
<clus scale="   92.323">  2  5  1 -1</clus>
</clustering>
</event>
<event>
 9    1  0.1782981E-005  0.1210788E+03  0.7546771E-02  0.1244378E+00
          1   -1    0    0  502    0  0.00000000000E+00  0.00000000000E+00  0.12652767261E+03  0.12652767261E+03  0.00000000000E+00 0. -1.
         -1   -1    0    0    0  501 -0.00000000000E+00 -0.00000000000E+00 -0.20118692431E+03  0.20118692431E+03  0.00000000000E+00 0.  1.
         23    2    1    2    0    0 -0.42327341771E+02 -0.80921906653E+02 -0.11940563857E+03  0.17726292955E+03  0.93938707841E+02 0.  0.
         23    2    1    2    0    0  0.25467645071E+02  0.35229153995E+02  0.29558515487E+02  0.99434528532E+02  0.84402757004E+02 0.  0.
        -11    1    3    3    0    0 -0.20299953607E+02 -0.99584351438E+02 -0.86230934459E+02  0.13328505252E+03  0.00000000000E+00 0. -1.
         11    1    3    3    0    0 -0.22027388164E+02  0.18662444786E+02 -0.33174704113E+02  0.43977877025E+02  0.00000000000E+00 0.  1.
        -13    1    4    4    0    0  0.23296930658E+00 -0.27237962110E+02  0.12301356219E+02  0.29887860737E+02  0.00000000000E+00 0. -1.
         13    1    4    4    0    0  0.25234675765E+02  0.62467116105E+02  0.17257159268E+02  0.69546667795E+02  0.00000000000E+00 0.  1.
         21    1    1    2  502  501  0.16859696699E+02  0.45692752658E+02  0.15187871383E+02  0.51017138840E+02  0.00000000000E+00 0.  1.
<scales pt_clust_5="13000.00000" pt_clust_6="13000.00000" pt_clust_7="13000.00000" pt_clust_8="13000.00000" pt_clust_9="48.70397"></scales>
<clustering>
<clus scale="   48.704">  1  9  2 -1</clus>
<clus scale="   84.403">  7  8 -1 -1</clus>
<clus scale="   93.939">  5  6 -1 -1</clus>
<clus scale="  113.839">  1  7  2 -1</clus>
<clus scale="   48.704">  1  5  2 -1</clus>
</clustering>
</event>
<event>
 9    1  0.1782981E-005  0.3903154E+03  0.7546771E-02  0.1047206E+00
          2   -1    0    0  502    0  0.00000000000E+00  0.00000000000E+00  0.14629789231E+04  0.14629789231E+04  0.00000000000E+00 0. -1.
         -2   -1    0    0    0  501 -0.00000000000E+00 -0.00000000000E+00 -0.14075562073E+03  0.14075562073E+03  0.00000000000E+00 0.  1.
         23    2    1    2    0    0 -0.33534868085E+03  0.15477560623E+03  0.35830978060E+03  0.52270969807E+03  0.91789452267E+02 0.  0.
         23    2    1    2    0    0  0.33936266202E+03 -0.20785978322E+03  0.68763052703E+03  0.79965971809E+03  0.90814190359E+02 0.  0.
        -11    1    3    3    0    0 -0.10436236776E+03  0.29087773208E+02  0.16052445073E+03  0.19366388831E+03  0.00000000000E+00 0. -1.
         11    1    3    3    0    0 -0.23098631309E+03  0.12568783302E+03  0.19778532987E+03  0.32904580976E+03  0.00000000000E+00 0.  1.
        -11    1    4    4    0    0  0.15320913688E+03 -0.71356359773E+02  0.21331301607E+03  0.27215292122E+03  0.00000000000E+00 0.  1.
         11    1    4    4    0    0  0.18615352514E+03 -0.13650342345E+03  0.47431751096E+03  0.52750679687E+03  0.00000000000E+00 0. -1.
         21    1    1    2  502  501 -0.40139811691E+01  0.53084176987E+02  0.27628299477E+03  0.28136512771E+03  0.00000000000E+00 0.  1.
<scales pt_clust_5="13000.00000" pt_clust_6="13000.00000" pt_clust_7="13000.00000" pt_clust_8="13000.00000" pt_clust_9="53.23572"></scales>
<clustering>
<clus scale="   53.236">  1  9  2 -1</clus>
<clus scale="   90.814">  7  8 -1 -1</clus>
<clus scale="   91.789">  5  6 -1 -1</clus>
<clus scale="  390.087">  1  7  2 -1</clus>
<clus scale="   53.236">  1  5  2 -1</clus>
</clustering>
</event>
<event>
 9    1  0.1782981E-005  0.1104106E+03  0.7546771E-02  0.1270359E+00
         -4   -1    0    0    0  501 -0.00000000000E+00  0.00000000000E+00  0.86989646710E+02  0.86989646710E+02  0.00000000000E+00 0.  1.
          4   -1    0    0  502    0  0.00000000000E+00 -0.00000000000E+00 -0.18193122268E+03  0.18193122268E+03  0.00000000000E+00 0. -1.
         23    2    1    2    0    0  0.36275186040E+01  0.11189446051E+02 -0.43322057326E+01  0.89851661978E+02  0.88972976569E+02 0.  0.
         23    2    1    2    0    0 -0.31709473807E+02  0.16110829759E+02 -0.67755763626E+02  0.13372399154E+03  0.10966409095E+03 0.  0.
        -13    1    4    4    0    0  0.38995577397E+02 -0.77833420642E+01 -0.31612691214E+02  0.50799583817E+02  0.00000000000E+00 0.  1.
         13    1    4    4    0    0 -0.70705051204E+02  0.23894171823E+02 -0.36143072412E+02  0.82924407723E+02  0.00000000000E+00 0. -1.
        -13    1    3    3    0    0  0.24583388633E+02 -0.73544195420E+01 -0.38138247122E+02  0.45966905237E+02  0.00000000000E+00 0.  1.
         13    1    3    3    0    0 -0.20955870030E+02  0.18543865593E+02  0.33806041389E+02  0.43884756741E+02  0.00000000000E+00 0. -1.
         21    1    1    2  502  501  0.28081955203E+02 -0.27300275810E+02 -0.22853606612E+02  0.45345215872E+02  0.00000000000E+00 0. -1.
<scales pt_clust_5="13000.00000" pt_clust_6="13000.00000" pt_clust_7="13000.00000" pt_clust_8="13000.00000" pt_clust_9="39.16505"></scales>
<clustering>
<clus scale="   39.165">  2  9  1 -1</clus>
<clus scale="   88.973">  7  8 -1 -1</clus>
<clus scale="   89.892">  1  7  2 -1</clus>
<clus scale="  109.664">  5  6 -1 -1</clus>
<clus scale="   39.165">  2  5  1 -1</clus>
</clustering>
</event>
<event>
 9    1  0.1782981E-005  0.1099239E+03  0.7546771E-02  0.1261152E+00
          2   -1    0    0  502    0  0.00000000000E+00  0.00000000000E+00  0.65067342559E+02  0.65067342559E+02  0.00000000000E+00 0. -1.
         -2   -1    0    0    0  501 -0.00000000000E+00 -0.00000000000E+00 -0.29771826052E+03  0.29771826052E+03  0.00000000000E+00 0.  1.
         23    2    1    2    0    0 -0.65254950913E+02 -0.15050428805E+02 -0.18502163683E+03  0.21652201408E+03  0.90355146285E+02 0.  0.
         23    2    1    2    0    0  0.56001422290E+02 -0.95507653416E+01 -0.54675605455E+02  0.11905151021E+03  0.89199012518E+02 0.  0.
        -11    1    3    3    0    0  0.10687951474E+02  0.17067850008E+02 -0.82675543311E+02  0.85092827385E+02  0.00000000000E+00 0. -1.
         11    1    3    3    0    0 -0.75942902386E+02 -0.32118278813E+02 -0.10234609352E+03  0.13142918670E+03  0.00000000000E+00 0.  1.
        -11    1    4    4    0    0  0.57202363503E+02  0.31056891510E+02 -0.32091345116E+02  0.72570623064E+02  0.00000000000E+00 0. -1.
         11    1    4    4    0    0 -0.12009412125E+01 -0.40607656851E+02 -0.22584260339E+02  0.46480887145E+02  0.00000000000E+00 0.  1.
         21    1    1    2  502  501  0.92535286221E+01  0.24601194146E+02  0.70463243273E+01  0.27212078787E+02  0.00000000000E+00 0. -1.
<scales pt_clust_5="13000.00000" pt_clust_6="13000.00000" pt_clust_7="13000.00000" pt_clust_8="13000.00000" pt_clust_9="26.28396"></scales>
<clustering>
<clus scale="   26.284">  1  9  2 -1</clus>
<clus scale="   89.199">  7  8 -1 -1</clus>
<clus scale="   90.355">  5  6 -1 -1</clus>
<clus scale="  108.976">  1  7  2 -1</clus>
<clus scale="   26.284">  1  5  2 -1</clus>
</clustering>
</event>
<event>
 9    1  0.1782981E-005  0.1100129E+03  0.7546771E-02  0.1262926E+00
          1   -1    0    0  502    0  0.00000000000E+00  0.00000000000E+00  0.59152246619E+02  0.59152246619E+02  0.00000000000E+00 0. -1.
         -1   -1    0    0    0  501 -0.00000000000E+00 -0.00000000000E+00 -0.55579178368E+03  0.55579178368E+03  0.00000000000E+00 0.  1.
         23    2    1    2    0    0  0.52600009299E+02  0.21258834941E+02 -0.31684978405E+03  0.33507594299E+03  0.93077402613E+02 0.  0.
         23    2    1    2    0    0 -0.32028534454E+02 -0.20495031751E+02 -0.21470043229E+03  0.23934001678E+03  0.98699010451E+02 0.  0.
        -11    1    3    3    0    0  0.57768536956E+02  0.51760490681E+02 -0.24041836196E+03  0.25262094336E+03  0.00000000000E+00 0. -1.
         11    1    3    3    0    0 -0.51685276574E+01 -0.30501655740E+02 -0.76431422095E+02  0.82454999633E+02  0.00000000000E+00 0.  1.
        -11    1    4    4    0    0 -0.77300959530E+01  0.24980820093E+02 -0.95968151549E+01  0.27854884977E+02  0.00000000000E+00 0. -1.
         11    1    4    4    0    0 -0.24298438501E+02 -0.45475851844E+02 -0.20510361713E+03  0.21148513181E+03  0.00000000000E+00 0.  1.
         21    1    1    2  502  501 -0.20571474845E+02 -0.76380319012E+00  0.34910679278E+02  0.40528070522E+02  0.00000000000E+00 0.  1.
<scales pt_clust_5="13000.00000" pt_clust_6="13000.00000" pt_clust_7="13000.00000" pt_clust_8="13000.00000" pt_clust_9="20.58565"></scales>
<clustering>
<clus scale="   20.586">  1  9  2 -1</clus>
<clus scale="   93.077">  5  6 -1 -1</clus>
<clus scale="   98.699">  7  8 -1 -1</clus>
<clus scale="  104.999">  2  5  1 -1</clus>
<clus scale="   20.586">  1  5  2 -1</clus>
</clustering>
</event>
<event>
 9    1  0.1782981E-005  0.1061055E+03  0.7546771E-02  0.1269433E+00
          1   -1    0    0  502    0  0.00000000000E+00  0.00000000000E+00  0.35249998498E+02  0.35249998498E+02  0.00000000000E+00 0. -1.
         -1   -1    0    0    0  501 -0.00000000000E+00 -0.00000000000E+00 -0.53532299374E+03  0.53532299374E+03  0.00000000000E+00 0.  1.
         23    2    1    2    0    0 -0.10903116191E+02 -0.57244176642E+02 -0.39012870197E+03  0.40523523779E+03  0.92840832341E+02 0.  0.
         23    2    1    2    0    0  0.51701213284E+01  0.33690911738E+02 -0.10193924857E+03  0.13980925550E+03  0.89404752864E+02 0.  0.
        -11    1    3    3    0    0 -0.30254675464E+02 -0.76326214399E+02 -0.30616381018E+03  0.31698156895E+03  0.00000000000E+00 0.  1.
         11    1    3    3    0    0  0.19351559272E+02  0.19082037757E+02 -0.83964891789E+02  0.88253668843E+02  0.00000000000E+00 0. -1.
        -13    1    4    4    0    0  0.10490354596E+02 -0.24326273645E+02 -0.66583007648E+02  0.71659696040E+02  0.00000000000E+00 0.  1.
         13    1    4    4    0    0 -0.53202332677E+01  0.58017185383E+02 -0.35356240922E+02  0.68149559455E+02  0.00000000000E+00 0. -1.
         21    1    1    2  502  501  0.57329948628E+01  0.23553264904E+02 -0.80050447022E+01  0.25528498946E+02  0.00000000000E+00 0. -1.
<scales pt_clust_5="13000.00000" pt_clust_6="13000.00000" pt_clust_7="13000.00000" pt_clust_8="13000.00000" pt_clust_9="24.24095"></scales>
<clustering>
<clus scale="   24.241">  1  9  2 -1</clus>
<clus scale="   89.405">  7  8 -1 -1</clus>
<clus scale="   92.841">  5  6 -1 -1</clus>
<clus scale="  103.112">  1  7  2 -1</clus>
<clus scale="   24.241">  1  5  2 -1</clus>
</clustering>
</event>
<event>
 9    1  0.1782981E-005  0.9665130E+02  0.7546771E-02  0.1287908E+00
          1   -1    0    0  502    0  0.00000000000E+00  0.00000000000E+00  0.19023459303E+03  0.19023459303E+03  0.00000000000E+00 0. -1.
         -1   -1    0    0    0  501 -0.00000000000E+00 -0.00000000000E+00 -0.19677497853E+03  0.19677497853E+03  0.00000000000E+00 0.  1.
         23    2    1    2    0    0 -0.34625015243E+02 -0.50546852067E+01 -0.16498883080E+03  0.19141140006E+03  0.90512807166E+02 0.  0.
         23    2    1    2    0    0  0.22610216878E+02 -0.10973437100E+02  0.14115435910E+03  0.16913420539E+03  0.89722840513E+02 0.  0.
        -11    1    4    4    0    0  0.42601070002E+02 -0.15107065038E+02  0.25918431488E+02  0.52104123351E+02  0.00000000000E+00 0.  1.
         11    1    4    4    0    0 -0.19990853124E+02  0.41336279379E+01  0.11523592761E+03  0.11703008204E+03  0.00000000000E+00 0. -1.
        -13    1    3    3    0    0  0.13993435176E+02  0.24817325359E+02 -0.17912937810E+02  0.33653962723E+02  0.00000000000E+00 0. -1.
         13    1    3    3    0    0 -0.48618450419E+02 -0.29872010565E+02 -0.14707589299E+03  0.15775743734E+03  0.00000000000E+00 0.  1.
         21    1    1    2  502  501  0.12014798365E+02  0.16028122306E+02  0.17294086206E+02  0.26463966107E+02  0.00000000000E+00 0.  1.
<scales pt_clust_5="13000.00000" pt_clust_6="13000.00000" pt_clust_7="13000.00000" pt_clust_8="13000.00000" pt_clust_9="20.03138"></scales>
<clustering>
<clus scale="   20.031">  1  9  2 -1</clus>
<clus scale="   89.723">  5  6 -1 -1</clus>
<clus scale="   90.513">  7  8 -1 -1</clus>
<clus scale="   95.912">  1  5  2 -1</clus>
<clus scale="   20.031">  1  5  2 -1</clus>
</clustering>
</event>
<event>
 9    1  0.1782981E-005  0.1031143E+03  0.7546771E-02  0.1274573E+00
          2   -1    0    0  502    0  0.00000000000E+00  0.00000000000E+00  0.20912400733E+03  0.20912400733E+03  0.00000000000E+00 0. -1.
         -2   -1    0    0    0  501 -0.00000000000E+00 -0.00000000000E+00 -0.78421988983E+02  0.78421988983E+02  0.00000000000E+00 0.  1.
         23    2    1    2    0    0 -0.47452884986E+01  0.41591547160E+02  0.91074339063E+01  0.98282072314E+02  0.88453636600E+02 0.  0.
         23    2    1    2    0    0 -0.33115604299E+01 -0.66945842819E+02  0.73061753420E+02  0.13391784184E+03  0.90018088450E+02 0.  0.
        -13    1    3    3    0    0  0.20253231999E+02  0.14106450275E+01  0.37823798951E+02  0.42928115413E+02  0.00000000000E+00 0. -1.
         13    1    3    3    0    0 -0.24998520498E+02  0.40180902133E+02 -0.28716365045E+02  0.55353956901E+02  0.00000000000E+00 0.  1.
        -13    1    4    4    0    0 -0.45833841880E+02 -0.42910333769E+02  0.34177793795E+02  0.71485378885E+02  0.00000000000E+00 0.  1.
         13    1    4    4    0    0  0.42522281450E+02 -0.24035509050E+02  0.38883959625E+02  0.62432462959E+02  0.00000000000E+00 0. -1.
         21    1    1    2  502  501  0.80568489285E+01  0.25354295659E+02  0.48532831017E+02  0.55346082152E+02  0.00000000000E+00 0. -1.
<scales pt_clust_5="13000.00000" pt_clust_6="13000.00000" pt_clust_7="13000.00000" pt_clust_8="13000.00000" pt_clust_9="26.60363"></scales>
<clustering>
<clus scale="   26.604">  1  9  2 -1</clus>
<clus scale="   88.454">  5  6 -1 -1</clus>
<clus scale="   90.018">  7  8 -1 -1</clus>
<clus scale="  101.751">  2  5  1 -1</clus>
<clus scale="   26.604">  1  5  2 -1</clus>
</clustering>
</event>
<event>
 9    1  0.1782981E-005  0.9628912E+02  0.7546771E-02  0.1302968E+00
         -1   -1    0    0    0  501 -0.00000000000E+00  0.00000000000E+00  0.51932741753E+03  0.51932741753E+03  0.00000000000E+00 0.  1.
          1   -1    0    0  502    0  0.00000000000E+00 -0.00000000000E+00 -0.21701564767E+02  0.21701564767E+02  0.00000000000E+00 0. -1.
         23    2    1    2    0    0  0.15574092704E+02  0.73328444713E+01  0.26018968590E+03  0.26982958568E+03  0.69375858124E+02 0.  0.
         23    2    1    2    0    0 -0.39220954127E+02 -0.65048391380E+01  0.21850251992E+03  0.24089522801E+03  0.93308967914E+02 0.  0.
        -11    1    4    4    0    0  0.24463227100E+02  0.64010079543E+01  0.20654896783E+02  0.32650377396E+02  0.00000000000E+00 0. -1.
         11    1    4    4    0    0 -0.63684181227E+02 -0.12905847092E+02  0.19784762313E+03  0.20824485061E+03  0.00000000000E+00 0.  1.
        -13    1    3    3    0    0  0.28670969835E+02 -0.23048220567E+02  0.10825297056E+03  0.11433263147E+03  0.00000000000E+00 0. -1.
         13    1    3    3    0    0 -0.13096877131E+02  0.30381065039E+02  0.15193671533E+03  0.15549695421E+03  0.00000000000E+00 0.  1.
         21    1    1    2  502  501  0.23646861423E+02 -0.82800533329E+00  0.18933646949E+02  0.30304168604E+02  0.00000000000E+00 0. -1.
<scales pt_clust_5="13000.00000" pt_clust_6="13000.00000" pt_clust_7="13000.00000" pt_clust_8="13000.00000" pt_clust_9="23.66135"></scales>
<clustering>
<clus scale="   23.661">  2  9  1 -1</clus>
<clus scale="   69.376">  7  8 -1 -1</clus>
<clus scale="   73.335">  1  7  2 -1</clus>
<clus scale="   93.309">  5  6 -1 -1</clus>
<clus scale="   23.661">  2  5  1 -1</clus>
</clustering>
</event>
<event>
 9    1  0.1782981E-005  0.9621283E+02  0.7546771E-02  0.1289863E+00
         -2   -1    0    0    0  501 -0.00000000000E+00  0.00000000000E+00  0.74992235517E+02  0.74992235517E+02  0.00000000000E+00 0.  1.
          2   -1    0    0  502    0  0.00000000000E+00 -0.00000000000E+00 -0.21687048846E+03  0.21687048846E+03  0.00000000000E+00 0. -1.
         23    2    1    2    0    0 -0.33163928277E+01 -0.23751725824E+02 -0.30159993209E+02  0.96199073288E+02  0.88144730813E+02 0.  0.
         23    2    1    2    0    0 -0.47564746716E+02  0.34880667571E+02 -0.80846267033E+02  0.13511760508E+03  0.90783160384E+02 0.  0.
        -13    1    3    3    0    0 -0.41284334005E+02  0.61711338756E+01 -0.60525351831E+01  0.42179524768E+02  0.00000000000E+00 0.  1.
         13    1    3    3    0    0  0.37967941177E+02 -0.29922859700E+02 -0.24107458026E+02  0.54019548520E+02  0.00000000000E+00 0. -1.
        -13    1    4    4    0    0  0.18930031928E+01 -0.24835923838E+02 -0.40917931775E+02  0.47902857062E+02  0.00000000000E+00 0. -1.
         13    1    4    4    0    0 -0.49457749908E+02  0.59716591409E+02 -0.39928335258E+02  0.87214748019E+02  0.00000000000E+00 0.  1.
         21    1    1    2  502  501  0.50881139543E+02 -0.11128941747E+02 -0.30871992706E+02  0.60546045612E+02  0.00000000000E+00 0. -1.
<scales pt_clust_5="13000.00000" pt_clust_6="13000.00000" pt_clust_7="13000.00000" pt_clust_8="13000.00000" pt_clust_9="52.08401"></scales>
<clustering>
<clus scale="   52.084">  2  9  1 -1</clus>
<clus scale="   88.145">  5  6 -1 -1</clus>
<clus scale="   90.783">  7  8 -1 -1</clus>
<clus scale="   93.727">  1  5  2 -1</clus>
<clus scale="   52.084">  2  5  1 -1</clus>
</clustering>
</event>
<event>
 9    1  0.1782981E-005  0.4309088E+03  0.7546771E-02  0.1033592E+00
         -3   -1    0    0    0  501 -0.00000000000E+00  0.00000000000E+00  0.12042159627E+04  0.12042159627E+04  0.00000000000E+00 0.  1.
          3   -1    0    0  502    0  0.00000000000E+00 -0.00000000000E+00 -0.19201746503E+03  0.19201746503E+03  0.00000000000E+00 0. -1.
         23    2    1    2    0    0  0.27229669958E+03 -0.30735099699E+03  0.59049684865E+03  0.72501288064E+03  0.91362031895E+02 0.  0.
         23    2    1    2    0    0 -0.30565336308E+03  0.31064988319E+03  0.44581210090E+03  0.62993055386E+03  0.90203908432E+02 0.  0.
        -13    1    4    4    0    0 -0.23563443313E+03  0.22810659801E+03  0.38510533123E+03  0.50582835258E+03  0.00000000000E+00 0. -1.
         13    1    4    4    0    0 -0.70018929955E+02  0.82543285181E+02  0.60706769665E+02  0.12410220129E+03  0.00000000000E+00 0.  1.
        -13    1    3    3    0    0  0.22326113592E+03 -0.28583881978E+03  0.54548939479E+03  0.65506339047E+03  0.00000000000E+00 0.  1.
         13    1    3    3    0    0  0.49035563659E+02 -0.21512177213E+02  0.45007453856E+02  0.69949490165E+02  0.00000000000E+00 0. -1.
         21    1    1    2  502  501  0.33356663504E+02 -0.32988861974E+01 -0.24110451883E+02  0.41289993222E+02  0.00000000000E+00 0. -1.
<scales pt_clust_5="13000.00000" pt_clust_6="13000.00000" pt_clust_7="13000.00000" pt_clust_8="13000.00000" pt_clust_9="33.51939"></scales>
<clustering>
<clus scale="   33.519">  2  9  1 -1</clus>
<clus scale="   90.204">  5  6 -1 -1</clus>
<clus scale="   91.362">  7  8 -1 -1</clus>
<clus scale="  430.665">  2  5  1 -1</clus>
<clus scale="   33.519">  2  5  1 -1</clus>
</clustering>
</event>
<event>
 9    1  0.1782981E-005  0.2112865E+03  0.7546771E-02  0.1140555E+00
         -1   -1    0    0    0  501 -0.00000000000E+00  0.00000000000E+00  0.34400941504E+03  0.34400941504E+03  0.00000000000E+00 0.  1.
          1   -1    0    0  502    0  0.00000000000E+00 -0.00000000000E+00 -0.17018505172E+03  0.17018505172E+03  0.00000000000E+00 0. -1.
         23    2    1    2    0    0  0.17015366527E+03 -0.93491037470E+02  0.15015505556E+03  0.26191852049E+03  0.91443571518E+02 0.  0.
         23    2    1    2    0    0 -0.18128132690E+03  0.56338565584E+02  0.93573533490E+01  0.21093633985E+03  0.91485659816E+02 0.  0.
        -11    1    3    3    0    0  0.12961448435E+03 -0.20715933984E+02  0.89395488106E+02  0.15881000525E+03  0.00000000000E+00 0.  1.
         11    1    3    3    0    0  0.40539180922E+02 -0.72775103487E+02  0.60759567459E+02  0.10310851524E+03  0.00000000000E+00 0. -1.
        -11    1    4    4    0    0 -0.22572153068E+02  0.31568099895E+02  0.29909702090E+02  0.48996298883E+02  0.00000000000E+00 0.  1.
         11    1    4    4    0    0 -0.15870917383E+03  0.24770465688E+02 -0.20552348741E+02  0.16194004096E+03  0.00000000000E+00 0. -1.
         21    1    1    2  502  501  0.11127661628E+02  0.37152471887E+02  0.14311954410E+02  0.41339606428E+02  0.00000000000E+00 0.  1.
<scales pt_clust_5="13000.00000" pt_clust_6="13000.00000" pt_clust_7="13000.00000" pt_clust_8="13000.00000" pt_clust_9="38.78313"></scales>
<clustering>
<clus scale="   38.783">  1  9  2 -1</clus>
<clus scale="   91.444">  5  6 -1 -1</clus>
<clus scale="   91.486">  7  8 -1 -1</clus>
<clus scale="  211.268">  1  5  2 -1</clus>
<clus scale="  211.286">  2  5  1 -1</clus>
</clustering>
</event>
<event>
 9    1  0.1782981E-005  0.1334012E+03  0.7546771E-02  0.1236526E+00
          1   -1    0    0  502    0  0.00000000000E+00  0.00000000000E+00  0.23475082159E+03  0.23475082159E+03  0.00000000000E+00 0. -1.
         -1   -1    0    0    0  501 -0.00000000000E+00 -0.00000000000E+00 -0.88826918239E+02  0.88826918239E+02  0.00000000000E+00 0.  1.
         23    2    1    2    0    0  0.15421457685E+02  0.48366184509E+02  0.10488042074E+02  0.13733640408E+03  0.12717774844E+03 0.  0.
         23    2    1    2    0    0 -0.21508848537E+02 -0.17528455905E+02  0.91583558589E+02  0.13228722299E+03  0.91337198499E+02 0.  0.
        -11    1    3    3    0    0  0.29075308466E+02  0.88588082354E+02 -0.13294576902E+01  0.93246926787E+02  0.00000000000E+00 0. -1.
         11    1    3    3    0    0 -0.13653850782E+02 -0.40221897845E+02  0.11817499764E+02  0.44089477295E+02  0.00000000000E+00 0.  1.
        -11    1    4    4    0    0 -0.56943502762E+02 -0.28722323577E+01  0.57658290018E+02  0.81088165803E+02  0.00000000000E+00 0.  1.
         11    1    4    4    0    0  0.35434654225E+02 -0.14656223547E+02  0.33925268571E+02  0.51199057182E+02  0.00000000000E+00 0. -1.
         21    1    1    2  502  501  0.60873908519E+01 -0.30837728604E+02  0.43852302688E+02  0.53954112761E+02  0.00000000000E+00 0.  1.
<scales pt_clust_5="13000.00000" pt_clust_6="13000.00000" pt_clust_7="13000.00000" pt_clust_8="13000.00000" pt_clust_9="31.43281"></scales>
<clustering>
<clus scale="   31.433">  1  9  2 -1</clus>
<clus scale="   91.337">  7  8 -1 -1</clus>
<clus scale="   99.821">  1  7  2 -1</clus>
<clus scale="  127.178">  5  6 -1 -1</clus>
<clus scale="   31.433">  1  5  2 -1</clus>
</clustering>
</event>
<event>
 9    1  0.1782981E-005  0.9513213E+02  0.7546771E-02  0.1295428E+00
         -2   -1    0    0    0  501 -0.00000000000E+00  0.00000000000E+00  0.61125937546E+02  0.61125937546E+02  0.00000000000E+00 0.  1.
          2   -1    0    0  502    0  0.00000000000E+00 -0.00000000000E+00 -0.31481549057E+03  0.31481549057E+03  0.00000000000E+00 0. -1.
         23    2    1    2    0    0  0.52879658241E+01 -0.90729253168E+01 -0.38976323145E+02  0.10268595805E+03  0.94419127604E+02 0.  0.
         23    2    1    2    0    0 -0.11570641054E+02 -0.26701987639E+02 -0.49159825887E+02  0.10376433172E+03  0.86622584690E+02 0.  0.
        -13    1    3    3    0    0  0.34780233039E+02  0.28392241760E+02 -0.30449440793E+02  0.54248985677E+02  0.00000000000E+00 0.  1.
         13    1    3    3    0    0 -0.29492267215E+02 -0.37465167077E+02 -0.85268823519E+01  0.48436972368E+02  0.00000000000E+00 0. -1.
        -13    1    4    4    0    0  0.37762012240E+02 -0.10828666233E+02 -0.17249002546E+02  0.42904051903E+02  0.00000000000E+00 0.  1.
         13    1    4    4    0    0 -0.49332653294E+02 -0.15873321405E+02 -0.31910823341E+02  0.60860279820E+02  0.00000000000E+00 0. -1.
         21    1    1    2  502  501  0.62826752294E+01  0.35774912955E+02 -0.16555340399E+03  0.16949113834E+03  0.00000000000E+00 0. -1.
<scales pt_clust_5="13000.00000" pt_clust_6="13000.00000" pt_clust_7="13000.00000" pt_clust_8="13000.00000" pt_clust_9="36.32240"></scales>
<clustering>
<clus scale="   36.322">  2  9  1 -1</clus>
<clus scale="   86.623">  7  8 -1 -1</clus>
<clus scale="   87.399">  2  7  1 -1</clus>
<clus scale="   94.419">  5  6 -1 -1</clus>
<clus scale="   36.322">  2  5  1 -1</clus>
</clustering>
</event>
<event>
 9    1  0.1782981E-005  0.1679396E+03  0.7546771E-02  0.1180335E+00
          1   -1    0    0  502    0  0.00000000000E+00  0.00000000000E+00  0.48758238075E+03  0.48758238075E+03  0.00000000000E+00 0. -1.
         -1   -1    0    0    0  501 -0.00000000000E+00 -0.00000000000E+00 -0.69482792279E+02  0.69482792279E+02  0.00000000000E+00 0.  1.
         23    2    1    2    0    0 -0.12631132865E+03 -0.24296089542E+02  0.15152950961E+03  0.21851781780E+03  0.90796435513E+02 0.  0.
         23    2    1    2    0    0  0.15198360578E+03  0.33634813739E+02  0.22903850438E+03  0.29212649067E+03  0.92999639479E+02 0.  0.
        -11    1    4    4    0    0  0.82636393876E+02  0.32129545378E+02  0.19636309361E+03  0.21545195708E+03  0.00000000000E+00 0. -1.
         11    1    4    4    0    0  0.69347211908E+02  0.15052683606E+01  0.32675410765E+02  0.76674533588E+02  0.00000000000E+00 0.  1.
        -13    1    3    3    0    0 -0.11127055227E+02  0.27873717690E+02  0.20007373056E+02  0.36070077245E+02  0.00000000000E+00 0. -1.
         13    1    3    3    0    0 -0.11518427342E+03 -0.52169807232E+02  0.13152213655E+03  0.18244774056E+03  0.00000000000E+00 0.  1.
         21    1    1    2  502  501 -0.25672277132E+02 -0.93387241965E+01  0.37531574492E+02  0.46420864561E+02  0.00000000000E+00 0. -1.
<scales pt_clust_5="13000.00000" pt_clust_6="13000.00000" pt_clust_7="13000.00000" pt_clust_8="13000.00000" pt_clust_9="27.31808"></scales>
<clustering>
<clus scale="   27.318">  1  9  2 -1</clus>
<clus scale="   90.796">  7  8 -1 -1</clus>
<clus scale="   93.000">  5  6 -1 -1</clus>
<clus scale="  166.730">  2  7  1 -1</clus>
<clus scale="   27.318">  1  5  2 -1</clus>
</clustering>
</event>
<event>
 9    1  0.1782981E-005  0.1259674E+03  0.7546771E-02  0.1237472E+00
         -1   -1    0    0    0  501 -0.00000000000E+00  0.00000000000E+00  0.10459630252E+03  0.10459630252E+03  0.00000000000E+00 0.  1.
          1   -1    0    0  502    0  0.00000000000E+00 -0.00000000000E+00 -0.60436808644E+03  0.60436808644E+03  0.00000000000E+00 0. -1.
         23    2    1    2    0    0 -0.82480883364E+01 -0.70885580499E+02  0.41525913774E+02  0.13004703032E+03  0.10047403693E+03 0.  0.
         23    2    1    2    0    0 -0.17353465848E+02  0.10868531826E+03 -0.27794581205E+03  0.31163758869E+03  0.88036759734E+02 0.  0.
        -11    1    3    3    0    0 -0.50432038976E+02 -0.20763816975E+02  0.43247288780E+01  0.54710418848E+02  0.00000000000E+00 0.  1.
         11    1    3    3    0    0  0.42183950640E+02 -0.50121763524E+02  0.37201184896E+02  0.75336611472E+02  0.00000000000E+00 0. -1.
        -13    1    4    4    0    0  0.26705492528E+02  0.22385839972E+02 -0.13149488533E+03  0.13603387089E+03  0.00000000000E+00 0. -1.
         13    1    4    4    0    0 -0.44058958375E+02  0.86299478287E+02 -0.14645092672E+03  0.17560371780E+03  0.00000000000E+00 0.  1.
         21    1    1    2  502  501  0.25601554184E+02 -0.37799737760E+02 -0.26335188564E+03  0.26727976995E+03  0.00000000000E+00 0. -1.
<scales pt_clust_5="13000.00000" pt_clust_6="13000.00000" pt_clust_7="13000.00000" pt_clust_8="13000.00000" pt_clust_9="45.65369"></scales>
<clustering>
<clus scale="   45.654">  2  9  1 -1</clus>
<clus scale="   88.037">  7  8 -1 -1</clus>
<clus scale="  100.474">  5  6 -1 -1</clus>
<clus scale="  116.289">  2  7  1 -1</clus>
<clus scale="   45.654">  2  5  1 -1</clus>
</clustering>
</event>
<event>
 9    1  0.1782981E-005  0.9361957E+02  0.7546771E-02  0.1295306E+00
          1   -1    0    0  502    0  0.00000000000E+00  0.00000000000E+00  0.62811223823E+03  0.62811223823E+03  0.00000000000E+00 0. -1.
         -1   -1    0    0    0  501 -0.00000000000E+00 -0.00000000000E+00 -0.18954800128E+02  0.18954800128E+02  0.00000000000E+00 0.  1.
         23    2    1    2    0    0 -0.62856515212E+00 -0.11371416145E+02  0.17934007119E+03  0.20119516790E+03  0.90481656982E+02 0.  0.
         23    2    1    2    0    0 -0.17617163240E+02  0.21196687346E+02  0.32180981691E+03  0.33589426631E+03  0.92215703020E+02 0.  0.
        -11    1    3    3    0    0 -0.30308644713E+02 -0.18882040861E+00  0.14991472388E+02  0.33814107142E+02  0.00000000000E+00 0.  1.
         11    1    3    3    0    0  0.29680079561E+02 -0.11182595737E+02  0.16434859880E+03  0.16738106075E+03  0.00000000000E+00 0. -1.
        -13    1    4    4    0    0 -0.52423874818E+02  0.59661387688E+01  0.12893266397E+03  0.13931076520E+03  0.00000000000E+00 0.  1.
         13    1    4    4    0    0  0.34806711577E+02  0.15230548577E+02  0.19287715294E+03  0.19658350110E+03  0.00000000000E+00 0. -1.
         21    1    1    2  502  501  0.18245728392E+02 -0.98252712007E+01  0.10800755000E+03  0.10997760416E+03  0.00000000000E+00 0. -1.
<scales pt_clust_5="13000.00000" pt_clust_6="13000.00000" pt_clust_7="13000.00000" pt_clust_8="13000.00000" pt_clust_9="20.72300"></scales>
<clustering>
<clus scale="   20.723">  1  9  2 -1</clus>
<clus scale="   90.482">  5  6 -1 -1</clus>
<clus scale="   91.912">  2  5  1 -1</clus>
<clus scale="   92.216">  7  8 -1 -1</clus>
<clus scale="   20.723">  1  5  2 -1</clus>
</clustering>
</event>
<event>
 9    1  0.1782981E-005  0.1249557E+03  0.7546771E-02  0.1250134E+00
         -2   -1    0    0    0  501 -0.00000000000E+00  0.00000000000E+00  0.13922146762E+03  0.13922146762E+03  0.00000000000E+00 0.  1.
          2   -1    0    0  502    0  0.00000000000E+00 -0.00000000000E+00 -0.32320893620E+03  0.32320893620E+03  0.00000000000E+00 0. -1.
         23    2    1    2    0    0 -0.17401030491E+01 -0.15398384758E+02  0.89951073385E+02  0.15435136242E+03  0.12447091735E+03 0.  0.
         23    2    1    2    0    0 -0.26843630948E+02 -0.17834832760E+02 -0.18689425187E+03  0.21062040899E+03  0.91612409194E+02 0.  0.
        -11    1    4    4    0    0 -0.16017964966E+01 -0.49999766217E+02 -0.64807903261E+02  0.81869449118E+02  0.00000000000E+00 0.  1.
         11    1    4    4    0    0 -0.25241834451E+02  0.32164933458E+02 -0.12208634861E+03  0.12875095987E+03  0.00000000000E+00 0. -1.
        -13    1    3    3    0    0 -0.22177499197E+02 -0.42853341146E+02  0.10606229553E+03  0.11652236202E+03  0.00000000000E+00 0.  1.
         13    1    3    3    0    0  0.20437396148E+02  0.27454956388E+02 -0.16111222148E+02  0.37829000392E+02  0.00000000000E+00 0. -1.
         21    1    1    2  502  501  0.28583733997E+02  0.33233217518E+02 -0.87044290091E+02  0.97458632421E+02  0.00000000000E+00 0.  1.
<scales pt_clust_5="13000.00000" pt_clust_6="13000.00000" pt_clust_7="13000.00000" pt_clust_8="13000.00000" pt_clust_9="43.83465"></scales>
<clustering>
<clus scale="   43.835">  2  9  1 -1</clus>
<clus scale="   91.612">  5  6 -1 -1</clus>
<clus scale="   92.270">  2  5  1 -1</clus>
<clus scale="  124.471">  7  8 -1 -1</clus>
<clus scale="   43.835">  2  5  1 -1</clus>
</clustering>
</event>
<event>
 9    1  0.1782981E-005  0.1885002E+03  0.7546771E-02  0.1161955E+00
          1   -1    0    0  502    0  0.00000000000E+00  0.00000000000E+00  0.36628896483E+03  0.36628896483E+03  0.00000000000E+00 0. -1.
         -1   -1    0    0    0  501 -0.00000000000E+00 -0.00000000000E+00 -0.10636587437E+03  0.10636587437E+03  0.00000000000E+00 0.  1.
         23    2    1    2    0    0  0.63239218493E+02 -0.13180393090E+03  0.10738390676E+03  0.20219314424E+03  0.89326867119E+02 0.  0.
         23    2    1    2    0    0 -0.61390517417E+02  0.15474388321E+03  0.12205081655E+03  0.23226222325E+03  0.10646536296E+03 0.  0.
        -11    1    3    3    0    0  0.78264645056E+02 -0.83438985121E+02  0.47777012068E+02  0.12397605328E+03  0.00000000000E+00 0.  1.
         11    1    3    3    0    0 -0.15025426563E+02 -0.48364945777E+02  0.59606894691E+02  0.78217090959E+02  0.00000000000E+00 0. -1.
        -13    1    4    4    0    0 -0.10299007200E+02  0.94173493599E+02  0.10335417282E+02  0.95297100146E+02  0.00000000000E+00 0.  1.
         13    1    4    4    0    0 -0.51091510217E+02  0.60570389615E+02  0.11171539927E+03  0.13696512311E+03  0.00000000000E+00 0. -1.
         21    1    1    2  502  501 -0.18487010760E+01 -0.22939952316E+02  0.30488367145E+02  0.38199471712E+02  0.00000000000E+00 0.  1.
<scales pt_clust_5="13000.00000" pt_clust_6="13000.00000" pt_clust_7="13000.00000" pt_clust_8="13000.00000" pt_clust_9="23.01432"></scales>
<clustering>
<clus scale="   23.014">  1  9  2 -1</clus>
<clus scale="   89.327">  5  6 -1 -1</clus>
<clus scale="  106.465">  7  8 -1 -1</clus>
<clus scale="  179.379">  2  5  1 -1</clus>
<clus scale="   23.014">  1  5  2 -1</clus>
</clustering>
</event>
<event>
 9    1  0.1782981E-005  0.3305196E+03  0.7546771E-02  0.1071219E+00
          1   -1    0    0  502    0  0.00000000000E+00  0.00000000000E+00  0.92239922978E+03  0.92239922978E+03  0.00000000000E+00 0. -1.
         -1   -1    0    0    0  501 -0.00000000000E+00 -0.00000000000E+00 -0.30481646522E+03  0.30481646522E+03  0.00000000000E+00 0.  1.
         23    2    1    2    0    0 -0.22216909516E+03 -0.12054043238E+03  0.86734193580E+02  0.28256811187E+03  0.91830358967E+02 0.  0.
         23    2    1    2    0    0  0.33220232602E+03  0.19747235743E+03 -0.22566618937E+01  0.39489580069E+03  0.81141133352E+02 0.  0.
        -11    1    4    4    0    0  0.12430772022E+03  0.68405072987E+02  0.38045229171E+02  0.14689827357E+03  0.00000000000E+00 0. -1.
         11    1    4    4    0    0  0.20789460580E+03  0.12906728444E+03 -0.40301891065E+02  0.24799752712E+03  0.00000000000E+00 0.  1.
        -11    1    3    3    0    0 -0.35241358166E+02  0.13644070436E+02  0.21125234464E+02  0.43294220337E+02  0.00000000000E+00 0.  1.
         11    1    3    3    0    0 -0.18692773700E+03 -0.13418450281E+03  0.65608959117E+02  0.23927389153E+03  0.00000000000E+00 0. -1.
         21    1    1    2  502  501 -0.11003323085E+03 -0.76931925053E+02  0.53310523286E+03  0.54975178244E+03  0.00000000000E+00 0. -1.
<scales pt_clust_5="13000.00000" pt_clust_6="13000.00000" pt_clust_7="13000.00000" pt_clust_8="13000.00000" pt_clust_9="134.26032"></scales>
<clustering>
<clus scale="   81.141">  5  6 -1 -1</clus>
<clus scale="   91.830">  7  8 -1 -1</clus>
<clus scale="  134.260">  1  9  2 -1</clus>
<clus scale="  327.711">  1  5  2 -1</clus>
<clus scale="  134.260">  1  5  2 -1</clus>
</clustering>
</event>
<event>
 9    1  0.1782981E-005  0.1105058E+03  0.7546771E-02  0.1259964E+00
          1   -1    0    0  502    0  0.00000000000E+00  0.00000000000E+00  0.24856158769E+03  0.24856158769E+03  0.00000000000E+00 0. -1.
         -1   -1    0    0    0  501 -0.00000000000E+00 -0.00000000000E+00 -0.11212647684E+03  0.11212647684E+03  0.00000000000E+00 0.  1.
         23    2    1    2    0    0 -0.31095855882E+02 -0.60127530511E+02 -0.36689692760E+02  0.11911877883E+03  0.90889370871E+02 0.  0.
         23    2    1    2    0    0  0.54561905057E+02  0.20192551683E+02  0.71969813893E+02  0.13031376924E+03  0.91745755836E+02 0.  0.
        -11    1    3    3    0    0  0.18614142538E+02 -0.47131561349E+02 -0.44137443086E+02  0.67201073353E+02  0.00000000000E+00 0.  1.
         11    1    3    3    0    0 -0.49709998420E+02 -0.12995969163E+02  0.74477503262E+01  0.51917705480E+02  0.00000000000E+00 0. -1.
        -13    1    4    4    0    0 -0.86595132792E+01  0.28564635606E+02  0.57700360630E+02  0.64963506636E+02  0.00000000000E+00 0. -1.
         13    1    4    4    0    0  0.63221418336E+02 -0.83720839225E+01  0.14269453263E+02  0.65350262601E+02  0.00000000000E+00 0.  1.
         21    1    1    2  502  501 -0.23466049175E+02  0.39934978828E+02  0.10115498972E+03  0.11125551646E+03  0.00000000000E+00 0. -1.
<scales pt_clust_5="13000.00000" pt_clust_6="13000.00000" pt_clust_7="13000.00000" pt_clust_8="13000.00000" pt_clust_9="46.31909"></scales>
<clustering>
<clus scale="   46.319">  1  9  2 -1</clus>
<clus scale="   90.889">  5  6 -1 -1</clus>
<clus scale="   91.746">  7  8 -1 -1</clus>
<clus scale="  109.796">  2  5  1 -1</clus>
<clus scale="   46.319">  1  5  2 -1</clus>
</clustering>
</event>
<event>
 9    1  0.1782981E-005  0.1732619E+03  0.7546771E-02  0.1174569E+00
          1   -1    0    0  502    0  0.00000000000E+00  0.00000000000E+00  0.14321591325E+03  0.14321591325E+03  0.00000000000E+00 0. -1.
         -1   -1    0    0    0  501 -0.00000000000E+00 -0.00000000000E+00 -0.40139707560E+03  0.40139707560E+03  0.00000000000E+00 0.  1.
         23    2    1    2    0    0  0.95099464717E+00 -0.15221823742E+03 -0.26225888586E+03  0.31661210377E+03  0.91061544281E+02 0.  0.
         23    2    1    2    0    0 -0.53039762894E+02  0.13105954997E+03 -0.15282927991E+02  0.16853858898E+03  0.90453667694E+02 0.  0.
        -11    1    3    3    0    0 -0.33263698812E+02 -0.12604455142E+03 -0.16532769413E+03  0.21053966146E+03  0.00000000000E+00 0.  1.
         11    1    3    3    0    0  0.34214693459E+02 -0.26173685997E+02 -0.96931191725E+02  0.10607244230E+03  0.00000000000E+00 0. -1.
        -13    1    4    4    0    0  0.22905424939E+02  0.28666951934E+02  0.11136574766E+02  0.38346785033E+02  0.00000000000E+00 0. -1.
         13    1    4    4    0    0 -0.75945187833E+02  0.10239259804E+03 -0.26419502757E+02  0.13019180394E+03  0.00000000000E+00 0.  1.
         21    1    1    2  502  501  0.52088768247E+02  0.21158687445E+02  0.19360651497E+02  0.59462296106E+02  0.00000000000E+00 0.  1.
<scales pt_clust_5="13000.00000" pt_clust_6="13000.00000" pt_clust_7="13000.00000" pt_clust_8="13000.00000" pt_clust_9="56.22215"></scales>
<clustering>
<clus scale="   56.222">  1  9  2 -1</clus>
<clus scale="   90.454">  7  8 -1 -1</clus>
<clus scale="   91.062">  5  6 -1 -1</clus>
<clus scale="  172.943">  1  7  2 -1</clus>
<clus scale="   56.222">  1  5  2 -1</clus>
</clustering>
</event>
<event>
 9    1  0.1782981E-005  0.3217209E+03  0.7546771E-02  0.1112550E+00
          1   -1    0    0  502    0  0.00000000000E+00  0.00000000000E+00  0.11083388982E+04  0.11083388982E+04  0.00000000000E+00 0. -1.
         -1   -1    0    0    0  501 -0.00000000000E+00 -0.00000000000E+00 -0.19189953615E+03  0.19189953615E+03  0.00000000000E+00 0.  1.
         23    2    1    2    0    0 -0.17572590689E+02  0.62509818058E+02  0.33209879689E+02  0.12409787794E+03  0.10040475040E+03 0.  0.
         23    2    1    2    0    0  0.31088630899E+03 -0.46256596973E+02  0.80981195891E+03  0.87334155163E+03  0.90222431449E+02 0.  0.
        -11    1    4    4    0    0  0.81603161566E+02 -0.14814429224E+02  0.12103730570E+03  0.14672618261E+03  0.00000000000E+00 0.  1.
         11    1    4    4    0    0  0.22928314743E+03 -0.31442167749E+02  0.68877465321E+03  0.72661536903E+03  0.00000000000E+00 0. -1.
        -11    1    3    3    0    0  0.53036205892E+01  0.82193277916E+02  0.45673715429E+01  0.82490752262E+02  0.00000000000E+00 0.  1.
         11    1    3    3    0    0 -0.22876211279E+02 -0.19683459858E+02  0.28642508147E+02  0.41607125680E+02  0.00000000000E+00 0. -1.
         21    1    1    2  502  501 -0.29331371830E+03 -0.16253221085E+02  0.73417523460E+02  0.30279900477E+03  0.00000000000E+00 0.  1.
<scales pt_clust_5="13000.00000" pt_clust_6="13000.00000" pt_clust_7="13000.00000" pt_clust_8="13000.00000" pt_clust_9="308.81104"></scales>
<clustering>
<clus scale="   90.222">  5  6 -1 -1</clus>
<clus scale="  100.405">  7  8 -1 -1</clus>
<clus scale="  119.572">  2  7  1 -1</clus>
<clus scale="  308.811">  2  9  1 -1</clus>
<clus scale="  321.721">  1  5  2 -1</clus>
</clustering>
</event>
<event>
 9    1  0.1782981E-005  0.1440871E+03  0.7546771E-02  0.1208025E+00
         -2   -1    0    0    0  501 -0.00000000000E+00  0.00000000000E+00  0.36497891244E+03  0.36497891244E+03  0.00000000000E+00 0.  1.
          2   -1    0    0  502    0  0.00000000000E+00 -0.00000000000E+00 -0.97193534945E+02  0.97193534945E+02  0.00000000000E+00 0. -1.
         23    2    1    2    0    0  0.80230704082E+02 -0.19459445368E+01  0.20861598143E+03  0.24105459147E+03  0.90254837989E+02 0.  0.
         23    2    1    2    0    0 -0.12255910876E+03  0.14459489890E+02  0.77550712636E+01  0.15335565810E+03  0.90708349962E+02 0.  0.
        -13    1    4    4    0    0 -0.83065302056E+02  0.85925671514E+01 -0.38750859692E+02  0.92061423749E+02  0.00000000000E+00 0. -1.
         13    1    4    4    0    0 -0.39493806700E+02  0.58669227390E+01  0.46505930955E+02  0.61294234346E+02  0.00000000000E+00 0.  1.
        -13    1    3    3    0    0  0.78356823773E+02 -0.35328633126E+02  0.16554690098E+03  0.18653064246E+03  0.00000000000E+00 0.  1.
         13    1    3    3    0    0  0.18738803093E+01  0.33382688589E+02  0.43069080449E+02  0.54523949009E+02  0.00000000000E+00 0. -1.
         21    1    1    2  502  501  0.42328404673E+02 -0.12513545354E+02  0.51414324798E+02  0.67762197824E+02  0.00000000000E+00 0.  1.
<scales pt_clust_5="13000.00000" pt_clust_6="13000.00000" pt_clust_7="13000.00000" pt_clust_8="13000.00000" pt_clust_9="44.13935"></scales>
<clustering>
<clus scale="   44.139">  1  9  2 -1</clus>
<clus scale="   90.255">  7  8 -1 -1</clus>
<clus scale="   90.708">  5  6 -1 -1</clus>
<clus scale="  143.802">  1  7  2 -1</clus>
<clus scale="  144.087">  2  5  1 -1</clus>
</clustering>
</event>
