<event>
 9    1  0.3303741E-006  0.1856010E+03  0.7546771E-02  0.1186165E+00
          1   -1    0    0  502    0 -0.00000000000E+00  0.00000000000E+00  0.26246650937E+03  0.26246650937E+03  0.00000000000E+00 0. -1.
         21   -1    0    0  501  502  0.00000000000E+00 -0.00000000000E+00 -0.91261291178E+02  0.91261291178E+02  0.00000000000E+00 0. -1.
         23    2    1    2    0    0  0.56515766900E+02  0.34390751748E+01  0.11886167373E+03  0.16088694628E+03  0.92469740208E+02 0.  0.
         23    2    1    2    0    0 -0.21721622682E+02 -0.25380906658E+02  0.92496089294E+02  0.13535778462E+03  0.93006365415E+02 0.  0.
        -11    1    3    3    0    0  0.61460065723E+02  0.34726355386E+02  0.10449653194E+03  0.12610624340E+03  0.00000000000E+00 0. -1.
         11    1    3    3    0    0 -0.49442988237E+01 -0.31287280211E+02  0.14365141788E+02  0.34780702875E+02  0.00000000000E+00 0.  1.
        -11    1    4    4    0    0  0.33934958107E+02 -0.24668397823E+02  0.50364881239E+02  0.65549466017E+02  0.00000000000E+00 0. -1.
         11    1    4    4    0    0 -0.55656580789E+02 -0.71250883488E+00  0.42131208055E+02  0.69808318603E+02  0.00000000000E+00 0.  1.
          1    1    1    2  501    0 -0.34794144218E+02  0.21941831483E+02 -0.40152544828E+02  0.57483069654E+02  0.00000000000E+00 0. -1.
<scales pt_clust_5="13000.00000" pt_clust_6="13000.00000" pt_clust_7="13000.00000" pt_clust_8="13000.00000" pt_clust_9="13000.00000"></scales>
<clustering>
<clus scale="   92.470">  5  6 -1 -1</clus>
<clus scale="   93.006">  7  8 -1 -1</clus>
<clus scale="   41.135">  7  9 -1 -1</clus>
<clus scale="  108.427">  1  5  2 -1</clus>
<clus scale="  185.601">  2  5  1 -1</clus>
</clustering>
</event>
<event>
 9    1  0.3303741E-006  0.1986275E+03  0.7546771E-02  0.1181329E+00
         -4   -1    0    0    0  501 -0.00000000000E+00  0.00000000000E+00  0.33053882507E+02  0.33053882507E+02  0.00000000000E+00 0.  1.
         21   -1    0    0  501  502  0.00000000000E+00 -0.00000000000E+00 -0.68086662888E+03  0.68086662888E+03  0.00000000000E+00 0. -1.
         23    2    1    2    0    0  0.41175621748E+02  0.32109507057E+01 -0.26321799748E+03  0.28106257005E+03  0.89480232772E+02 0.  0.
         23    2    1    2    0    0 -0.71370705100E+02  0.37987269426E+02 -0.35196560518E+03  0.37224690752E+03  0.90283790027E+02 0.  0.
        -13    1    3    3    0    0  0.53752441489E+02  0.30271417076E+02 -0.12181372237E+03  0.13654400981E+03  0.00000000000E+00 0.  1.
         13    1    3    3    0    0 -0.12576819741E+02 -0.27060466370E+02 -0.14140427511E+03  0.14451856024E+03  0.00000000000E+00 0. -1.
        -13    1    4    4    0    0 -0.22084566326E+02  0.61919205770E+02 -0.21118717078E+03  0.22118258795E+03  0.00000000000E+00 0. -1.
         13    1    4    4    0    0 -0.49286138774E+02 -0.23931936343E+02 -0.14077843440E+03  0.15106431956E+03  0.00000000000E+00 0.  1.
         -4    1    1    2    0  502  0.30195083352E+02 -0.41198220132E+02 -0.32629143710E+02  0.60611033814E+02  0.00000000000E+00 0.  1.
<scales pt_clust_5="13000.00000" pt_clust_6="13000.00000" pt_clust_7="13000.00000" pt_clust_8="13000.00000" pt_clust_9="13000.00000"></scales>
<clustering>
<clus scale="   89.480">  5  6 -1 -1</clus>
<clus scale="   90.284">  7  8 -1 -1</clus>
<clus scale="   51.079">  7  9 -1 -1</clus>
<clus scale="   98.552">  1  5  2 -1</clus>
<clus scale="  198.627">  2  5  1 -1</clus>
</clustering>
</event>
<event>
 9    1  0.3303741E-006  0.1315537E+03  0.7546771E-02  0.1238369E+00
         21   -1    0    0  501  502  0.00000000000E+00  0.00000000000E+00  0.26573851180E+02  0.26573851180E+02  0.00000000000E+00 0. -1.
         -2   -1    0    0    0  501 -0.00000000000E+00 -0.00000000000E+00 -0.54126529151E+03  0.54126529151E+03  0.00000000000E+00 0.  1.
         23    2    1    2    0    0  0.39360728053E+02  0.15873996914E+02 -0.15251359784E+03  0.18250919041E+03  0.90818260096E+02 0.  0.
         23    2    1    2    0    0 -0.11649067563E+02 -0.21487930597E+02 -0.32611794180E+03  0.33950671782E+03  0.91183702186E+02 0.  0.
        -11    1    4    4    0    0 -0.34242683545E+02  0.24694384779E+02 -0.16886743702E+03  0.17406488820E+03  0.00000000000E+00 0.  1.
         11    1    4    4    0    0  0.22593615982E+02 -0.46182315376E+02 -0.15725050478E+03  0.16544182963E+03  0.00000000000E+00 0. -1.
        -11    1    3    3    0    0  0.59453135172E+02  0.33361237388E+02 -0.13311715957E+03  0.14955876976E+03  0.00000000000E+00 0. -1.
         11    1    3    3    0    0 -0.20092407118E+02 -0.17487240474E+02 -0.19396438280E+02  0.32950420652E+02  0.00000000000E+00 0.  1.
         -2    1    1    2    0  502 -0.27711660490E+02  0.56139336836E+01 -0.36059900681E+02  0.45823234452E+02  0.00000000000E+00 0.  1.
<scales pt_clust_5="13000.00000" pt_clust_6="13000.00000" pt_clust_7="13000.00000" pt_clust_8="13000.00000" pt_clust_9="13000.00000"></scales>
<clustering>
<clus scale="   90.818">  7  8 -1 -1</clus>
<clus scale="   91.184">  5  6 -1 -1</clus>
<clus scale="   28.275">  5  9 -1 -1</clus>
<clus scale="  100.246">  2  7  1 -1</clus>
<clus scale="  131.554">  1  5  2 -1</clus>
</clustering>
</event>
<event>
 9    1  0.3303741E-006  0.1333771E+03  0.7546771E-02  0.1236041E+00
         -1   -1    0    0    0  501 -0.00000000000E+00  0.00000000000E+00  0.11352426859E+03  0.11352426859E+03  0.00000000000E+00 0.  1.
         21   -1    0    0  501  502  0.00000000000E+00 -0.00000000000E+00 -0.20877338120E+03  0.20877338120E+03  0.00000000000E+00 0.  1.
         23    2    1    2    0    0  0.13510532422E+02 -0.12687359878E+02  0.60201625811E+02  0.11746998349E+03  0.99153707363E+02 0.  0.
         23    2    1    2    0    0 -0.45754420052E+02  0.87111240728E+01 -0.10230340738E+03  0.14253707682E+03  0.87644055534E+02 0.  0.
        -11    1    3    3    0    0 -0.39209647614E+02  0.69217660903E+01  0.77559404031E+01  0.40564293699E+02  0.00000000000E+00 0. -1.
         11    1    3    3    0    0  0.52720180036E+02 -0.19609125968E+02  0.52445685408E+02  0.76905689790E+02  0.00000000000E+00 0.  1.
        -13    1    4    4    0    0 -0.83761159471E+01  0.31969632359E+02 -0.91388127180E+02  0.97180278354E+02  0.00000000000E+00 0. -1.
         13    1    4    4    0    0 -0.37378304105E+02 -0.23258508286E+02 -0.10915280202E+02  0.45356798469E+02  0.00000000000E+00 0.  1.
         -1    1    1    2    0  502  0.32243887630E+02  0.39762358050E+01 -0.53147331035E+02  0.62290589472E+02  0.00000000000E+00 0.  1.
<scales pt_clust_5="13000.00000" pt_clust_6="13000.00000" pt_clust_7="13000.00000" pt_clust_8="13000.00000" pt_clust_9="13000.00000"></scales>
<clustering>
<clus scale="   87.644">  7  8 -1 -1</clus>
<clus scale="   32.488">  7  9 -1 -1</clus>
<clus scale="   99.154">  5  6 -1 -1</clus>
<clus scale="  100.871">  1  5  2 -1</clus>
<clus scale="  133.377">  2  5  1 -1</clus>
</clustering>
</event>
<event>
 9    1  0.3303741E-006  0.1794152E+03  0.7546771E-02  0.1195259E+00
         21   -1    0    0  501  502  0.00000000000E+00  0.00000000000E+00  0.66704779403E+03  0.66704779403E+03  0.00000000000E+00 0.  1.
          2   -1    0    0  502    0 -0.00000000000E+00 -0.00000000000E+00 -0.31451760498E+02  0.31451760498E+02  0.00000000000E+00 0. -1.
         23    2    1    2    0    0  0.24125761476E+02  0.15819489076E+02  0.13668077586E+03  0.16830500719E+03  0.93875621727E+02 0.  0.
         23    2    1    2    0    0  0.76349413199E+01  0.21381142270E+02  0.16036412805E+03  0.18812803833E+03  0.95708200629E+02 0.  0.
        -11    1    3    3    0    0 -0.14877190751E+02 -0.28211139330E+02  0.82038073377E+02  0.88019569814E+02  0.00000000000E+00 0.  1.
         11    1    3    3    0    0  0.39002952226E+02  0.44030628406E+02  0.54642702484E+02  0.80285437377E+02  0.00000000000E+00 0. -1.
        -13    1    4    4    0    0  0.17590797023E+02 -0.20440401758E+02  0.13613465881E+03  0.13878001115E+03  0.00000000000E+00 0.  1.
         13    1    4    4    0    0 -0.99558557035E+01  0.41821544028E+02  0.24229469241E+02  0.49348027188E+02  0.00000000000E+00 0. -1.
          2    1    1    2  501    0 -0.31760702795E+02 -0.37200631345E+02  0.33855112962E+03  0.34206650900E+03  0.00000000000E+00 0. -1.
<scales pt_clust_5="13000.00000" pt_clust_6="13000.00000" pt_clust_7="13000.00000" pt_clust_8="13000.00000" pt_clust_9="13000.00000"></scales>
<clustering>
<clus scale="   93.876">  5  6 -1 -1</clus>
<clus scale="   95.708">  7  8 -1 -1</clus>
<clus scale="   48.915">  7  9 -1 -1</clus>
<clus scale="   98.209">  2  5  1 -1</clus>
<clus scale="  179.415">  1  5  2 -1</clus>
</clustering>
</event>
<event>
 9    1  0.3303741E-006  0.4753563E+03  0.7546771E-02  0.1073433E+00
         21   -1    0    0  501  502  0.00000000000E+00  0.00000000000E+00  0.54856194077E+03  0.54856194077E+03  0.00000000000E+00 0.  1.
         -1   -1    0    0    0  501 -0.00000000000E+00 -0.00000000000E+00 -0.15396342617E+03  0.15396342617E+03  0.00000000000E+00 0.  1.
         23    2    1    2    0    0 -0.40537799990E+02 -0.81740830261E+01  0.48198548169E+02  0.11434465528E+03  0.95086651451E+02 0.  0.
         23    2    1    2    0    0 -0.82835260227E+02  0.11197805933E+03 -0.41413595490E+02  0.16818602562E+03  0.84679910336E+02 0.  0.
        -13    1    4    4    0    0 -0.60128856406E+02  0.10325123736E+03 -0.63517935539E+02  0.13531749896E+03  0.00000000000E+00 0.  1.
         13    1    4    4    0    0 -0.22706403822E+02  0.87268219773E+01  0.22104340049E+02  0.32868526668E+02  0.00000000000E+00 0. -1.
        -13    1    3    3    0    0 -0.21651220304E+02  0.42932425101E+02  0.31000593092E+02  0.57210184738E+02  0.00000000000E+00 0.  1.
         13    1    3    3    0    0 -0.18886579686E+02 -0.51106508128E+02  0.17197955077E+02  0.57134470542E+02  0.00000000000E+00 0. -1.
         -1    1    1    2    0  502  0.12337306022E+03 -0.10380397631E+03  0.38781356192E+03  0.41999468603E+03  0.00000000000E+00 0.  1.
<scales pt_clust_5="13000.00000" pt_clust_6="13000.00000" pt_clust_7="13000.00000" pt_clust_8="13000.00000" pt_clust_9="13000.00000"></scales>
<clustering>
<clus scale="   84.680">  5  6 -1 -1</clus>
<clus scale="   95.087">  7  8 -1 -1</clus>
<clus scale="  103.690">  2  7  1 -1</clus>
<clus scale="  157.864">  5  9 -1 -1</clus>
<clus scale="  475.356">  1  5  2 -1</clus>
</clustering>
</event>
<event>
 9    1  0.3303741E-006  0.4516564E+03  0.7546771E-02  0.1043462E+00
         21   -1    0    0  501  502  0.00000000000E+00  0.00000000000E+00  0.35909827424E+03  0.35909827424E+03  0.00000000000E+00 0. -1.
          1   -1    0    0  502    0 -0.00000000000E+00 -0.00000000000E+00 -0.49882528783E+03  0.49882528783E+03  0.00000000000E+00 0. -1.
         23    2    1    2    0    0 -0.23773858141E+03 -0.11520079883E+03 -0.26853438601E+03  0.38825898757E+03  0.94039714067E+02 0.  0.
         23    2    1    2    0    0  0.90902228681E+02 -0.10822646986E+03 -0.97342397675E+01  0.16854261053E+03  0.91299902421E+02 0.  0.
        -13    1    4    4    0    0 -0.12963527922E+02 -0.31536499644E+02  0.14716953269E+02  0.37137482137E+02  0.00000000000E+00 0. -1.
         13    1    4    4    0    0  0.10386575660E+03 -0.76689970219E+02 -0.24451193036E+02  0.13140512839E+03  0.00000000000E+00 0.  1.
        -13    1    3    3    0    0 -0.14479504515E+03 -0.10365051306E+03 -0.21915987637E+03  0.28238287018E+03  0.00000000000E+00 0.  1.
         13    1    3    3    0    0 -0.92943536251E+02 -0.11550285764E+02 -0.49374509638E+02  0.10587611739E+03  0.00000000000E+00 0. -1.
          1    1    1    2  501    0  0.14683635272E+03  0.22342726869E+03  0.13854161219E+03  0.30112196397E+03  0.00000000000E+00 0. -1.
<scales pt_clust_5="13000.00000" pt_clust_6="13000.00000" pt_clust_7="13000.00000" pt_clust_8="13000.00000" pt_clust_9="13000.00000"></scales>
<clustering>
<clus scale="   91.300">  5  6 -1 -1</clus>
<clus scale="   94.040">  7  8 -1 -1</clus>
<clus scale="  267.359">  5  9 -1 -1</clus>
<clus scale="  280.418">  2  7  1 -1</clus>
<clus scale="  451.656">  1  5  2 -1</clus>
</clustering>
</event>
<event>
 9    1  0.3303741E-006  0.2227925E+03  0.7546771E-02  0.1163073E+00
         21   -1    0    0  501  502  0.00000000000E+00  0.00000000000E+00  0.16304920459E+03  0.16304920459E+03  0.00000000000E+00 0. -1.
         -1   -1    0    0    0  501 -0.00000000000E+00 -0.00000000000E+00 -0.17369257530E+03  0.17369257530E+03  0.00000000000E+00 0.  1.
         23    2    1    2    0    0  0.52179668269E+02 -0.15601164387E+02  0.30526489214E+02  0.11017727475E+03  0.90780235832E+02 0.  0.
         23    2    1    2    0    0 -0.96763139987E+01  0.46796076745E+02 -0.10192725699E+03  0.14612123955E+03  0.93159793251E+02 0.  0.
        -11    1    3    3    0    0  0.15163472583E+01 -0.38089879926E+02  0.38496759559E+02  0.54176920901E+02  0.00000000000E+00 0. -1.
         11    1    3    3    0    0  0.50663321011E+02  0.22488715539E+02 -0.79702703447E+01  0.56000353854E+02  0.00000000000E+00 0.  1.
        -13    1    4    4    0    0  0.40082297438E+02  0.15249432412E+02 -0.26503049091E+02  0.50413761692E+02  0.00000000000E+00 0. -1.
         13    1    4    4    0    0 -0.49758611436E+02  0.31546644333E+02 -0.75424207894E+02  0.95707477854E+02  0.00000000000E+00 0.  1.
         -1    1    1    2    0  502 -0.42503354270E+02 -0.31194912358E+02  0.60757397063E+02  0.80443265592E+02  0.00000000000E+00 0.  1.
<scales pt_clust_5="13000.00000" pt_clust_6="13000.00000" pt_clust_7="13000.00000" pt_clust_8="13000.00000" pt_clust_9="13000.00000"></scales>
<clustering>
<clus scale="   90.780">  5  6 -1 -1</clus>
<clus scale="   93.160">  7  8 -1 -1</clus>
<clus scale="   52.722">  7  9 -1 -1</clus>
<clus scale="  105.864">  2  5  1 -1</clus>
<clus scale="  222.793">  1  5  2 -1</clus>
</clustering>
</event>
<event>
 9    1  0.3303741E-006  0.2790636E+03  0.7546771E-02  0.1127037E+00
         21   -1    0    0  501  502  0.00000000000E+00  0.00000000000E+00  0.14802062234E+03  0.14802062234E+03  0.00000000000E+00 0.  1.
         -4   -1    0    0    0  501 -0.00000000000E+00 -0.00000000000E+00 -0.33970519847E+03  0.33970519847E+03  0.00000000000E+00 0.  1.
         23    2    1    2    0    0  0.72116399291E+02 -0.46374987474E+02 -0.16335635162E+03  0.20722812634E+03  0.94375760779E+02 0.  0.
         23    2    1    2    0    0 -0.25483055588E+02  0.11998377619E+02 -0.13125918180E+03  0.16238248791E+03  0.91355089542E+02 0.  0.
        -11    1    4    4    0    0 -0.52328560797E+02  0.10983192731E+02 -0.38702833816E+02  0.66006197763E+02  0.00000000000E+00 0. -1.
         11    1    4    4    0    0  0.26845505209E+02  0.10151848879E+01 -0.92556347985E+02  0.96376290147E+02  0.00000000000E+00 0.  1.
        -13    1    3    3    0    0  0.56620503926E+01  0.22347678446E+02 -0.72340654573E+01  0.24162144971E+02  0.00000000000E+00 0.  1.
         13    1    3    3    0    0  0.66454348898E+02 -0.68722665920E+02 -0.15612228616E+03  0.18306598137E+03  0.00000000000E+00 0. -1.
         -4    1    1    2    0  502 -0.46633343702E+02  0.34376609855E+02  0.10293095730E+03  0.11811520656E+03  0.00000000000E+00 0.  1.
<scales pt_clust_5="13000.00000" pt_clust_6="13000.00000" pt_clust_7="13000.00000" pt_clust_8="13000.00000" pt_clust_9="13000.00000"></scales>
<clustering>
<clus scale="   91.355">  5  6 -1 -1</clus>
<clus scale="   57.935">  5  9 -1 -1</clus>
<clus scale="   94.376">  7  8 -1 -1</clus>
<clus scale="  127.508">  2  7  1 -1</clus>
<clus scale="  279.064">  1  5  2 -1</clus>
</clustering>
</event>
<event>
 9    1  0.3303741E-006  0.2142369E+03  0.7546771E-02  0.1162905E+00
          1   -1    0    0  502    0 -0.00000000000E+00  0.00000000000E+00  0.20149916783E+03  0.20149916783E+03  0.00000000000E+00 0. -1.
         21   -1    0    0  501  502  0.00000000000E+00 -0.00000000000E+00 -0.18388688738E+03  0.18388688738E+03  0.00000000000E+00 0. -1.
         23    2    1    2    0    0 -0.41196417446E+02 -0.60943629409E+02  0.10001241035E+03  0.15584904932E+03  0.94208137513E+02 0.  0.
         23    2    1    2    0    0 -0.51525591871E+02  0.63215673693E+01 -0.51733631827E+02  0.11763805693E+03  0.92018992308E+02 0.  0.
        -11    1    3    3    0    0 -0.50862396846E+02  0.36082703572E+01  0.26237510085E+02  0.57344659415E+02  0.00000000000E+00 0.  1.
         11    1    3    3    0    0  0.96659794005E+01 -0.64551899767E+02  0.73774900268E+02  0.98504389906E+02  0.00000000000E+00 0. -1.
        -11    1    4    4    0    0  0.49974032586E+01  0.32087858214E+02  0.57769875294E+01  0.32984515595E+02  0.00000000000E+00 0.  1.
         11    1    4    4    0    0 -0.56522995130E+02 -0.25766290845E+02 -0.57510619356E+02  0.84653541338E+02  0.00000000000E+00 0. -1.
          1    1    1    2  501    0  0.92722009317E+02  0.54622062040E+02 -0.30666498071E+02  0.11189894896E+03  0.00000000000E+00 0. -1.
<scales pt_clust_5="13000.00000" pt_clust_6="13000.00000" pt_clust_7="13000.00000" pt_clust_8="13000.00000" pt_clust_9="13000.00000"></scales>
<clustering>
<clus scale="   92.019">  7  8 -1 -1</clus>
<clus scale="   94.208">  5  6 -1 -1</clus>
<clus scale="  107.615">  7  9 -1 -1</clus>
<clus scale="  119.526">  1  5  2 -1</clus>
<clus scale="  214.237">  2  5  1 -1</clus>
</clustering>
</event>
<event>
 9    1  0.3303741E-006  0.1377080E+03  0.7546771E-02  0.1232148E+00
         -2   -1    0    0    0  501 -0.00000000000E+00  0.00000000000E+00  0.77703966388E+02  0.77703966388E+02  0.00000000000E+00 0.  1.
         21   -1    0    0  501  502  0.00000000000E+00 -0.00000000000E+00 -0.21728837479E+03  0.21728837479E+03  0.00000000000E+00 0.  1.
         23    2    1    2    0    0 -0.27891820535E+02  0.30039893719E+02 -0.50097935027E+00  0.99268842040E+02  0.90408534731E+02 0.  0.
         23    2    1    2    0    0  0.45911040969E+02 -0.47269663074E+02 -0.10367141393E+03  0.15241566992E+03  0.90224883704E+02 0.  0.
        -11    1    3    3    0    0 -0.54136887247E+02 -0.51171824463E+01 -0.73220814005E+01  0.54868943793E+02  0.00000000000E+00 0.  1.
         11    1    3    3    0    0  0.26245066711E+02  0.35157076165E+02  0.68211020502E+01  0.44399898247E+02  0.00000000000E+00 0. -1.
        -13    1    4    4    0    0  0.36652153664E+02 -0.19954934280E+02  0.30713951766E+01  0.41845110093E+02  0.00000000000E+00 0. -1.
         13    1    4    4    0    0  0.92588873044E+01 -0.27314728794E+02 -0.10674280911E+03  0.11057055982E+03  0.00000000000E+00 0.  1.
         -2    1    1    2    0  502 -0.18019220434E+02  0.17229769355E+02 -0.35412015118E+02  0.43307829220E+02  0.00000000000E+00 0.  1.
<scales pt_clust_5="13000.00000" pt_clust_6="13000.00000" pt_clust_7="13000.00000" pt_clust_8="13000.00000" pt_clust_9="13000.00000"></scales>
<clustering>
<clus scale="   90.225">  7  8 -1 -1</clus>
<clus scale="   24.931">  7  9 -1 -1</clus>
<clus scale="   90.409">  5  6 -1 -1</clus>
<clus scale="   99.268">  1  5  2 -1</clus>
<clus scale="  137.708">  2  5  1 -1</clus>
</clustering>
</event>
<event>
 9    1  0.3303741E-006  0.1057380E+04  0.7546771E-02  0.9846971E-01
         21   -1    0    0  501  502  0.00000000000E+00  0.00000000000E+00  0.29836454451E+03  0.29836454451E+03  0.00000000000E+00 0.  1.
         -2   -1    0    0    0  501 -0.00000000000E+00 -0.00000000000E+00 -0.12382908071E+04  0.12382908071E+04  0.00000000000E+00 0.  1.
         23    2    1    2    0    0 -0.73246931480E+02 -0.66129038412E+02 -0.22229672428E+03  0.25874864759E+03  0.88299865869E+02 0.  0.
         23    2    1    2    0    0 -0.47949651172E+02  0.30114013228E+03 -0.90157940586E+03  0.95579433282E+03  0.87822737706E+02 0.  0.
        -11    1    4    4    0    0 -0.48547247608E+02  0.65414465025E+02 -0.21928730737E+03  0.23392907185E+03  0.00000000000E+00 0. -1.
         11    1    4    4    0    0  0.59759643560E+00  0.23572566725E+03 -0.68229209849E+03  0.72186526097E+03  0.00000000000E+00 0.  1.
        -11    1    3    3    0    0  0.19428503168E+02 -0.21419001529E+02 -0.59585973774E+02  0.66232383563E+02  0.00000000000E+00 0.  1.
         11    1    3    3    0    0 -0.92675434648E+02 -0.44710036883E+02 -0.16271075050E+03  0.19251626403E+03  0.00000000000E+00 0. -1.
         -2    1    1    2    0  502  0.12119658265E+03 -0.23501109387E+03  0.18394986757E+03  0.32211237118E+03  0.00000000000E+00 0.  1.
<scales pt_clust_5="13000.00000" pt_clust_6="13000.00000" pt_clust_7="13000.00000" pt_clust_8="13000.00000" pt_clust_9="13000.00000"></scales>
<clustering>
<clus scale="   87.823">  5  6 -1 -1</clus>
<clus scale="   88.300">  7  8 -1 -1</clus>
<clus scale="  132.420">  2  7  1 -1</clus>
<clus scale="  266.249">  5  9 -1 -1</clus>
<clus scale=" 1057.380">  1  5  2 -1</clus>
</clustering>
</event>
<event>
 9    1  0.3303741E-006  0.3680060E+03  0.7546771E-02  0.1103197E+00
          2   -1    0    0  502    0 -0.00000000000E+00  0.00000000000E+00  0.70442839894E+03  0.70442839894E+03  0.00000000000E+00 0. -1.
         21   -1    0    0  501  502  0.00000000000E+00 -0.00000000000E+00 -0.78418953071E+02  0.78418953071E+02  0.00000000000E+00 0. -1.
         23    2    1    2    0    0  0.11604927956E+02  0.43435738848E+02  0.11970248597E+03  0.15692791983E+03  0.90974442083E+02 0.  0.
         23    2    1    2    0    0  0.16234985875E+03 -0.32301125405E+02  0.31474277830E+03  0.36691927174E+03  0.90365348137E+02 0.  0.
        -11    1    3    3    0    0  0.48698933303E+02  0.16482403837E+02  0.40655619286E+02  0.65544909190E+02  0.00000000000E+00 0. -1.
         11    1    3    3    0    0 -0.37094005347E+02  0.26953335011E+02  0.79046866685E+02  0.91383010640E+02  0.00000000000E+00 0.  1.
        -13    1    4    4    0    0  0.14039175246E+03 -0.24166616274E+02  0.17703097108E+03  0.22723079506E+03  0.00000000000E+00 0. -1.
         13    1    4    4    0    0  0.21958106295E+02 -0.81345091317E+01  0.13771180722E+03  0.13968847669E+03  0.00000000000E+00 0.  1.
          2    1    1    2  501    0 -0.17395478671E+03 -0.11134613442E+02  0.19156418160E+03  0.25900016044E+03  0.00000000000E+00 0. -1.
<scales pt_clust_5="13000.00000" pt_clust_6="13000.00000" pt_clust_7="13000.00000" pt_clust_8="13000.00000" pt_clust_9="13000.00000"></scales>
<clustering>
<clus scale="   90.365">  7  8 -1 -1</clus>
<clus scale="   90.974">  5  6 -1 -1</clus>
<clus scale="  101.478">  1  5  2 -1</clus>
<clus scale="  169.448">  7  9 -1 -1</clus>
<clus scale="  368.006">  2  5  1 -1</clus>
</clustering>
</event>
<event>
 9    1  0.3303741E-006  0.1974080E+03  0.7546771E-02  0.1184139E+00
         21   -1    0    0  501  502  0.00000000000E+00  0.00000000000E+00  0.57290661512E+02  0.57290661512E+02  0.00000000000E+00 0.  1.
          1   -1    0    0  502    0 -0.00000000000E+00 -0.00000000000E+00 -0.47651152731E+03  0.47651152731E+03  0.00000000000E+00 0. -1.
         23    2    1    2    0    0 -0.14359991882E+02 -0.92918581431E+01 -0.27103986401E+03  0.28696719670E+03  0.92709309704E+02 0.  0.
         23    2    1    2    0    0  0.13711793121E+02  0.41721139392E+02 -0.62692328470E+01  0.10126360548E+03  0.91029378618E+02 0.  0.
        -11    1    4    4    0    0  0.11140634687E+02 -0.28525196174E+02  0.65068909872E+00  0.30630441627E+02  0.00000000000E+00 0. -1.
         11    1    4    4    0    0  0.25711584343E+01  0.70246335566E+02 -0.69199219458E+01  0.70633163853E+02  0.00000000000E+00 0.  1.
        -13    1    3    3    0    0 -0.41061457996E+02  0.18840094433E+02 -0.20879701416E+03  0.21362861609E+03  0.00000000000E+00 0.  1.
         13    1    3    3    0    0  0.26701466115E+02 -0.28131952576E+02 -0.62242849842E+02  0.73338580603E+02  0.00000000000E+00 0. -1.
          1    1    1    2  501    0  0.64819876054E+00 -0.32429281249E+02 -0.14191176894E+03  0.14557138664E+03  0.00000000000E+00 0. -1.
<scales pt_clust_5="13000.00000" pt_clust_6="13000.00000" pt_clust_7="13000.00000" pt_clust_8="13000.00000" pt_clust_9="13000.00000"></scales>
<clustering>
<clus scale="   91.029">  5  6 -1 -1</clus>
<clus scale="   32.436">  5  9 -1 -1</clus>
<clus scale="   92.709">  7  8 -1 -1</clus>
<clus scale="   94.274">  2  7  1 -1</clus>
<clus scale="  197.408">  1  5  2 -1</clus>
</clustering>
</event>
<event>
 9    1  0.3303741E-006  0.3429560E+03  0.7546771E-02  0.1075914E+00
         21   -1    0    0  501  502  0.00000000000E+00  0.00000000000E+00  0.66923304885E+02  0.66923304885E+02  0.00000000000E+00 0.  1.
          2   -1    0    0  502    0 -0.00000000000E+00 -0.00000000000E+00 -0.13526506386E+04  0.13526506386E+04  0.00000000000E+00 0. -1.
         23    2    1    2    0    0  0.22221924314E+03  0.93683840426E+02 -0.58616752313E+03  0.64047011883E+03  0.91932333578E+02 0.  0.
         23    2    1    2    0    0 -0.52755121004E+02 -0.32948465946E+01 -0.46132186200E+03  0.47308817304E+03  0.90557165917E+02 0.  0.
        -11    1    3    3    0    0  0.14656320136E+03  0.10642329144E+03 -0.39887938578E+03  0.43807699478E+03  0.00000000000E+00 0.  1.
         11    1    3    3    0    0  0.75656041772E+02 -0.12739451011E+02 -0.18728813735E+03  0.20239312404E+03  0.00000000000E+00 0. -1.
        -13    1    4    4    0    0  0.15823889570E+02  0.25733090858E+02 -0.12102650314E+03  0.12473973668E+03  0.00000000000E+00 0.  1.
         13    1    4    4    0    0 -0.68579010575E+02 -0.29027937452E+02 -0.34029535887E+03  0.34834843636E+03  0.00000000000E+00 0. -1.
          2    1    1    2  501    0 -0.16946412213E+03 -0.90388993832E+02 -0.23823794860E+03  0.30601565164E+03  0.00000000000E+00 0. -1.
<scales pt_clust_5="13000.00000" pt_clust_6="13000.00000" pt_clust_7="13000.00000" pt_clust_8="13000.00000" pt_clust_9="13000.00000"></scales>
<clustering>
<clus scale="   90.557">  7  8 -1 -1</clus>
<clus scale="   91.932">  5  6 -1 -1</clus>
<clus scale="  192.063">  7  9 -1 -1</clus>
<clus scale="  258.088">  2  5  1 -1</clus>
<clus scale="  342.956">  1  5  2 -1</clus>
</clustering>
</event>
<event>
 9    1  0.3303741E-006  0.2428161E+03  0.7546771E-02  0.1162633E+00
         21   -1    0    0  501  502  0.00000000000E+00  0.00000000000E+00  0.27168434959E+03  0.27168434959E+03  0.00000000000E+00 0. -1.
          3   -1    0    0  502    0 -0.00000000000E+00 -0.00000000000E+00 -0.10879936665E+03  0.10879936665E+03  0.00000000000E+00 0. -1.
         23    2    1    2    0    0  0.93013187345E+01 -0.42191944008E+02 -0.88323302943E+01  0.83084148394E+02  0.70415133221E+02 0.  0.
         23    2    1    2    0    0  0.44936767836E+02  0.10971401873E+03  0.14079894489E+03  0.20543791219E+03  0.91235485816E+02 0.  0.
        -13    1    4    4    0    0 -0.39232770014E+01  0.99472694683E+02  0.89711455105E+02  0.13400878429E+03  0.00000000000E+00 0. -1.
         13    1    4    4    0    0  0.48860044838E+02  0.10241324052E+02  0.51087489784E+02  0.71429127899E+02  0.00000000000E+00 0.  1.
        -13    1    3    3    0    0  0.37509045807E+02 -0.39155842148E+02 -0.49310948032E+01  0.54446525946E+02  0.00000000000E+00 0. -1.
         13    1    3    3    0    0 -0.28207727072E+02 -0.30361018596E+01 -0.39012354912E+01  0.28637622447E+02  0.00000000000E+00 0.  1.
          3    1    1    2  501    0 -0.54238086571E+02 -0.67522074727E+02  0.30918368344E+02  0.91961655658E+02  0.00000000000E+00 0. -1.
<scales pt_clust_5="13000.00000" pt_clust_6="13000.00000" pt_clust_7="13000.00000" pt_clust_8="13000.00000" pt_clust_9="13000.00000"></scales>
<clustering>
<clus scale="   70.415">  7  8 -1 -1</clus>
<clus scale="   82.613">  2  7  1 -1</clus>
<clus scale="   91.235">  5  6 -1 -1</clus>
<clus scale="  101.088">  5  9 -1 -1</clus>
<clus scale="  242.816">  1  5  2 -1</clus>
</clustering>
</event>
<event>
 9    1  0.3303741E-006  0.3008450E+03  0.7546771E-02  0.1130467E+00
         21   -1    0    0  501  502  0.00000000000E+00  0.00000000000E+00  0.74013747154E+02  0.74013747154E+02  0.00000000000E+00 0. -1.
          2   -1    0    0  502    0 -0.00000000000E+00 -0.00000000000E+00 -0.64772170912E+03  0.64772170912E+03  0.00000000000E+00 0. -1.
         23    2    1    2    0    0 -0.69768092158E+01  0.21308541876E+02 -0.30271306220E+03  0.31683302425E+03  0.90803289633E+02 0.  0.
         23    2    1    2    0    0 -0.52973965779E+01  0.90971168299E+01 -0.32731246063E+03  0.33973474165E+03  0.90418072602E+02 0.  0.
        -13    1    4    4    0    0  0.26632193381E+02 -0.30258772731E+02 -0.15002110445E+03  0.15534219913E+03  0.00000000000E+00 0.  1.
         13    1    4    4    0    0 -0.31929589959E+02  0.39355889561E+02 -0.17729135618E+03  0.18439254251E+03  0.00000000000E+00 0. -1.
        -13    1    3    3    0    0  0.93936045149E+01 -0.31596262537E+02 -0.16760285191E+03  0.17081358137E+03  0.00000000000E+00 0.  1.
         13    1    3    3    0    0 -0.16370413731E+02  0.52904804413E+02 -0.13511021029E+03  0.14601944288E+03  0.00000000000E+00 0. -1.
          2    1    1    2  501    0  0.12274205794E+02 -0.30405658706E+02  0.56317560854E+02  0.65167690382E+02  0.00000000000E+00 0. -1.
<scales pt_clust_5="13000.00000" pt_clust_6="13000.00000" pt_clust_7="13000.00000" pt_clust_8="13000.00000" pt_clust_9="13000.00000"></scales>
<clustering>
<clus scale="   90.418">  5  6 -1 -1</clus>
<clus scale="   32.790">  5  9 -1 -1</clus>
<clus scale="   90.803">  7  8 -1 -1</clus>
<clus scale="   93.531">  2  7  1 -1</clus>
<clus scale="  300.845">  1  5  2 -1</clus>
</clustering>
</event>
<event>
 9    1  0.3303741E-006  0.2230472E+03  0.7546771E-02  0.1163019E+00
         21   -1    0    0  501  502  0.00000000000E+00  0.00000000000E+00  0.69421215271E+02  0.69421215271E+02  0.00000000000E+00 0. -1.
          1   -1    0    0  502    0 -0.00000000000E+00 -0.00000000000E+00 -0.48980402918E+03  0.48980402918E+03  0.00000000000E+00 0. -1.
         23    2    1    2    0    0 -0.19425617090E+02  0.58324476583E+02 -0.27077363819E+03  0.29064945586E+03  0.85904853663E+02 0.  0.
         23    2    1    2    0    0 -0.69820583411E+02 -0.85748928347E+01 -0.10662638861E+03  0.15772712882E+03  0.92521444876E+02 0.  0.
        -11    1    4    4    0    0 -0.34302055843E+02  0.41476564967E+02 -0.60334355381E+02  0.80852773086E+02  0.00000000000E+00 0.  1.
         11    1    4    4    0    0 -0.35518527567E+02 -0.50051457801E+02 -0.46292033233E+02  0.76874355733E+02  0.00000000000E+00 0. -1.
        -11    1    3    3    0    0  0.34015229058E+02  0.27529107094E+02 -0.12119888914E+03  0.12885673546E+03  0.00000000000E+00 0.  1.
         11    1    3    3    0    0 -0.53440846148E+02  0.30795369489E+02 -0.14957474905E+03  0.16179272039E+03  0.00000000000E+00 0. -1.
          1    1    1    2  501    0  0.89246200501E+02 -0.49749583748E+02 -0.42982787108E+02  0.11084865978E+03  0.00000000000E+00 0. -1.
<scales pt_clust_5="13000.00000" pt_clust_6="13000.00000" pt_clust_7="13000.00000" pt_clust_8="13000.00000" pt_clust_9="13000.00000"></scales>
<clustering>
<clus scale="   85.905">  7  8 -1 -1</clus>
<clus scale="   92.521">  5  6 -1 -1</clus>
<clus scale="  102.176">  5  9 -1 -1</clus>
<clus scale="  105.635">  2  7  1 -1</clus>
<clus scale="  223.047">  1  5  2 -1</clus>
</clustering>
</event>
<event>
 9    1  0.3303741E-006  0.4208911E+03  0.7546771E-02  0.1082970E+00
         21   -1    0    0  501  502  0.00000000000E+00  0.00000000000E+00  0.69236076712E+02  0.69236076712E+02  0.00000000000E+00 0. -1.
          2   -1    0    0  502    0 -0.00000000000E+00 -0.00000000000E+00 -0.10987971036E+04  0.10987971036E+04  0.00000000000E+00 0. -1.
         23    2    1    2    0    0  0.14998828381E+02  0.69097473595E+02 -0.12385071870E+03  0.16930373271E+03  0.91243233593E+02 0.  0.
         23    2    1    2    0    0  0.14078412973E+03 -0.12947810397E+03 -0.71187342712E+03  0.74282538935E+03  0.91875090405E+02 0.  0.
        -11    1    3    3    0    0  0.30841675794E+02  0.19811102183E+02 -0.17693393967E+01  0.36699036737E+02  0.00000000000E+00 0. -1.
         11    1    3    3    0    0 -0.15842847413E+02  0.49286371412E+02 -0.12208137930E+03  0.13260469597E+03  0.00000000000E+00 0.  1.
        -13    1    4    4    0    0  0.60349458362E+02 -0.11484274127E+03 -0.46558630212E+03  0.48332340836E+03  0.00000000000E+00 0. -1.
         13    1    4    4    0    0  0.80434671365E+02 -0.14635362706E+02 -0.24628712500E+03  0.25950198100E+03  0.00000000000E+00 0.  1.
          2    1    1    2  501    0 -0.15578295811E+03  0.60380630377E+02 -0.19383688102E+03  0.25590405821E+03  0.00000000000E+00 0. -1.
<scales pt_clust_5="13000.00000" pt_clust_6="13000.00000" pt_clust_7="13000.00000" pt_clust_8="13000.00000" pt_clust_9="13000.00000"></scales>
<clustering>
<clus scale="   91.243">  5  6 -1 -1</clus>
<clus scale="   91.875">  7  8 -1 -1</clus>
<clus scale="  115.433">  2  5  1 -1</clus>
<clus scale="  170.470">  7  9 -1 -1</clus>
<clus scale="  420.891">  1  5  2 -1</clus>
</clustering>
</event>
<event>
 9    1  0.3303741E-006  0.7009227E+03  0.7546771E-02  0.9970008E-01
         21   -1    0    0  501  502  0.00000000000E+00  0.00000000000E+00  0.90108412183E+03  0.90108412183E+03  0.00000000000E+00 0. -1.
          2   -1    0    0  502    0 -0.00000000000E+00 -0.00000000000E+00 -0.31997623509E+03  0.31997623509E+03  0.00000000000E+00 0. -1.
         23    2    1    2    0    0 -0.23569065064E+03  0.17332837739E+03 -0.66882650628E+01  0.30629427515E+03  0.90435838521E+02 0.  0.
         23    2    1    2    0    0  0.57836665607E+02  0.19469840118E+02 -0.11824779237E+03  0.16157205380E+03  0.91645150482E+02 0.  0.
        -11    1    3    3    0    0 -0.23211381467E+03  0.13837006543E+03 -0.13222283851E+02  0.27055115368E+03  0.00000000000E+00 0. -1.
         11    1    3    3    0    0 -0.35768359741E+01  0.34958311960E+02  0.65340187886E+01  0.35743121467E+02  0.00000000000E+00 0.  1.
        -13    1    4    4    0    0  0.19288459751E+02 -0.18886218400E+02 -0.10096571614E+03  0.10451224694E+03  0.00000000000E+00 0.  1.
         13    1    4    4    0    0  0.38548205855E+02  0.38356058519E+02 -0.17282076223E+02  0.57059806855E+02  0.00000000000E+00 0. -1.
          2    1    1    2  501    0  0.17785398504E+03 -0.19279821751E+03  0.70604394417E+03  0.75319402797E+03  0.00000000000E+00 0. -1.
<scales pt_clust_5="13000.00000" pt_clust_6="13000.00000" pt_clust_7="13000.00000" pt_clust_8="13000.00000" pt_clust_9="13000.00000"></scales>
<clustering>
<clus scale="   90.436">  5  6 -1 -1</clus>
<clus scale="   91.645">  7  8 -1 -1</clus>
<clus scale="  262.304">  7  9 -1 -1</clus>
<clus scale="  306.221">  2  5  1 -1</clus>
<clus scale="  700.923">  1  5  2 -1</clus>
</clustering>
</event>
<event>
 9    1  0.3303741E-006  0.2437327E+03  0.7546771E-02  0.1121003E+00
          1   -1    0    0  502    0 -0.00000000000E+00  0.00000000000E+00  0.26369765649E+03  0.26369765649E+03  0.00000000000E+00 0. -1.
         21   -1    0    0  501  502  0.00000000000E+00 -0.00000000000E+00 -0.23596721313E+03  0.23596721313E+03  0.00000000000E+00 0.  1.
         23    2    1    2    0    0  0.17483066547E+03  0.10132373919E+03  0.10238321011E+03  0.24475574301E+03  0.92686516356E+02 0.  0.
         23    2    1    2    0    0 -0.12744589265E+03 -0.92436682660E+02 -0.91552166227E+02  0.20382208156E+03  0.91513091603E+02 0.  0.
        -11    1    4    4    0    0 -0.49717176351E+02 -0.25200054468E+02  0.12978637205E+02  0.57230109149E+02  0.00000000000E+00 0. -1.
         11    1    4    4    0    0 -0.77728716298E+02 -0.67236628192E+02 -0.10453080343E+03  0.14659197241E+03  0.00000000000E+00 0.  1.
        -13    1    3    3    0    0  0.93476853097E+02  0.71608953084E+01  0.21020774471E+02  0.96078475456E+02  0.00000000000E+00 0.  1.
         13    1    3    3    0    0  0.81353812370E+02  0.94162843881E+02  0.81362435642E+02  0.14867726756E+03  0.00000000000E+00 0. -1.
          1    1    1    2  501    0 -0.47384772819E+02 -0.88870565296E+01  0.16899399475E+02  0.51087045045E+02  0.00000000000E+00 0. -1.
<scales pt_clust_5="13000.00000" pt_clust_6="13000.00000" pt_clust_7="13000.00000" pt_clust_8="13000.00000" pt_clust_9="13000.00000"></scales>
<clustering>
<clus scale="   91.513">  5  6 -1 -1</clus>
<clus scale="   48.211">  5  9 -1 -1</clus>
<clus scale="   92.687">  7  8 -1 -1</clus>
<clus scale="  222.313">  1  7  2 -1</clus>
<clus scale="  243.733">  2  5  1 -1</clus>
</clustering>
</event>
<event>
 9    1  0.3303741E-006  0.7005595E+03  0.7546771E-02  0.1030166E+00
         21   -1    0    0  501  502  0.00000000000E+00  0.00000000000E+00  0.15129464158E+03  0.15129464158E+03  0.00000000000E+00 0. -1.
          2   -1    0    0  502    0 -0.00000000000E+00 -0.00000000000E+00 -0.11295865665E+04  0.11295865665E+04  0.00000000000E+00 0. -1.
         23    2    1    2    0    0  0.43065731935E+02 -0.42984093008E+02 -0.23284125936E+03  0.25790503520E+03  0.92723597868E+02 0.  0.
         23    2    1    2    0    0 -0.27160742664E+03  0.11667635242E+03 -0.71727784822E+03  0.78120032018E+03  0.91664951203E+02 0.  0.
        -11    1    3    3    0    0  0.25797235950E+02 -0.54632856111E+02 -0.22885653547E+03  0.23669719090E+03  0.00000000000E+00 0. -1.
         11    1    3    3    0    0  0.17268495985E+02  0.11648763103E+02 -0.39847238852E+01  0.21207844300E+02  0.00000000000E+00 0.  1.
        -13    1    4    4    0    0 -0.24209471175E+03  0.11491796577E+03 -0.55573583622E+03  0.61697512752E+03  0.00000000000E+00 0. -1.
         13    1    4    4    0    0 -0.29512714889E+02  0.17583866489E+01 -0.16154201200E+03  0.16422519266E+03  0.00000000000E+00 0.  1.
          2    1    1    2  501    0  0.22854169470E+03 -0.73692259412E+02 -0.28172817345E+02  0.24177585271E+03  0.00000000000E+00 0. -1.
<scales pt_clust_5="13000.00000" pt_clust_6="13000.00000" pt_clust_7="13000.00000" pt_clust_8="13000.00000" pt_clust_9="13000.00000"></scales>
<clustering>
<clus scale="   91.665">  7  8 -1 -1</clus>
<clus scale="   92.724">  5  6 -1 -1</clus>
<clus scale="  110.905">  2  5  1 -1</clus>
<clus scale="  248.435">  7  9 -1 -1</clus>
<clus scale="  700.559">  1  5  2 -1</clus>
</clustering>
</event>
<event>
 9    1  0.3303741E-006  0.3471578E+03  0.7546771E-02  0.1087193E+00
          1   -1    0    0  502    0 -0.00000000000E+00  0.00000000000E+00  0.49267208112E+03  0.49267208112E+03  0.00000000000E+00 0. -1.
         21   -1    0    0  501  502  0.00000000000E+00 -0.00000000000E+00 -0.20565476241E+03  0.20565476241E+03  0.00000000000E+00 0.  1.
         23    2    1    2    0    0  0.15767278203E+03 -0.25367195673E+02 -0.73398804309E+02  0.19790867801E+03  0.90973949840E+02 0.  0.
         23    2    1    2    0    0 -0.99111566971E+02  0.87203147988E+02  0.38107407306E+03  0.41278340182E+03  0.88006794815E+02 0.  0.
        -11    1    3    3    0    0  0.13668099399E+02 -0.36600571934E+02 -0.20189224924E+02  0.43977535289E+02  0.00000000000E+00 0. -1.
         11    1    3    3    0    0  0.14400468263E+03  0.11233376261E+02 -0.53209579384E+02  0.15393114272E+03  0.00000000000E+00 0.  1.
        -11    1    4    4    0    0 -0.53584433700E+02  0.12379563662E+02  0.66765776389E+02  0.86499792070E+02  0.00000000000E+00 0.  1.
         11    1    4    4    0    0 -0.45527133271E+02  0.74823584326E+02  0.31430829667E+03  0.32628360975E+03  0.00000000000E+00 0. -1.
          1    1    1    2  501    0 -0.58561215058E+02 -0.61835952314E+02 -0.20657950044E+02  0.87634763694E+02  0.00000000000E+00 0. -1.
<scales pt_clust_5="13000.00000" pt_clust_6="13000.00000" pt_clust_7="13000.00000" pt_clust_8="13000.00000" pt_clust_9="13000.00000"></scales>
<clustering>
<clus scale="   88.007">  7  8 -1 -1</clus>
<clus scale="   85.165">  7  9 -1 -1</clus>
<clus scale="   90.974">  5  6 -1 -1</clus>
<clus scale="  183.795">  1  5  2 -1</clus>
<clus scale="  347.158">  2  5  1 -1</clus>
</clustering>
</event>
<event>
 9    1  0.3303741E-006  0.2644480E+03  0.7546771E-02  0.1139480E+00
         21   -1    0    0  501  502  0.00000000000E+00  0.00000000000E+00  0.45954283498E+03  0.45954283498E+03  0.00000000000E+00 0. -1.
          1   -1    0    0  502    0 -0.00000000000E+00 -0.00000000000E+00 -0.98399084456E+02  0.98399084456E+02  0.00000000000E+00 0. -1.
         23    2    1    2    0    0  0.40095957489E+02 -0.45687513790E+02  0.24561287875E+03  0.26935895779E+03  0.92377092481E+02 0.  0.
         23    2    1    2    0    0  0.15185161950E+01 -0.87737039230E+02  0.57913087142E+02  0.13740860907E+03  0.88470934435E+02 0.  0.
        -11    1    3    3    0    0 -0.27465664790E+02 -0.26695200961E+02  0.11309600434E+03  0.11940562254E+03  0.00000000000E+00 0.  1.
         11    1    3    3    0    0  0.67561622279E+02 -0.18992312829E+02  0.13251687441E+03  0.14995333525E+03  0.00000000000E+00 0. -1.
        -11    1    4    4    0    0  0.41524104383E+02 -0.29655545329E+02  0.39471981290E+02  0.64511548738E+02  0.00000000000E+00 0.  1.
         11    1    4    4    0    0 -0.40005588188E+02 -0.58081493902E+02  0.18441105852E+02  0.72897060332E+02  0.00000000000E+00 0. -1.
          1    1    1    2  501    0 -0.41614473684E+02  0.13342455302E+03  0.57617784634E+02  0.15117435257E+03  0.00000000000E+00 0. -1.
<scales pt_clust_5="13000.00000" pt_clust_6="13000.00000" pt_clust_7="13000.00000" pt_clust_8="13000.00000" pt_clust_9="13000.00000"></scales>
<clustering>
<clus scale="   88.471">  7  8 -1 -1</clus>
<clus scale="   92.377">  5  6 -1 -1</clus>
<clus scale="  110.583">  2  5  1 -1</clus>
<clus scale="  110.538">  7  9 -1 -1</clus>
<clus scale="  264.448">  1  5  2 -1</clus>
</clustering>
</event>
<event>
 9    1  0.3303741E-006  0.9668965E+03  0.7546771E-02  0.9668228E-01
         21   -1    0    0  501  502  0.00000000000E+00  0.00000000000E+00  0.35539634321E+03  0.35539634321E+03  0.00000000000E+00 0.  1.
         -1   -1    0    0    0  501 -0.00000000000E+00 -0.00000000000E+00 -0.11713843750E+04  0.11713843750E+04  0.00000000000E+00 0.  1.
         23    2    1    2    0    0  0.29464595107E+03  0.50823299865E+02 -0.28636770590E+03  0.42433503969E+03  0.93029665354E+02 0.  0.
         23    2    1    2    0    0 -0.61711991814E+03  0.33028724515E+02 -0.27072093861E+03  0.68048654049E+03  0.88567574102E+02 0.  0.
        -13    1    3    3    0    0  0.72703226257E+02 -0.25949521613E+02 -0.86658376107E+02  0.11605520639E+03  0.00000000000E+00 0.  1.
         13    1    3    3    0    0  0.22194272482E+03  0.76772821478E+02 -0.19970932979E+03  0.30827983331E+03  0.00000000000E+00 0. -1.
        -13    1    4    4    0    0 -0.82950033458E+02  0.23445623316E+01 -0.51224058793E+01  0.83141109358E+02  0.00000000000E+00 0. -1.
         13    1    4    4    0    0 -0.53416988468E+03  0.30684162183E+02 -0.26559853273E+03  0.59734543113E+03  0.00000000000E+00 0.  1.
         -1    1    1    2    0  502  0.32247396706E+03 -0.83852024380E+02 -0.25889938730E+03  0.42195913803E+03  0.00000000000E+00 0.  1.
<scales pt_clust_5="13000.00000" pt_clust_6="13000.00000" pt_clust_7="13000.00000" pt_clust_8="13000.00000" pt_clust_9="13000.00000"></scales>
<clustering>
<clus scale="   88.568">  7  8 -1 -1</clus>
<clus scale="   93.030">  5  6 -1 -1</clus>
<clus scale="  313.135">  2  5  1 -1</clus>
<clus scale="  449.778">  7  9 -1 -1</clus>
<clus scale="  966.896">  1  5  2 -1</clus>
</clustering>
</event>
<event>
 9    1  0.3452638E-006  0.2518618E+03  0.7546771E-02  0.1143075E+00
         21   -1    0    0  501  502  0.00000000000E+00  0.00000000000E+00  0.71710014817E+02  0.71710014817E+02  0.00000000000E+00 0. -1.
          1   -1    0    0  502    0 -0.00000000000E+00 -0.00000000000E+00 -0.48572464007E+03  0.48572464007E+03  0.00000000000E+00 0. -1.
         23    2    1    2    0    0 -0.59220515839E+02  0.45104623568E+02 -0.17122820755E+03  0.20760671259E+03  0.90774178546E+02 0.  0.
         23    2    1    2    0    0 -0.11385004557E+02  0.54001046325E+02 -0.18934169546E+03  0.21692417390E+03  0.90333206812E+02 0.  0.
        -11    1    4    4    0    0 -0.19009379925E+02 -0.17739473803E+02 -0.92986413806E+02  0.96553190566E+02  0.00000000000E+00 0.  1.
         11    1    4    4    0    0  0.76243753676E+01  0.71740520128E+02 -0.96355281650E+02  0.12037098334E+03  0.00000000000E+00 0. -1.
        -13    1    3    3    0    0 -0.42166476671E+01 -0.24153355139E+02 -0.17055623884E+02  0.29867356564E+02  0.00000000000E+00 0.  1.
         13    1    3    3    0    0 -0.55003868172E+02  0.69257978708E+02 -0.15417258366E+03  0.17773935603E+03  0.00000000000E+00 0. -1.
          1    1    1    2  501    0  0.70605520396E+02 -0.99105669893E+02 -0.53444722248E+02  0.13290376839E+03  0.00000000000E+00 0. -1.
<scales pt_clust_5="13000.00000" pt_clust_6="13000.00000" pt_clust_7="13000.00000" pt_clust_8="13000.00000" pt_clust_9="13000.00000"></scales>
<clustering>
<clus scale="   90.333">  5  6 -1 -1</clus>
<clus scale="   90.774">  7  8 -1 -1</clus>
<clus scale="  117.394">  2  7  1 -1</clus>
<clus scale="   99.570">  5  9 -1 -1</clus>
<clus scale="  251.862">  1  5  2 -1</clus>
</clustering>
</event>
<event>
 9    1  0.3303741E-006  0.1851442E+03  0.7546771E-02  0.1183555E+00
         21   -1    0    0  501  502  0.00000000000E+00  0.00000000000E+00  0.60409110186E+03  0.60409110186E+03  0.00000000000E+00 0.  1.
         -3   -1    0    0    0  501 -0.00000000000E+00 -0.00000000000E+00 -0.47108766177E+02  0.47108766177E+02  0.00000000000E+00 0.  1.
         23    2    1    2    0    0  0.77156716856E+02  0.36039513582E+02  0.83324791136E+02  0.14264322826E+03  0.78435095810E+02 0.  0.
         23    2    1    2    0    0 -0.74142279662E+01 -0.73617660605E+01  0.16828645753E+03  0.19401263849E+03  0.95976068533E+02 0.  0.
        -11    1    3    3    0    0  0.22686047468E+02  0.53096867067E+02  0.51048426606E+02  0.77070590376E+02  0.00000000000E+00 0.  1.
         11    1    3    3    0    0  0.54470669387E+02 -0.17057353484E+02  0.32276364531E+02  0.65572637881E+02  0.00000000000E+00 0. -1.
        -13    1    4    4    0    0  0.27334969736E+02  0.32337690975E+02  0.91799069521E+02  0.10109399583E+03  0.00000000000E+00 0.  1.
         13    1    4    4    0    0 -0.34749197702E+02 -0.39699457035E+02  0.76487388010E+02  0.92918642664E+02  0.00000000000E+00 0. -1.
         -3    1    1    2    0  502 -0.69742488890E+02 -0.28677747522E+02  0.30537108701E+03  0.31454400128E+03  0.00000000000E+00 0.  1.
<scales pt_clust_5="13000.00000" pt_clust_6="13000.00000" pt_clust_7="13000.00000" pt_clust_8="13000.00000" pt_clust_9="13000.00000"></scales>
<clustering>
<clus scale="   78.435">  5  6 -1 -1</clus>
<clus scale="   95.976">  7  8 -1 -1</clus>
<clus scale="   75.408">  7  9 -1 -1</clus>
<clus scale="  115.776">  2  5  1 -1</clus>
<clus scale="  185.144">  1  5  2 -1</clus>
</clustering>
</event>
<event>
 9    1  0.3303741E-006  0.1251405E+03  0.7546771E-02  0.1247164E+00
          1   -1    0    0  502    0 -0.00000000000E+00  0.00000000000E+00  0.16781253444E+03  0.16781253444E+03  0.00000000000E+00 0. -1.
         21   -1    0    0  501  502  0.00000000000E+00 -0.00000000000E+00 -0.73879055816E+02  0.73879055816E+02  0.00000000000E+00 0.  1.
         23    2    1    2    0    0 -0.22486520048E+02 -0.10309463302E+02  0.38353499001E+02  0.10476362553E+03  0.94300040994E+02 0.  0.
         23    2    1    2    0    0 -0.21508049484E+01  0.48002748872E+01  0.41641331667E+02  0.10808988492E+03  0.99608002279E+02 0.  0.
        -11    1    3    3    0    0 -0.39835996313E+02 -0.38761546381E+02  0.44094099543E+02  0.70948246593E+02  0.00000000000E+00 0.  1.
         11    1    3    3    0    0  0.17349476265E+02  0.28452083079E+02 -0.57406005428E+01  0.33815378939E+02  0.00000000000E+00 0. -1.
        -13    1    4    4    0    0 -0.93636226651E+01 -0.46625863728E+02  0.16010653341E+02  0.50179573715E+02  0.00000000000E+00 0.  1.
         13    1    4    4    0    0  0.72128177168E+01  0.51426138616E+02  0.25630678326E+02  0.57910311204E+02  0.00000000000E+00 0. -1.
          1    1    1    2  501    0  0.24637324996E+02  0.55091884145E+01  0.13938647957E+02  0.28838079805E+02  0.00000000000E+00 0. -1.
<scales pt_clust_5="13000.00000" pt_clust_6="13000.00000" pt_clust_7="13000.00000" pt_clust_8="13000.00000" pt_clust_9="13000.00000"></scales>
<clustering>
<clus scale="   94.300">  5  6 -1 -1</clus>
<clus scale="   97.491">  1  5  2 -1</clus>
<clus scale="   99.608">  7  8 -1 -1</clus>
<clus scale="   19.903">  7  9 -1 -1</clus>
<clus scale="  125.140">  2  5  1 -1</clus>
</clustering>
</event>
<event>
 9    1  0.3303741E-006  0.3148732E+03  0.7546771E-02  0.1092648E+00
          2   -1    0    0  502    0 -0.00000000000E+00  0.00000000000E+00  0.25943648895E+03  0.25943648895E+03  0.00000000000E+00 0. -1.
         21   -1    0    0  501  502  0.00000000000E+00 -0.00000000000E+00 -0.35905276999E+03  0.35905276999E+03  0.00000000000E+00 0. -1.
         23    2    1    2    0    0  0.75130673510E+02  0.17869191324E+03  0.11028334533E+03  0.24006751789E+03  0.88851443034E+02 0.  0.
         23    2    1    2    0    0  0.18636831577E+02  0.11389739669E+02 -0.22946339009E+02  0.95800242520E+02  0.90410698106E+02 0.  0.
        -13    1    3    3    0    0  0.70482020553E+02  0.56850454410E+02  0.37076082764E+02  0.97848481342E+02  0.00000000000E+00 0. -1.
         13    1    3    3    0    0  0.46486529570E+01  0.12184145883E+03  0.73207262561E+02  0.14221903655E+03  0.00000000000E+00 0.  1.
        -13    1    4    4    0    0 -0.22153325260E+02 -0.25953375360E+02  0.38661657772E+01  0.34340861237E+02  0.00000000000E+00 0.  1.
         13    1    4    4    0    0  0.40790156837E+02  0.37343115029E+02 -0.26812504786E+02  0.61459381284E+02  0.00000000000E+00 0. -1.
          2    1    1    2  501    0 -0.93767505088E+02 -0.19008165291E+03 -0.18695328736E+03  0.28262149854E+03  0.00000000000E+00 0. -1.
<scales pt_clust_5="13000.00000" pt_clust_6="13000.00000" pt_clust_7="13000.00000" pt_clust_8="13000.00000" pt_clust_9="13000.00000"></scales>
<clustering>
<clus scale="   88.851">  5  6 -1 -1</clus>
<clus scale="   90.411">  7  8 -1 -1</clus>
<clus scale="  211.951">  7  9 -1 -1</clus>
<clus scale="  213.237">  1  5  2 -1</clus>
<clus scale="  314.873">  2  5  1 -1</clus>
</clustering>
</event>
<event>
 9    1  0.3303741E-006  0.2174262E+03  0.7546771E-02  0.1158592E+00
          2   -1    0    0  502    0 -0.00000000000E+00  0.00000000000E+00  0.19867505189E+03  0.19867505189E+03  0.00000000000E+00 0. -1.
         21   -1    0    0  501  502  0.00000000000E+00 -0.00000000000E+00 -0.19538892330E+03  0.19538892330E+03  0.00000000000E+00 0.  1.
         23    2    1    2    0    0  0.47251073320E+02  0.73382827320E+02 -0.92339317959E+02  0.15653842339E+03  0.91433172760E+02 0.  0.
         23    2    1    2    0    0  0.81131837210E+01 -0.79706133139E+02  0.12419145099E+03  0.17490605193E+03  0.93539933135E+02 0.  0.
        -11    1    4    4    0    0 -0.38268225578E+02 -0.32862805011E+02  0.83148136680E+02  0.97252422466E+02  0.00000000000E+00 0. -1.
         11    1    4    4    0    0  0.46381409299E+02 -0.46843328128E+02  0.41043314312E+02  0.77653629460E+02  0.00000000000E+00 0.  1.
        -11    1    3    3    0    0  0.74492677877E+02  0.54442674323E+02 -0.76088373916E+02  0.11959349685E+03  0.00000000000E+00 0.  1.
         11    1    3    3    0    0 -0.27241604557E+02  0.18940152997E+02 -0.16250944043E+02  0.36944926535E+02  0.00000000000E+00 0. -1.
          2    1    1    2  501    0 -0.55364257041E+02  0.63233058188E+01 -0.28566004442E+02  0.62619499870E+02  0.00000000000E+00 0. -1.
<scales pt_clust_5="13000.00000" pt_clust_6="13000.00000" pt_clust_7="13000.00000" pt_clust_8="13000.00000" pt_clust_9="13000.00000"></scales>
<clustering>
<clus scale="   91.433">  7  8 -1 -1</clus>
<clus scale="   93.540">  5  6 -1 -1</clus>
<clus scale="   55.724">  5  9 -1 -1</clus>
<clus scale="  126.403">  1  7  2 -1</clus>
<clus scale="  217.426">  2  5  1 -1</clus>
</clustering>
</event>
<event>
 9    1  0.3303741E-006  0.3531943E+03  0.7546771E-02  0.1109777E+00
          1   -1    0    0  502    0 -0.00000000000E+00  0.00000000000E+00  0.68608652050E+03  0.68608652050E+03  0.00000000000E+00 0. -1.
         21   -1    0    0  501  502  0.00000000000E+00 -0.00000000000E+00 -0.74703905172E+02  0.74703905172E+02  0.00000000000E+00 0. -1.
         23    2    1    2    0    0 -0.25833602704E+02 -0.21467170073E+02  0.10000593442E+03  0.13929842990E+03  0.90965109983E+02 0.  0.
         23    2    1    2    0    0  0.92898383241E+02 -0.30910785623E+01  0.53126878800E+03  0.54735369063E+03  0.93326701269E+02 0.  0.
        -11    1    3    3    0    0  0.34355779961E+02 -0.86378184826E+01  0.36118322355E+02  0.50591152731E+02  0.00000000000E+00 0.  1.
         11    1    3    3    0    0 -0.60189382665E+02 -0.12829351591E+02  0.63887612065E+02  0.88707277171E+02  0.00000000000E+00 0. -1.
        -11    1    4    4    0    0 -0.11900386269E+02 -0.17314313908E+02  0.44255282985E+02  0.48989128708E+02  0.00000000000E+00 0.  1.
         11    1    4    4    0    0  0.10479876951E+03  0.14223235346E+02  0.48701350502E+03  0.49836456192E+03  0.00000000000E+00 0. -1.
          1    1    1    2  501    0 -0.67064780537E+02  0.24558248635E+02 -0.19892107090E+02  0.74138305140E+02  0.00000000000E+00 0. -1.
<scales pt_clust_5="13000.00000" pt_clust_6="13000.00000" pt_clust_7="13000.00000" pt_clust_8="13000.00000" pt_clust_9="13000.00000"></scales>
<clustering>
<clus scale="   90.965">  5  6 -1 -1</clus>
<clus scale="   93.327">  7  8 -1 -1</clus>
<clus scale="   71.420">  7  9 -1 -1</clus>
<clus scale="   96.968">  1  5  2 -1</clus>
<clus scale="  353.194">  2  5  1 -1</clus>
</clustering>
</event>
<event>
 9    1  0.3303741E-006  0.3793466E+03  0.7546771E-02  0.1053206E+00
         21   -1    0    0  501  502  0.00000000000E+00  0.00000000000E+00  0.20947754838E+03  0.20947754838E+03  0.00000000000E+00 0. -1.
          1   -1    0    0  502    0 -0.00000000000E+00 -0.00000000000E+00 -0.94248863464E+03  0.94248863464E+03  0.00000000000E+00 0. -1.
         23    2    1    2    0    0 -0.30352399425E+03  0.16605672796E+03 -0.68055073931E+03  0.76900937179E+03  0.92327965093E+02 0.  0.
         23    2    1    2    0    0  0.21705486287E+03 -0.59394344181E+02 -0.20922375192E+02  0.24207239599E+03  0.86722531683E+02 0.  0.
        -11    1    4    4    0    0  0.36259718075E+02 -0.16830924575E+02  0.29418357874E+02  0.49633526542E+02  0.00000000000E+00 0. -1.
         11    1    4    4    0    0  0.18079514479E+03 -0.42563419606E+02 -0.50340733066E+02  0.19243886945E+03  0.00000000000E+00 0.  1.
        -11    1    3    3    0    0 -0.53076038796E+02 -0.69904162955E+01 -0.10951450995E+03  0.12189897335E+03  0.00000000000E+00 0.  1.
         11    1    3    3    0    0 -0.25044795545E+03  0.17304714426E+03 -0.57103622936E+03  0.64711039844E+03  0.00000000000E+00 0. -1.
          1    1    1    2  501    0  0.86469131380E+02 -0.10666238378E+03 -0.31537971750E+02  0.14088441524E+03  0.00000000000E+00 0. -1.
<scales pt_clust_5="13000.00000" pt_clust_6="13000.00000" pt_clust_7="13000.00000" pt_clust_8="13000.00000" pt_clust_9="13000.00000"></scales>
<clustering>
<clus scale="   86.723">  5  6 -1 -1</clus>
<clus scale="   92.328">  7  8 -1 -1</clus>
<clus scale="  137.309">  5  9 -1 -1</clus>
<clus scale="  358.087">  2  7  1 -1</clus>
<clus scale="  379.347">  1  5  2 -1</clus>
</clustering>
</event>
<event>
 9    1  0.3303741E-006  0.3170123E+03  0.7546771E-02  0.1095774E+00
         21   -1    0    0  501  502  0.00000000000E+00  0.00000000000E+00  0.23790099774E+03  0.23790099774E+03  0.00000000000E+00 0. -1.
          3   -1    0    0  502    0 -0.00000000000E+00 -0.00000000000E+00 -0.30222447191E+03  0.30222447191E+03  0.00000000000E+00 0. -1.
         23    2    1    2    0    0  0.17065529224E+03  0.86240059003E+01  0.56883041803E+02  0.20073219079E+03  0.88657372665E+02 0.  0.
         23    2    1    2    0    0 -0.85004385068E+02  0.38524624516E+02 -0.18216795287E+03  0.22417449551E+03  0.91428382949E+02 0.  0.
        -11    1    4    4    0    0 -0.32065642537E+02 -0.30047430987E+02 -0.57741748988E+02  0.72561443732E+02  0.00000000000E+00 0.  1.
         11    1    4    4    0    0 -0.52938742531E+02  0.68572055503E+02 -0.12442620388E+03  0.15161305178E+03  0.00000000000E+00 0. -1.
        -13    1    3    3    0    0  0.10849253304E+03 -0.21608325593E+02 -0.91573150780E+00  0.11062724811E+03  0.00000000000E+00 0. -1.
         13    1    3    3    0    0  0.62162759192E+02  0.30232331494E+02  0.57798773311E+02  0.90104942674E+02  0.00000000000E+00 0.  1.
          3    1    1    2  501    0 -0.85650907167E+02 -0.47148630417E+02  0.60961436896E+02  0.11521878335E+03  0.00000000000E+00 0. -1.
<scales pt_clust_5="13000.00000" pt_clust_6="13000.00000" pt_clust_7="13000.00000" pt_clust_8="13000.00000" pt_clust_9="13000.00000"></scales>
<clustering>
<clus scale="   88.657">  7  8 -1 -1</clus>
<clus scale="   91.428">  5  6 -1 -1</clus>
<clus scale="   97.771">  5  9 -1 -1</clus>
<clus scale="  192.504">  2  7  1 -1</clus>
<clus scale="  317.012">  1  5  2 -1</clus>
</clustering>
</event>
<event>
 9    1  0.3303741E-006  0.2940783E+03  0.7546771E-02  0.1122632E+00
         21   -1    0    0  501  502  0.00000000000E+00  0.00000000000E+00  0.10161411175E+03  0.10161411175E+03  0.00000000000E+00 0.  1.
          2   -1    0    0  502    0 -0.00000000000E+00 -0.00000000000E+00 -0.43624043178E+03  0.43624043178E+03  0.00000000000E+00 0. -1.
         23    2    1    2    0    0 -0.34685622811E+02 -0.68182493141E+02 -0.13908184032E+03  0.18469777984E+03  0.94432869114E+02 0.  0.
         23    2    1    2    0    0 -0.69066449260E+02  0.50837323102E+02 -0.21036457500E+03  0.24692596491E+03  0.96770707863E+02 0.  0.
        -13    1    4    4    0    0 -0.80228025431E+02  0.22331818884E+02 -0.89529348697E+02  0.12227326150E+03  0.00000000000E+00 0.  1.
         13    1    4    4    0    0  0.11161576171E+02  0.28505504218E+02 -0.12083522630E+03  0.12465270342E+03  0.00000000000E+00 0. -1.
        -13    1    3    3    0    0  0.49651065700E+01 -0.76168528060E+02 -0.64837514020E+02  0.10015088704E+03  0.00000000000E+00 0.  1.
         13    1    3    3    0    0 -0.39650729381E+02  0.79860349197E+01 -0.74244326304E+02  0.84546892802E+02  0.00000000000E+00 0. -1.
          2    1    1    2  501    0  0.10375207207E+03  0.17345170038E+02  0.14820095291E+02  0.10623079877E+03  0.00000000000E+00 0. -1.
<scales pt_clust_5="13000.00000" pt_clust_6="13000.00000" pt_clust_7="13000.00000" pt_clust_8="13000.00000" pt_clust_9="13000.00000"></scales>
<clustering>
<clus scale="   94.433">  7  8 -1 -1</clus>
<clus scale="   96.771">  5  6 -1 -1</clus>
<clus scale="  105.192">  5  9 -1 -1</clus>
<clus scale="  121.530">  2  7  1 -1</clus>
<clus scale="  294.078">  1  5  2 -1</clus>
</clustering>
</event>
<event>
 9    1  0.3303741E-006  0.3330771E+03  0.7546771E-02  0.1115308E+00
         21   -1    0    0  501  502  0.00000000000E+00  0.00000000000E+00  0.99974391954E+02  0.99974391954E+02  0.00000000000E+00 0. -1.
          1   -1    0    0  502    0 -0.00000000000E+00 -0.00000000000E+00 -0.54901655230E+03  0.54901655230E+03  0.00000000000E+00 0. -1.
         23    2    1    2    0    0 -0.68209768381E+01 -0.36426724122E+02 -0.14584239446E+02  0.10154773878E+03  0.93412050916E+02 0.  0.
         23    2    1    2    0    0 -0.57681606308E+02  0.86936601057E+02 -0.44443561899E+03  0.46491208795E+03  0.87949359223E+02 0.  0.
        -11    1    3    3    0    0 -0.13600250365E+01 -0.62453861148E+02  0.12371115061E+02  0.63681857135E+02  0.00000000000E+00 0. -1.
         11    1    3    3    0    0 -0.54609518016E+01  0.26027137025E+02 -0.26955354508E+02  0.37865881648E+02  0.00000000000E+00 0.  1.
        -13    1    4    4    0    0  0.16551449624E+02  0.38860868729E+02 -0.21312629624E+03  0.21727157143E+03  0.00000000000E+00 0.  1.
         13    1    4    4    0    0 -0.74233055933E+02  0.48075732328E+02 -0.23130932275E+03  0.24764051652E+03  0.00000000000E+00 0. -1.
          1    1    1    2  501    0  0.64502583146E+02 -0.50509876935E+02  0.99776980858E+01  0.82531117523E+02  0.00000000000E+00 0. -1.
<scales pt_clust_5="13000.00000" pt_clust_6="13000.00000" pt_clust_7="13000.00000" pt_clust_8="13000.00000" pt_clust_9="13000.00000"></scales>
<clustering>
<clus scale="   87.949">  7  8 -1 -1</clus>
<clus scale="   81.926">  7  9 -1 -1</clus>
<clus scale="   93.412">  5  6 -1 -1</clus>
<clus scale="  100.495">  2  5  1 -1</clus>
<clus scale="  333.077">  1  5  2 -1</clus>
</clustering>
</event>
<event>
 9    1  0.3303741E-006  0.1936396E+03  0.7546771E-02  0.1171900E+00
         21   -1    0    0  501  502  0.00000000000E+00  0.00000000000E+00  0.27816370121E+03  0.27816370121E+03  0.00000000000E+00 0. -1.
          2   -1    0    0  502    0 -0.00000000000E+00 -0.00000000000E+00 -0.11679530473E+03  0.11679530473E+03  0.00000000000E+00 0. -1.
         23    2    1    2    0    0  0.30256584292E+01  0.94608075591E+02 -0.15689617381E+02  0.13257412420E+03  0.91487112408E+02 0.  0.
         23    2    1    2    0    0 -0.13301301016E+02 -0.61499613883E+02  0.30279364115E+02  0.11156800243E+03  0.87014091723E+02 0.  0.
        -11    1    3    3    0    0 -0.16285552369E+02  0.34451309787E+02 -0.48261275788E+02  0.61491972668E+02  0.00000000000E+00 0. -1.
         11    1    3    3    0    0  0.19311210798E+02  0.60156765804E+02  0.32571658406E+02  0.71082151528E+02  0.00000000000E+00 0.  1.
        -13    1    4    4    0    0 -0.14411646409E+01  0.20613861251E+02 -0.52409983164E+01  0.21318449629E+02  0.00000000000E+00 0. -1.
         13    1    4    4    0    0 -0.11860136375E+02 -0.82113475134E+02  0.35520362431E+02  0.90249552801E+02  0.00000000000E+00 0.  1.
          2    1    1    2  501    0  0.10275642587E+02 -0.33108461708E+02  0.14677864974E+03  0.15081687932E+03  0.00000000000E+00 0. -1.
<scales pt_clust_5="13000.00000" pt_clust_6="13000.00000" pt_clust_7="13000.00000" pt_clust_8="13000.00000" pt_clust_9="13000.00000"></scales>
<clustering>
<clus scale="   87.014">  7  8 -1 -1</clus>
<clus scale="   34.666">  7  9 -1 -1</clus>
<clus scale="   91.487">  5  6 -1 -1</clus>
<clus scale="  131.642">  2  5  1 -1</clus>
<clus scale="  193.640">  1  5  2 -1</clus>
</clustering>
</event>
<event>
 9    1  0.3303741E-006  0.4872776E+03  0.7546771E-02  0.1051738E+00
         21   -1    0    0  501  502  0.00000000000E+00  0.00000000000E+00  0.25253078557E+03  0.25253078557E+03  0.00000000000E+00 0.  1.
          1   -1    0    0  502    0 -0.00000000000E+00 -0.00000000000E+00 -0.44000049586E+03  0.44000049586E+03  0.00000000000E+00 0. -1.
         23    2    1    2    0    0  0.18914218427E+02 -0.15120434423E+03 -0.80417735873E+02  0.19363290659E+03  0.88352639455E+02 0.  0.
         23    2    1    2    0    0 -0.11862468224E+03  0.32696061016E+00 -0.23405503987E+03  0.27790982284E+03  0.91543354776E+02 0.  0.
        -13    1    4    4    0    0 -0.12464428353E+03  0.22171960303E+02 -0.18909443886E+03  0.22756207955E+03  0.00000000000E+00 0. -1.
         13    1    4    4    0    0  0.60196012954E+01 -0.21844999692E+02 -0.44960601009E+02  0.50347743290E+02  0.00000000000E+00 0.  1.
        -13    1    3    3    0    0 -0.16865904738E+02 -0.12481442992E+03 -0.79930060131E+02  0.14917075844E+03  0.00000000000E+00 0.  1.
         13    1    3    3    0    0  0.35780123165E+02 -0.26389914309E+02 -0.48767574145E+00  0.44462148156E+02  0.00000000000E+00 0. -1.
          1    1    1    2  501    0  0.99710463812E+02  0.15087738362E+03  0.12700306544E+03  0.22098855200E+03  0.00000000000E+00 0. -1.
<scales pt_clust_5="13000.00000" pt_clust_6="13000.00000" pt_clust_7="13000.00000" pt_clust_8="13000.00000" pt_clust_9="13000.00000"></scales>
<clustering>
<clus scale="   88.353">  7  8 -1 -1</clus>
<clus scale="   91.543">  5  6 -1 -1</clus>
<clus scale="  176.144">  2  7  1 -1</clus>
<clus scale="  163.624">  5  9 -1 -1</clus>
<clus scale="  487.278">  1  5  2 -1</clus>
</clustering>
</event>
<event>
 9    1  0.3303741E-006  0.5838916E+03  0.7546771E-02  0.1037229E+00
         21   -1    0    0  501  502  0.00000000000E+00  0.00000000000E+00  0.27659494352E+03  0.27659494352E+03  0.00000000000E+00 0. -1.
          1   -1    0    0  502    0 -0.00000000000E+00 -0.00000000000E+00 -0.92676361499E+03  0.92676361499E+03  0.00000000000E+00 0. -1.
         23    2    1    2    0    0  0.76590242281E+02  0.10412577607E+03 -0.59713012694E+03  0.61706299719E+03  0.86568536683E+02 0.  0.
         23    2    1    2    0    0 -0.16893457940E+03 -0.23681942588E+03 -0.20282201675E+03  0.36590915102E+03  0.90168751404E+02 0.  0.
        -11    1    3    3    0    0  0.63767336188E+01  0.81564982162E+02 -0.31718858171E+03  0.32757000078E+03  0.00000000000E+00 0.  1.
         11    1    3    3    0    0  0.70213508662E+02  0.22560793906E+02 -0.27994154523E+03  0.28949299640E+03  0.00000000000E+00 0. -1.
        -11    1    4    4    0    0 -0.16995072646E+03 -0.18125095033E+03 -0.15734178494E+03  0.29409453192E+03  0.00000000000E+00 0. -1.
         11    1    4    4    0    0  0.10161470650E+01 -0.55568475549E+02 -0.45480231811E+02  0.71814619092E+02  0.00000000000E+00 0.  1.
          1    1    1    2  501    0  0.92344337116E+02  0.13269364981E+03  0.14978347223E+03  0.22038641031E+03  0.00000000000E+00 0. -1.
<scales pt_clust_5="13000.00000" pt_clust_6="13000.00000" pt_clust_7="13000.00000" pt_clust_8="13000.00000" pt_clust_9="13000.00000"></scales>
<clustering>
<clus scale="   86.569">  5  6 -1 -1</clus>
<clus scale="   90.169">  7  8 -1 -1</clus>
<clus scale="  155.571">  2  5  1 -1</clus>
<clus scale="  175.934">  7  9 -1 -1</clus>
<clus scale="  583.892">  1  5  2 -1</clus>
</clustering>
</event>
<event>
 9    1  0.3303741E-006  0.3067699E+03  0.7546771E-02  0.1114077E+00
         21   -1    0    0  501  502  0.00000000000E+00  0.00000000000E+00  0.10921818177E+03  0.10921818177E+03  0.00000000000E+00 0.  1.
         -2   -1    0    0    0  501 -0.00000000000E+00 -0.00000000000E+00 -0.44226923811E+03  0.44226923811E+03  0.00000000000E+00 0.  1.
         23    2    1    2    0    0  0.59632207452E+02  0.76847421270E+02 -0.10610119369E+03  0.16989341892E+03  0.90248457987E+02 0.  0.
         23    2    1    2    0    0 -0.55135413151E+00 -0.40459238137E+02 -0.27825415254E+03  0.29529928929E+03  0.90216644284E+02 0.  0.
        -11    1    4    4    0    0 -0.32010140660E+02 -0.51096322321E+02 -0.12900192278E+03  0.14239725889E+03  0.00000000000E+00 0. -1.
         11    1    4    4    0    0  0.31458786528E+02  0.10637084184E+02 -0.14925222976E+03  0.15290203040E+03  0.00000000000E+00 0.  1.
        -13    1    3    3    0    0  0.34673487164E+02  0.84335543985E+02 -0.11071390844E+03  0.14343048565E+03  0.00000000000E+00 0.  1.
         13    1    3    3    0    0  0.24958720288E+02 -0.74881227155E+01  0.46127147460E+01  0.26462933276E+02  0.00000000000E+00 0. -1.
         -2    1    1    2    0  502 -0.59080853320E+02 -0.36388183133E+02  0.51304289890E+02  0.86294711668E+02  0.00000000000E+00 0.  1.
<scales pt_clust_5="13000.00000" pt_clust_6="13000.00000" pt_clust_7="13000.00000" pt_clust_8="13000.00000" pt_clust_9="13000.00000"></scales>
<clustering>
<clus scale="   90.217">  5  6 -1 -1</clus>
<clus scale="   69.388">  5  9 -1 -1</clus>
<clus scale="   90.248">  7  8 -1 -1</clus>
<clus scale="  132.689">  2  7  1 -1</clus>
<clus scale="  306.770">  1  5  2 -1</clus>
</clustering>
</event>
<event>
 9    1  0.3303741E-006  0.2395414E+03  0.7546771E-02  0.1141989E+00
         21   -1    0    0  501  502  0.00000000000E+00  0.00000000000E+00  0.65219310606E+02  0.65219310606E+02  0.00000000000E+00 0.  1.
          2   -1    0    0  502    0 -0.00000000000E+00 -0.00000000000E+00 -0.86978609258E+03  0.86978609258E+03  0.00000000000E+00 0. -1.
         23    2    1    2    0    0  0.70672009996E+02 -0.79547535883E+02 -0.59137117552E+02  0.15203319436E+03  0.91074420411E+02 0.  0.
         23    2    1    2    0    0 -0.26539101891E+02 -0.43839797141E+02 -0.24340094086E+03  0.26412253232E+03  0.88828161776E+02 0.  0.
        -13    1    4    4    0    0 -0.34129438492E+02  0.19080900955E+02 -0.97750035809E+02  0.10528042959E+03  0.00000000000E+00 0. -1.
         13    1    4    4    0    0  0.75903366007E+01 -0.62920698096E+02 -0.14565090505E+03  0.15884210273E+03  0.00000000000E+00 0.  1.
        -13    1    3    3    0    0  0.90130628682E+00 -0.52273455041E+02 -0.56638402259E+02  0.77079407532E+02  0.00000000000E+00 0. -1.
         13    1    3    3    0    0  0.69770703709E+02 -0.27274080841E+02 -0.24987152922E+01  0.74953786828E+02  0.00000000000E+00 0.  1.
          2    1    1    2  501    0 -0.44132908105E+02  0.12338733302E+03 -0.50202872357E+03  0.51884967651E+03  0.00000000000E+00 0. -1.
<scales pt_clust_5="13000.00000" pt_clust_6="13000.00000" pt_clust_7="13000.00000" pt_clust_8="13000.00000" pt_clust_9="13000.00000"></scales>
<clustering>
<clus scale="   88.828">  5  6 -1 -1</clus>
<clus scale="   91.074">  7  8 -1 -1</clus>
<clus scale="  131.043">  5  9 -1 -1</clus>
<clus scale="  140.060">  2  7  1 -1</clus>
<clus scale="  239.541">  1  5  2 -1</clus>
</clustering>
</event>
<event>
 9    1  0.3303741E-006  0.1783031E+03  0.7546771E-02  0.1190296E+00
         -3   -1    0    0    0  501 -0.00000000000E+00  0.00000000000E+00  0.12140481233E+03  0.12140481233E+03  0.00000000000E+00 0.  1.
         21   -1    0    0  501  502  0.00000000000E+00 -0.00000000000E+00 -0.17854847149E+03  0.17854847149E+03  0.00000000000E+00 0. -1.
         23    2    1    2    0    0 -0.61162319874E+02  0.15396967085E+02  0.34117185135E+01  0.11164778299E+03  0.92063519676E+02 0.  0.
         23    2    1    2    0    0  0.40544080328E+02 -0.65831404945E+02 -0.57754253273E+02  0.13374736100E+03  0.92602410744E+02 0.  0.
        -11    1    4    4    0    0 -0.14479959702E+02 -0.35711209634E+02 -0.59621844912E+02  0.70991014342E+02  0.00000000000E+00 0. -1.
         11    1    4    4    0    0  0.55024040031E+02 -0.30120195311E+02  0.18675916395E+01  0.62756346654E+02  0.00000000000E+00 0.  1.
        -13    1    3    3    0    0 -0.20751053682E+02 -0.38793318883E+02  0.16521082455E+01  0.44025643442E+02  0.00000000000E+00 0.  1.
         13    1    3    3    0    0 -0.40411266191E+02  0.54190285967E+02  0.17596102680E+01  0.67622139545E+02  0.00000000000E+00 0. -1.
         -3    1    1    2    0  502  0.20618239545E+02  0.50434437861E+02 -0.28011243960E+01  0.54558139834E+02  0.00000000000E+00 0.  1.
<scales pt_clust_5="13000.00000" pt_clust_6="13000.00000" pt_clust_7="13000.00000" pt_clust_8="13000.00000" pt_clust_9="13000.00000"></scales>
<clustering>
<clus scale="   92.064">  7  8 -1 -1</clus>
<clus scale="   92.602">  5  6 -1 -1</clus>
<clus scale="   54.486">  5  9 -1 -1</clus>
<clus scale="  111.596">  1  7  2 -1</clus>
<clus scale="  178.303">  2  5  1 -1</clus>
</clustering>
</event>
<event>
 9    1  0.3303741E-006  0.2935885E+03  0.7546771E-02  0.1100746E+00
          2   -1    0    0  502    0 -0.00000000000E+00  0.00000000000E+00  0.32307429278E+03  0.32307429278E+03  0.00000000000E+00 0. -1.
         21   -1    0    0  501  502  0.00000000000E+00 -0.00000000000E+00 -0.23073178669E+03  0.23073178669E+03  0.00000000000E+00 0. -1.
         23    2    1    2    0    0  0.30718264199E+02 -0.19067502080E+03  0.14215286051E+03  0.25602213460E+03  0.89662268210E+02 0.  0.
         23    2    1    2    0    0 -0.69409153811E+01  0.46075839257E+02  0.55850181677E+02  0.11712284085E+03  0.91800641527E+02 0.  0.
        -11    1    3    3    0    0 -0.34193005301E+01 -0.17496484576E+03  0.12250984876E+03  0.21361894089E+03  0.00000000000E+00 0. -1.
         11    1    3    3    0    0  0.34137564729E+02 -0.15710175045E+02  0.19643011753E+02  0.42403193704E+02  0.00000000000E+00 0.  1.
        -11    1    4    4    0    0  0.39367341417E+02  0.33433172799E+02  0.43576085859E+02  0.67575438381E+02  0.00000000000E+00 0.  1.
         11    1    4    4    0    0 -0.46308256798E+02  0.12642666458E+02  0.12274095817E+02  0.49547402464E+02  0.00000000000E+00 0. -1.
          2    1    1    2  501    0 -0.23777348818E+02  0.14459918154E+03 -0.10566053610E+03  0.18066110403E+03  0.00000000000E+00 0. -1.
<scales pt_clust_5="13000.00000" pt_clust_6="13000.00000" pt_clust_7="13000.00000" pt_clust_8="13000.00000" pt_clust_9="13000.00000"></scales>
<clustering>
<clus scale="   89.662">  5  6 -1 -1</clus>
<clus scale="   91.801">  7  8 -1 -1</clus>
<clus scale="  146.541">  7  9 -1 -1</clus>
<clus scale="  212.932">  1  5  2 -1</clus>
<clus scale="  293.588">  2  5  1 -1</clus>
</clustering>
</event>
<event>
 9    1  0.3303741E-006  0.3294294E+03  0.7546771E-02  0.1117228E+00
         21   -1    0    0  501  502  0.00000000000E+00  0.00000000000E+00  0.27305454052E+02  0.27305454052E+02  0.00000000000E+00 0. -1.
          1   -1    0    0  502    0 -0.00000000000E+00 -0.00000000000E+00 -0.17466572416E+04  0.17466572416E+04  0.00000000000E+00 0. -1.
         23    2    1    2    0    0  0.29396524622E+02 -0.23343078766E+02 -0.26789295957E+03  0.28558892332E+03  0.91571504017E+02 0.  0.
         23    2    1    2    0    0  0.71760111026E+01  0.15199862303E+03 -0.57497904823E+03  0.60174724231E+03  0.91344190754E+02 0.  0.
        -11    1    4    4    0    0 -0.38606908243E+02  0.57593255973E+02 -0.28680439072E+03  0.29506649256E+03  0.00000000000E+00 0.  1.
         11    1    4    4    0    0  0.45782919346E+02  0.94405367060E+02 -0.28817465751E+03  0.30668074974E+03  0.00000000000E+00 0. -1.
        -11    1    3    3    0    0  0.34454284205E+02 -0.55932263663E+02 -0.18848345965E+03  0.19960343278E+03  0.00000000000E+00 0. -1.
         11    1    3    3    0    0 -0.50577595832E+01  0.32589184896E+02 -0.79409499927E+02  0.85985490537E+02  0.00000000000E+00 0.  1.
          1    1    1    2  501    0 -0.36572535725E+02 -0.12865554427E+03 -0.87647977973E+03  0.88662653001E+03  0.00000000000E+00 0. -1.
<scales pt_clust_5="13000.00000" pt_clust_6="13000.00000" pt_clust_7="13000.00000" pt_clust_8="13000.00000" pt_clust_9="13000.00000"></scales>
<clustering>
<clus scale="   91.344">  5  6 -1 -1</clus>
<clus scale="   91.572">  7  8 -1 -1</clus>
<clus scale="   98.967">  2  7  1 -1</clus>
<clus scale="  143.907">  5  9 -1 -1</clus>
<clus scale="  329.429">  1  5  2 -1</clus>
</clustering>
</event>
<event>
 9    1  0.3303741E-006  0.3442082E+03  0.7546771E-02  0.1113482E+00
         21   -1    0    0  501  502  0.00000000000E+00  0.00000000000E+00  0.39237143483E+02  0.39237143483E+02  0.00000000000E+00 0. -1.
          2   -1    0    0  502    0 -0.00000000000E+00 -0.00000000000E+00 -0.13511816511E+04  0.13511816511E+04  0.00000000000E+00 0. -1.
         23    2    1    2    0    0 -0.11961080845E+02  0.20365805109E+02 -0.14321826592E+03  0.17205910143E+03  0.92385221867E+02 0.  0.
         23    2    1    2    0    0 -0.12757001758E+03  0.10410067228E+02 -0.30841594073E+03  0.34626457466E+03  0.91631240765E+02 0.  0.
        -11    1    4    4    0    0 -0.24421378953E+02  0.42815709718E+02 -0.95649948696E+02  0.10760344527E+03  0.00000000000E+00 0.  1.
         11    1    4    4    0    0 -0.10314863863E+03 -0.32405642490E+02 -0.21276599204E+03  0.23866112939E+03  0.00000000000E+00 0. -1.
        -13    1    3    3    0    0  0.19182517651E+02  0.47099189994E+02 -0.10154268156E+03  0.11356592297E+03  0.00000000000E+00 0.  1.
         13    1    3    3    0    0 -0.31143598496E+02 -0.26733384885E+02 -0.41675584355E+02  0.58493178458E+02  0.00000000000E+00 0. -1.
          2    1    1    2  501    0  0.13953109842E+03 -0.30775872337E+02 -0.86031030095E+03  0.87209511848E+03  0.00000000000E+00 0. -1.
<scales pt_clust_5="13000.00000" pt_clust_6="13000.00000" pt_clust_7="13000.00000" pt_clust_8="13000.00000" pt_clust_9="13000.00000"></scales>
<clustering>
<clus scale="   91.631">  5  6 -1 -1</clus>
<clus scale="   92.385">  7  8 -1 -1</clus>
<clus scale="   95.357">  2  7  1 -1</clus>
<clus scale="  131.825">  5  9 -1 -1</clus>
<clus scale="  344.208">  1  5  2 -1</clus>
</clustering>
</event>
<event>
 9    1  0.3303741E-006  0.2101539E+03  0.7546771E-02  0.1153992E+00
          2   -1    0    0  502    0 -0.00000000000E+00  0.00000000000E+00  0.37542214413E+03  0.37542214413E+03  0.00000000000E+00 0. -1.
         21   -1    0    0  501  502  0.00000000000E+00 -0.00000000000E+00 -0.24252056532E+03  0.24252056532E+03  0.00000000000E+00 0. -1.
         23    2    1    2    0    0 -0.13659687612E+02 -0.12683932593E+03  0.30746975721E+03  0.34474186862E+03  0.89635387635E+02 0.  0.
         23    2    1    2    0    0 -0.25070883922E+02  0.31443034628E+02 -0.52624002565E+02  0.11360481461E+03  0.92301433409E+02 0.  0.
        -11    1    4    4    0    0 -0.88283209650E+01  0.61270773888E+02 -0.49938212625E+02  0.79535351034E+02  0.00000000000E+00 0.  1.
         11    1    4    4    0    0 -0.16242562957E+02 -0.29827739260E+02 -0.26857899406E+01  0.34069463577E+02  0.00000000000E+00 0. -1.
        -13    1    3    3    0    0  0.11937640535E+02 -0.11213601990E+03  0.28823138143E+03  0.30950658065E+03  0.00000000000E+00 0. -1.
         13    1    3    3    0    0 -0.25597328147E+02 -0.14703306022E+02  0.19238375777E+02  0.35235287976E+02  0.00000000000E+00 0.  1.
          2    1    1    2  501    0  0.38730571534E+02  0.95396291298E+02 -0.12194417583E+03  0.15959602622E+03  0.00000000000E+00 0. -1.
<scales pt_clust_5="13000.00000" pt_clust_6="13000.00000" pt_clust_7="13000.00000" pt_clust_8="13000.00000" pt_clust_9="13000.00000"></scales>
<clustering>
<clus scale="   89.635">  7  8 -1 -1</clus>
<clus scale="   92.301">  5  6 -1 -1</clus>
<clus scale="  102.959">  5  9 -1 -1</clus>
<clus scale="  155.914">  1  7  2 -1</clus>
<clus scale="  210.154">  2  5  1 -1</clus>
</clustering>
</event>
<event>
 9    1  0.3303741E-006  0.4579716E+03  0.7546771E-02  0.1076621E+00
         -3   -1    0    0    0  501 -0.00000000000E+00  0.00000000000E+00  0.61169188550E+03  0.61169188550E+03  0.00000000000E+00 0.  1.
         21   -1    0    0  501  502  0.00000000000E+00 -0.00000000000E+00 -0.17607997677E+03  0.17607997677E+03  0.00000000000E+00 0.  1.
         23    2    1    2    0    0 -0.15959426340E+02 -0.54147960536E+02 -0.52389107744E+02  0.11853129238E+03  0.90101852059E+02 0.  0.
         23    2    1    2    0    0  0.29085073056E+02 -0.18987770341E+03  0.19642305888E+03  0.28879541928E+03  0.89001642735E+02 0.  0.
        -13    1    3    3    0    0 -0.21225489208E+02 -0.78151479520E+02 -0.46019293983E+02  0.93144782795E+02  0.00000000000E+00 0.  1.
         13    1    3    3    0    0  0.52660628681E+01  0.24003518984E+02 -0.63698137606E+01  0.25386509588E+02  0.00000000000E+00 0. -1.
        -13    1    4    4    0    0  0.22829855548E+02 -0.92320084460E+02  0.15664678059E+03  0.18325505223E+03  0.00000000000E+00 0. -1.
         13    1    4    4    0    0  0.62552175080E+01 -0.97557618954E+02  0.39776278285E+02  0.10554036705E+03  0.00000000000E+00 0.  1.
         -3    1    1    2    0  502 -0.13125646717E+02  0.24402566395E+03  0.29157795760E+03  0.38044515061E+03  0.00000000000E+00 0.  1.
<scales pt_clust_5="13000.00000" pt_clust_6="13000.00000" pt_clust_7="13000.00000" pt_clust_8="13000.00000" pt_clust_9="13000.00000"></scales>
<clustering>
<clus scale="   89.002">  7  8 -1 -1</clus>
<clus scale="   90.102">  5  6 -1 -1</clus>
<clus scale="  106.325">  1  5  2 -1</clus>
<clus scale="  213.758">  7  9 -1 -1</clus>
<clus scale="  457.972">  2  5  1 -1</clus>
</clustering>
</event>
<event>
 9    1  0.3303741E-006  0.2650469E+03  0.7546771E-02  0.1132579E+00
         21   -1    0    0  501  502  0.00000000000E+00  0.00000000000E+00  0.51943443660E+02  0.51943443660E+02  0.00000000000E+00 0. -1.
          1   -1    0    0  502    0 -0.00000000000E+00 -0.00000000000E+00 -0.75068199355E+03  0.75068199355E+03  0.00000000000E+00 0. -1.
         23    2    1    2    0    0 -0.66415637122E+02 -0.63439181857E+02 -0.23172113451E+03  0.26563834524E+03  0.91833978623E+02 0.  0.
         23    2    1    2    0    0  0.44733029891E+02  0.14306948168E+03 -0.25304965015E+03  0.30765474654E+03  0.90262933012E+02 0.  0.
        -13    1    3    3    0    0 -0.28491240670E+02 -0.64360134317E+02 -0.21096329620E+03  0.22239489658E+03  0.00000000000E+00 0.  1.
         13    1    3    3    0    0 -0.37924396452E+02  0.92095245928E+00 -0.20757838318E+02  0.43243448652E+02  0.00000000000E+00 0. -1.
        -13    1    4    4    0    0  0.67402387322E+02  0.10793365015E+03 -0.22081935825E+03  0.25486063570E+03  0.00000000000E+00 0. -1.
         13    1    4    4    0    0 -0.22669357431E+02  0.35135831529E+02 -0.32230291908E+02  0.52794110846E+02  0.00000000000E+00 0.  1.
          1    1    1    2  501    0  0.21682607231E+02 -0.79630299824E+02 -0.21396776522E+03  0.22933234543E+03  0.00000000000E+00 0. -1.
<scales pt_clust_5="13000.00000" pt_clust_6="13000.00000" pt_clust_7="13000.00000" pt_clust_8="13000.00000" pt_clust_9="13000.00000"></scales>
<clustering>
<clus scale="   90.263">  7  8 -1 -1</clus>
<clus scale="   82.530">  7  9 -1 -1</clus>
<clus scale="   91.834">  5  6 -1 -1</clus>
<clus scale="  129.881">  2  5  1 -1</clus>
<clus scale="  265.047">  1  5  2 -1</clus>
</clustering>
</event>
<event>
 9    1  0.3303741E-006  0.3646361E+03  0.7546771E-02  0.1104671E+00
         21   -1    0    0  501  502  0.00000000000E+00  0.00000000000E+00  0.15324418738E+03  0.15324418738E+03  0.00000000000E+00 0. -1.
          2   -1    0    0  502    0 -0.00000000000E+00 -0.00000000000E+00 -0.41374226145E+03  0.41374226145E+03  0.00000000000E+00 0. -1.
         23    2    1    2    0    0  0.21866336562E+02  0.33977867955E+02 -0.15973476410E+03  0.18868400065E+03  0.91944684753E+02 0.  0.
         23    2    1    2    0    0 -0.13505186235E+03 -0.13534186983E+03 -0.40655022237E+02  0.21490529282E+03  0.89303005539E+02 0.  0.
        -11    1    3    3    0    0  0.55316344210E+02  0.87427918750E+01 -0.11162179331E+03  0.12488298158E+03  0.00000000000E+00 0. -1.
         11    1    3    3    0    0 -0.33450007647E+02  0.25235076080E+02 -0.48112970791E+02  0.63801019073E+02  0.00000000000E+00 0.  1.
        -11    1    4    4    0    0 -0.62264469742E+02 -0.15395377400E+02 -0.38051173757E+02  0.74577299910E+02  0.00000000000E+00 0.  1.
         11    1    4    4    0    0 -0.72787392604E+02 -0.11994649243E+03 -0.26038484799E+01  0.14032799291E+03  0.00000000000E+00 0. -1.
          2    1    1    2  501    0  0.11318552578E+03  0.10136400187E+03 -0.60108287725E+02  0.16339715535E+03  0.00000000000E+00 0. -1.
<scales pt_clust_5="13000.00000" pt_clust_6="13000.00000" pt_clust_7="13000.00000" pt_clust_8="13000.00000" pt_clust_9="13000.00000"></scales>
<clustering>
<clus scale="   89.303">  7  8 -1 -1</clus>
<clus scale="   91.945">  5  6 -1 -1</clus>
<clus scale="  100.431">  2  5  1 -1</clus>
<clus scale="  170.188">  7  9 -1 -1</clus>
<clus scale="  364.636">  1  5  2 -1</clus>
</clustering>
</event>
<event>
 9    1  0.3303741E-006  0.1558228E+03  0.7546771E-02  0.1215328E+00
         -3   -1    0    0    0  501 -0.00000000000E+00  0.00000000000E+00  0.16512462783E+03  0.16512462783E+03  0.00000000000E+00 0.  1.
         21   -1    0    0  501  502  0.00000000000E+00 -0.00000000000E+00 -0.11912445024E+03  0.11912445024E+03  0.00000000000E+00 0.  1.
         23    2    1    2    0    0  0.23764227727E+02  0.14912442180E+02  0.78545058287E+02  0.12506395458E+03  0.93190917494E+02 0.  0.
         23    2    1    2    0    0  0.23886468517E+02  0.15743992651E+02 -0.35455832294E+01  0.95534788826E+02  0.91081765644E+02 0.  0.
        -11    1    4    4    0    0 -0.33446777951E+02 -0.61572835439E+01 -0.32090200692E+01  0.34159872742E+02  0.00000000000E+00 0. -1.
         11    1    4    4    0    0  0.57333246468E+02  0.21901276195E+02 -0.33656316023E+00  0.61374916084E+02  0.00000000000E+00 0.  1.
        -13    1    3    3    0    0 -0.24637617067E-01 -0.29481801008E+02  0.67276199715E+02  0.73452462490E+02  0.00000000000E+00 0.  1.
         13    1    3    3    0    0  0.23788865344E+02  0.44394243188E+02  0.11268858572E+02  0.51611492093E+02  0.00000000000E+00 0. -1.
         -3    1    1    2    0  502 -0.47650696244E+02 -0.30656434831E+02 -0.28999297465E+02  0.63650334661E+02  0.00000000000E+00 0.  1.
<scales pt_clust_5="13000.00000" pt_clust_6="13000.00000" pt_clust_7="13000.00000" pt_clust_8="13000.00000" pt_clust_9="13000.00000"></scales>
<clustering>
<clus scale="   91.082">  5  6 -1 -1</clus>
<clus scale="   56.660">  5  9 -1 -1</clus>
<clus scale="   93.191">  7  8 -1 -1</clus>
<clus scale="   97.322">  1  7  2 -1</clus>
<clus scale="  155.823">  2  5  1 -1</clus>
</clustering>
</event>
<event>
 9    1  0.3303741E-006  0.1632013E+03  0.7546771E-02  0.1194497E+00
         21   -1    0    0  501  502  0.00000000000E+00  0.00000000000E+00  0.16439619887E+03  0.16439619887E+03  0.00000000000E+00 0.  1.
          1   -1    0    0  502    0 -0.00000000000E+00 -0.00000000000E+00 -0.32805258465E+03  0.32805258465E+03  0.00000000000E+00 0. -1.
         23    2    1    2    0    0  0.41516837307E+01 -0.83623062339E+02 -0.26778864264E+03  0.29885590075E+03  0.10292734939E+03 0.  0.
         23    2    1    2    0    0  0.17274778620E+02  0.93734611892E+02  0.65739333437E+02  0.14847799285E+03  0.92948689914E+02 0.  0.
        -13    1    3    3    0    0  0.31018811048E+02  0.18857231959E+01 -0.13580422041E+03  0.13931442450E+03  0.00000000000E+00 0.  1.
         13    1    3    3    0    0 -0.26867127317E+02 -0.85508785535E+02 -0.13198442223E+03  0.15954147625E+03  0.00000000000E+00 0. -1.
        -13    1    4    4    0    0  0.48311201070E+02  0.64789220346E+02  0.14776280793E+02  0.82158101827E+02  0.00000000000E+00 0. -1.
         13    1    4    4    0    0 -0.31036422450E+02  0.28945391547E+02  0.50963052644E+02  0.66319891021E+02  0.00000000000E+00 0.  1.
          1    1    1    2  501    0 -0.21426462351E+02 -0.10111549553E+02  0.38392923421E+02  0.45114889915E+02  0.00000000000E+00 0. -1.
<scales pt_clust_5="13000.00000" pt_clust_6="13000.00000" pt_clust_7="13000.00000" pt_clust_8="13000.00000" pt_clust_9="13000.00000"></scales>
<clustering>
<clus scale="   92.949">  7  8 -1 -1</clus>
<clus scale="   23.693">  7  9 -1 -1</clus>
<clus scale="  102.927">  5  6 -1 -1</clus>
<clus scale="  132.680">  2  5  1 -1</clus>
<clus scale="  163.201">  1  5  2 -1</clus>
</clustering>
</event>
<event>
 9    1  0.3303741E-006  0.3420440E+03  0.7546771E-02  0.1114096E+00
         -1   -1    0    0    0  501 -0.00000000000E+00  0.00000000000E+00  0.34958947307E+03  0.34958947307E+03  0.00000000000E+00 0.  1.
         21   -1    0    0  501  502  0.00000000000E+00 -0.00000000000E+00 -0.19061797179E+03  0.19061797179E+03  0.00000000000E+00 0.  1.
         23    2    1    2    0    0  0.23707097656E+02  0.56528500584E+00  0.17319628143E+03  0.19786773884E+03  0.92694898171E+02 0.  0.
         23    2    1    2    0    0  0.58180498648E+02  0.33897794250E+02  0.12928717082E+03  0.17355296978E+03  0.94188268389E+02 0.  0.
        -11    1    4    4    0    0  0.81143542688E+02  0.20859954544E+02  0.11827470269E+03  0.14494246279E+03  0.00000000000E+00 0.  1.
         11    1    4    4    0    0 -0.22963044040E+02  0.13037839706E+02  0.11012468132E+02  0.28610506989E+02  0.00000000000E+00 0. -1.
        -13    1    3    3    0    0 -0.17076833193E+02  0.34813387408E+02  0.10073618022E+03  0.10794150351E+03  0.00000000000E+00 0. -1.
         13    1    3    3    0    0  0.40783930850E+02 -0.34248102402E+02  0.72460101209E+02  0.89926235331E+02  0.00000000000E+00 0.  1.
         -1    1    1    2    0  502 -0.81887596305E+02 -0.34463079256E+02 -0.14351195097E+03  0.16878673625E+03  0.00000000000E+00 0.  1.
<scales pt_clust_5="13000.00000" pt_clust_6="13000.00000" pt_clust_7="13000.00000" pt_clust_8="13000.00000" pt_clust_9="13000.00000"></scales>
<clustering>
<clus scale="   92.695">  7  8 -1 -1</clus>
<clus scale="   94.188">  5  6 -1 -1</clus>
<clus scale="   88.844">  5  9 -1 -1</clus>
<clus scale="   95.680">  1  7  2 -1</clus>
<clus scale="  342.044">  2  5  1 -1</clus>
</clustering>
</event>
<event>
 9    1  0.3303741E-006  0.3727786E+03  0.7546771E-02  0.1083469E+00
         -1   -1    0    0    0  501 -0.00000000000E+00  0.00000000000E+00  0.12085286246E+03  0.12085286246E+03  0.00000000000E+00 0.  1.
         21   -1    0    0  501  502  0.00000000000E+00 -0.00000000000E+00 -0.70842338594E+03  0.70842338594E+03  0.00000000000E+00 0. -1.
         23    2    1    2    0    0 -0.13332053110E+03 -0.25670469182E+02 -0.35199410553E+03  0.38829989506E+03  0.91889178757E+02 0.  0.
         23    2    1    2    0    0 -0.77753555898E+02 -0.12549104641E+02  0.14295161186E+01  0.12131275078E+03  0.92258574141E+02 0.  0.
        -11    1    4    4    0    0 -0.63176838841E+02  0.34164215075E+02 -0.48003387419E+01  0.71982982778E+02  0.00000000000E+00 0.  1.
         11    1    4    4    0    0 -0.14576717057E+02 -0.46713319717E+02  0.62298548605E+01  0.49329767998E+02  0.00000000000E+00 0. -1.
        -11    1    3    3    0    0 -0.40868287194E+02 -0.47904071427E+02 -0.92198348260E+02  0.11164923815E+03  0.00000000000E+00 0.  1.
         11    1    3    3    0    0 -0.92452243906E+02  0.22233602244E+02 -0.25979575727E+03  0.27665065691E+03  0.00000000000E+00 0. -1.
         -1    1    1    2    0  502  0.21107408700E+03  0.38219573824E+02 -0.23700593406E+03  0.31966360257E+03  0.00000000000E+00 0.  1.
<scales pt_clust_5="13000.00000" pt_clust_6="13000.00000" pt_clust_7="13000.00000" pt_clust_8="13000.00000" pt_clust_9="13000.00000"></scales>
<clustering>
<clus scale="   91.889">  7  8 -1 -1</clus>
<clus scale="   92.259">  5  6 -1 -1</clus>
<clus scale="  163.942">  1  7  2 -1</clus>
<clus scale="  159.874">  5  9 -1 -1</clus>
<clus scale="  372.779">  2  5  1 -1</clus>
</clustering>
</event>
<event>
 9    1  0.3303741E-006  0.2316712E+03  0.7546771E-02  0.1152652E+00
         21   -1    0    0  501  502  0.00000000000E+00  0.00000000000E+00  0.47532816568E+02  0.47532816568E+02  0.00000000000E+00 0.  1.
          3   -1    0    0  502    0 -0.00000000000E+00 -0.00000000000E+00 -0.68414830122E+03  0.68414830122E+03  0.00000000000E+00 0. -1.
         23    2    1    2    0    0 -0.21394322629E+02 -0.73647538705E+02 -0.29899284739E+03  0.32221733861E+03  0.92442487585E+02 0.  0.
         23    2    1    2    0    0 -0.69967662477E+02  0.79855289061E+02 -0.20432460388E+03  0.24774206081E+03  0.91407023599E+02 0.  0.
        -13    1    4    4    0    0 -0.57627806941E+02  0.10001327079E+03 -0.17996083045E+03  0.21379784602E+03  0.00000000000E+00 0. -1.
         13    1    4    4    0    0 -0.12339855536E+02 -0.20157981732E+02 -0.24363773424E+02  0.33944214789E+02  0.00000000000E+00 0.  1.
        -13    1    3    3    0    0  0.35518970073E+02 -0.39451382590E+02 -0.11660941890E+03  0.12812402351E+03  0.00000000000E+00 0. -1.
         13    1    3    3    0    0 -0.56913292701E+02 -0.34196156115E+02 -0.18238342849E+03  0.19409331510E+03  0.00000000000E+00 0.  1.
          3    1    1    2  501    0  0.91361985105E+02 -0.62077503563E+01 -0.13329803338E+03  0.16172171836E+03  0.00000000000E+00 0. -1.
<scales pt_clust_5="13000.00000" pt_clust_6="13000.00000" pt_clust_7="13000.00000" pt_clust_8="13000.00000" pt_clust_9="13000.00000"></scales>
<clustering>
<clus scale="   91.407">  5  6 -1 -1</clus>
<clus scale="   91.573">  5  9 -1 -1</clus>
<clus scale="   92.442">  7  8 -1 -1</clus>
<clus scale="  120.114">  2  7  1 -1</clus>
<clus scale="  231.671">  1  5  2 -1</clus>
</clustering>
</event>
<event>
 9    1  0.3303741E-006  0.6623590E+03  0.7546771E-02  0.1027545E+00
         21   -1    0    0  501  502  0.00000000000E+00  0.00000000000E+00  0.45641299478E+03  0.45641299478E+03  0.00000000000E+00 0. -1.
         -1   -1    0    0    0  501 -0.00000000000E+00 -0.00000000000E+00 -0.78888553131E+03  0.78888553131E+03  0.00000000000E+00 0.  1.
         23    2    1    2    0    0  0.99583371911E+02  0.43278350430E+02 -0.53434831198E+03  0.55285841953E+03  0.91293208702E+02 0.  0.
         23    2    1    2    0    0 -0.22480657560E+03  0.10855327616E+03  0.35530278741E+03  0.44289343443E+03  0.87136176929E+02 0.  0.
        -11    1    4    4    0    0 -0.17832360390E+03  0.44224534995E+02  0.26774249820E+03  0.32471704998E+03  0.00000000000E+00 0. -1.
         11    1    4    4    0    0 -0.46482971699E+02  0.64328741163E+02  0.87560289203E+02  0.11817638445E+03  0.00000000000E+00 0.  1.
        -13    1    3    3    0    0  0.72635154420E+02  0.69535711013E+02 -0.43868758844E+03  0.45006430765E+03  0.00000000000E+00 0.  1.
         13    1    3    3    0    0  0.26948217491E+02 -0.26257360583E+02 -0.95660723536E+02  0.10279411189E+03  0.00000000000E+00 0. -1.
         -1    1    1    2    0  502  0.12522320368E+03 -0.15183162659E+03 -0.15342701195E+03  0.24954667213E+03  0.00000000000E+00 0.  1.
<scales pt_clust_5="13000.00000" pt_clust_6="13000.00000" pt_clust_7="13000.00000" pt_clust_8="13000.00000" pt_clust_9="13000.00000"></scales>
<clustering>
<clus scale="   87.136">  5  6 -1 -1</clus>
<clus scale="   91.293">  7  8 -1 -1</clus>
<clus scale="  141.860">  2  7  1 -1</clus>
<clus scale="  237.447">  5  9 -1 -1</clus>
<clus scale="  662.359">  1  5  2 -1</clus>
</clustering>
</event>
<event>
 9    1  0.3303741E-006  0.2521542E+03  0.7546771E-02  0.1145590E+00
         21   -1    0    0  501  502  0.00000000000E+00  0.00000000000E+00  0.56929761513E+02  0.56929761513E+02  0.00000000000E+00 0.  1.
         -2   -1    0    0    0  501 -0.00000000000E+00 -0.00000000000E+00 -0.66875373826E+03  0.66875373826E+03  0.00000000000E+00 0.  1.
         23    2    1    2    0    0  0.40328944628E+02 -0.47630869463E+02 -0.76993189398E+02  0.13439194091E+03  0.90764084683E+02 0.  0.
         23    2    1    2    0    0  0.52608096549E+02  0.35370209907E+02 -0.44924285697E+03  0.46435491631E+03  0.98932705365E+02 0.  0.
        -11    1    3    3    0    0 -0.28570837292E+02 -0.82525933394E+01 -0.13044180624E+02  0.32473815430E+02  0.00000000000E+00 0. -1.
         11    1    3    3    0    0  0.68899781920E+02 -0.39378276123E+02 -0.63949008773E+02  0.10191812548E+03  0.00000000000E+00 0.  1.
        -11    1    4    4    0    0  0.76432958747E+02  0.48246159367E+02 -0.35020184839E+03  0.36167806636E+03  0.00000000000E+00 0.  1.
         11    1    4    4    0    0 -0.23824862197E+02 -0.12875949460E+02 -0.99041008585E+02  0.10267684995E+03  0.00000000000E+00 0. -1.
         -2    1    1    2    0  502 -0.92937041177E+02  0.12260659556E+02 -0.85587930383E+02  0.12693664255E+03  0.00000000000E+00 0.  1.
<scales pt_clust_5="13000.00000" pt_clust_6="13000.00000" pt_clust_7="13000.00000" pt_clust_8="13000.00000" pt_clust_9="13000.00000"></scales>
<clustering>
<clus scale="   90.764">  5  6 -1 -1</clus>
<clus scale="   98.933">  7  8 -1 -1</clus>
<clus scale="   93.742">  7  9 -1 -1</clus>
<clus scale="  110.151">  2  5  1 -1</clus>
<clus scale="  252.154">  1  5  2 -1</clus>
</clustering>
</event>
<event>
 9    1  0.3303741E-006  0.2537485E+03  0.7546771E-02  0.1147503E+00
          1   -1    0    0  502    0 -0.00000000000E+00  0.00000000000E+00  0.60773218293E+03  0.60773218293E+03  0.00000000000E+00 0. -1.
         21   -1    0    0  501  502  0.00000000000E+00 -0.00000000000E+00 -0.87216426320E+02  0.87216426320E+02  0.00000000000E+00 0.  1.
         23    2    1    2    0    0 -0.43033903934E+02 -0.15012679641E+02  0.40169628970E+03  0.41475874168E+03  0.92669343382E+02 0.  0.
         23    2    1    2    0    0 -0.92740701109E+01 -0.50922852138E+02 -0.28571940560E+02  0.11046112665E+03  0.93306802895E+02 0.  0.
        -11    1    3    3    0    0 -0.21509924958E+01 -0.49643349229E+02  0.19192484968E+03  0.19825296169E+03  0.00000000000E+00 0.  1.
         11    1    3    3    0    0 -0.40882911438E+02  0.34630669588E+02  0.20977144001E+03  0.21650577999E+03  0.00000000000E+00 0. -1.
        -13    1    4    4    0    0  0.36391506213E+02 -0.88027641402E+00  0.12901252015E+01  0.36425005615E+02  0.00000000000E+00 0. -1.
         13    1    4    4    0    0 -0.45665576323E+02 -0.50042575724E+02 -0.29862065762E+02  0.74036121033E+02  0.00000000000E+00 0.  1.
          1    1    1    2  501    0  0.52307974045E+02  0.65935531779E+02  0.14739140748E+03  0.16972874093E+03  0.00000000000E+00 0. -1.
<scales pt_clust_5="13000.00000" pt_clust_6="13000.00000" pt_clust_7="13000.00000" pt_clust_8="13000.00000" pt_clust_9="13000.00000"></scales>
<clustering>
<clus scale="   92.669">  5  6 -1 -1</clus>
<clus scale="   93.307">  7  8 -1 -1</clus>
<clus scale="   84.164">  7  9 -1 -1</clus>
<clus scale="  103.271">  1  5  2 -1</clus>
<clus scale="  253.748">  2  5  1 -1</clus>
</clustering>
</event>
<event>
 9    1  0.3303741E-006  0.1676919E+03  0.7546771E-02  0.1195938E+00
          1   -1    0    0  502    0 -0.00000000000E+00  0.00000000000E+00  0.40951320059E+03  0.40951320059E+03  0.00000000000E+00 0. -1.
         21   -1    0    0  501  502  0.00000000000E+00 -0.00000000000E+00 -0.39234552590E+03  0.39234552590E+03  0.00000000000E+00 0.  1.
         23    2    1    2    0    0  0.10073105152E+02  0.73143447866E+02  0.38220040465E+03  0.40015054762E+03  0.92692394724E+02 0.  0.
         23    2    1    2    0    0  0.27124780349E+02 -0.71993040640E+02 -0.20195475587E+03  0.23443764425E+03  0.90865472052E+02 0.  0.
        -11    1    3    3    0    0  0.41586383223E+02  0.34984251324E+01  0.12105254903E+03  0.12804446835E+03  0.00000000000E+00 0.  1.
         11    1    3    3    0    0 -0.31513278071E+02  0.69645022733E+02  0.26114785562E+03  0.27210607928E+03  0.00000000000E+00 0. -1.
        -11    1    4    4    0    0 -0.11490794392E+02  0.17520370871E+02 -0.45556894133E+02  0.50144115849E+02  0.00000000000E+00 0. -1.
         11    1    4    4    0    0  0.38615574741E+02 -0.89513411511E+02 -0.15639786174E+03  0.18429352840E+03  0.00000000000E+00 0.  1.
          1    1    1    2  501    0 -0.37197885501E+02 -0.11504072261E+01 -0.16307797408E+03  0.16727053462E+03  0.00000000000E+00 0. -1.
<scales pt_clust_5="13000.00000" pt_clust_6="13000.00000" pt_clust_7="13000.00000" pt_clust_8="13000.00000" pt_clust_9="13000.00000"></scales>
<clustering>
<clus scale="   90.865">  7  8 -1 -1</clus>
<clus scale="   37.216">  7  9 -1 -1</clus>
<clus scale="   92.692">  5  6 -1 -1</clus>
<clus scale="  118.504">  1  5  2 -1</clus>
<clus scale="  167.692">  2  5  1 -1</clus>
</clustering>
</event>
<event>
 9    1  0.3303741E-006  0.2931716E+03  0.7546771E-02  0.1120277E+00
          1   -1    0    0  502    0 -0.00000000000E+00  0.00000000000E+00  0.18634615373E+03  0.18634615373E+03  0.00000000000E+00 0. -1.
         21   -1    0    0  501  502  0.00000000000E+00 -0.00000000000E+00 -0.40622667824E+03  0.40622667824E+03  0.00000000000E+00 0. -1.
         23    2    1    2    0    0 -0.40199404086E+02  0.84440223885E+02  0.95951946367E+02  0.16164389584E+03  0.90420293916E+02 0.  0.
         23    2    1    2    0    0 -0.27028219073E+02 -0.88525988956E+01 -0.45688967309E+01  0.10363998893E+03  0.99556412926E+02 0.  0.
        -11    1    4    4    0    0  0.32114485191E+01 -0.30322519794E+02  0.36991192070E+02  0.47938678528E+02  0.00000000000E+00 0.  1.
         11    1    4    4    0    0 -0.30239667592E+02  0.21469920899E+02 -0.41560088801E+02  0.55701310403E+02  0.00000000000E+00 0. -1.
        -11    1    3    3    0    0 -0.29204146791E+02  0.21094946782E+02 -0.10286699540E+02  0.37465919940E+02  0.00000000000E+00 0.  1.
         11    1    3    3    0    0 -0.10995257295E+02  0.63345277103E+02  0.10623864591E+03  0.12417797590E+03  0.00000000000E+00 0. -1.
          1    1    1    2  501    0  0.67227623159E+02 -0.75587624989E+02 -0.31126357415E+03  0.32728894720E+03  0.00000000000E+00 0. -1.
<scales pt_clust_5="13000.00000" pt_clust_6="13000.00000" pt_clust_7="13000.00000" pt_clust_8="13000.00000" pt_clust_9="13000.00000"></scales>
<clustering>
<clus scale="   90.420">  7  8 -1 -1</clus>
<clus scale="   99.556">  5  6 -1 -1</clus>
<clus scale="  101.159">  5  9 -1 -1</clus>
<clus scale="  130.084">  1  7  2 -1</clus>
<clus scale="  293.172">  2  5  1 -1</clus>
</clustering>
</event>
<event>
 9    1  0.3303741E-006  0.1865361E+03  0.7546771E-02  0.1184993E+00
          3   -1    0    0  502    0 -0.00000000000E+00  0.00000000000E+00  0.15016815905E+03  0.15016815905E+03  0.00000000000E+00 0. -1.
         21   -1    0    0  501  502  0.00000000000E+00 -0.00000000000E+00 -0.14696517821E+03  0.14696517821E+03  0.00000000000E+00 0. -1.
         23    2    1    2    0    0  0.54605325814E+02 -0.25387213679E+02  0.12661921753E+02  0.11035755870E+03  0.91609029430E+02 0.  0.
         23    2    1    2    0    0 -0.37927789705E+02  0.70466446611E+02  0.30626741635E+02  0.12418872401E+03  0.89893295295E+02 0.  0.
        -11    1    3    3    0    0  0.38341013400E+02 -0.37736580061E+02  0.46318978308E+02  0.70989650899E+02  0.00000000000E+00 0.  1.
         11    1    3    3    0    0  0.16264312414E+02  0.12349366382E+02 -0.33657056556E+02  0.39367907797E+02  0.00000000000E+00 0. -1.
        -13    1    4    4    0    0 -0.56455022230E+02  0.50571032661E+02  0.50005468887E+02  0.90802785188E+02  0.00000000000E+00 0. -1.
         13    1    4    4    0    0  0.18527232525E+02  0.19895413950E+02 -0.19378727252E+02  0.33385938825E+02  0.00000000000E+00 0.  1.
          3    1    1    2  501    0 -0.16677536109E+02 -0.45079232932E+02 -0.40085682552E+02  0.62587054557E+02  0.00000000000E+00 0. -1.
<scales pt_clust_5="13000.00000" pt_clust_6="13000.00000" pt_clust_7="13000.00000" pt_clust_8="13000.00000" pt_clust_9="13000.00000"></scales>
<clustering>
<clus scale="   89.893">  7  8 -1 -1</clus>
<clus scale="   48.065">  7  9 -1 -1</clus>
<clus scale="   91.609">  5  6 -1 -1</clus>
<clus scale="  109.629">  1  5  2 -1</clus>
<clus scale="  186.536">  2  5  1 -1</clus>
</clustering>
</event>
<event>
 9    1  0.3303741E-006  0.3456988E+03  0.7546771E-02  0.1067205E+00
          1   -1    0    0  502    0 -0.00000000000E+00  0.00000000000E+00  0.13704426659E+04  0.13704426659E+04  0.00000000000E+00 0. -1.
         21   -1    0    0  501  502  0.00000000000E+00 -0.00000000000E+00 -0.97581885662E+02  0.97581885662E+02  0.00000000000E+00 0. -1.
         23    2    1    2    0    0  0.28285635817E+03  0.11910066457E+03  0.92014732786E+03  0.97414763671E+03  0.89999030522E+02 0.  0.
         23    2    1    2    0    0 -0.15820629048E+03 -0.10235063042E+03  0.18118301044E+03  0.28117784215E+03  0.10357998719E+03 0.  0.
        -11    1    3    3    0    0  0.18557387414E+03  0.10816804289E+03  0.71974193045E+03  0.75111013488E+03  0.00000000000E+00 0. -1.
         11    1    3    3    0    0  0.97282484034E+02  0.10932621685E+02  0.20040539740E+03  0.22303750183E+03  0.00000000000E+00 0.  1.
        -11    1    4    4    0    0 -0.10620894866E+03 -0.31878790055E+02  0.45884910301E+02  0.12000842897E+03  0.00000000000E+00 0. -1.
         11    1    4    4    0    0 -0.51997341816E+02 -0.70471840370E+02  0.13529810014E+03  0.16116941318E+03  0.00000000000E+00 0.  1.
          1    1    1    2  501    0 -0.12465006769E+03 -0.16750034149E+02  0.17153044197E+03  0.21269907274E+03  0.00000000000E+00 0. -1.
<scales pt_clust_5="13000.00000" pt_clust_6="13000.00000" pt_clust_7="13000.00000" pt_clust_8="13000.00000" pt_clust_9="13000.00000"></scales>
<clustering>
<clus scale="   89.999">  5  6 -1 -1</clus>
<clus scale="  103.580">  7  8 -1 -1</clus>
<clus scale="  125.771">  7  9 -1 -1</clus>
<clus scale="  319.832">  1  5  2 -1</clus>
<clus scale="  345.699">  2  5  1 -1</clus>
</clustering>
</event>
<event>
 9    1  0.3303741E-006  0.3211352E+03  0.7546771E-02  0.1102092E+00
         21   -1    0    0  501  502  0.00000000000E+00  0.00000000000E+00  0.27685223388E+03  0.27685223388E+03  0.00000000000E+00 0.  1.
         -1   -1    0    0    0  501 -0.00000000000E+00 -0.00000000000E+00 -0.21542238110E+03  0.21542238110E+03  0.00000000000E+00 0.  1.
         23    2    1    2    0    0  0.63771643703E+02 -0.11098022954E+03  0.67660790890E+02  0.17107893642E+03  0.91140473849E+02 0.  0.
         23    2    1    2    0    0 -0.66987918119E+02  0.28602667336E+02 -0.12829900053E+03  0.17389659831E+03  0.92053786523E+02 0.  0.
        -11    1    4    4    0    0 -0.28346384485E+02 -0.33702692197E+02 -0.50117896152E+02  0.66717257808E+02  0.00000000000E+00 0. -1.
         11    1    4    4    0    0 -0.38641533634E+02  0.62305359533E+02 -0.78181104383E+02  0.10717934050E+03  0.00000000000E+00 0.  1.
        -11    1    3    3    0    0  0.47103892693E+02 -0.98275092801E+02  0.96600768258E+01  0.10940789577E+03  0.00000000000E+00 0.  1.
         11    1    3    3    0    0  0.16667751010E+02 -0.12705136739E+02  0.58000714064E+02  0.61671040653E+02  0.00000000000E+00 0. -1.
         -1    1    1    2    0  502  0.32162744160E+01  0.82377562205E+02  0.12206806242E+03  0.14729908024E+03  0.00000000000E+00 0.  1.
<scales pt_clust_5="13000.00000" pt_clust_6="13000.00000" pt_clust_7="13000.00000" pt_clust_8="13000.00000" pt_clust_9="13000.00000"></scales>
<clustering>
<clus scale="   91.140">  7  8 -1 -1</clus>
<clus scale="   92.054">  5  6 -1 -1</clus>
<clus scale="   82.440">  5  9 -1 -1</clus>
<clus scale="  157.131">  2  7  1 -1</clus>
<clus scale="  321.135">  1  5  2 -1</clus>
</clustering>
</event>
<event>
 9    1  0.3303741E-006  0.1736503E+03  0.7546771E-02  0.1201060E+00
         21   -1    0    0  501  502  0.00000000000E+00  0.00000000000E+00  0.93034824944E+02  0.93034824944E+02  0.00000000000E+00 0. -1.
          2   -1    0    0  502    0 -0.00000000000E+00 -0.00000000000E+00 -0.45556251832E+03  0.45556251832E+03  0.00000000000E+00 0. -1.
         23    2    1    2    0    0 -0.15712200574E+02 -0.49791654857E+01 -0.36259255941E+03  0.37494701455E+03  0.94022519888E+02 0.  0.
         23    2    1    2    0    0  0.70242802331E+02 -0.11684219450E+02 -0.15251277828E+01  0.11660838795E+03  0.92328857150E+02 0.  0.
        -11    1    3    3    0    0 -0.50124404242E+02 -0.22977640961E+02 -0.24419966796E+03  0.25034756982E+03  0.00000000000E+00 0. -1.
         11    1    3    3    0    0  0.34412203668E+02  0.17998475476E+02 -0.11839289145E+03  0.12459944473E+03  0.00000000000E+00 0.  1.
        -11    1    4    4    0    0 -0.12571283455E+02 -0.23837902890E+02  0.15648711062E+02  0.31163519375E+02  0.00000000000E+00 0.  1.
         11    1    4    4    0    0  0.82814085785E+02  0.12153683440E+02 -0.17173838845E+02  0.85444868578E+02  0.00000000000E+00 0. -1.
          2    1    1    2  501    0 -0.54530601757E+02  0.16663384936E+02  0.15899938154E+01  0.57041940761E+02  0.00000000000E+00 0. -1.
<scales pt_clust_5="13000.00000" pt_clust_6="13000.00000" pt_clust_7="13000.00000" pt_clust_8="13000.00000" pt_clust_9="13000.00000"></scales>
<clustering>
<clus scale="   92.329">  7  8 -1 -1</clus>
<clus scale="   57.020">  7  9 -1 -1</clus>
<clus scale="   94.023">  5  6 -1 -1</clus>
<clus scale="   95.456">  2  5  1 -1</clus>
<clus scale="  173.650">  1  5  2 -1</clus>
</clustering>
</event>
<event>
 9    1  0.3303741E-006  0.5190733E+03  0.7546771E-02  0.1040749E+00
          1   -1    0    0  502    0 -0.00000000000E+00  0.00000000000E+00  0.65772535200E+03  0.65772535200E+03  0.00000000000E+00 0. -1.
         21   -1    0    0  501  502  0.00000000000E+00 -0.00000000000E+00 -0.20816834330E+03  0.20816834330E+03  0.00000000000E+00 0. -1.
         23    2    1    2    0    0 -0.19582315338E+02  0.17659890357E+03  0.22326993522E+03  0.29964025971E+03  0.91455898933E+02 0.  0.
         23    2    1    2    0    0  0.20904291963E+02 -0.51526880225E+02  0.36455145684E+03  0.37980827382E+03  0.90909577964E+02 0.  0.
        -11    1    4    4    0    0  0.56149302940E+02 -0.21225287117E+02  0.19911655384E+03  0.20796792793E+03  0.00000000000E+00 0.  1.
         11    1    4    4    0    0 -0.35245010976E+02 -0.30301593108E+02  0.16543490300E+03  0.17184034589E+03  0.00000000000E+00 0. -1.
        -11    1    3    3    0    0 -0.47481463070E+01  0.58347455639E+02  0.14679105768E+03  0.15803349356E+03  0.00000000000E+00 0. -1.
         11    1    3    3    0    0 -0.14834169031E+02  0.11825144793E+03  0.76478877537E+02  0.14160676614E+03  0.00000000000E+00 0.  1.
          1    1    1    2  501    0 -0.13219766248E+01 -0.12507202334E+03 -0.13826438336E+03  0.18644516178E+03  0.00000000000E+00 0. -1.
<scales pt_clust_5="13000.00000" pt_clust_6="13000.00000" pt_clust_7="13000.00000" pt_clust_8="13000.00000" pt_clust_9="13000.00000"></scales>
<clustering>
<clus scale="   90.910">  5  6 -1 -1</clus>
<clus scale="   91.456">  7  8 -1 -1</clus>
<clus scale="  125.079">  5  9 -1 -1</clus>
<clus scale="  199.837">  1  7  2 -1</clus>
<clus scale="  519.073">  2  5  1 -1</clus>
</clustering>
</event>
<event>
 9    1  0.3303741E-006  0.2957403E+03  0.7546771E-02  0.1095301E+00
         21   -1    0    0  501  502  0.00000000000E+00  0.00000000000E+00  0.42909805369E+03  0.42909805369E+03  0.00000000000E+00 0.  1.
         -4   -1    0    0    0  501 -0.00000000000E+00 -0.00000000000E+00 -0.39194585536E+03  0.39194585536E+03  0.00000000000E+00 0.  1.
         23    2    1    2    0    0 -0.12829021498E+03 -0.18073363490E+03 -0.29235638795E+03  0.37828185555E+03  0.92205632276E+02 0.  0.
         23    2    1    2    0    0  0.39668581694E+02  0.91760157720E+02  0.62811196531E+02  0.14797811360E+03  0.89211842135E+02 0.  0.
        -13    1    4    4    0    0  0.67922804808E+02  0.56243716786E+02  0.46924137387E+02  0.99893632232E+02  0.00000000000E+00 0.  1.
         13    1    4    4    0    0 -0.28254223114E+02  0.35516440933E+02  0.15887059144E+02  0.48084481370E+02  0.00000000000E+00 0. -1.
        -13    1    3    3    0    0  0.52459211930E+01 -0.57246165211E+02 -0.82845569857E+02  0.10083665785E+03  0.00000000000E+00 0.  1.
         13    1    3    3    0    0 -0.13353613617E+03 -0.12348746969E+03 -0.20951081809E+03  0.27744519771E+03  0.00000000000E+00 0. -1.
         -4    1    1    2    0  502  0.88621633285E+02  0.88973477178E+02  0.26669738974E+03  0.29478393990E+03  0.00000000000E+00 0.  1.
<scales pt_clust_5="13000.00000" pt_clust_6="13000.00000" pt_clust_7="13000.00000" pt_clust_8="13000.00000" pt_clust_9="13000.00000"></scales>
<clustering>
<clus scale="   89.212">  5  6 -1 -1</clus>
<clus scale="   92.206">  7  8 -1 -1</clus>
<clus scale="  125.579">  5  9 -1 -1</clus>
<clus scale="  240.052">  2  7  1 -1</clus>
<clus scale="  295.740">  1  5  2 -1</clus>
</clustering>
</event>
<event>
 9    1  0.3303741E-006  0.5500576E+03  0.7546771E-02  0.1058084E+00
          1   -1    0    0  502    0 -0.00000000000E+00  0.00000000000E+00  0.10851495186E+03  0.10851495186E+03  0.00000000000E+00 0. -1.
         21   -1    0    0  501  502  0.00000000000E+00 -0.00000000000E+00 -0.11878915087E+04  0.11878915087E+04  0.00000000000E+00 0. -1.
         23    2    1    2    0    0  0.23009077427E+02  0.32690729573E+02 -0.44567181819E+03  0.45727295934E+03  0.94218301666E+02 0.  0.
         23    2    1    2    0    0  0.11197816781E+03 -0.21499790879E+03 -0.13595280922E+03  0.29212852206E+03  0.89959414263E+02 0.  0.
        -13    1    3    3    0    0  0.40718352996E+02 -0.19934354597E+02 -0.16233122086E+03  0.16854313404E+03  0.00000000000E+00 0. -1.
         13    1    3    3    0    0 -0.17709275569E+02  0.52625084170E+02 -0.28334059733E+03  0.28872982530E+03  0.00000000000E+00 0.  1.
        -13    1    4    4    0    0  0.89400397988E+02 -0.19668379233E+03 -0.14668544331E+03  0.26113897565E+03  0.00000000000E+00 0. -1.
         13    1    4    4    0    0  0.22577769824E+02 -0.18314116467E+02  0.10732634091E+02  0.30989546410E+02  0.00000000000E+00 0.  1.
          1    1    1    2  501    0 -0.13498724524E+03  0.18230717922E+03 -0.49775192943E+03  0.54700497916E+03  0.00000000000E+00 0. -1.
<scales pt_clust_5="13000.00000" pt_clust_6="13000.00000" pt_clust_7="13000.00000" pt_clust_8="13000.00000" pt_clust_9="13000.00000"></scales>
<clustering>
<clus scale="   89.959">  7  8 -1 -1</clus>
<clus scale="   94.218">  5  6 -1 -1</clus>
<clus scale="  102.348">  1  5  2 -1</clus>
<clus scale="  230.039">  7  9 -1 -1</clus>
<clus scale="  550.058">  2  5  1 -1</clus>
</clustering>
</event>
<event>
 9    1  0.3303741E-006  0.2929080E+03  0.7546771E-02  0.1129038E+00
          2   -1    0    0  502    0 -0.00000000000E+00  0.00000000000E+00  0.54162831417E+03  0.54162831417E+03  0.00000000000E+00 0. -1.
         21   -1    0    0  501  502  0.00000000000E+00 -0.00000000000E+00 -0.74238619774E+02  0.74238619774E+02  0.00000000000E+00 0. -1.
         23    2    1    2    0    0 -0.14331075031E+01  0.52563404761E+02  0.90884955471E+02  0.13884393569E+03  0.90843811180E+02 0.  0.
         23    2    1    2    0    0  0.59620945341E+02  0.88143189992E+02  0.16287875619E+03  0.21468689556E+03  0.90758442254E+02 0.  0.
        -11    1    3    3    0    0 -0.40650100096E+02  0.51585460739E+02  0.54648820424E+02  0.85439943651E+02  0.00000000000E+00 0. -1.
         11    1    3    3    0    0  0.39216992592E+02  0.97794402195E+00  0.36236135047E+02  0.53403992039E+02  0.00000000000E+00 0.  1.
        -13    1    4    4    0    0  0.80811108973E+01  0.84669941559E+02  0.78453549701E+02  0.11571198217E+03  0.00000000000E+00 0. -1.
         13    1    4    4    0    0  0.51539834444E+02  0.34732484333E+01  0.84425206493E+02  0.98974913390E+02  0.00000000000E+00 0.  1.
          2    1    1    2  501    0 -0.58187837838E+02 -0.14070659475E+03  0.21362598273E+03  0.26233610269E+03  0.00000000000E+00 0. -1.
<scales pt_clust_5="13000.00000" pt_clust_6="13000.00000" pt_clust_7="13000.00000" pt_clust_8="13000.00000" pt_clust_9="13000.00000"></scales>
<clustering>
<clus scale="   90.758">  7  8 -1 -1</clus>
<clus scale="   90.844">  5  6 -1 -1</clus>
<clus scale="  104.965">  1  5  2 -1</clus>
<clus scale="  126.049">  7  9 -1 -1</clus>
<clus scale="  292.908">  2  5  1 -1</clus>
</clustering>
</event>
<event>
 9    1  0.3303741E-006  0.3750156E+03  0.7546771E-02  0.1065474E+00
          2   -1    0    0  502    0 -0.00000000000E+00  0.00000000000E+00  0.44670253859E+03  0.44670253859E+03  0.00000000000E+00 0. -1.
         21   -1    0    0  501  502  0.00000000000E+00 -0.00000000000E+00 -0.22850849908E+03  0.22850849908E+03  0.00000000000E+00 0.  1.
         23    2    1    2    0    0  0.19360846549E+03 -0.15243223966E+03  0.10997297601E+03  0.28489262669E+03  0.91377938769E+02 0.  0.
         23    2    1    2    0    0 -0.37062108507E+02  0.66799377716E+02 -0.66164542546E+02  0.14081873458E+03  0.98063308981E+02 0.  0.
        -13    1    4    4    0    0  0.10971382808E+02  0.72647331532E+02 -0.53243267982E+02  0.90735062710E+02  0.00000000000E+00 0.  1.
         13    1    4    4    0    0 -0.48033491315E+02 -0.58479538160E+01 -0.12921274564E+02  0.50083671871E+02  0.00000000000E+00 0. -1.
        -13    1    3    3    0    0  0.15206840529E+03 -0.69633345010E+02  0.50110026654E+02  0.17459844615E+03  0.00000000000E+00 0.  1.
         13    1    3    3    0    0  0.41540060193E+02 -0.82798894649E+02  0.59862949352E+02  0.11029418054E+03  0.00000000000E+00 0. -1.
          2    1    1    2  501    0 -0.15654635698E+03  0.85632861942E+02  0.17438560605E+03  0.24949967640E+03  0.00000000000E+00 0. -1.
<scales pt_clust_5="13000.00000" pt_clust_6="13000.00000" pt_clust_7="13000.00000" pt_clust_8="13000.00000" pt_clust_9="13000.00000"></scales>
<clustering>
<clus scale="   91.378">  7  8 -1 -1</clus>
<clus scale="   98.063">  5  6 -1 -1</clus>
<clus scale="  178.437">  5  9 -1 -1</clus>
<clus scale="  262.811">  1  7  2 -1</clus>
<clus scale="  375.016">  2  5  1 -1</clus>
</clustering>
</event>
<event>
 9    1  0.3303741E-006  0.2397921E+03  0.7546771E-02  0.1151300E+00
         21   -1    0    0  501  502  0.00000000000E+00  0.00000000000E+00  0.37855823150E+03  0.37855823150E+03  0.00000000000E+00 0. -1.
         -1   -1    0    0    0  501 -0.00000000000E+00 -0.00000000000E+00 -0.21102691746E+03  0.21102691746E+03  0.00000000000E+00 0.  1.
         23    2    1    2    0    0 -0.35986265047E+02  0.51775611400E+02 -0.15285751669E+03  0.18939860142E+03  0.92361705287E+02 0.  0.
         23    2    1    2    0    0  0.94904905975E+02 -0.71865084913E+02  0.20387069576E+03  0.26808253938E+03  0.12701754101E+03 0.  0.
        -11    1    3    3    0    0  0.13169080986E+02  0.60489048282E+02 -0.83780993283E+02  0.10417103480E+03  0.00000000000E+00 0. -1.
         11    1    3    3    0    0 -0.49155346032E+02 -0.87134368820E+01 -0.69076523409E+02  0.85227566621E+02  0.00000000000E+00 0.  1.
        -13    1    4    4    0    0  0.11565471339E+03 -0.88587492950E+02  0.18476974064E+03  0.23529473792E+03  0.00000000000E+00 0. -1.
         13    1    4    4    0    0 -0.20749807414E+02  0.16722408037E+02  0.19100955119E+02  0.32787801462E+02  0.00000000000E+00 0.  1.
         -1    1    1    2    0  502 -0.58918640928E+02  0.20089473513E+02  0.11651813497E+03  0.13210400815E+03  0.00000000000E+00 0.  1.
<scales pt_clust_5="13000.00000" pt_clust_6="13000.00000" pt_clust_7="13000.00000" pt_clust_8="13000.00000" pt_clust_9="13000.00000"></scales>
<clustering>
<clus scale="   92.362">  5  6 -1 -1</clus>
<clus scale="  111.832">  2  5  1 -1</clus>
<clus scale="  127.018">  7  8 -1 -1</clus>
<clus scale="   72.534">  7  9 -1 -1</clus>
<clus scale="  239.792">  1  5  2 -1</clus>
</clustering>
</event>
<event>
 9    1  0.3303741E-006  0.1956276E+03  0.7546771E-02  0.1180042E+00
          2   -1    0    0  502    0 -0.00000000000E+00  0.00000000000E+00  0.66012932696E+03  0.66012932696E+03  0.00000000000E+00 0. -1.
         21   -1    0    0  501  502  0.00000000000E+00 -0.00000000000E+00 -0.78098480404E+02  0.78098480404E+02  0.00000000000E+00 0. -1.
         23    2    1    2    0    0 -0.40038629488E+02 -0.36159828756E+02 -0.17477181146E+02  0.10760904017E+03  0.91452876381E+02 0.  0.
         23    2    1    2    0    0 -0.13186449277E+02 -0.29943869702E+02  0.19721664062E+03  0.21947284653E+03  0.90572673853E+02 0.  0.
        -11    1    4    4    0    0  0.16041959384E+02 -0.40175462682E+02  0.38969027275E+02  0.58223683749E+02  0.00000000000E+00 0.  1.
         11    1    4    4    0    0 -0.29228408660E+02  0.10231592980E+02  0.15824761334E+03  0.16124916278E+03  0.00000000000E+00 0. -1.
        -13    1    3    3    0    0 -0.15049932966E+02  0.23273364285E+02 -0.31157757400E+02  0.41700789125E+02  0.00000000000E+00 0.  1.
         13    1    3    3    0    0 -0.24988696522E+02 -0.59433193042E+02  0.13680576254E+02  0.65908251044E+02  0.00000000000E+00 0. -1.
          2    1    1    2  501    0  0.53225078765E+02  0.66103698459E+02  0.40229138708E+03  0.41114592066E+03  0.00000000000E+00 0. -1.
<scales pt_clust_5="13000.00000" pt_clust_6="13000.00000" pt_clust_7="13000.00000" pt_clust_8="13000.00000" pt_clust_9="13000.00000"></scales>
<clustering>
<clus scale="   90.573">  5  6 -1 -1</clus>
<clus scale="   84.868">  5  9 -1 -1</clus>
<clus scale="   91.453">  7  8 -1 -1</clus>
<clus scale="  106.180">  1  7  2 -1</clus>
<clus scale="  195.628">  2  5  1 -1</clus>
</clustering>
</event>
<event>
 9    1  0.3303741E-006  0.2341562E+03  0.7546771E-02  0.1162461E+00
         21   -1    0    0  501  502  0.00000000000E+00  0.00000000000E+00  0.20269930846E+03  0.20269930846E+03  0.00000000000E+00 0.  1.
         -1   -1    0    0    0  501 -0.00000000000E+00 -0.00000000000E+00 -0.14675404738E+03  0.14675404738E+03  0.00000000000E+00 0.  1.
         23    2    1    2    0    0  0.16119450138E+02 -0.67667580961E+01  0.68295166339E+02  0.11497166785E+03  0.90821963066E+02 0.  0.
         23    2    1    2    0    0  0.68798546729E+02 -0.33952726833E+02 -0.54543375480E+02  0.13128560485E+03  0.91514493614E+02 0.  0.
        -11    1    4    4    0    0  0.57178845140E+02 -0.64281907933E+02 -0.32188007010E+02  0.91856691723E+02  0.00000000000E+00 0.  1.
         11    1    4    4    0    0  0.11619701589E+02  0.30329181100E+02 -0.22355368470E+02  0.39428913130E+02  0.00000000000E+00 0. -1.
        -13    1    3    3    0    0 -0.32958648053E+02 -0.21471590741E+02  0.18291106873E+02  0.43380482721E+02  0.00000000000E+00 0. -1.
         13    1    3    3    0    0  0.49078098192E+02  0.14704832644E+02  0.50004059466E+02  0.71591185130E+02  0.00000000000E+00 0.  1.
         -1    1    1    2    0  502 -0.84917996867E+02  0.40719484929E+02  0.42193470227E+02  0.10319608314E+03  0.00000000000E+00 0.  1.
<scales pt_clust_5="13000.00000" pt_clust_6="13000.00000" pt_clust_7="13000.00000" pt_clust_8="13000.00000" pt_clust_9="13000.00000"></scales>
<clustering>
<clus scale="   90.822">  7  8 -1 -1</clus>
<clus scale="   91.514">  5  6 -1 -1</clus>
<clus scale="   92.489">  2  7  1 -1</clus>
<clus scale="   89.861">  5  9 -1 -1</clus>
<clus scale="  234.156">  1  5  2 -1</clus>
</clustering>
</event>
<event>
 9    1  0.3303741E-006  0.5452540E+03  0.7546771E-02  0.1045849E+00
          1   -1    0    0  502    0 -0.00000000000E+00  0.00000000000E+00  0.43212197342E+03  0.43212197342E+03  0.00000000000E+00 0. -1.
         21   -1    0    0  501  502  0.00000000000E+00 -0.00000000000E+00 -0.31701448810E+03  0.31701448810E+03  0.00000000000E+00 0. -1.
         23    2    1    2    0    0 -0.11162151557E+03  0.35165475128E+02  0.13865745864E+03  0.20337409295E+03  0.91864887031E+02 0.  0.
         23    2    1    2    0    0 -0.27121732846E+02  0.16132970570E+02  0.23145449938E+03  0.25095989129E+03  0.91726880562E+02 0.  0.
        -11    1    4    4    0    0  0.34239455308E+02  0.65466086512E+01  0.79850842315E+02  0.87128384600E+02  0.00000000000E+00 0.  1.
         11    1    4    4    0    0 -0.61361188154E+02  0.95863619188E+01  0.15160365707E+03  0.16383150669E+03  0.00000000000E+00 0. -1.
        -13    1    3    3    0    0 -0.23182677676E+02  0.50953619719E+01  0.99150422679E+02  0.10195197681E+03  0.00000000000E+00 0.  1.
         13    1    3    3    0    0 -0.88438837890E+02  0.30070113156E+02  0.39507035963E+02  0.10142211614E+03  0.00000000000E+00 0. -1.
          1    1    1    2  501    0  0.13874324841E+03 -0.51298445698E+02 -0.25500447270E+03  0.29480247728E+03  0.00000000000E+00 0. -1.
<scales pt_clust_5="13000.00000" pt_clust_6="13000.00000" pt_clust_7="13000.00000" pt_clust_8="13000.00000" pt_clust_9="13000.00000"></scales>
<clustering>
<clus scale="   91.727">  5  6 -1 -1</clus>
<clus scale="   91.865">  7  8 -1 -1</clus>
<clus scale="  147.923">  5  9 -1 -1</clus>
<clus scale="  148.779">  1  7  2 -1</clus>
<clus scale="  545.254">  2  5  1 -1</clus>
</clustering>
</event>
<event>
 9    1  0.3303741E-006  0.4403879E+03  0.7546771E-02  0.1075501E+00
         21   -1    0    0  501  502  0.00000000000E+00  0.00000000000E+00  0.20425564187E+03  0.20425564187E+03  0.00000000000E+00 0. -1.
          3   -1    0    0  502    0 -0.00000000000E+00 -0.00000000000E+00 -0.46515725201E+03  0.46515725201E+03  0.00000000000E+00 0. -1.
         23    2    1    2    0    0  0.31385146182E+02  0.76821716755E+02 -0.18534272934E+03  0.22259001322E+03  0.91147041086E+02 0.  0.
         23    2    1    2    0    0  0.12897761654E+03 -0.18616552722E+03 -0.28231287240E+02  0.24704253711E+03  0.94552527554E+02 0.  0.
        -11    1    4    4    0    0  0.14088801447E+03 -0.15671821344E+03 -0.37291377756E+02  0.21401092939E+03  0.00000000000E+00 0. -1.
         11    1    4    4    0    0 -0.11910397930E+02 -0.29447313787E+02  0.90600905161E+01  0.33031607716E+02  0.00000000000E+00 0.  1.
        -13    1    3    3    0    0  0.40516347506E+02  0.95393770022E+01 -0.25226333212E+02  0.48671778436E+02  0.00000000000E+00 0.  1.
         13    1    3    3    0    0 -0.91312013240E+01  0.67282339753E+02 -0.16011639613E+03  0.17391823479E+03  0.00000000000E+00 0. -1.
          3    1    1    2  501    0 -0.16036276273E+03  0.10934381047E+03 -0.47327593557E+02  0.19978034355E+03  0.00000000000E+00 0. -1.
<scales pt_clust_5="13000.00000" pt_clust_6="13000.00000" pt_clust_7="13000.00000" pt_clust_8="13000.00000" pt_clust_9="13000.00000"></scales>
<clustering>
<clus scale="   91.147">  7  8 -1 -1</clus>
<clus scale="   94.553">  5  6 -1 -1</clus>
<clus scale="  123.266">  2  7  1 -1</clus>
<clus scale="  205.910">  5  9 -1 -1</clus>
<clus scale="  440.388">  1  5  2 -1</clus>
</clustering>
</event>
<event>
 9    1  0.3303741E-006  0.1114624E+03  0.7546771E-02  0.1268575E+00
         21   -1    0    0  501  502  0.00000000000E+00  0.00000000000E+00  0.59988924097E+02  0.59988924097E+02  0.00000000000E+00 0.  1.
          1   -1    0    0  502    0 -0.00000000000E+00 -0.00000000000E+00 -0.26845845314E+03  0.26845845314E+03  0.00000000000E+00 0. -1.
         23    2    1    2    0    0  0.70522127033E+01  0.51609939547E+01 -0.19653773209E+03  0.21634813250E+03  0.90017024733E+02 0.  0.
         23    2    1    2    0    0 -0.19618972168E+01 -0.25249247967E+02 -0.11681152486E+02  0.91374571427E+02  0.87014305815E+02 0.  0.
        -11    1    4    4    0    0 -0.30998547038E+02  0.12549020676E+02  0.15109897865E+02  0.36697368460E+02  0.00000000000E+00 0.  1.
         11    1    4    4    0    0  0.29036649822E+02 -0.37798268643E+02 -0.26791050351E+02  0.54677202966E+02  0.00000000000E+00 0. -1.
        -13    1    3    3    0    0  0.38073452051E+02  0.85126248093E+01 -0.17278323347E+03  0.17713299609E+03  0.00000000000E+00 0.  1.
         13    1    3    3    0    0 -0.31021239348E+02 -0.33516308546E+01 -0.23754498612E+02  0.39215136419E+02  0.00000000000E+00 0. -1.
          1    1    1    2  501    0 -0.50903154865E+01  0.20088254013E+02 -0.25064447137E+00  0.20724673307E+02  0.00000000000E+00 0. -1.
<scales pt_clust_5="13000.00000" pt_clust_6="13000.00000" pt_clust_7="13000.00000" pt_clust_8="13000.00000" pt_clust_9="13000.00000"></scales>
<clustering>
<clus scale="   87.014">  5  6 -1 -1</clus>
<clus scale="   20.723">  5  9 -1 -1</clus>
<clus scale="   90.017">  7  8 -1 -1</clus>
<clus scale="   90.440">  2  7  1 -1</clus>
<clus scale="  111.462">  1  5  2 -1</clus>
</clustering>
</event>
<event>
 9    1  0.3303741E-006  0.1358181E+03  0.7546771E-02  0.1236639E+00
         21   -1    0    0  501  502  0.00000000000E+00  0.00000000000E+00  0.56256173934E+02  0.56256173934E+02  0.00000000000E+00 0.  1.
         -3   -1    0    0    0  501 -0.00000000000E+00 -0.00000000000E+00 -0.27094452344E+03  0.27094452344E+03  0.00000000000E+00 0.  1.
         23    2    1    2    0    0  0.10956013453E+00  0.18306632206E+02 -0.32185447928E+02  0.99705913089E+02  0.92575489523E+02 0.  0.
         23    2    1    2    0    0  0.13231654838E+02  0.49320407869E+01 -0.17828676034E+03  0.20036915459E+03  0.90345046814E+02 0.  0.
        -13    1    4    4    0    0 -0.84053003802E+01 -0.20692061483E+02 -0.37588301824E+01  0.22648162999E+02  0.00000000000E+00 0. -1.
         13    1    4    4    0    0  0.21636955218E+02  0.25624102270E+02 -0.17452793015E+03  0.17772099159E+03  0.00000000000E+00 0.  1.
        -13    1    3    3    0    0  0.19707875733E+02 -0.31816995044E+02 -0.86376900922E+00  0.37436180848E+02  0.00000000000E+00 0. -1.
         13    1    3    3    0    0 -0.19598315599E+02  0.50123627251E+02 -0.31321678919E+02  0.62269732241E+02  0.00000000000E+00 0.  1.
         -3    1    1    2    0  502 -0.13341214972E+02 -0.23238672993E+02 -0.42161412430E+01  0.27125629696E+02  0.00000000000E+00 0.  1.
<scales pt_clust_5="13000.00000" pt_clust_6="13000.00000" pt_clust_7="13000.00000" pt_clust_8="13000.00000" pt_clust_9="13000.00000"></scales>
<clustering>
<clus scale="   90.345">  5  6 -1 -1</clus>
<clus scale="   26.796">  5  9 -1 -1</clus>
<clus scale="   92.575">  7  8 -1 -1</clus>
<clus scale="   94.368">  2  7  1 -1</clus>
<clus scale="  135.818">  1  5  2 -1</clus>
</clustering>
</event>
<event>
 9    1  0.3303741E-006  0.1359959E+03  0.7546771E-02  0.1232316E+00
          1   -1    0    0  502    0 -0.00000000000E+00  0.00000000000E+00  0.79267527578E+03  0.79267527578E+03  0.00000000000E+00 0. -1.
         21   -1    0    0  501  502  0.00000000000E+00 -0.00000000000E+00 -0.18749477026E+02  0.18749477026E+02  0.00000000000E+00 0.  1.
         23    2    1    2    0    0 -0.43575301957E+02  0.54336758859E+01  0.41716126413E+03  0.42961874600E+03  0.92846189209E+02 0.  0.
         23    2    1    2    0    0  0.57818733517E+02 -0.27466675477E+02  0.28628971652E+03  0.30660608394E+03  0.89151919277E+02 0.  0.
        -13    1    4    4    0    0  0.81362871893E+02 -0.28430504879E+02  0.22536298408E+03  0.24128134019E+03  0.00000000000E+00 0.  1.
         13    1    4    4    0    0 -0.23544138376E+02  0.96382940167E+00  0.60926732447E+02  0.65324743748E+02  0.00000000000E+00 0. -1.
        -13    1    3    3    0    0  0.27835990420E+02  0.12176687315E+02  0.10395894726E+03  0.10830778731E+03  0.00000000000E+00 0.  1.
         13    1    3    3    0    0 -0.71411292377E+02 -0.67430114288E+01  0.31320231688E+03  0.32131095870E+03  0.00000000000E+00 0. -1.
          1    1    1    2  501    0 -0.14243431561E+02  0.22032999592E+02  0.70474818098E+02  0.75199922869E+02  0.00000000000E+00 0. -1.
<scales pt_clust_5="13000.00000" pt_clust_6="13000.00000" pt_clust_7="13000.00000" pt_clust_8="13000.00000" pt_clust_9="13000.00000"></scales>
<clustering>
<clus scale="   89.152">  5  6 -1 -1</clus>
<clus scale="   26.236">  5  9 -1 -1</clus>
<clus scale="   92.846">  7  8 -1 -1</clus>
<clus scale="  102.707">  1  7  2 -1</clus>
<clus scale="  135.996">  2  5  1 -1</clus>
</clustering>
</event>
<event>
 9    1  0.3303741E-006  0.1949407E+03  0.7546771E-02  0.1185720E+00
         21   -1    0    0  501  502  0.00000000000E+00  0.00000000000E+00  0.43613673651E+02  0.43613673651E+02  0.00000000000E+00 0.  1.
         -1   -1    0    0    0  501 -0.00000000000E+00 -0.00000000000E+00 -0.48744063896E+03  0.48744063896E+03  0.00000000000E+00 0.  1.
         23    2    1    2    0    0  0.16488921631E+02 -0.15322104992E+02 -0.17633174698E+03  0.20006249478E+03  0.91790333839E+02 0.  0.
         23    2    1    2    0    0  0.61724485653E+02  0.26085402703E+02 -0.13025967299E+03  0.17266689698E+03  0.91410691626E+02 0.  0.
        -11    1    4    4    0    0 -0.16057291191E+02  0.21719479993E+02 -0.67246823847E+02  0.72468667223E+02  0.00000000000E+00 0. -1.
         11    1    4    4    0    0  0.77781776845E+02  0.43659227102E+01 -0.63012849141E+02  0.10019822976E+03  0.00000000000E+00 0.  1.
        -13    1    3    3    0    0 -0.41455058840E+01  0.36932205626E+02 -0.85980904622E+02  0.93669039661E+02  0.00000000000E+00 0. -1.
         13    1    3    3    0    0  0.20634427515E+02 -0.52254310618E+02 -0.90350842355E+02  0.10639345511E+03  0.00000000000E+00 0.  1.
         -1    1    1    2    0  502 -0.78213407284E+02 -0.10763297711E+02 -0.13723554535E+03  0.15832492085E+03  0.00000000000E+00 0.  1.
<scales pt_clust_5="13000.00000" pt_clust_6="13000.00000" pt_clust_7="13000.00000" pt_clust_8="13000.00000" pt_clust_9="13000.00000"></scales>
<clustering>
<clus scale="   91.411">  5  6 -1 -1</clus>
<clus scale="   78.951">  5  9 -1 -1</clus>
<clus scale="   91.790">  7  8 -1 -1</clus>
<clus scale="   94.510">  2  7  1 -1</clus>
<clus scale="  194.941">  1  5  2 -1</clus>
</clustering>
</event>
<event>
 9    1  0.3303741E-006  0.2979787E+03  0.7546771E-02  0.1127763E+00
         21   -1    0    0  501  502  0.00000000000E+00  0.00000000000E+00  0.33040999495E+03  0.33040999495E+03  0.00000000000E+00 0. -1.
          2   -1    0    0  502    0 -0.00000000000E+00 -0.00000000000E+00 -0.12206274923E+03  0.12206274923E+03  0.00000000000E+00 0. -1.
         23    2    1    2    0    0  0.47173457971E+02 -0.46685546668E+01  0.41229711230E+02  0.11083026941E+03  0.91303499333E+02 0.  0.
         23    2    1    2    0    0 -0.96005479398E+01 -0.91554427824E+02 -0.18470407012E+02  0.12924315754E+03  0.88815843522E+02 0.  0.
        -13    1    4    4    0    0 -0.28626289992E+02 -0.37107812300E+02  0.28508545458E+02  0.54856096985E+02  0.00000000000E+00 0.  1.
         13    1    4    4    0    0  0.19025742052E+02 -0.54446615525E+02 -0.46978952469E+02  0.74387060554E+02  0.00000000000E+00 0. -1.
        -13    1    3    3    0    0  0.66882455073E+02 -0.27849304355E+02  0.29133436134E+02  0.78087154197E+02  0.00000000000E+00 0. -1.
         13    1    3    3    0    0 -0.19708997101E+02  0.23180749688E+02  0.12096275097E+02  0.32743115216E+02  0.00000000000E+00 0.  1.
          2    1    1    2  501    0 -0.37572910031E+02  0.96222982491E+02  0.18558794150E+03  0.21239931723E+03  0.00000000000E+00 0. -1.
<scales pt_clust_5="13000.00000" pt_clust_6="13000.00000" pt_clust_7="13000.00000" pt_clust_8="13000.00000" pt_clust_9="13000.00000"></scales>
<clustering>
<clus scale="   88.816">  5  6 -1 -1</clus>
<clus scale="   91.303">  7  8 -1 -1</clus>
<clus scale="  102.876">  2  7  1 -1</clus>
<clus scale="  100.205">  5  9 -1 -1</clus>
<clus scale="  297.979">  1  5  2 -1</clus>
</clustering>
</event>
<event>
 9    1  0.3303741E-006  0.3199913E+03  0.7546771E-02  0.1120438E+00
          2   -1    0    0  502    0 -0.00000000000E+00  0.00000000000E+00  0.44070972408E+03  0.44070972408E+03  0.00000000000E+00 0. -1.
         21   -1    0    0  501  502  0.00000000000E+00 -0.00000000000E+00 -0.11053536937E+03  0.11053536937E+03  0.00000000000E+00 0. -1.
         23    2    1    2    0    0 -0.38515253724E+02  0.13756024695E+02  0.16086603782E+03  0.18922336840E+03  0.90856744597E+02 0.  0.
         23    2    1    2    0    0 -0.31157766232E+02 -0.32046567331E+02  0.24129269436E+03  0.26018546304E+03  0.86466883531E+02 0.  0.
        -11    1    4    4    0    0 -0.42363918252E+02  0.14576024285E+02  0.77493540008E+02  0.89512070675E+02  0.00000000000E+00 0. -1.
         11    1    4    4    0    0  0.11206152020E+02 -0.46622591617E+02  0.16379915436E+03  0.17067339236E+03  0.00000000000E+00 0.  1.
        -13    1    3    3    0    0 -0.30988288623E+02  0.52009437868E+02  0.10213520353E+03  0.11873017923E+03  0.00000000000E+00 0. -1.
         13    1    3    3    0    0 -0.75269651010E+01 -0.38253413173E+02  0.58730834291E+02  0.70493189171E+02  0.00000000000E+00 0.  1.
          2    1    1    2  501    0  0.69673019956E+02  0.18290542636E+02 -0.71984377477E+02  0.10183626201E+03  0.00000000000E+00 0. -1.
<scales pt_clust_5="13000.00000" pt_clust_6="13000.00000" pt_clust_7="13000.00000" pt_clust_8="13000.00000" pt_clust_9="13000.00000"></scales>
<clustering>
<clus scale="   86.467">  5  6 -1 -1</clus>
<clus scale="   72.034">  5  9 -1 -1</clus>
<clus scale="   90.857">  7  8 -1 -1</clus>
<clus scale="   99.637">  1  7  2 -1</clus>
<clus scale="  319.991">  2  5  1 -1</clus>
</clustering>
</event>
<event>
 9    1  0.3303741E-006  0.1779987E+03  0.7546771E-02  0.1181604E+00
          3   -1    0    0  502    0 -0.00000000000E+00  0.00000000000E+00  0.23781692032E+03  0.23781692032E+03  0.00000000000E+00 0. -1.
         21   -1    0    0  501  502  0.00000000000E+00 -0.00000000000E+00 -0.23537169671E+03  0.23537169671E+03  0.00000000000E+00 0. -1.
         23    2    1    2    0    0 -0.34576873314E+02 -0.94975972808E+02  0.17740646880E+03  0.22359900800E+03  0.91145299524E+02 0.  0.
         23    2    1    2    0    0  0.48883643696E+02  0.22178497205E+02 -0.10580335895E+03  0.14816491104E+03  0.88752429485E+02 0.  0.
        -13    1    3    3    0    0  0.27719407581E+02 -0.84084181878E+01  0.30534385104E+02  0.42088189873E+02  0.00000000000E+00 0.  1.
         13    1    3    3    0    0 -0.62296280895E+02 -0.86567554620E+02  0.14687208370E+03  0.18151081813E+03  0.00000000000E+00 0. -1.
        -13    1    4    4    0    0 -0.17985077453E+02 -0.17002588268E+02 -0.37083317865E+02  0.44583892637E+02  0.00000000000E+00 0. -1.
         13    1    4    4    0    0  0.66868721149E+02  0.39181085472E+02 -0.68720041085E+02  0.10358101840E+03  0.00000000000E+00 0.  1.
          3    1    1    2  501    0 -0.14306770382E+02  0.72797475604E+02 -0.69157886240E+02  0.10142469799E+03  0.00000000000E+00 0. -1.
<scales pt_clust_5="13000.00000" pt_clust_6="13000.00000" pt_clust_7="13000.00000" pt_clust_8="13000.00000" pt_clust_9="13000.00000"></scales>
<clustering>
<clus scale="   88.752">  7  8 -1 -1</clus>
<clus scale="   74.190">  7  9 -1 -1</clus>
<clus scale="   91.145">  5  6 -1 -1</clus>
<clus scale="  136.101">  1  5  2 -1</clus>
<clus scale="  177.999">  2  5  1 -1</clus>
</clustering>
</event>
<event>
 9    1  0.3303741E-006  0.2667106E+03  0.7546771E-02  0.1123404E+00
         21   -1    0    0  501  502  0.00000000000E+00  0.00000000000E+00  0.13473884264E+03  0.13473884264E+03  0.00000000000E+00 0. -1.
          2   -1    0    0  502    0 -0.00000000000E+00 -0.00000000000E+00 -0.51793794886E+03  0.51793794886E+03  0.00000000000E+00 0. -1.
         23    2    1    2    0    0  0.61879921794E+02 -0.98653159434E+02 -0.34891202716E+03  0.38377136944E+03  0.10944994620E+03 0.  0.
         23    2    1    2    0    0 -0.69834008102E+02  0.34958999591E+02 -0.11469732169E+03  0.16601703299E+03  0.91144167667E+02 0.  0.
        -11    1    4    4    0    0 -0.85440162853E+02  0.65970181473E+01 -0.69028567198E+02  0.11003856218E+03  0.00000000000E+00 0. -1.
         11    1    4    4    0    0  0.15606154752E+02  0.28361981444E+02 -0.45668754488E+02  0.55978470808E+02  0.00000000000E+00 0.  1.
        -13    1    3    3    0    0 -0.15349120085E+02 -0.71697165183E+02 -0.21157963374E+03  0.22392413983E+03  0.00000000000E+00 0. -1.
         13    1    3    3    0    0  0.77229041878E+02 -0.26955994251E+02 -0.13733239341E+03  0.15984722962E+03  0.00000000000E+00 0.  1.
          2    1    1    2  501    0  0.79540863083E+01  0.63694159843E+02  0.80410242620E+02  0.10288838907E+03  0.00000000000E+00 0. -1.
<scales pt_clust_5="13000.00000" pt_clust_6="13000.00000" pt_clust_7="13000.00000" pt_clust_8="13000.00000" pt_clust_9="13000.00000"></scales>
<clustering>
<clus scale="   91.144">  5  6 -1 -1</clus>
<clus scale="   64.189">  5  9 -1 -1</clus>
<clus scale="  109.450">  7  8 -1 -1</clus>
<clus scale="  159.815">  2  7  1 -1</clus>
<clus scale="  266.711">  1  5  2 -1</clus>
</clustering>
</event>
<event>
 9    1  0.3303741E-006  0.6459202E+03  0.7546771E-02  0.1025841E+00
          2   -1    0    0  502    0 -0.00000000000E+00  0.00000000000E+00  0.98223751821E+03  0.98223751821E+03  0.00000000000E+00 0. -1.
         21   -1    0    0  501  502  0.00000000000E+00 -0.00000000000E+00 -0.16597556026E+03  0.16597556026E+03  0.00000000000E+00 0. -1.
         23    2    1    2    0    0 -0.12116632994E+03 -0.52497205293E+02  0.14474131966E+03  0.21646589618E+03  0.92033681445E+02 0.  0.
         23    2    1    2    0    0 -0.14253336687E+03  0.14072733366E+03  0.60787208686E+03  0.64648725915E+03  0.91199556747E+02 0.  0.
        -11    1    3    3    0    0 -0.84966089816E+02 -0.75553434706E+02  0.12575650211E+03  0.16953541145E+03  0.00000000000E+00 0.  1.
         11    1    3    3    0    0 -0.36200240120E+02  0.23056229413E+02  0.18984817549E+02  0.46930484729E+02  0.00000000000E+00 0. -1.
        -13    1    4    4    0    0 -0.93387186249E+02  0.14177598376E+03  0.44192225941E+03  0.47340984304E+03  0.00000000000E+00 0. -1.
         13    1    4    4    0    0 -0.49146180621E+02 -0.10486500971E+01  0.16594982745E+03  0.17307741611E+03  0.00000000000E+00 0.  1.
          2    1    1    2  501    0  0.26369969681E+03 -0.88230128370E+02  0.63648551439E+02  0.28525992314E+03  0.00000000000E+00 0. -1.
<scales pt_clust_5="13000.00000" pt_clust_6="13000.00000" pt_clust_7="13000.00000" pt_clust_8="13000.00000" pt_clust_9="13000.00000"></scales>
<clustering>
<clus scale="   91.200">  7  8 -1 -1</clus>
<clus scale="   92.034">  5  6 -1 -1</clus>
<clus scale="  160.958">  1  5  2 -1</clus>
<clus scale="  257.405">  7  9 -1 -1</clus>
<clus scale="  645.920">  2  5  1 -1</clus>
</clustering>
</event>
<event>
 9    1  0.3303741E-006  0.1399400E+03  0.7546771E-02  0.1230749E+00
         21   -1    0    0  501  502  0.00000000000E+00  0.00000000000E+00  0.76748019550E+02  0.76748019550E+02  0.00000000000E+00 0.  1.
         -3   -1    0    0    0  501 -0.00000000000E+00 -0.00000000000E+00 -0.21818811363E+03  0.21818811363E+03  0.00000000000E+00 0.  1.
         23    2    1    2    0    0  0.32781470076E+01  0.37280796552E+02 -0.11811099532E+03  0.15306487831E+03  0.89877948997E+02 0.  0.
         23    2    1    2    0    0  0.26008961901E+02 -0.39492976587E+02 -0.39355920391E+02  0.10841251161E+03  0.89264902988E+02 0.  0.
        -11    1    3    3    0    0 -0.40946250264E+02  0.25757775093E+01 -0.46176860023E+02  0.61769996293E+02  0.00000000000E+00 0. -1.
         11    1    3    3    0    0  0.44224397271E+02  0.34705019043E+02 -0.71934135300E+02  0.91294882015E+02  0.00000000000E+00 0.  1.
        -13    1    4    4    0    0  0.57067415466E+02 -0.10843210868E+02 -0.28915423833E+02  0.64887339792E+02  0.00000000000E+00 0.  1.
         13    1    4    4    0    0 -0.31058453565E+02 -0.28649765718E+02 -0.10440496558E+02  0.43525171820E+02  0.00000000000E+00 0. -1.
         -3    1    1    2    0  502 -0.29287108908E+02  0.22121800343E+01  0.16026821635E+02  0.33458743258E+02  0.00000000000E+00 0.  1.
<scales pt_clust_5="13000.00000" pt_clust_6="13000.00000" pt_clust_7="13000.00000" pt_clust_8="13000.00000" pt_clust_9="13000.00000"></scales>
<clustering>
<clus scale="   89.265">  7  8 -1 -1</clus>
<clus scale="   29.371">  7  9 -1 -1</clus>
<clus scale="   89.878">  5  6 -1 -1</clus>
<clus scale="   97.358">  2  5  1 -1</clus>
<clus scale="  139.940">  1  5  2 -1</clus>
</clustering>
</event>
<event>
 9    1  0.3303741E-006  0.1407117E+03  0.7546771E-02  0.1230580E+00
         21   -1    0    0  501  502  0.00000000000E+00  0.00000000000E+00  0.18734130951E+03  0.18734130951E+03  0.00000000000E+00 0.  1.
          2   -1    0    0  502    0 -0.00000000000E+00 -0.00000000000E+00 -0.96532305337E+02  0.96532305337E+02  0.00000000000E+00 0. -1.
         23    2    1    2    0    0  0.35387703308E+02  0.32840308993E+01  0.10513170092E+03  0.14243484999E+03  0.89285707424E+02 0.  0.
         23    2    1    2    0    0 -0.26430093865E+02 -0.37121498493E+02 -0.25691996426E+02  0.10463558625E+03  0.90619930024E+02 0.  0.
        -11    1    3    3    0    0 -0.27581297054E+02  0.10300082622E+02  0.51958493840E+02  0.59720220456E+02  0.00000000000E+00 0.  1.
         11    1    3    3    0    0  0.62969000362E+02 -0.70160517232E+01  0.53173207081E+02  0.82714629539E+02  0.00000000000E+00 0. -1.
        -11    1    4    4    0    0 -0.29010662657E+02 -0.65427619849E+02 -0.26177415000E+02  0.76207932940E+02  0.00000000000E+00 0. -1.
         11    1    4    4    0    0  0.25805687925E+01  0.28306121356E+02  0.48541857385E+00  0.28427653310E+02  0.00000000000E+00 0.  1.
          2    1    1    2  501    0 -0.89576094433E+01  0.33837467594E+02  0.11369299678E+02  0.36803178603E+02  0.00000000000E+00 0. -1.
<scales pt_clust_5="13000.00000" pt_clust_6="13000.00000" pt_clust_7="13000.00000" pt_clust_8="13000.00000" pt_clust_9="13000.00000"></scales>
<clustering>
<clus scale="   89.286">  5  6 -1 -1</clus>
<clus scale="   90.620">  7  8 -1 -1</clus>
<clus scale="   35.003">  7  9 -1 -1</clus>
<clus scale="   96.099">  2  5  1 -1</clus>
<clus scale="  140.712">  1  5  2 -1</clus>
</clustering>
</event>
<event>
 9    1  0.3303741E-006  0.1381257E+03  0.7546771E-02  0.1233126E+00
         -1   -1    0    0    0  501 -0.00000000000E+00  0.00000000000E+00  0.94068002468E+02  0.94068002468E+02  0.00000000000E+00 0.  1.
         21   -1    0    0  501  502  0.00000000000E+00 -0.00000000000E+00 -0.23607737429E+03  0.23607737429E+03  0.00000000000E+00 0.  1.
         23    2    1    2    0    0 -0.19131865002E+02  0.25715206536E+02  0.37671588122E+02  0.10350922363E+03  0.90926952655E+02 0.  0.
         23    2    1    2    0    0 -0.87164975782E+01  0.48199451279E+00 -0.15904935619E+03  0.18319092652E+03  0.90476561650E+02 0.  0.
        -11    1    3    3    0    0 -0.53645877498E+02  0.22064708015E+02  0.36988572695E+02  0.68795973881E+02  0.00000000000E+00 0.  1.
         11    1    3    3    0    0  0.34514012496E+02  0.36504985205E+01  0.68301542703E+00  0.34713249748E+02  0.00000000000E+00 0. -1.
        -13    1    4    4    0    0 -0.22753476031E+02  0.33160851881E+02 -0.13342825353E+03  0.13935731631E+03  0.00000000000E+00 0.  1.
         13    1    4    4    0    0  0.14036978452E+02 -0.32678857368E+02 -0.25621102658E+02  0.43833610214E+02  0.00000000000E+00 0. -1.
         -1    1    1    2    0  502  0.27848362580E+02 -0.26197201048E+02 -0.20631603753E+02  0.43445226603E+02  0.00000000000E+00 0.  1.
<scales pt_clust_5="13000.00000" pt_clust_6="13000.00000" pt_clust_7="13000.00000" pt_clust_8="13000.00000" pt_clust_9="13000.00000"></scales>
<clustering>
<clus scale="   90.477">  7  8 -1 -1</clus>
<clus scale="   38.234">  7  9 -1 -1</clus>
<clus scale="   90.927">  5  6 -1 -1</clus>
<clus scale="   96.411">  1  5  2 -1</clus>
<clus scale="  138.126">  2  5  1 -1</clus>
</clustering>
</event>
<event>
 9    1  0.3303741E-006  0.1810873E+03  0.7546771E-02  0.1185973E+00
          2   -1    0    0  502    0 -0.00000000000E+00  0.00000000000E+00  0.63814078141E+03  0.63814078141E+03  0.00000000000E+00 0. -1.
         21   -1    0    0  501  502  0.00000000000E+00 -0.00000000000E+00 -0.44604684488E+02  0.44604684488E+02  0.00000000000E+00 0. -1.
         23    2    1    2    0    0  0.26871540557E+02 -0.70178338935E+02  0.90493896152E+02  0.14810160953E+03  0.89988124527E+02 0.  0.
         23    2    1    2    0    0 -0.75448688092E+01 -0.15192675559E+02  0.24155207811E+03  0.25889249263E+03  0.91597892253E+02 0.  0.
        -11    1    3    3    0    0 -0.21922777769E+02  0.75949133161E+01  0.30912557763E+02  0.38650706602E+02  0.00000000000E+00 0.  1.
         11    1    3    3    0    0  0.48794318326E+02 -0.77773252251E+02  0.59581338389E+02  0.10945090292E+03  0.00000000000E+00 0. -1.
        -13    1    4    4    0    0  0.21443408246E+02  0.31267922587E+02  0.86155811735E+02  0.94129308060E+02  0.00000000000E+00 0.  1.
         13    1    4    4    0    0 -0.28988277055E+02 -0.46460598146E+02  0.15539626637E+03  0.16476318457E+03  0.00000000000E+00 0. -1.
          2    1    1    2  501    0 -0.19326671748E+02  0.85371014494E+02  0.26149012266E+03  0.27575136375E+03  0.00000000000E+00 0. -1.
<scales pt_clust_5="13000.00000" pt_clust_6="13000.00000" pt_clust_7="13000.00000" pt_clust_8="13000.00000" pt_clust_9="13000.00000"></scales>
<clustering>
<clus scale="   89.988">  5  6 -1 -1</clus>
<clus scale="   91.598">  7  8 -1 -1</clus>
<clus scale="   87.531">  7  9 -1 -1</clus>
<clus scale="  117.239">  1  5  2 -1</clus>
<clus scale="  181.087">  2  5  1 -1</clus>
</clustering>
</event>
<event>
 9    1  0.4178451E-006  0.6504260E+03  0.7546771E-02  0.1031958E+00
         21   -1    0    0  501  502  0.00000000000E+00  0.00000000000E+00  0.33131035939E+03  0.33131035939E+03  0.00000000000E+00 0. -1.
          3   -1    0    0  502    0 -0.00000000000E+00 -0.00000000000E+00 -0.47941003722E+03  0.47941003722E+03  0.00000000000E+00 0. -1.
         23    2    1    2    0    0 -0.48760883522E+02  0.84771731307E+02  0.33108442381E+02  0.13552390353E+03  0.87787751317E+02 0.  0.
         23    2    1    2    0    0  0.15627886266E+03 -0.65370100408E+02 -0.39255812766E+03  0.43727767337E+03  0.91725389600E+02 0.  0.
        -11    1    4    4    0    0  0.34046614982E+02 -0.47254436686E+01 -0.18341305772E+02  0.38960304247E+02  0.00000000000E+00 0.  1.
         11    1    4    4    0    0  0.12223224768E+03 -0.60644656739E+02 -0.37421682189E+03  0.39831736913E+03  0.00000000000E+00 0. -1.
        -11    1    3    3    0    0 -0.72127885862E+02  0.68678790513E+02  0.12327884248E+02  0.10035529341E+03  0.00000000000E+00 0.  1.
         11    1    3    3    0    0  0.23367002340E+02  0.16092940794E+02  0.20780558133E+02  0.35168610124E+02  0.00000000000E+00 0. -1.
          3    1    1    2  501    0 -0.10751797914E+03 -0.19401630899E+02  0.21135000745E+03  0.23791881970E+03  0.00000000000E+00 0. -1.
<scales pt_clust_5="13000.00000" pt_clust_6="13000.00000" pt_clust_7="13000.00000" pt_clust_8="13000.00000" pt_clust_9="13000.00000"></scales>
<clustering>
<clus scale="   87.788">  7  8 -1 -1</clus>
<clus scale="   91.725">  5  6 -1 -1</clus>
<clus scale="  109.255">  5  9 -1 -1</clus>
<clus scale="  131.418">  2  7  1 -1</clus>
<clus scale="  650.426">  1  5  2 -1</clus>
</clustering>
</event>
<event>
 9    1  0.3303741E-006  0.3846495E+03  0.7546771E-02  0.1093187E+00
         21   -1    0    0  501  502  0.00000000000E+00  0.00000000000E+00  0.25949102120E+03  0.25949102120E+03  0.00000000000E+00 0.  1.
         -1   -1    0    0    0  501 -0.00000000000E+00 -0.00000000000E+00 -0.30703059395E+03  0.30703059395E+03  0.00000000000E+00 0.  1.
         23    2    1    2    0    0  0.68451209528E+02 -0.25248500112E+02 -0.12932251770E+03  0.17327400377E+03  0.89311320414E+02 0.  0.
         23    2    1    2    0    0 -0.15133936558E+03 -0.85905272990E+02 -0.50331653274E+02  0.20172770445E+03  0.88755123340E+02 0.  0.
        -11    1    4    4    0    0  0.94319576479E+01 -0.18915242935E+02 -0.67515841143E+01  0.22188558503E+02  0.00000000000E+00 0. -1.
         11    1    4    4    0    0 -0.16077132322E+03 -0.66990030055E+02 -0.43580069160E+02  0.17953914594E+03  0.00000000000E+00 0.  1.
        -11    1    3    3    0    0  0.28121447247E+02 -0.57060254847E+02 -0.64858461717E+02  0.90847721682E+02  0.00000000000E+00 0.  1.
         11    1    3    3    0    0  0.40329762281E+02  0.31811754735E+02 -0.64464055980E+02  0.82426282085E+02  0.00000000000E+00 0. -1.
         -1    1    1    2    0  502  0.82888156048E+02  0.11115377310E+03  0.13211459823E+03  0.19151990694E+03  0.00000000000E+00 0.  1.
<scales pt_clust_5="13000.00000" pt_clust_6="13000.00000" pt_clust_7="13000.00000" pt_clust_8="13000.00000" pt_clust_9="13000.00000"></scales>
<clustering>
<clus scale="   88.755">  5  6 -1 -1</clus>
<clus scale="   89.311">  7  8 -1 -1</clus>
<clus scale="  115.324">  2  7  1 -1</clus>
<clus scale="  143.224">  5  9 -1 -1</clus>
<clus scale="  384.649">  1  5  2 -1</clus>
</clustering>
</event>
<event>
 9    1  0.3303741E-006  0.2874971E+03  0.7546771E-02  0.1125041E+00
         21   -1    0    0  501  502  0.00000000000E+00  0.00000000000E+00  0.20141587361E+03  0.20141587361E+03  0.00000000000E+00 0. -1.
         -1   -1    0    0    0  501 -0.00000000000E+00 -0.00000000000E+00 -0.21019140941E+03  0.21019140941E+03  0.00000000000E+00 0.  1.
         23    2    1    2    0    0  0.81485376758E+02  0.73999318327E+01  0.13453517754E+02  0.12325213161E+03  0.91189172553E+02 0.  0.
         23    2    1    2    0    0 -0.28291969937E+02 -0.55579179495E+02 -0.12324555564E+03  0.16443940532E+03  0.89226511091E+02 0.  0.
        -13    1    3    3    0    0  0.34773094430E+02  0.97268910520E+01 -0.38882851914E+02  0.53062761695E+02  0.00000000000E+00 0.  1.
         13    1    3    3    0    0  0.46712282329E+02 -0.23269592193E+01  0.52336369668E+02  0.70189369919E+02  0.00000000000E+00 0. -1.
        -13    1    4    4    0    0 -0.17394761659E+02 -0.76246057541E+02 -0.65028657643E+02  0.10170921954E+03  0.00000000000E+00 0.  1.
         13    1    4    4    0    0 -0.10897208278E+02  0.20666878046E+02 -0.58216897999E+02  0.62730185789E+02  0.00000000000E+00 0. -1.
         -1    1    1    2    0  502 -0.53193406821E+02  0.48179247662E+02  0.10101650209E+03  0.12391574609E+03  0.00000000000E+00 0.  1.
<scales pt_clust_5="13000.00000" pt_clust_6="13000.00000" pt_clust_7="13000.00000" pt_clust_8="13000.00000" pt_clust_9="13000.00000"></scales>
<clustering>
<clus scale="   89.227">  7  8 -1 -1</clus>
<clus scale="   71.769">  7  9 -1 -1</clus>
<clus scale="   91.189">  5  6 -1 -1</clus>
<clus scale="  122.516">  2  5  1 -1</clus>
<clus scale="  287.497">  1  5  2 -1</clus>
</clustering>
</event>
<event>
 9    1  0.3303741E-006  0.2709332E+03  0.7546771E-02  0.1114998E+00
          1   -1    0    0  502    0 -0.00000000000E+00  0.00000000000E+00  0.68005519263E+03  0.68005519263E+03  0.00000000000E+00 0. -1.
         21   -1    0    0  501  502  0.00000000000E+00 -0.00000000000E+00 -0.13154209218E+03  0.13154209218E+03  0.00000000000E+00 0. -1.
         23    2    1    2    0    0 -0.18791010196E+02  0.16242469181E+03 -0.12486908971E+02  0.18859984572E+03  0.93161667757E+02 0.  0.
         23    2    1    2    0    0  0.17164109614E+02 -0.13671821501E+01  0.32053661374E+03  0.33357592488E+03  0.90734233164E+02 0.  0.
        -11    1    4    4    0    0  0.44517096385E+02 -0.17696031944E+02  0.26711822772E+03  0.27137993477E+03  0.00000000000E+00 0. -1.
         11    1    4    4    0    0 -0.27352986771E+02  0.16328849793E+02  0.53418386022E+02  0.62195990112E+02  0.00000000000E+00 0.  1.
        -13    1    3    3    0    0  0.29889599694E+02  0.11080558033E+03  0.71224487028E+01  0.11498693003E+03  0.00000000000E+00 0. -1.
         13    1    3    3    0    0 -0.48680609889E+02  0.51619111476E+02 -0.19609357673E+02  0.73612915695E+02  0.00000000000E+00 0.  1.
          1    1    1    2  501    0  0.16269005815E+01 -0.16105750966E+03  0.24046339568E+03  0.28942151420E+03  0.00000000000E+00 0. -1.
<scales pt_clust_5="13000.00000" pt_clust_6="13000.00000" pt_clust_7="13000.00000" pt_clust_8="13000.00000" pt_clust_9="13000.00000"></scales>
<clustering>
<clus scale="   90.734">  5  6 -1 -1</clus>
<clus scale="   93.162">  7  8 -1 -1</clus>
<clus scale="  161.066">  5  9 -1 -1</clus>
<clus scale="  188.186">  1  7  2 -1</clus>
<clus scale="  270.933">  2  5  1 -1</clus>
</clustering>
</event>
<event>
 9    1  0.3303741E-006  0.2993336E+03  0.7546771E-02  0.1129889E+00
          2   -1    0    0  502    0 -0.00000000000E+00  0.00000000000E+00  0.10739424568E+03  0.10739424568E+03  0.00000000000E+00 0. -1.
         21   -1    0    0  501  502  0.00000000000E+00 -0.00000000000E+00 -0.38344669546E+03  0.38344669546E+03  0.00000000000E+00 0. -1.
         23    2    1    2    0    0  0.18593128128E+02  0.22194002944E+02 -0.23350780829E+02  0.99102852545E+02  0.91857706465E+02 0.  0.
         23    2    1    2    0    0  0.33524454547E+02 -0.65118187910E+02  0.10795712672E+02  0.11972779797E+03  0.94095327971E+02 0.  0.
        -11    1    3    3    0    0 -0.28863505756E+02  0.36135890677E+02 -0.16817232369E+02  0.49211013647E+02  0.00000000000E+00 0.  1.
         11    1    3    3    0    0  0.47456633884E+02 -0.13941887733E+02 -0.65335484601E+01  0.49891838899E+02  0.00000000000E+00 0. -1.
        -13    1    4    4    0    0  0.32268145401E+01 -0.76612484780E+02 -0.15214780287E+02  0.78175281870E+02  0.00000000000E+00 0.  1.
         13    1    4    4    0    0  0.30297640006E+02  0.11494296870E+02  0.26010492959E+02  0.41552516103E+02  0.00000000000E+00 0. -1.
          2    1    1    2  501    0 -0.52117582674E+02  0.42924184966E+02 -0.26349738163E+03  0.27201029062E+03  0.00000000000E+00 0. -1.
<scales pt_clust_5="13000.00000" pt_clust_6="13000.00000" pt_clust_7="13000.00000" pt_clust_8="13000.00000" pt_clust_9="13000.00000"></scales>
<clustering>
<clus scale="   91.858">  5  6 -1 -1</clus>
<clus scale="   94.095">  7  8 -1 -1</clus>
<clus scale="   67.518">  7  9 -1 -1</clus>
<clus scale="   96.313">  1  5  2 -1</clus>
<clus scale="  299.334">  2  5  1 -1</clus>
</clustering>
</event>
<event>
 9    1  0.3303741E-006  0.2126927E+03  0.7546771E-02  0.1168518E+00
         21   -1    0    0  501  502  0.00000000000E+00  0.00000000000E+00  0.34516375822E+02  0.34516375822E+02  0.00000000000E+00 0. -1.
          2   -1    0    0  502    0 -0.00000000000E+00 -0.00000000000E+00 -0.90089100651E+03  0.90089100651E+03  0.00000000000E+00 0. -1.
         23    2    1    2    0    0  0.56512214852E+02  0.46894202784E+01 -0.12816985363E+03  0.16717274116E+03  0.91124052351E+02 0.  0.
         23    2    1    2    0    0 -0.52035004685E+02 -0.82341699291E+02 -0.54231929530E+03  0.55747163728E+03  0.84714881591E+02 0.  0.
        -11    1    4    4    0    0 -0.75073923739E+02 -0.64564095218E+02 -0.44561845806E+03  0.45648704974E+03  0.00000000000E+00 0. -1.
         11    1    4    4    0    0  0.23038919054E+02 -0.17777604073E+02 -0.96700837238E+02  0.10098458754E+03  0.00000000000E+00 0.  1.
        -13    1    3    3    0    0  0.54833546521E+02 -0.20845857211E+02 -0.12884778196E+03  0.14157336791E+03  0.00000000000E+00 0. -1.
         13    1    3    3    0    0  0.16786683306E+01  0.25535277489E+02  0.67792832448E+00  0.25599373247E+02  0.00000000000E+00 0.  1.
          2    1    1    2  501    0 -0.44772101670E+01  0.77652279013E+02 -0.19588548175E+03  0.21076300389E+03  0.00000000000E+00 0. -1.
<scales pt_clust_5="13000.00000" pt_clust_6="13000.00000" pt_clust_7="13000.00000" pt_clust_8="13000.00000" pt_clust_9="13000.00000"></scales>
<clustering>
<clus scale="   84.715">  5  6 -1 -1</clus>
<clus scale="   77.781">  5  9 -1 -1</clus>
<clus scale="   91.124">  7  8 -1 -1</clus>
<clus scale="  107.328">  2  7  1 -1</clus>
<clus scale="  212.693">  1  5  2 -1</clus>
</clustering>
</event>
<event>
 9    1  0.3303741E-006  0.1664902E+03  0.7546771E-02  0.1202282E+00
          1   -1    0    0  502    0 -0.00000000000E+00  0.00000000000E+00  0.20603366890E+03  0.20603366890E+03  0.00000000000E+00 0. -1.
         21   -1    0    0  501  502  0.00000000000E+00 -0.00000000000E+00 -0.14147449324E+03  0.14147449324E+03  0.00000000000E+00 0. -1.
         23    2    1    2    0    0 -0.16077429904E+02  0.48132151116E+02  0.13105428334E+03  0.16823017153E+03  0.92471496735E+02 0.  0.
         23    2    1    2    0    0 -0.42080637402E+02 -0.22705918649E+02 -0.38478524446E+02  0.10989655919E+03  0.91160946090E+02 0.  0.
        -11    1    3    3    0    0 -0.22480644921E+02  0.72139037137E+02  0.72917317787E+02  0.10500645365E+03  0.00000000000E+00 0. -1.
         11    1    3    3    0    0  0.64032150161E+01 -0.24006886021E+02  0.58136965552E+02  0.63223717880E+02  0.00000000000E+00 0.  1.
        -11    1    4    4    0    0  0.74310959255E+01 -0.32983826129E+02  0.14383625158E+02  0.36742926469E+02  0.00000000000E+00 0.  1.
         11    1    4    4    0    0 -0.49511733328E+02  0.10277907481E+02 -0.52862149604E+02  0.73153632719E+02  0.00000000000E+00 0. -1.
          1    1    1    2  501    0  0.58158067306E+02 -0.25426232467E+02 -0.28016583234E+02  0.69381431424E+02  0.00000000000E+00 0. -1.
<scales pt_clust_5="13000.00000" pt_clust_6="13000.00000" pt_clust_7="13000.00000" pt_clust_8="13000.00000" pt_clust_9="13000.00000"></scales>
<clustering>
<clus scale="   91.161">  7  8 -1 -1</clus>
<clus scale="   63.473">  7  9 -1 -1</clus>
<clus scale="   92.471">  5  6 -1 -1</clus>
<clus scale="  105.481">  1  5  2 -1</clus>
<clus scale="  166.490">  2  5  1 -1</clus>
</clustering>
</event>
<event>
 9    1  0.3303741E-006  0.1477435E+03  0.7546771E-02  0.1211344E+00
          3   -1    0    0  502    0 -0.00000000000E+00  0.00000000000E+00  0.55822297697E+02  0.55822297697E+02  0.00000000000E+00 0. -1.
         21   -1    0    0  501  502  0.00000000000E+00 -0.00000000000E+00 -0.33553947484E+03  0.33553947484E+03  0.00000000000E+00 0.  1.
         23    2    1    2    0    0 -0.14907116223E+02 -0.71378713822E+02 -0.10612318085E+03  0.16340777636E+03  0.10061227043E+03 0.  0.
         23    2    1    2    0    0  0.38152143306E+02  0.50935788735E+02 -0.15519576960E+03  0.19194373076E+03  0.93309314981E+02 0.  0.
        -11    1    3    3    0    0  0.36961179276E+02 -0.11858465795E+01 -0.31562375341E+02  0.48618088637E+02  0.00000000000E+00 0.  1.
         11    1    3    3    0    0 -0.51868295499E+02 -0.70192867243E+02 -0.74560805504E+02  0.11478968772E+03  0.00000000000E+00 0. -1.
        -11    1    4    4    0    0  0.34204779970E+02  0.25015482213E+02 -0.15980010537E+03  0.16532336495E+03  0.00000000000E+00 0.  1.
         11    1    4    4    0    0  0.39473633356E+01  0.25920306522E+02  0.46043357725E+01  0.26620365802E+02  0.00000000000E+00 0. -1.
          3    1    1    2  501    0 -0.23245027083E+02  0.20442925087E+02 -0.18398226703E+02  0.36010265425E+02  0.00000000000E+00 0. -1.
<scales pt_clust_5="13000.00000" pt_clust_6="13000.00000" pt_clust_7="13000.00000" pt_clust_8="13000.00000" pt_clust_9="13000.00000"></scales>
<clustering>
<clus scale="   93.309">  7  8 -1 -1</clus>
<clus scale="   30.956">  7  9 -1 -1</clus>
<clus scale="  100.612">  5  6 -1 -1</clus>
<clus scale="  124.258">  1  5  2 -1</clus>
<clus scale="  147.744">  2  5  1 -1</clus>
</clustering>
</event>
<event>
 9    1  0.3303741E-006  0.1497439E+03  0.7546771E-02  0.1219648E+00
         21   -1    0    0  501  502  0.00000000000E+00  0.00000000000E+00  0.12840678064E+03  0.12840678064E+03  0.00000000000E+00 0.  1.
          3   -1    0    0  502    0 -0.00000000000E+00 -0.00000000000E+00 -0.12450814603E+03  0.12450814603E+03  0.00000000000E+00 0. -1.
         23    2    1    2    0    0  0.27083446814E+02  0.33548880390E+02 -0.17552398704E+02  0.10164237046E+03  0.90355101161E+02 0.  0.
         23    2    1    2    0    0  0.23685186240E+02 -0.48005302681E+01  0.15442958372E+02  0.92620883583E+02  0.88068779794E+02 0.  0.
        -13    1    3    3    0    0  0.41471178900E+02  0.58073762201E+02 -0.88567894439E+01  0.71908714735E+02  0.00000000000E+00 0.  1.
         13    1    3    3    0    0 -0.14387732087E+02 -0.24524881810E+02 -0.86956092599E+01  0.29733655726E+02  0.00000000000E+00 0. -1.
        -13    1    4    4    0    0  0.56055772345E+02 -0.12587010627E+02  0.14771774204E+02  0.59320213779E+02  0.00000000000E+00 0.  1.
         13    1    4    4    0    0 -0.32370586105E+02  0.77864803588E+01  0.67118416883E+00  0.33300669803E+02  0.00000000000E+00 0. -1.
          3    1    1    2  501    0 -0.50768633054E+02 -0.28748350122E+02  0.60080749438E+01  0.58651672622E+02  0.00000000000E+00 0. -1.
<scales pt_clust_5="13000.00000" pt_clust_6="13000.00000" pt_clust_7="13000.00000" pt_clust_8="13000.00000" pt_clust_9="13000.00000"></scales>
<clustering>
<clus scale="   88.069">  7  8 -1 -1</clus>
<clus scale="   58.343">  7  9 -1 -1</clus>
<clus scale="   90.355">  5  6 -1 -1</clus>
<clus scale="  100.115">  2  5  1 -1</clus>
<clus scale="  149.744">  1  5  2 -1</clus>
</clustering>
</event>
<event>
 9    1  0.4110452E-006  0.5220990E+03  0.7546771E-02  0.1044808E+00
          2   -1    0    0  502    0 -0.00000000000E+00  0.00000000000E+00  0.61442407238E+03  0.61442407238E+03  0.00000000000E+00 0. -1.
         21   -1    0    0  501  502  0.00000000000E+00 -0.00000000000E+00 -0.27819368652E+03  0.27819368652E+03  0.00000000000E+00 0. -1.
         23    2    1    2    0    0 -0.13127678948E+03  0.70680412224E+02 -0.10951504244E+03  0.20612207921E+03  0.90903525177E+02 0.  0.
         23    2    1    2    0    0  0.23877143443E+02 -0.97470014548E+02  0.53053571067E+03  0.54706197234E+03  0.87966695805E+02 0.  0.
        -13    1    4    4    0    0  0.54153006231E+02 -0.38450025980E+02  0.29344464307E+03  0.30086660022E+03  0.00000000000E+00 0.  1.
         13    1    4    4    0    0 -0.30275862788E+02 -0.59019988568E+02  0.23709106760E+03  0.24619537212E+03  0.00000000000E+00 0. -1.
        -13    1    3    3    0    0 -0.10977334397E+03  0.77823505778E+02 -0.51920214167E+02  0.14423034957E+03  0.00000000000E+00 0. -1.
         13    1    3    3    0    0 -0.21503445510E+02 -0.71430935534E+01 -0.57594828274E+02  0.61891729643E+02  0.00000000000E+00 0.  1.
          2    1    1    2  501    0  0.10739964603E+03  0.26789602324E+02 -0.84790282370E+02  0.13943370735E+03  0.00000000000E+00 0. -1.
<scales pt_clust_5="13000.00000" pt_clust_6="13000.00000" pt_clust_7="13000.00000" pt_clust_8="13000.00000" pt_clust_9="13000.00000"></scales>
<clustering>
<clus scale="   87.967">  5  6 -1 -1</clus>
<clus scale="   90.904">  7  8 -1 -1</clus>
<clus scale="  110.690">  5  9 -1 -1</clus>
<clus scale="  174.622">  1  7  2 -1</clus>
<clus scale="  522.099">  2  5  1 -1</clus>
</clustering>
</event>
<event>
 9    1  0.3303741E-006  0.1678516E+03  0.7546771E-02  0.1206669E+00
         -2   -1    0    0    0  501 -0.00000000000E+00  0.00000000000E+00  0.28350384220E+03  0.28350384220E+03  0.00000000000E+00 0.  1.
         21   -1    0    0  501  502  0.00000000000E+00 -0.00000000000E+00 -0.98933415463E+02  0.98933415463E+02  0.00000000000E+00 0. -1.
         23    2    1    2    0    0 -0.12867429940E+02  0.77173149571E+01  0.19284577736E+03  0.21438176804E+03  0.92438741432E+02 0.  0.
         23    2    1    2    0    0  0.21716824838E+02  0.49926580201E+02 -0.23426921895E+02  0.10780019483E+03  0.90043197658E+02 0.  0.
        -11    1    4    4    0    0 -0.27303746738E+02  0.27683035264E+02  0.14984397952E+02  0.41669859723E+02  0.00000000000E+00 0.  1.
         11    1    4    4    0    0  0.49020571576E+02  0.22243544937E+02 -0.38411319847E+02  0.66130335108E+02  0.00000000000E+00 0. -1.
        -13    1    3    3    0    0 -0.27596789318E+02 -0.20393928364E+02  0.17425424470E+03  0.17760077953E+03  0.00000000000E+00 0.  1.
         13    1    3    3    0    0  0.14729359378E+02  0.28111243321E+02  0.18591532663E+02  0.36780988506E+02  0.00000000000E+00 0. -1.
         -2    1    1    2    0  502 -0.88493948985E+01 -0.57643895158E+02  0.15151571272E+02  0.60255294797E+02  0.00000000000E+00 0.  1.
<scales pt_clust_5="13000.00000" pt_clust_6="13000.00000" pt_clust_7="13000.00000" pt_clust_8="13000.00000" pt_clust_9="13000.00000"></scales>
<clustering>
<clus scale="   90.043">  5  6 -1 -1</clus>
<clus scale="   58.319">  5  9 -1 -1</clus>
<clus scale="   92.439">  7  8 -1 -1</clus>
<clus scale="   93.649">  1  7  2 -1</clus>
<clus scale="  167.852">  2  5  1 -1</clus>
</clustering>
</event>
<event>
 9    1  0.3303741E-006  0.1515721E+03  0.7546771E-02  0.1216830E+00
         21   -1    0    0  501  502  0.00000000000E+00  0.00000000000E+00  0.14112706950E+03  0.14112706950E+03  0.00000000000E+00 0. -1.
          2   -1    0    0  502    0 -0.00000000000E+00 -0.00000000000E+00 -0.30152728599E+03  0.30152728599E+03  0.00000000000E+00 0. -1.
         23    2    1    2    0    0 -0.27906705725E+02 -0.41073633884E+02 -0.24748388393E+03  0.26784688124E+03  0.89598277637E+02 0.  0.
         23    2    1    2    0    0  0.11669544627E+02  0.57630149979E+01  0.50252204960E+01  0.84010591478E+02  0.82844046412E+02 0.  0.
        -13    1    3    3    0    0  0.19857062827E+02 -0.41472014111E+02 -0.67789307698E+02  0.81912277082E+02  0.00000000000E+00 0.  1.
         13    1    3    3    0    0 -0.47763768552E+02  0.39838022707E+00 -0.17969457624E+03  0.18593460415E+03  0.00000000000E+00 0. -1.
        -13    1    4    4    0    0 -0.32920542852E+02  0.17718263273E+02 -0.13345227591E+01  0.37409623710E+02  0.00000000000E+00 0.  1.
         13    1    4    4    0    0  0.44590087479E+02 -0.11955248275E+02  0.63597432551E+01  0.46600967769E+02  0.00000000000E+00 0. -1.
          2    1    1    2  501    0  0.16237161098E+02  0.35310618886E+02  0.82058446946E+02  0.90796882776E+02  0.00000000000E+00 0. -1.
<scales pt_clust_5="13000.00000" pt_clust_6="13000.00000" pt_clust_7="13000.00000" pt_clust_8="13000.00000" pt_clust_9="13000.00000"></scales>
<clustering>
<clus scale="   82.844">  7  8 -1 -1</clus>
<clus scale="   38.865">  7  9 -1 -1</clus>
<clus scale="   89.598">  5  6 -1 -1</clus>
<clus scale="  102.439">  2  5  1 -1</clus>
<clus scale="  151.572">  1  5  2 -1</clus>
</clustering>
</event>
<event>
 9    1  0.3303741E-006  0.3198193E+03  0.7546771E-02  0.1117576E+00
         21   -1    0    0  501  502  0.00000000000E+00  0.00000000000E+00  0.26321041188E+03  0.26321041188E+03  0.00000000000E+00 0. -1.
          1   -1    0    0  502    0 -0.00000000000E+00 -0.00000000000E+00 -0.32591122114E+03  0.32591122114E+03  0.00000000000E+00 0. -1.
         23    2    1    2    0    0  0.58256067549E+02 -0.18874511270E+02 -0.21093415080E+03  0.23661983048E+03  0.88009724562E+02 0.  0.
         23    2    1    2    0    0 -0.28017807000E+02 -0.38090935931E+01 -0.78315450620E+02  0.12282103808E+03  0.90289483809E+02 0.  0.
        -13    1    3    3    0    0  0.47786517079E+02  0.11439368104E+02 -0.19444674415E+03  0.20055908523E+03  0.00000000000E+00 0. -1.
         13    1    3    3    0    0  0.10469550470E+02 -0.30313879374E+02 -0.16487406655E+02  0.36060745249E+02  0.00000000000E+00 0.  1.
        -13    1    4    4    0    0 -0.37187327411E+02  0.22092531276E+02 -0.84255131842E+02  0.94709579768E+02  0.00000000000E+00 0.  1.
         13    1    4    4    0    0  0.91695204107E+01 -0.25901624870E+02  0.59396812223E+01  0.28111458313E+02  0.00000000000E+00 0. -1.
          1    1    1    2  501    0 -0.30238260548E+02  0.22683604863E+02  0.22654879216E+03  0.22968076446E+03  0.00000000000E+00 0. -1.
<scales pt_clust_5="13000.00000" pt_clust_6="13000.00000" pt_clust_7="13000.00000" pt_clust_8="13000.00000" pt_clust_9="13000.00000"></scales>
<clustering>
<clus scale="   88.010">  5  6 -1 -1</clus>
<clus scale="   90.289">  7  8 -1 -1</clus>
<clus scale="   37.801">  7  9 -1 -1</clus>
<clus scale="  107.218">  2  5  1 -1</clus>
<clus scale="  319.819">  1  5  2 -1</clus>
</clustering>
</event>
<event>
 9    1  0.3303741E-006  0.2541494E+03  0.7546771E-02  0.1137540E+00
         -2   -1    0    0    0  501 -0.00000000000E+00  0.00000000000E+00  0.49863087874E+03  0.49863087874E+03  0.00000000000E+00 0.  1.
         21   -1    0    0  501  502  0.00000000000E+00 -0.00000000000E+00 -0.77763935285E+02  0.77763935285E+02  0.00000000000E+00 0. -1.
         23    2    1    2    0    0 -0.94239320472E+02  0.11519452465E+02  0.20447010681E+03  0.24259924128E+03  0.89624884839E+02 0.  0.
         23    2    1    2    0    0  0.85087566856E+01 -0.58924793307E+02  0.20883664126E+03  0.23554002603E+03  0.91224069853E+02 0.  0.
        -11    1    4    4    0    0  0.27317764723E+02 -0.14337350984E+02  0.17194080016E+03  0.17468674438E+03  0.00000000000E+00 0.  1.
         11    1    4    4    0    0 -0.18809008037E+02 -0.44587442324E+02  0.36895841098E+02  0.60853281642E+02  0.00000000000E+00 0. -1.
        -11    1    3    3    0    0 -0.24232168782E+02  0.37604626215E+02  0.33092607419E+02  0.55645544139E+02  0.00000000000E+00 0.  1.
         11    1    3    3    0    0 -0.70007151690E+02 -0.26085173750E+02  0.17137749939E+03  0.18695369714E+03  0.00000000000E+00 0. -1.
         -2    1    1    2    0  502  0.85730563786E+02  0.47405340842E+02  0.75601953880E+01  0.98255546723E+02  0.00000000000E+00 0.  1.
<scales pt_clust_5="13000.00000" pt_clust_6="13000.00000" pt_clust_7="13000.00000" pt_clust_8="13000.00000" pt_clust_9="13000.00000"></scales>
<clustering>
<clus scale="   89.625">  7  8 -1 -1</clus>
<clus scale="   91.224">  5  6 -1 -1</clus>
<clus scale="   97.964">  5  9 -1 -1</clus>
<clus scale="  130.562">  1  7  2 -1</clus>
<clus scale="  254.149">  2  5  1 -1</clus>
</clustering>
</event>
<event>
 9    1  0.3303741E-006  0.1444560E+03  0.7546771E-02  0.1223944E+00
         -1   -1    0    0    0  501 -0.00000000000E+00  0.00000000000E+00  0.43840565895E+03  0.43840565895E+03  0.00000000000E+00 0.  1.
         21   -1    0    0  501  502  0.00000000000E+00 -0.00000000000E+00 -0.16290278178E+03  0.16290278178E+03  0.00000000000E+00 0. -1.
         23    2    1    2    0    0  0.11977953923E+02 -0.34303482475E+02  0.39865715052E+03  0.41148086434E+03  0.95230130577E+02 0.  0.
         23    2    1    2    0    0  0.16602969446E+02  0.53365313213E+02 -0.74772410398E+02  0.13048933210E+03  0.91175858579E+02 0.  0.
        -11    1    4    4    0    0  0.31419885798E+02  0.32395394372E+02 -0.89968671561E+02  0.10065303107E+03  0.00000000000E+00 0. -1.
         11    1    4    4    0    0 -0.14816916352E+02  0.20969918841E+02  0.15196261163E+02  0.29836301039E+02  0.00000000000E+00 0.  1.
        -13    1    3    3    0    0  0.34024264314E+02  0.20888209399E+02  0.11708208563E+03  0.12370199121E+03  0.00000000000E+00 0. -1.
         13    1    3    3    0    0 -0.22046310391E+02 -0.55191691874E+02  0.28157506489E+03  0.28777887313E+03  0.00000000000E+00 0.  1.
         -1    1    1    2    0  502 -0.28580923369E+02 -0.19061830738E+02 -0.48381862953E+02  0.59338244282E+02  0.00000000000E+00 0.  1.
<scales pt_clust_5="13000.00000" pt_clust_6="13000.00000" pt_clust_7="13000.00000" pt_clust_8="13000.00000" pt_clust_9="13000.00000"></scales>
<clustering>
<clus scale="   91.176">  5  6 -1 -1</clus>
<clus scale="   34.354">  5  9 -1 -1</clus>
<clus scale="   95.230">  7  8 -1 -1</clus>
<clus scale="  101.926">  1  7  2 -1</clus>
<clus scale="  144.456">  2  5  1 -1</clus>
</clustering>
</event>
<event>
 9    1  0.3303741E-006  0.3196393E+03  0.7546771E-02  0.1077782E+00
         21   -1    0    0  501  502  0.00000000000E+00  0.00000000000E+00  0.20242783952E+03  0.20242783952E+03  0.00000000000E+00 0. -1.
          2   -1    0    0  502    0 -0.00000000000E+00 -0.00000000000E+00 -0.48082373324E+03  0.48082373324E+03  0.00000000000E+00 0. -1.
         23    2    1    2    0    0  0.16771052349E+03  0.23529315703E+03 -0.15730686564E+03  0.34144481655E+03  0.91375179000E+02 0.  0.
         23    2    1    2    0    0 -0.70581638053E+02 -0.11973081091E+03 -0.86630534101E+02  0.18696469462E+03  0.90187099330E+02 0.  0.
        -13    1    3    3    0    0  0.17239732143E+01  0.32979911326E+02  0.51556124056E+01  0.33424945385E+02  0.00000000000E+00 0.  1.
         13    1    3    3    0    0  0.16598655028E+03  0.20231324570E+03 -0.16246247805E+03  0.30801987117E+03  0.00000000000E+00 0. -1.
        -13    1    4    4    0    0 -0.93802738655E+01 -0.97234047796E+02 -0.68423333860E+02  0.11926525984E+03  0.00000000000E+00 0.  1.
         13    1    4    4    0    0 -0.61201364188E+02 -0.22496763112E+02 -0.18207200241E+02  0.67699434780E+02  0.00000000000E+00 0. -1.
          2    1    1    2  501    0 -0.97128885442E+02 -0.11556234612E+03 -0.34458493970E+02  0.15484206158E+03  0.00000000000E+00 0. -1.
<scales pt_clust_5="13000.00000" pt_clust_6="13000.00000" pt_clust_7="13000.00000" pt_clust_8="13000.00000" pt_clust_9="13000.00000"></scales>
<clustering>
<clus scale="   90.187">  7  8 -1 -1</clus>
<clus scale="   91.375">  5  6 -1 -1</clus>
<clus scale="  150.959">  7  9 -1 -1</clus>
<clus scale="  303.050">  2  5  1 -1</clus>
<clus scale="  319.639">  1  5  2 -1</clus>
</clustering>
</event>
<event>
 9    1  0.3303741E-006  0.2183517E+03  0.7546771E-02  0.1147885E+00
         -1   -1    0    0    0  501 -0.00000000000E+00  0.00000000000E+00  0.25974411769E+03  0.25974411769E+03  0.00000000000E+00 0.  1.
         21   -1    0    0  501  502  0.00000000000E+00 -0.00000000000E+00 -0.34904595740E+03  0.34904595740E+03  0.00000000000E+00 0.  1.
         23    2    1    2    0    0  0.11011275608E+03  0.67955883174E+02  0.19352076603E+03  0.25148615674E+03  0.95142940049E+02 0.  0.
         23    2    1    2    0    0 -0.69613614462E+02 -0.42174329583E+02 -0.73765590298E+02  0.14280518948E+03  0.91253659856E+02 0.  0.
        -11    1    3    3    0    0  0.65961255507E+02  0.74883328784E+02  0.75042669736E+02  0.12485913038E+03  0.00000000000E+00 0.  1.
         11    1    3    3    0    0  0.44151500569E+02 -0.69274456102E+01  0.11847809629E+03  0.12662702636E+03  0.00000000000E+00 0. -1.
        -11    1    4    4    0    0  0.19383404295E+02 -0.14101850585E+02 -0.19251375916E+00  0.23971141264E+02  0.00000000000E+00 0.  1.
         11    1    4    4    0    0 -0.88997018756E+02 -0.28072478999E+02 -0.73573076539E+02  0.11883404822E+03  0.00000000000E+00 0. -1.
         -1    1    1    2    0  502 -0.40499141614E+02 -0.25781553590E+02 -0.20905701544E+03  0.21449872886E+03  0.00000000000E+00 0.  1.
<scales pt_clust_5="13000.00000" pt_clust_6="13000.00000" pt_clust_7="13000.00000" pt_clust_8="13000.00000" pt_clust_9="13000.00000"></scales>
<clustering>
<clus scale="   91.254">  7  8 -1 -1</clus>
<clus scale="   48.009">  7  9 -1 -1</clus>
<clus scale="   95.143">  5  6 -1 -1</clus>
<clus scale="  160.608">  1  5  2 -1</clus>
<clus scale="  218.352">  2  5  1 -1</clus>
</clustering>
</event>
<event>
 9    1  0.3303741E-006  0.1602483E+03  0.7546771E-02  0.1203716E+00
          1   -1    0    0  502    0 -0.00000000000E+00  0.00000000000E+00  0.36173552835E+03  0.36173552835E+03  0.00000000000E+00 0. -1.
         21   -1    0    0  501  502  0.00000000000E+00 -0.00000000000E+00 -0.69114677822E+02  0.69114677822E+02  0.00000000000E+00 0. -1.
         23    2    1    2    0    0 -0.64231436031E+02 -0.94854413036E+01  0.23331957050E+03  0.25998137591E+03  0.94533818667E+02 0.  0.
         23    2    1    2    0    0  0.18808740276E+02 -0.24679005715E+02  0.53918921536E+02  0.11377767059E+03  0.95264296517E+02 0.  0.
        -13    1    4    4    0    0 -0.18491584510E+02 -0.35441836771E+02  0.62336638647E+02  0.74053487489E+02  0.00000000000E+00 0. -1.
         13    1    4    4    0    0  0.37300324786E+02  0.10762831057E+02 -0.84177171114E+01  0.39724183099E+02  0.00000000000E+00 0.  1.
        -13    1    3    3    0    0 -0.65570291215E+02  0.28698973610E+02  0.18511655900E+03  0.19847225145E+03  0.00000000000E+00 0. -1.
         13    1    3    3    0    0  0.13388551838E+01 -0.38184414913E+02  0.48203011498E+02  0.61509124469E+02  0.00000000000E+00 0.  1.
          1    1    1    2  501    0  0.45422695755E+02  0.34164447019E+02  0.53823584921E+01  0.57091159672E+02  0.00000000000E+00 0. -1.
<scales pt_clust_5="13000.00000" pt_clust_6="13000.00000" pt_clust_7="13000.00000" pt_clust_8="13000.00000" pt_clust_9="13000.00000"></scales>
<clustering>
<clus scale="   94.534">  7  8 -1 -1</clus>
<clus scale="   95.264">  5  6 -1 -1</clus>
<clus scale="   56.837">  5  9 -1 -1</clus>
<clus scale="  114.683">  1  7  2 -1</clus>
<clus scale="  160.248">  2  5  1 -1</clus>
</clustering>
</event>
<event>
 9    1  0.3303741E-006  0.3249477E+03  0.7546771E-02  0.1084518E+00
          1   -1    0    0  502    0 -0.00000000000E+00  0.00000000000E+00  0.33218512134E+03  0.33218512134E+03  0.00000000000E+00 0. -1.
         21   -1    0    0  501  502  0.00000000000E+00 -0.00000000000E+00 -0.24097706673E+03  0.24097706673E+03  0.00000000000E+00 0. -1.
         23    2    1    2    0    0 -0.10312762608E+03  0.19766438627E+03  0.47120865425E+02  0.24523740629E+03  0.90633838185E+02 0.  0.
         23    2    1    2    0    0  0.58178337928E+02 -0.53027382252E+02  0.11248784190E+03  0.16173527932E+03  0.85487798714E+02 0.  0.
        -11    1    3    3    0    0  0.14422286938E+02  0.49123113468E+02  0.11962765550E+02  0.52575568441E+02  0.00000000000E+00 0.  1.
         11    1    3    3    0    0 -0.11754991301E+03  0.14854127280E+03  0.35158099875E+02  0.19266183784E+03  0.00000000000E+00 0. -1.
        -13    1    4    4    0    0 -0.16554781412E+02 -0.34584836818E+02  0.47122525720E+02  0.60751165878E+02  0.00000000000E+00 0.  1.
         13    1    4    4    0    0  0.74733119340E+02 -0.18442545434E+02  0.65365316179E+02  0.10098411344E+03  0.00000000000E+00 0. -1.
          1    1    1    2  501    0  0.44949288147E+02 -0.14463700402E+03 -0.68400652722E+02  0.16618950246E+03  0.00000000000E+00 0. -1.
<scales pt_clust_5="13000.00000" pt_clust_6="13000.00000" pt_clust_7="13000.00000" pt_clust_8="13000.00000" pt_clust_9="13000.00000"></scales>
<clustering>
<clus scale="   85.488">  7  8 -1 -1</clus>
<clus scale="   90.634">  5  6 -1 -1</clus>
<clus scale="  151.461">  7  9 -1 -1</clus>
<clus scale="  240.668">  1  5  2 -1</clus>
<clus scale="  324.948">  2  5  1 -1</clus>
</clustering>
</event>
<event>
 9    1  0.3303741E-006  0.2700805E+03  0.7546771E-02  0.1132164E+00
         21   -1    0    0  501  502  0.00000000000E+00  0.00000000000E+00  0.17469083203E+03  0.17469083203E+03  0.00000000000E+00 0.  1.
          2   -1    0    0  502    0 -0.00000000000E+00 -0.00000000000E+00 -0.39100652800E+03  0.39100652800E+03  0.00000000000E+00 0. -1.
         23    2    1    2    0    0 -0.75502577364E+02  0.38051913839E+02 -0.26378225113E+03  0.29147747324E+03  0.90716338426E+02 0.  0.
         23    2    1    2    0    0  0.42489605935E+01 -0.12179298805E+03 -0.97988159316E+00  0.15406705641E+03  0.94255568004E+02 0.  0.
        -13    1    4    4    0    0  0.32245382574E+02 -0.94246448513E+01 -0.16148883813E+02  0.37274321943E+02  0.00000000000E+00 0. -1.
         13    1    4    4    0    0 -0.27996421980E+02 -0.11236834320E+03  0.15169002219E+02  0.11679273447E+03  0.00000000000E+00 0.  1.
        -13    1    3    3    0    0 -0.68375612216E+02  0.57698097977E+02 -0.25216679508E+03  0.26756753801E+03  0.00000000000E+00 0. -1.
         13    1    3    3    0    0 -0.71269651486E+01 -0.19646184138E+02 -0.11615456058E+02  0.23909935233E+02  0.00000000000E+00 0.  1.
          2    1    1    2  501    0  0.71253616771E+02  0.83741074212E+02  0.48446436752E+02  0.12015283037E+03  0.00000000000E+00 0. -1.
<scales pt_clust_5="13000.00000" pt_clust_6="13000.00000" pt_clust_7="13000.00000" pt_clust_8="13000.00000" pt_clust_9="13000.00000"></scales>
<clustering>
<clus scale="   90.716">  7  8 -1 -1</clus>
<clus scale="   94.256">  5  6 -1 -1</clus>
<clus scale="  109.953">  5  9 -1 -1</clus>
<clus scale="  124.008">  2  7  1 -1</clus>
<clus scale="  270.080">  1  5  2 -1</clus>
</clustering>
</event>
<event>
 9    1  0.3303741E-006  0.2724391E+03  0.7546771E-02  0.1136871E+00
         -1   -1    0    0    0  501 -0.00000000000E+00  0.00000000000E+00  0.12136190447E+03  0.12136190447E+03  0.00000000000E+00 0.  1.
         21   -1    0    0  501  502  0.00000000000E+00 -0.00000000000E+00 -0.44123112879E+03  0.44123112879E+03  0.00000000000E+00 0.  1.
         23    2    1    2    0    0  0.10778414420E+02 -0.55672303865E+02  0.36744509885E+02  0.11382088253E+03  0.91593966272E+02 0.  0.
         23    2    1    2    0    0  0.14174308513E+02  0.12103762389E+03 -0.95635399033E+02  0.17857785976E+03  0.88842022874E+02 0.  0.
        -13    1    3    3    0    0  0.31266657426E+02  0.13487468442E+02  0.29893694307E+01  0.34182627183E+02  0.00000000000E+00 0.  1.
         13    1    3    3    0    0 -0.20488243006E+02 -0.69159772307E+02  0.33755140454E+02  0.79638255343E+02  0.00000000000E+00 0. -1.
        -13    1    4    4    0    0  0.32605196228E+02  0.65862243300E+01 -0.32810630188E+02  0.46722742056E+02  0.00000000000E+00 0. -1.
         13    1    4    4    0    0 -0.18430887715E+02  0.11445139956E+03 -0.62824768845E+02  0.13185511770E+03  0.00000000000E+00 0.  1.
         -1    1    1    2    0  502 -0.24952722933E+02 -0.65365320025E+02 -0.26097833518E+03  0.27019429097E+03  0.00000000000E+00 0.  1.
<scales pt_clust_5="13000.00000" pt_clust_6="13000.00000" pt_clust_7="13000.00000" pt_clust_8="13000.00000" pt_clust_9="13000.00000"></scales>
<clustering>
<clus scale="   88.842">  7  8 -1 -1</clus>
<clus scale="   69.966">  7  9 -1 -1</clus>
<clus scale="   91.594">  5  6 -1 -1</clus>
<clus scale="  107.727">  1  5  2 -1</clus>
<clus scale="  272.439">  2  5  1 -1</clus>
</clustering>
</event>
<event>
 9    1  0.3303741E-006  0.2908463E+03  0.7546771E-02  0.1119215E+00
          2   -1    0    0  502    0 -0.00000000000E+00  0.00000000000E+00  0.47440615954E+03  0.47440615954E+03  0.00000000000E+00 0. -1.
         21   -1    0    0  501  502  0.00000000000E+00 -0.00000000000E+00 -0.21551189078E+03  0.21551189078E+03  0.00000000000E+00 0. -1.
         23    2    1    2    0    0  0.95329706385E+02  0.34979833239E+02  0.35752062423E+03  0.38280454643E+03  0.91689597908E+02 0.  0.
         23    2    1    2    0    0 -0.21004306467E+02  0.96348229380E+02 -0.15998410793E+02  0.13507076981E+03  0.90906553751E+02 0.  0.
        -11    1    3    3    0    0  0.47064009406E+02 -0.27335840913E+02  0.10499401951E+03  0.11826247635E+03  0.00000000000E+00 0.  1.
         11    1    3    3    0    0  0.48265696979E+02  0.62315674152E+02  0.25252660473E+03  0.26454207008E+03  0.00000000000E+00 0. -1.
        -11    1    4    4    0    0 -0.40196593922E+02  0.65115426214E+01 -0.14403910771E+02  0.43193043372E+02  0.00000000000E+00 0.  1.
         11    1    4    4    0    0  0.19192287454E+02  0.89836686758E+02 -0.15945000225E+01  0.91877726440E+02  0.00000000000E+00 0. -1.
          2    1    1    2  501    0 -0.74325399918E+02 -0.13132806262E+03 -0.82627944683E+02  0.17204273407E+03  0.00000000000E+00 0. -1.
<scales pt_clust_5="13000.00000" pt_clust_6="13000.00000" pt_clust_7="13000.00000" pt_clust_8="13000.00000" pt_clust_9="13000.00000"></scales>
<clustering>
<clus scale="   90.907">  7  8 -1 -1</clus>
<clus scale="   91.690">  5  6 -1 -1</clus>
<clus scale="  136.815">  1  5  2 -1</clus>
<clus scale="  121.037">  7  9 -1 -1</clus>
<clus scale="  290.846">  2  5  1 -1</clus>
</clustering>
</event>
<event>
 9    1  0.3303741E-006  0.3408856E+03  0.7546771E-02  0.1080922E+00
          2   -1    0    0  502    0 -0.00000000000E+00  0.00000000000E+00  0.74740065730E+03  0.74740065730E+03  0.00000000000E+00 0. -1.
         21   -1    0    0  501  502  0.00000000000E+00 -0.00000000000E+00 -0.11749980926E+03  0.11749980926E+03  0.00000000000E+00 0. -1.
         23    2    1    2    0    0  0.15913363714E+03  0.13817078926E+03  0.37328766894E+03  0.43822343172E+03  0.91002257415E+02 0.  0.
         23    2    1    2    0    0 -0.68547712447E+02 -0.18478474878E+03  0.23973866150E+03  0.32341319645E+03  0.90979544720E+02 0.  0.
        -11    1    4    4    0    0  0.19349295915E+02 -0.21161111534E+02  0.51632722368E+02  0.59060358218E+02  0.00000000000E+00 0.  1.
         11    1    4    4    0    0 -0.87897008362E+02 -0.16362363725E+03  0.18810593913E+03  0.26435283823E+03  0.00000000000E+00 0. -1.
        -11    1    3    3    0    0  0.12510898227E+03  0.14120344336E+03  0.34755674126E+03  0.39545715098E+03  0.00000000000E+00 0. -1.
         11    1    3    3    0    0  0.34024654865E+02 -0.30326541011E+01  0.25730927676E+02  0.42766280743E+02  0.00000000000E+00 0.  1.
          2    1    1    2  501    0 -0.90585924693E+02  0.46613959518E+02  0.16874517604E+02  0.10326383839E+03  0.00000000000E+00 0. -1.
<scales pt_clust_5="13000.00000" pt_clust_6="13000.00000" pt_clust_7="13000.00000" pt_clust_8="13000.00000" pt_clust_9="13000.00000"></scales>
<clustering>
<clus scale="   90.980">  5  6 -1 -1</clus>
<clus scale="   91.002">  7  8 -1 -1</clus>
<clus scale="  101.876">  5  9 -1 -1</clus>
<clus scale="  229.556">  1  7  2 -1</clus>
<clus scale="  340.886">  2  5  1 -1</clus>
</clustering>
</event>
<event>
 9    1  0.3303741E-006  0.3835614E+03  0.7546771E-02  0.1065743E+00
         -1   -1    0    0    0  501 -0.00000000000E+00  0.00000000000E+00  0.24510231589E+03  0.24510231589E+03  0.00000000000E+00 0.  1.
         21   -1    0    0  501  502  0.00000000000E+00 -0.00000000000E+00 -0.44034371678E+03  0.44034371678E+03  0.00000000000E+00 0. -1.
         23    2    1    2    0    0  0.99574166889E+01  0.22624079585E+03  0.21720019474E+02  0.24477427901E+03  0.90325193391E+02 0.  0.
         23    2    1    2    0    0 -0.56674197106E+01  0.68956030865E+01  0.34645077179E+02  0.97631210592E+02  0.90839985253E+02 0.  0.
        -11    1    3    3    0    0  0.32952509208E+02  0.25270373473E+02  0.38666010264E+01  0.41706237448E+02  0.00000000000E+00 0.  1.
         11    1    3    3    0    0 -0.22995092519E+02  0.20097042238E+03  0.17853418447E+02  0.20306804156E+03  0.00000000000E+00 0. -1.
        -11    1    4    4    0    0  0.38617885645E+02  0.44535619092E+00 -0.35663109864E+01  0.38784765151E+02  0.00000000000E+00 0. -1.
         11    1    4    4    0    0 -0.44285305355E+02  0.64502468955E+01  0.38211388166E+02  0.58846445440E+02  0.00000000000E+00 0.  1.
         -1    1    1    2    0  502 -0.42899969783E+01 -0.23313639894E+03 -0.25160649754E+03  0.34304054307E+03  0.00000000000E+00 0.  1.
<scales pt_clust_5="13000.00000" pt_clust_6="13000.00000" pt_clust_7="13000.00000" pt_clust_8="13000.00000" pt_clust_9="13000.00000"></scales>
<clustering>
<clus scale="   90.325">  5  6 -1 -1</clus>
<clus scale="   90.840">  7  8 -1 -1</clus>
<clus scale="  233.176">  7  9 -1 -1</clus>
<clus scale="  243.809">  1  5  2 -1</clus>
<clus scale="  383.561">  2  5  1 -1</clus>
</clustering>
</event>
<event>
 9    1  0.3303741E-006  0.1654461E+03  0.7546771E-02  0.1209237E+00
         21   -1    0    0  501  502  0.00000000000E+00  0.00000000000E+00  0.30440596823E+03  0.30440596823E+03  0.00000000000E+00 0. -1.
         -2   -1    0    0    0  501 -0.00000000000E+00 -0.00000000000E+00 -0.54845026399E+02  0.54845026399E+02  0.00000000000E+00 0.  1.
         23    2    1    2    0    0 -0.16854660015E+02 -0.33330962248E+01  0.99424124427E+02  0.13583773648E+03  0.90948034823E+02 0.  0.
         23    2    1    2    0    0  0.42127305104E+02  0.37265663502E+02  0.14579623990E+03  0.18088131340E+03  0.91093723464E+02 0.  0.
        -13    1    3    3    0    0  0.11035178460E+02 -0.19883702397E+02 -0.76241833824E+01  0.23984681714E+02  0.00000000000E+00 0.  1.
         13    1    3    3    0    0 -0.27889838475E+02  0.16550606172E+02  0.10704830781E+03  0.11185305476E+03  0.00000000000E+00 0. -1.
        -13    1    4    4    0    0  0.52442398531E+02 -0.69231377688E+01  0.11338791602E+03  0.12511976063E+03  0.00000000000E+00 0.  1.
         13    1    4    4    0    0 -0.10315093426E+02  0.44188801271E+02  0.32408323880E+02  0.55761552766E+02  0.00000000000E+00 0. -1.
         -2    1    1    2    0  502 -0.25272645089E+02 -0.33932567278E+02  0.43405775021E+01  0.42531944758E+02  0.00000000000E+00 0.  1.
<scales pt_clust_5="13000.00000" pt_clust_6="13000.00000" pt_clust_7="13000.00000" pt_clust_8="13000.00000" pt_clust_9="13000.00000"></scales>
<clustering>
<clus scale="   90.948">  5  6 -1 -1</clus>
<clus scale="   91.094">  7  8 -1 -1</clus>
<clus scale="   42.310">  7  9 -1 -1</clus>
<clus scale="   92.557">  2  5  1 -1</clus>
<clus scale="  165.446">  1  5  2 -1</clus>
</clustering>
</event>
<event>
 9    1  0.3303741E-006  0.2560163E+03  0.7546771E-02  0.1141573E+00
         21   -1    0    0  501  502  0.00000000000E+00  0.00000000000E+00  0.31332581051E+02  0.31332581051E+02  0.00000000000E+00 0. -1.
          1   -1    0    0  502    0 -0.00000000000E+00 -0.00000000000E+00 -0.12001488065E+04  0.12001488065E+04  0.00000000000E+00 0. -1.
         23    2    1    2    0    0 -0.70651629964E+02 -0.16415590511E+02 -0.21901090515E+03  0.24777690987E+03  0.90368667480E+02 0.  0.
         23    2    1    2    0    0 -0.34221458317E+02 -0.49981361580E+02 -0.53013541483E+03  0.54606335822E+03  0.11607061821E+03 0.  0.
        -11    1    3    3    0    0  0.21345800154E+02 -0.10125229137E+02 -0.42092573703E+02  0.48269537083E+02  0.00000000000E+00 0.  1.
         11    1    3    3    0    0 -0.91997430118E+02 -0.62903613738E+01 -0.17691833145E+03  0.19950737279E+03  0.00000000000E+00 0. -1.
        -13    1    4    4    0    0  0.16059658279E+02  0.29959220403E+02 -0.19207901661E+03  0.19506362074E+03  0.00000000000E+00 0.  1.
         13    1    4    4    0    0 -0.50281116596E+02 -0.79940581983E+02 -0.33805639822E+03  0.35099973748E+03  0.00000000000E+00 0. -1.
          1    1    1    2  501    0  0.10487308828E+03  0.66396952091E+02 -0.41966990546E+03  0.43764111945E+03  0.00000000000E+00 0. -1.
<scales pt_clust_5="13000.00000" pt_clust_6="13000.00000" pt_clust_7="13000.00000" pt_clust_8="13000.00000" pt_clust_9="13000.00000"></scales>
<clustering>
<clus scale="   90.369">  5  6 -1 -1</clus>
<clus scale="  115.878">  2  5  1 -1</clus>
<clus scale="  116.071">  7  8 -1 -1</clus>
<clus scale="   94.361">  7  9 -1 -1</clus>
<clus scale="  256.016">  1  5  2 -1</clus>
</clustering>
</event>
<event>
 9    1  0.3303741E-006  0.5375435E+03  0.7546771E-02  0.1063782E+00
          1   -1    0    0  502    0 -0.00000000000E+00  0.00000000000E+00  0.11296960465E+03  0.11296960465E+03  0.00000000000E+00 0. -1.
         21   -1    0    0  501  502  0.00000000000E+00 -0.00000000000E+00 -0.90809288533E+03  0.90809288533E+03  0.00000000000E+00 0. -1.
         23    2    1    2    0    0  0.24207221124E+02  0.34655200437E+01 -0.62898304284E+02  0.11270878936E+03  0.90272227915E+02 0.  0.
         23    2    1    2    0    0  0.58154195341E+02  0.67691712576E+02  0.34339507376E+02  0.13410060088E+03  0.94019630948E+02 0.  0.
        -11    1    4    4    0    0  0.44431409061E+02 -0.11114461090E+02 -0.28440505931E+01  0.45888669411E+02  0.00000000000E+00 0.  1.
         11    1    4    4    0    0  0.13722786280E+02  0.78806173666E+02  0.37183557969E+02  0.88211931474E+02  0.00000000000E+00 0. -1.
        -13    1    3    3    0    0  0.51052488719E+02  0.25757779623E+02 -0.48424907285E+02  0.74931912168E+02  0.00000000000E+00 0. -1.
         13    1    3    3    0    0 -0.26845267596E+02 -0.22292259580E+02 -0.14473396999E+02  0.37776877189E+02  0.00000000000E+00 0.  1.
          1    1    1    2  501    0 -0.82361416465E+02 -0.71157232620E+02 -0.76656448377E+03  0.77425309974E+03  0.00000000000E+00 0. -1.
<scales pt_clust_5="13000.00000" pt_clust_6="13000.00000" pt_clust_7="13000.00000" pt_clust_8="13000.00000" pt_clust_9="13000.00000"></scales>
<clustering>
<clus scale="   90.272">  7  8 -1 -1</clus>
<clus scale="   93.526">  1  7  2 -1</clus>
<clus scale="   94.020">  5  6 -1 -1</clus>
<clus scale="  107.946">  5  9 -1 -1</clus>
<clus scale="  537.544">  2  5  1 -1</clus>
</clustering>
</event>
<event>
 9    1  0.3303741E-006  0.4236910E+03  0.7546771E-02  0.1080911E+00
          3   -1    0    0  502    0 -0.00000000000E+00  0.00000000000E+00  0.28697955448E+03  0.28697955448E+03  0.00000000000E+00 0. -1.
         21   -1    0    0  501  502  0.00000000000E+00 -0.00000000000E+00 -0.40456055142E+03  0.40456055142E+03  0.00000000000E+00 0. -1.
         23    2    1    2    0    0  0.73357291479E+02 -0.44434630753E+01  0.14892681274E+03  0.19099994324E+03  0.94343766036E+02 0.  0.
         23    2    1    2    0    0  0.80637781713E+02  0.14230588245E+03 -0.38735898022E+02  0.19296810120E+03  0.94777646442E+02 0.  0.
        -11    1    3    3    0    0  0.34034104317E+02 -0.39985276481E+02  0.11914204678E+03  0.13019973081E+03  0.00000000000E+00 0.  1.
         11    1    3    3    0    0  0.39323187162E+02  0.35541813406E+02  0.29784765954E+02  0.60800212431E+02  0.00000000000E+00 0. -1.
        -11    1    4    4    0    0 -0.18744141091E+02  0.98820524252E+01  0.48947680534E+01  0.21747563994E+02  0.00000000000E+00 0.  1.
         11    1    4    4    0    0  0.99381922804E+02  0.13242383003E+03 -0.43630666075E+02  0.17122053721E+03  0.00000000000E+00 0. -1.
          3    1    1    2  501    0 -0.15399507319E+03 -0.13786241938E+03 -0.22777191167E+03  0.30757206146E+03  0.00000000000E+00 0. -1.
<scales pt_clust_5="13000.00000" pt_clust_6="13000.00000" pt_clust_7="13000.00000" pt_clust_8="13000.00000" pt_clust_9="13000.00000"></scales>
<clustering>
<clus scale="   94.344">  5  6 -1 -1</clus>
<clus scale="   94.778">  7  8 -1 -1</clus>
<clus scale="  119.590">  1  5  2 -1</clus>
<clus scale="  189.901">  7  9 -1 -1</clus>
<clus scale="  423.691">  2  5  1 -1</clus>
</clustering>
</event>
<event>
 9    1  0.3303741E-006  0.3598407E+03  0.7546771E-02  0.1074074E+00
         21   -1    0    0  501  502  0.00000000000E+00  0.00000000000E+00  0.54581036065E+03  0.54581036065E+03  0.00000000000E+00 0. -1.
          2   -1    0    0  502    0 -0.00000000000E+00 -0.00000000000E+00 -0.16206922297E+03  0.16206922297E+03  0.00000000000E+00 0. -1.
         23    2    1    2    0    0 -0.21608684318E+03 -0.16945021078E+00  0.15795840980E+03  0.28307002639E+03  0.92109869763E+02 0.  0.
         23    2    1    2    0    0  0.13432592914E+03  0.10128990640E+03  0.33946417683E+02  0.19305243514E+03  0.88395605442E+02 0.  0.
        -11    1    4    4    0    0  0.84627050182E+02  0.29402853584E+02 -0.18008128358E+02  0.91381388195E+02  0.00000000000E+00 0. -1.
         11    1    4    4    0    0  0.49698878960E+02  0.71887052821E+02  0.51954546041E+02  0.10167104695E+03  0.00000000000E+00 0.  1.
        -13    1    3    3    0    0 -0.43840761206E+02 -0.21467440266E+02  0.63271108778E+00  0.48818681445E+02  0.00000000000E+00 0.  1.
         13    1    3    3    0    0 -0.17224608197E+03  0.21297990055E+02  0.15732569871E+03  0.23425134495E+03  0.00000000000E+00 0. -1.
          2    1    1    2  501    0  0.81760914038E+02 -0.10112045619E+03  0.19183631020E+03  0.23175712208E+03  0.00000000000E+00 0. -1.
<scales pt_clust_5="13000.00000" pt_clust_6="13000.00000" pt_clust_7="13000.00000" pt_clust_8="13000.00000" pt_clust_9="13000.00000"></scales>
<clustering>
<clus scale="   88.396">  5  6 -1 -1</clus>
<clus scale="   92.110">  7  8 -1 -1</clus>
<clus scale="  130.039">  5  9 -1 -1</clus>
<clus scale="  234.900">  2  7  1 -1</clus>
<clus scale="  359.841">  1  5  2 -1</clus>
</clustering>
</event>
<event>
 9    1  0.3303741E-006  0.1359012E+03  0.7546771E-02  0.1226942E+00
          1   -1    0    0  502    0 -0.00000000000E+00  0.00000000000E+00  0.56673444078E+03  0.56673444078E+03  0.00000000000E+00 0. -1.
         21   -1    0    0  501  502  0.00000000000E+00 -0.00000000000E+00 -0.42949001803E+02  0.42949001803E+02  0.00000000000E+00 0. -1.
         23    2    1    2    0    0  0.65574521328E+02  0.38843484562E+02  0.42860332526E+03  0.44376548476E+03  0.86128746086E+02 0.  0.
         23    2    1    2    0    0 -0.40396738724E+02 -0.13808823820E+02  0.76476087423E+02  0.12578604539E+03  0.90282651451E+02 0.  0.
        -11    1    3    3    0    0 -0.16412620653E+02  0.19234013293E+02  0.51725726502E+02  0.57574926541E+02  0.00000000000E+00 0.  1.
         11    1    3    3    0    0  0.81987141981E+02  0.19609471269E+02  0.37687759876E+03  0.38619055822E+03  0.00000000000E+00 0. -1.
        -13    1    4    4    0    0 -0.47234774114E+02  0.15948665768E+02  0.75803350379E+01  0.50427624421E+02  0.00000000000E+00 0. -1.
         13    1    4    4    0    0  0.68380353901E+01 -0.29757489588E+02  0.68895752385E+02  0.75358420971E+02  0.00000000000E+00 0.  1.
          1    1    1    2  501    0 -0.25177782604E+02 -0.25034660742E+02  0.18706026291E+02  0.40131912425E+02  0.00000000000E+00 0. -1.
<scales pt_clust_5="13000.00000" pt_clust_6="13000.00000" pt_clust_7="13000.00000" pt_clust_8="13000.00000" pt_clust_9="13000.00000"></scales>
<clustering>
<clus scale="   86.129">  5  6 -1 -1</clus>
<clus scale="   90.283">  7  8 -1 -1</clus>
<clus scale="   35.506">  7  9 -1 -1</clus>
<clus scale="  115.009">  1  5  2 -1</clus>
<clus scale="  135.901">  2  5  1 -1</clus>
</clustering>
</event>
<event>
 9    1  0.3303741E-006  0.2672628E+03  0.7546771E-02  0.1123443E+00
         -3   -1    0    0    0  501 -0.00000000000E+00  0.00000000000E+00  0.21146642889E+03  0.21146642889E+03  0.00000000000E+00 0.  1.
         21   -1    0    0  501  502  0.00000000000E+00 -0.00000000000E+00 -0.24386409504E+03  0.24386409504E+03  0.00000000000E+00 0. -1.
         23    2    1    2    0    0  0.92567689270E+02  0.87441281554E+02 -0.89301447986E+02  0.18207708361E+03  0.94670803034E+02 0.  0.
         23    2    1    2    0    0 -0.47359991094E+02 -0.10308104689E+03  0.12418109609E+03  0.19070299970E+03  0.89877797491E+02 0.  0.
        -11    1    3    3    0    0  0.57442605666E+02  0.77527317198E+01 -0.87910396035E+00  0.57970083825E+02  0.00000000000E+00 0.  1.
         11    1    3    3    0    0  0.35125083604E+02  0.79688549834E+02 -0.88422344026E+02  0.12410699979E+03  0.00000000000E+00 0. -1.
        -11    1    4    4    0    0 -0.39184028369E+02 -0.74313620811E+01  0.69749339790E+02  0.80346646617E+02  0.00000000000E+00 0. -1.
         11    1    4    4    0    0 -0.81759627258E+01 -0.95649684810E+02  0.54431756303E+02  0.11035635308E+03  0.00000000000E+00 0.  1.
         -3    1    1    2    0  502 -0.45207698176E+02  0.15639765337E+02 -0.67277314252E+02  0.82550440623E+02  0.00000000000E+00 0.  1.
<scales pt_clust_5="13000.00000" pt_clust_6="13000.00000" pt_clust_7="13000.00000" pt_clust_8="13000.00000" pt_clust_9="13000.00000"></scales>
<clustering>
<clus scale="   89.878">  7  8 -1 -1</clus>
<clus scale="   47.837">  7  9 -1 -1</clus>
<clus scale="   94.671">  5  6 -1 -1</clus>
<clus scale="  158.674">  1  5  2 -1</clus>
<clus scale="  267.263">  2  5  1 -1</clus>
</clustering>
</event>
<event>
 9    1  0.3303741E-006  0.1840972E+03  0.7546771E-02  0.1187443E+00
         -3   -1    0    0    0  501 -0.00000000000E+00  0.00000000000E+00  0.10362869563E+03  0.10362869563E+03  0.00000000000E+00 0.  1.
         21   -1    0    0  501  502  0.00000000000E+00 -0.00000000000E+00 -0.51023782667E+03  0.51023782667E+03  0.00000000000E+00 0. -1.
         23    2    1    2    0    0  0.45911994624E+02  0.19001385165E+02  0.51870262834E+02  0.11980667395E+03  0.95886135959E+02 0.  0.
         23    2    1    2    0    0 -0.15400642684E+02 -0.74005663324E+02 -0.32711741443E+03  0.34841513387E+03  0.93130471314E+02 0.  0.
        -11    1    4    4    0    0 -0.48083028382E+02 -0.26351535813E+02 -0.99821434689E+02  0.11388898051E+03  0.00000000000E+00 0.  1.
         11    1    4    4    0    0  0.32682385698E+02 -0.47654127510E+02 -0.22729597974E+03  0.23452615336E+03  0.00000000000E+00 0. -1.
        -13    1    3    3    0    0 -0.27003047991E+02  0.25792761200E+01  0.33003763652E+02  0.42720787462E+02  0.00000000000E+00 0.  1.
         13    1    3    3    0    0  0.72915042615E+02  0.16422109045E+02  0.18866499181E+02  0.77085886493E+02  0.00000000000E+00 0. -1.
         -3    1    1    2    0  502 -0.30511351940E+02  0.55004278159E+02 -0.13136197944E+03  0.14564471448E+03  0.00000000000E+00 0.  1.
<scales pt_clust_5="13000.00000" pt_clust_6="13000.00000" pt_clust_7="13000.00000" pt_clust_8="13000.00000" pt_clust_9="13000.00000"></scales>
<clustering>
<clus scale="   93.130">  5  6 -1 -1</clus>
<clus scale="   62.900">  5  9 -1 -1</clus>
<clus scale="   95.886">  7  8 -1 -1</clus>
<clus scale="  107.996">  1  7  2 -1</clus>
<clus scale="  184.097">  2  5  1 -1</clus>
</clustering>
</event>
<event>
 9    1  0.3303741E-006  0.1715838E+03  0.7546771E-02  0.1189278E+00
          1   -1    0    0  502    0 -0.00000000000E+00  0.00000000000E+00  0.13253243345E+03  0.13253243345E+03  0.00000000000E+00 0. -1.
         21   -1    0    0  501  502  0.00000000000E+00 -0.00000000000E+00 -0.17083563664E+03  0.17083563664E+03  0.00000000000E+00 0.  1.
         23    2    1    2    0    0 -0.99956773758E+01 -0.88821798943E+02 -0.30232629270E+02  0.13159456423E+03  0.91727269270E+02 0.  0.
         23    2    1    2    0    0  0.12476136889E+02  0.18187997339E+02 -0.29124610955E+02  0.98026918926E+02  0.90964699922E+02 0.  0.
        -11    1    3    3    0    0 -0.66435252589E+01  0.19030578201E+02 -0.54522291000E+01  0.20881238868E+02  0.00000000000E+00 0. -1.
         11    1    3    3    0    0 -0.33521521169E+01 -0.10785237714E+03 -0.24780400170E+02  0.11071332536E+03  0.00000000000E+00 0.  1.
        -11    1    4    4    0    0 -0.30133370306E+01  0.49064247651E+02 -0.38265006308E+02  0.62294392247E+02  0.00000000000E+00 0. -1.
         11    1    4    4    0    0  0.15489473919E+02 -0.30876250312E+02  0.91403953534E+01  0.35732526679E+02  0.00000000000E+00 0.  1.
          1    1    1    2  501    0 -0.24804595128E+01  0.70633801604E+02  0.21054037035E+02  0.73746586930E+02  0.00000000000E+00 0. -1.
<scales pt_clust_5="13000.00000" pt_clust_6="13000.00000" pt_clust_7="13000.00000" pt_clust_8="13000.00000" pt_clust_9="13000.00000"></scales>
<clustering>
<clus scale="   90.965">  7  8 -1 -1</clus>
<clus scale="   70.677">  7  9 -1 -1</clus>
<clus scale="   91.727">  5  6 -1 -1</clus>
<clus scale="  128.075">  1  5  2 -1</clus>
<clus scale="  171.584">  2  5  1 -1</clus>
</clustering>
</event>
<event>
 9    1  0.3303741E-006  0.2053243E+03  0.7546771E-02  0.1176497E+00
          3   -1    0    0  502    0 -0.00000000000E+00  0.00000000000E+00  0.97400780839E+02  0.97400780839E+02  0.00000000000E+00 0. -1.
         21   -1    0    0  501  502  0.00000000000E+00 -0.00000000000E+00 -0.30020271638E+03  0.30020271638E+03  0.00000000000E+00 0. -1.
         23    2    1    2    0    0 -0.14126095251E+02  0.48363305696E+01  0.12302066450E+02  0.10023539335E+03  0.98350681644E+02 0.  0.
         23    2    1    2    0    0  0.31999340887E+02  0.72451789261E+02 -0.96586044978E+02  0.15475179165E+03  0.91356627299E+02 0.  0.
        -11    1    4    4    0    0 -0.28219296301E+02  0.34333590654E+02 -0.59924175796E+02  0.74605837411E+02  0.00000000000E+00 0.  1.
         11    1    4    4    0    0  0.60218637187E+02  0.38118198606E+02 -0.36661869182E+02  0.80145954244E+02  0.00000000000E+00 0. -1.
        -13    1    3    3    0    0 -0.12612326033E+02  0.41505455327E+02  0.36149756643E+02  0.56467499459E+02  0.00000000000E+00 0.  1.
         13    1    3    3    0    0 -0.15137692185E+01 -0.36669124758E+02 -0.23847690193E+02  0.43767893887E+02  0.00000000000E+00 0. -1.
          3    1    1    2  501    0 -0.17873245635E+02 -0.77288119830E+02 -0.11851795701E+03  0.14261631222E+03  0.00000000000E+00 0. -1.
<scales pt_clust_5="13000.00000" pt_clust_6="13000.00000" pt_clust_7="13000.00000" pt_clust_8="13000.00000" pt_clust_9="13000.00000"></scales>
<clustering>
<clus scale="   91.357">  5  6 -1 -1</clus>
<clus scale="   79.328">  5  9 -1 -1</clus>
<clus scale="   98.351">  7  8 -1 -1</clus>
<clus scale="   99.478">  1  7  2 -1</clus>
<clus scale="  205.324">  2  5  1 -1</clus>
</clustering>
</event>
<event>
 9    1  0.3303741E-006  0.2475953E+03  0.7546771E-02  0.1136039E+00
         21   -1    0    0  501  502  0.00000000000E+00  0.00000000000E+00  0.30455912104E+03  0.30455912104E+03  0.00000000000E+00 0.  1.
          1   -1    0    0  502    0 -0.00000000000E+00 -0.00000000000E+00 -0.12971091220E+03  0.12971091220E+03  0.00000000000E+00 0. -1.
         23    2    1    2    0    0  0.74814868846E+02 -0.83224383057E+02  0.37672380490E+02  0.15121416511E+03  0.94461383332E+02 0.  0.
         23    2    1    2    0    0 -0.92984811614E+02 -0.28733953022E+01  0.14266882528E+03  0.19489041417E+03  0.94728286361E+02 0.  0.
        -11    1    3    3    0    0  0.11193097346E+02  0.17727805704E+02  0.22782268726E+02  0.30961141639E+02  0.00000000000E+00 0. -1.
         11    1    3    3    0    0  0.63621771500E+02 -0.10095218876E+03  0.14890111764E+02  0.12025302347E+03  0.00000000000E+00 0.  1.
        -11    1    4    4    0    0  0.14612975883E+02 -0.18251308511E+02  0.33388213424E+02  0.40760546147E+02  0.00000000000E+00 0.  1.
         11    1    4    4    0    0 -0.10759778750E+03  0.15377913209E+02  0.10928061186E+03  0.15412986803E+03  0.00000000000E+00 0. -1.
          1    1    1    2  501    0  0.18169942767E+02  0.86097778359E+02 -0.54929969322E+01  0.88165453971E+02  0.00000000000E+00 0. -1.
<scales pt_clust_5="13000.00000" pt_clust_6="13000.00000" pt_clust_7="13000.00000" pt_clust_8="13000.00000" pt_clust_9="13000.00000"></scales>
<clustering>
<clus scale="   94.461">  5  6 -1 -1</clus>
<clus scale="   94.728">  7  8 -1 -1</clus>
<clus scale="   87.994">  7  9 -1 -1</clus>
<clus scale="  146.446">  2  5  1 -1</clus>
<clus scale="  247.595">  1  5  2 -1</clus>
</clustering>
</event>
<event>
 9    1  0.3303741E-006  0.2080567E+03  0.7546771E-02  0.1161063E+00
         21   -1    0    0  501  502  0.00000000000E+00  0.00000000000E+00  0.11198941720E+03  0.11198941720E+03  0.00000000000E+00 0.  1.
          1   -1    0    0  502    0 -0.00000000000E+00 -0.00000000000E+00 -0.31542148568E+03  0.31542148568E+03  0.00000000000E+00 0. -1.
         23    2    1    2    0    0 -0.10174453841E+03  0.62774416373E+01  0.33339099092E+00  0.13619285304E+03  0.90316248256E+02 0.  0.
         23    2    1    2    0    0  0.30067106176E+02  0.55345495425E+02 -0.84031566499E+02  0.13866889124E+03  0.90557178030E+02 0.  0.
        -13    1    3    3    0    0 -0.10870995132E+03  0.25856424178E+02 -0.11409272133E+02  0.11232354908E+03  0.00000000000E+00 0. -1.
         13    1    3    3    0    0  0.69654129067E+01 -0.19578982540E+02  0.11742663124E+02  0.23869303960E+02  0.00000000000E+00 0.  1.
        -13    1    4    4    0    0 -0.17416527171E+02 -0.14287994628E+02 -0.33592089472E+02  0.40446392723E+02  0.00000000000E+00 0. -1.
         13    1    4    4    0    0  0.47483633347E+02  0.69633490054E+02 -0.50439477026E+02  0.98222498520E+02  0.00000000000E+00 0.  1.
          1    1    1    2  501    0  0.71677432238E+02 -0.61622937062E+02 -0.11973389297E+03  0.15254915860E+03  0.00000000000E+00 0. -1.
<scales pt_clust_5="13000.00000" pt_clust_6="13000.00000" pt_clust_7="13000.00000" pt_clust_8="13000.00000" pt_clust_9="13000.00000"></scales>
<clustering>
<clus scale="   90.316">  5  6 -1 -1</clus>
<clus scale="   90.557">  7  8 -1 -1</clus>
<clus scale="   94.525">  7  9 -1 -1</clus>
<clus scale="  136.193">  2  5  1 -1</clus>
<clus scale="  208.057">  1  5  2 -1</clus>
</clustering>
</event>
<event>
 9    1  0.3303741E-006  0.2195724E+03  0.7546771E-02  0.1171028E+00
          2   -1    0    0  502    0 -0.00000000000E+00  0.00000000000E+00  0.28387373678E+03  0.28387373678E+03  0.00000000000E+00 0. -1.
         21   -1    0    0  501  502  0.00000000000E+00 -0.00000000000E+00 -0.10739462998E+03  0.10739462998E+03  0.00000000000E+00 0. -1.
         23    2    1    2    0    0 -0.13533016598E+02  0.29241553329E+01  0.14163353065E+03  0.16894822110E+03  0.91059053292E+02 0.  0.
         23    2    1    2    0    0  0.89642899217E+02  0.36382706968E+02  0.37570467571E+02  0.13661618607E+03  0.88841946825E+02 0.  0.
        -13    1    3    3    0    0  0.17322146628E+02  0.38571548679E+02  0.87374477273E+02  0.97067607419E+02  0.00000000000E+00 0.  1.
         13    1    3    3    0    0 -0.30855163226E+02 -0.35647393346E+02  0.54259053375E+02  0.71880613682E+02  0.00000000000E+00 0. -1.
        -13    1    4    4    0    0 -0.13083806049E+02  0.21268027873E+02  0.18427363916E+02  0.31033574258E+02  0.00000000000E+00 0.  1.
         13    1    4    4    0    0  0.10272670527E+03  0.15114679095E+02  0.19143103655E+02  0.10558261181E+03  0.00000000000E+00 0. -1.
          2    1    1    2  501    0 -0.76109882619E+02 -0.39306862301E+02 -0.27248914219E+01  0.85703959590E+02  0.00000000000E+00 0. -1.
<scales pt_clust_5="13000.00000" pt_clust_6="13000.00000" pt_clust_7="13000.00000" pt_clust_8="13000.00000" pt_clust_9="13000.00000"></scales>
<clustering>
<clus scale="   88.842">  7  8 -1 -1</clus>
<clus scale="   85.661">  7  9 -1 -1</clus>
<clus scale="   91.059">  5  6 -1 -1</clus>
<clus scale="   92.106">  1  5  2 -1</clus>
<clus scale="  219.572">  2  5  1 -1</clus>
</clustering>
</event>
<event>
 9    1  0.3303741E-006  0.2564046E+03  0.7546771E-02  0.1123393E+00
         21   -1    0    0  501  502  0.00000000000E+00  0.00000000000E+00  0.95861425589E+02  0.95861425589E+02  0.00000000000E+00 0. -1.
          1   -1    0    0  502    0 -0.00000000000E+00 -0.00000000000E+00 -0.64847268983E+03  0.64847268983E+03  0.00000000000E+00 0. -1.
         23    2    1    2    0    0 -0.10778840050E+03  0.11025367575E+03 -0.41725855754E+03  0.45439674617E+03  0.92722633664E+02 0.  0.
         23    2    1    2    0    0 -0.51493524747E+01 -0.64480646409E+02 -0.12212635486E+03  0.16736068858E+03  0.94395359723E+02 0.  0.
        -13    1    3    3    0    0 -0.25101320223E+02  0.24033133388E+02 -0.21185601492E+02  0.40700091990E+02  0.00000000000E+00 0.  1.
         13    1    3    3    0    0 -0.82687080272E+02  0.86220542366E+02 -0.39607295604E+03  0.41369665418E+03  0.00000000000E+00 0. -1.
        -13    1    4    4    0    0 -0.33220403812E+02  0.36691414925E+00 -0.76085213291E+02  0.83022223151E+02  0.00000000000E+00 0. -1.
         13    1    4    4    0    0  0.28071051337E+02 -0.64847560558E+02 -0.46041141574E+02  0.84338465429E+02  0.00000000000E+00 0.  1.
          1    1    1    2  501    0  0.11293775297E+03 -0.45773029346E+02 -0.13226351843E+02  0.12257668067E+03  0.00000000000E+00 0. -1.
<scales pt_clust_5="13000.00000" pt_clust_6="13000.00000" pt_clust_7="13000.00000" pt_clust_8="13000.00000" pt_clust_9="13000.00000"></scales>
<clustering>
<clus scale="   92.723">  5  6 -1 -1</clus>
<clus scale="   94.395">  7  8 -1 -1</clus>
<clus scale="  121.861">  7  9 -1 -1</clus>
<clus scale="  179.921">  2  5  1 -1</clus>
<clus scale="  256.405">  1  5  2 -1</clus>
</clustering>
</event>
<event>
 9    1  0.3303741E-006  0.2168409E+03  0.7546771E-02  0.1163722E+00
         -1   -1    0    0    0  501 -0.00000000000E+00  0.00000000000E+00  0.38868971364E+03  0.38868971364E+03  0.00000000000E+00 0.  1.
         21   -1    0    0  501  502  0.00000000000E+00 -0.00000000000E+00 -0.13667749738E+03  0.13667749738E+03  0.00000000000E+00 0. -1.
         23    2    1    2    0    0 -0.60568174210E+02 -0.28455788187E+02 -0.73026250567E+02  0.13463717047E+03  0.91192646595E+02 0.  0.
         23    2    1    2    0    0  0.54587770922E+02  0.91856298228E+02  0.28471304616E+03  0.31535411967E+03  0.83482320771E+02 0.  0.
        -11    1    4    4    0    0  0.40440025434E+02  0.10728572298E+03  0.23940214555E+03  0.26544115979E+03  0.00000000000E+00 0.  1.
         11    1    4    4    0    0  0.14147745487E+02 -0.15429424755E+02  0.45310900605E+02  0.49912959883E+02  0.00000000000E+00 0. -1.
        -11    1    3    3    0    0 -0.61180294138E+02 -0.53307888597E+02 -0.33171366857E+02  0.87664696182E+02  0.00000000000E+00 0.  1.
         11    1    3    3    0    0  0.61211992889E+00  0.24852100410E+02 -0.39854883709E+02  0.46972474292E+02  0.00000000000E+00 0. -1.
         -1    1    1    2    0  502  0.59804032878E+01 -0.63400510040E+02  0.40325420661E+02  0.75375920879E+02  0.00000000000E+00 0.  1.
<scales pt_clust_5="13000.00000" pt_clust_6="13000.00000" pt_clust_7="13000.00000" pt_clust_8="13000.00000" pt_clust_9="13000.00000"></scales>
<clustering>
<clus scale="   83.482">  5  6 -1 -1</clus>
<clus scale="   63.682">  5  9 -1 -1</clus>
<clus scale="   91.193">  7  8 -1 -1</clus>
<clus scale="  113.112">  1  7  2 -1</clus>
<clus scale="  216.841">  2  5  1 -1</clus>
</clustering>
</event>
<event>
 9    1  0.3303741E-006  0.1951400E+03  0.7546771E-02  0.1166671E+00
         -1   -1    0    0    0  501 -0.00000000000E+00  0.00000000000E+00  0.15364326191E+03  0.15364326191E+03  0.00000000000E+00 0.  1.
         21   -1    0    0  501  502  0.00000000000E+00 -0.00000000000E+00 -0.21474179621E+03  0.21474179621E+03  0.00000000000E+00 0.  1.
         23    2    1    2    0    0  0.13231436167E+02 -0.11262126747E+03  0.37478408814E+02  0.14975975238E+03  0.90358903917E+02 0.  0.
         23    2    1    2    0    0  0.34738508441E+02  0.29855978643E+02 -0.37053914953E+02  0.10488748611E+03  0.86777005588E+02 0.  0.
        -11    1    3    3    0    0  0.18648332214E+02 -0.77282705208E+02  0.66551247609E+02  0.10367953210E+03  0.00000000000E+00 0.  1.
         11    1    3    3    0    0 -0.54168960470E+01 -0.35338562259E+02 -0.29072838795E+02  0.46080220279E+02  0.00000000000E+00 0. -1.
        -11    1    4    4    0    0  0.59043239321E+02  0.27950573245E+02 -0.44910468588E+02  0.79273506565E+02  0.00000000000E+00 0.  1.
         11    1    4    4    0    0 -0.24304730881E+02  0.19054053985E+01  0.78565536347E+01  0.25613979541E+02  0.00000000000E+00 0. -1.
         -1    1    1    2    0  502 -0.47969944608E+02  0.82765288824E+02 -0.61523028168E+02  0.11373781963E+03  0.00000000000E+00 0.  1.
<scales pt_clust_5="13000.00000" pt_clust_6="13000.00000" pt_clust_7="13000.00000" pt_clust_8="13000.00000" pt_clust_9="13000.00000"></scales>
<clustering>
<clus scale="   86.777">  7  8 -1 -1</clus>
<clus scale="   90.359">  5  6 -1 -1</clus>
<clus scale="   95.662">  7  9 -1 -1</clus>
<clus scale="  144.994">  1  5  2 -1</clus>
<clus scale="  195.140">  2  5  1 -1</clus>
</clustering>
</event>
<event>
 9    1  0.3303741E-006  0.2500488E+03  0.7546771E-02  0.1152491E+00
         21   -1    0    0  501  502  0.00000000000E+00  0.00000000000E+00  0.81527347500E+03  0.81527347500E+03  0.00000000000E+00 0. -1.
          1   -1    0    0  502    0 -0.00000000000E+00 -0.00000000000E+00 -0.39050297549E+02  0.39050297549E+02  0.00000000000E+00 0. -1.
         23    2    1    2    0    0  0.21067835710E+02 -0.22330668660E+02  0.13102774824E+03  0.16236890789E+03  0.90845357494E+02 0.  0.
         23    2    1    2    0    0  0.90526939010E+02 -0.83701933749E+01  0.27181447407E+03  0.30104659622E+03  0.92091030794E+02 0.  0.
        -11    1    3    3    0    0  0.48080251164E+02 -0.36768287562E+02  0.60989693431E+02  0.85926481524E+02  0.00000000000E+00 0. -1.
         11    1    3    3    0    0 -0.27012415454E+02  0.14437618902E+02  0.70038054807E+02  0.76442426371E+02  0.00000000000E+00 0.  1.
        -11    1    4    4    0    0  0.42007881863E+02 -0.40004876052E+02  0.20287208528E+03  0.21100269011E+03  0.00000000000E+00 0.  1.
         11    1    4    4    0    0  0.48519057147E+02  0.31634682677E+02  0.68942388795E+02  0.90043906109E+02  0.00000000000E+00 0. -1.
          1    1    1    2  501    0 -0.11159477472E+03  0.30700862035E+02  0.37338095514E+03  0.39090826844E+03  0.00000000000E+00 0. -1.
<scales pt_clust_5="13000.00000" pt_clust_6="13000.00000" pt_clust_7="13000.00000" pt_clust_8="13000.00000" pt_clust_9="13000.00000"></scales>
<clustering>
<clus scale="   90.845">  5  6 -1 -1</clus>
<clus scale="   92.091">  7  8 -1 -1</clus>
<clus scale="   95.893">  2  5  1 -1</clus>
<clus scale="  106.075">  7  9 -1 -1</clus>
<clus scale="  250.049">  1  5  2 -1</clus>
</clustering>
</event>
<event>
 9    1  0.3303741E-006  0.3537448E+03  0.7546771E-02  0.1077912E+00
         21   -1    0    0  501  502  0.00000000000E+00  0.00000000000E+00  0.10548396509E+03  0.10548396509E+03  0.00000000000E+00 0.  1.
          4   -1    0    0  502    0 -0.00000000000E+00 -0.00000000000E+00 -0.88514886898E+03  0.88514886898E+03  0.00000000000E+00 0. -1.
         23    2    1    2    0    0  0.14135998450E+03 -0.14606833133E+03 -0.47149194973E+03  0.52147831612E+03  0.91194149412E+02 0.  0.
         23    2    1    2    0    0  0.29180825346E+01 -0.59741697193E+02 -0.75456254951E+02  0.12661840226E+03  0.82225225993E+02 0.  0.
        -13    1    3    3    0    0  0.19316129315E+02 -0.15365570472E+02 -0.10143789715E+02  0.26685390711E+02  0.00000000000E+00 0. -1.
         13    1    3    3    0    0  0.12204385518E+03 -0.13070276086E+03 -0.46134816002E+03  0.49479292541E+03  0.00000000000E+00 0.  1.
        -13    1    4    4    0    0 -0.16686444703E+02 -0.71998921279E+02 -0.39313040989E+02  0.83712587429E+02  0.00000000000E+00 0.  1.
         13    1    4    4    0    0  0.19604527238E+02  0.12257224087E+02 -0.36143213963E+02  0.42905814828E+02  0.00000000000E+00 0. -1.
          4    1    1    2  501    0 -0.14427806703E+03  0.20581002853E+03 -0.23271669920E+03  0.34253611570E+03  0.00000000000E+00 0. -1.
<scales pt_clust_5="13000.00000" pt_clust_6="13000.00000" pt_clust_7="13000.00000" pt_clust_8="13000.00000" pt_clust_9="13000.00000"></scales>
<clustering>
<clus scale="   82.225">  7  8 -1 -1</clus>
<clus scale="   91.194">  5  6 -1 -1</clus>
<clus scale="  222.789">  2  5  1 -1</clus>
<clus scale="  105.458">  7  9 -1 -1</clus>
<clus scale="  353.745">  1  5  2 -1</clus>
</clustering>
</event>
<event>
 9    1  0.3303741E-006  0.2404262E+03  0.7546771E-02  0.1148392E+00
         21   -1    0    0  501  502  0.00000000000E+00  0.00000000000E+00  0.90430443785E+02  0.90430443785E+02  0.00000000000E+00 0.  1.
          1   -1    0    0  502    0 -0.00000000000E+00 -0.00000000000E+00 -0.36587857771E+03  0.36587857771E+03  0.00000000000E+00 0. -1.
         23    2    1    2    0    0  0.18975638498E+02 -0.73330320871E+02 -0.12599422324E+03  0.17321678254E+03  0.91608398357E+02 0.  0.
         23    2    1    2    0    0 -0.35287135914E+02  0.31961625441E+02 -0.19428247102E+03  0.21994927631E+03  0.91461894493E+02 0.  0.
        -11    1    4    4    0    0  0.20428379114E+02  0.32748629338E+02 -0.12620597772E+03  0.13197628654E+03  0.00000000000E+00 0. -1.
         11    1    4    4    0    0 -0.55715515028E+02 -0.78700389712E+00 -0.68076493299E+02  0.87972989775E+02  0.00000000000E+00 0.  1.
        -13    1    3    3    0    0  0.47979639258E+02 -0.33222908115E+02 -0.10356515885E+03  0.11887619415E+03  0.00000000000E+00 0. -1.
         13    1    3    3    0    0 -0.29004000759E+02 -0.40107412756E+02 -0.22429064390E+02  0.54340588398E+02  0.00000000000E+00 0.  1.
          1    1    1    2  501    0  0.16311497416E+02  0.41368695430E+02  0.44828560331E+02  0.63142962639E+02  0.00000000000E+00 0. -1.
<scales pt_clust_5="13000.00000" pt_clust_6="13000.00000" pt_clust_7="13000.00000" pt_clust_8="13000.00000" pt_clust_9="13000.00000"></scales>
<clustering>
<clus scale="   91.462">  5  6 -1 -1</clus>
<clus scale="   44.468">  5  9 -1 -1</clus>
<clus scale="   91.608">  7  8 -1 -1</clus>
<clus scale="  118.868">  2  7  1 -1</clus>
<clus scale="  240.426">  1  5  2 -1</clus>
</clustering>
</event>
<event>
 9    1  0.3303741E-006  0.1555896E+03  0.7546771E-02  0.1216210E+00
          1   -1    0    0  502    0 -0.00000000000E+00  0.00000000000E+00  0.30124744608E+03  0.30124744608E+03  0.00000000000E+00 0. -1.
         21   -1    0    0  501  502  0.00000000000E+00 -0.00000000000E+00 -0.64796815350E+02  0.64796815350E+02  0.00000000000E+00 0. -1.
         23    2    1    2    0    0  0.20989151447E+02 -0.17279187942E+02  0.17337238898E+03  0.19815442276E+03  0.92022145074E+02 0.  0.
         23    2    1    2    0    0 -0.51500460840E+02  0.19199772061E+02  0.10153285189E+02  0.10676963194E+03  0.90971074467E+02 0.  0.
        -11    1    4    4    0    0  0.17354207496E+02  0.13118931407E+02 -0.21640749121E+02  0.30685450976E+02  0.00000000000E+00 0.  1.
         11    1    4    4    0    0 -0.68854668335E+02  0.60808406539E+01  0.31794034310E+02  0.76084180960E+02  0.00000000000E+00 0. -1.
        -11    1    3    3    0    0  0.42178905806E+02  0.21652490812E+02  0.11838830305E+03  0.12752913688E+03  0.00000000000E+00 0. -1.
         11    1    3    3    0    0 -0.21189754358E+02 -0.38931678754E+02  0.54984085925E+02  0.70625285879E+02  0.00000000000E+00 0.  1.
          1    1    1    2  501    0  0.30511309393E+02 -0.19205841193E+01  0.52924956558E+02  0.61120206731E+02  0.00000000000E+00 0. -1.
<scales pt_clust_5="13000.00000" pt_clust_6="13000.00000" pt_clust_7="13000.00000" pt_clust_8="13000.00000" pt_clust_9="13000.00000"></scales>
<clustering>
<clus scale="   90.971">  5  6 -1 -1</clus>
<clus scale="   30.572">  5  9 -1 -1</clus>
<clus scale="   92.022">  7  8 -1 -1</clus>
<clus scale="   95.954">  1  7  2 -1</clus>
<clus scale="  155.590">  2  5  1 -1</clus>
</clustering>
</event>
<event>
 9    1  0.3303741E-006  0.2957364E+03  0.7546771E-02  0.1116256E+00
         21   -1    0    0  501  502  0.00000000000E+00  0.00000000000E+00  0.58699469276E+02  0.58699469276E+02  0.00000000000E+00 0. -1.
          2   -1    0    0  502    0 -0.00000000000E+00 -0.00000000000E+00 -0.81281425505E+03  0.81281425505E+03  0.00000000000E+00 0. -1.
         23    2    1    2    0    0  0.95054283011E+02 -0.45185659103E+02 -0.26983124723E+03  0.30407158702E+03  0.92593561031E+02 0.  0.
         23    2    1    2    0    0  0.35406998314E+02  0.97293979077E+02 -0.16192465430E+03  0.21580216064E+03  0.98138702732E+02 0.  0.
        -13    1    4    4    0    0 -0.16421768509E+02  0.39677425563E+02 -0.82989955597E+01  0.43736093876E+02  0.00000000000E+00 0.  1.
         13    1    4    4    0    0  0.51828766822E+02  0.57616553514E+02 -0.15362565874E+03  0.17206606677E+03  0.00000000000E+00 0. -1.
        -13    1    3    3    0    0  0.98712738301E+02 -0.51110594257E+01 -0.20810285426E+03  0.23038473383E+03  0.00000000000E+00 0. -1.
         13    1    3    3    0    0 -0.36584552893E+01 -0.40074599677E+02 -0.61728392970E+02  0.73686853190E+02  0.00000000000E+00 0.  1.
          2    1    1    2  501    0 -0.13046128133E+03 -0.52108319974E+02 -0.32235888423E+03  0.35163997665E+03  0.00000000000E+00 0. -1.
<scales pt_clust_5="13000.00000" pt_clust_6="13000.00000" pt_clust_7="13000.00000" pt_clust_8="13000.00000" pt_clust_9="13000.00000"></scales>
<clustering>
<clus scale="   92.594">  7  8 -1 -1</clus>
<clus scale="   98.139">  5  6 -1 -1</clus>
<clus scale="  140.181">  2  7  1 -1</clus>
<clus scale="  106.809">  5  9 -1 -1</clus>
<clus scale="  295.736">  1  5  2 -1</clus>
</clustering>
</event>
<event>
 9    1  0.3303741E-006  0.3688345E+03  0.7546771E-02  0.1084981E+00
         21   -1    0    0  501  502  0.00000000000E+00  0.00000000000E+00  0.10628041997E+03  0.10628041997E+03  0.00000000000E+00 0.  1.
         -3   -1    0    0    0  501 -0.00000000000E+00 -0.00000000000E+00 -0.67939287963E+03  0.67939287963E+03  0.00000000000E+00 0.  1.
         23    2    1    2    0    0 -0.29277160999E+02 -0.13092060010E+03 -0.12358458404E+03  0.20419743582E+03  0.91793723621E+02 0.  0.
         23    2    1    2    0    0  0.15982750115E+03  0.10649557509E+03 -0.17114947076E+03  0.27303703768E+03  0.91492868375E+02 0.  0.
        -11    1    4    4    0    0  0.11172727829E+03  0.75907777236E+02 -0.16852290563E+03  0.21597440839E+03  0.00000000000E+00 0.  1.
         11    1    4    4    0    0  0.48100222855E+02  0.30587797854E+02 -0.26265651356E+01  0.57062629283E+02  0.00000000000E+00 0. -1.
        -11    1    3    3    0    0 -0.57310263933E+02 -0.10241948731E+03 -0.11282072678E+03  0.16279660354E+03  0.00000000000E+00 0.  1.
         11    1    3    3    0    0  0.28033102934E+02 -0.28501112793E+02 -0.10763857260E+02  0.41400832282E+02  0.00000000000E+00 0. -1.
         -3    1    1    2    0  502 -0.13055034015E+03  0.24425025012E+02 -0.27837840486E+03  0.30843882611E+03  0.00000000000E+00 0.  1.
<scales pt_clust_5="13000.00000" pt_clust_6="13000.00000" pt_clust_7="13000.00000" pt_clust_8="13000.00000" pt_clust_9="13000.00000"></scales>
<clustering>
<clus scale="   91.493">  5  6 -1 -1</clus>
<clus scale="   91.794">  7  8 -1 -1</clus>
<clus scale="  132.816">  5  9 -1 -1</clus>
<clus scale="  162.553">  2  7  1 -1</clus>
<clus scale="  368.834">  1  5  2 -1</clus>
</clustering>
</event>
<event>
 9    1  0.3303741E-006  0.4619760E+03  0.7546771E-02  0.1057351E+00
         21   -1    0    0  501  502  0.00000000000E+00  0.00000000000E+00  0.27642916488E+03  0.27642916488E+03  0.00000000000E+00 0.  1.
         -4   -1    0    0    0  501 -0.00000000000E+00 -0.00000000000E+00 -0.54657453144E+03  0.54657453144E+03  0.00000000000E+00 0.  1.
         23    2    1    2    0    0 -0.15022805643E+03  0.11815932018E+02 -0.31277033612E+03  0.35906545967E+03  0.91622246124E+02 0.  0.
         23    2    1    2    0    0 -0.47296891767E+02 -0.71762286355E+02 -0.14057646857E+03  0.18794469055E+03  0.90413723939E+02 0.  0.
        -11    1    3    3    0    0 -0.40449926157E+01 -0.24089851384E+02 -0.29648577909E+02  0.38415115215E+02  0.00000000000E+00 0.  1.
         11    1    3    3    0    0 -0.14618306381E+03  0.35905783402E+02 -0.28312175821E+03  0.32065034446E+03  0.00000000000E+00 0. -1.
        -13    1    4    4    0    0 -0.20422528598E+01 -0.30302156548E+02  0.42340826999E+01  0.30664620404E+02  0.00000000000E+00 0. -1.
         13    1    4    4    0    0 -0.45254638908E+02 -0.41460129807E+02 -0.14481055127E+03  0.15728007014E+03  0.00000000000E+00 0.  1.
         -4    1    1    2    0  502  0.19752494819E+03  0.59946354337E+02  0.18320143813E+03  0.27599354610E+03  0.00000000000E+00 0.  1.
<scales pt_clust_5="13000.00000" pt_clust_6="13000.00000" pt_clust_7="13000.00000" pt_clust_8="13000.00000" pt_clust_9="13000.00000"></scales>
<clustering>
<clus scale="   90.414">  7  8 -1 -1</clus>
<clus scale="   91.622">  5  6 -1 -1</clus>
<clus scale="  176.360">  2  5  1 -1</clus>
<clus scale="  175.932">  7  9 -1 -1</clus>
<clus scale="  461.976">  1  5  2 -1</clus>
</clustering>
</event>
<event>
 9    1  0.3303741E-006  0.3203249E+03  0.7546771E-02  0.1119648E+00
          3   -1    0    0  502    0 -0.00000000000E+00  0.00000000000E+00  0.46391582883E+03  0.46391582883E+03  0.00000000000E+00 0. -1.
         21   -1    0    0  501  502  0.00000000000E+00 -0.00000000000E+00 -0.96454694693E+02  0.96454694693E+02  0.00000000000E+00 0. -1.
         23    2    1    2    0    0  0.25744851047E+01  0.45035639063E+02  0.10867545230E+03  0.14857195788E+03  0.90710726901E+02 0.  0.
         23    2    1    2    0    0 -0.43431370328E+02  0.10027593398E+03  0.20619006908E+03  0.25195164885E+03  0.94993378209E+02 0.  0.
        -11    1    4    4    0    0 -0.55800970168E+02  0.28143681923E+02  0.13982781072E+03  0.15315884485E+03  0.00000000000E+00 0. -1.
         11    1    4    4    0    0  0.12369599839E+02  0.72132252055E+02  0.66362258359E+02  0.98792803995E+02  0.00000000000E+00 0.  1.
        -11    1    3    3    0    0  0.45124394577E+02  0.17402536283E+02  0.37670851945E+02  0.61303771020E+02  0.00000000000E+00 0. -1.
         11    1    3    3    0    0 -0.42549909472E+02  0.27633102780E+02  0.71004600358E+02  0.87268186858E+02  0.00000000000E+00 0.  1.
          3    1    1    2  501    0  0.40856885224E+02 -0.14531157304E+03  0.52595612752E+02  0.15984691680E+03  0.00000000000E+00 0. -1.
<scales pt_clust_5="13000.00000" pt_clust_6="13000.00000" pt_clust_7="13000.00000" pt_clust_8="13000.00000" pt_clust_9="13000.00000"></scales>
<clustering>
<clus scale="   90.711">  7  8 -1 -1</clus>
<clus scale="   94.993">  5  6 -1 -1</clus>
<clus scale="  101.308">  1  7  2 -1</clus>
<clus scale="  137.511">  5  9 -1 -1</clus>
<clus scale="  320.325">  2  5  1 -1</clus>
</clustering>
</event>
<event>
 9    1  0.3303741E-006  0.3548665E+03  0.7546771E-02  0.1076435E+00
         21   -1    0    0  501  502  0.00000000000E+00  0.00000000000E+00  0.61395321420E+02  0.61395321420E+02  0.00000000000E+00 0. -1.
          1   -1    0    0  502    0 -0.00000000000E+00 -0.00000000000E+00 -0.14251441967E+04  0.14251441967E+04  0.00000000000E+00 0. -1.
         23    2    1    2    0    0  0.15939030283E+03  0.13663269102E+03 -0.65105667216E+03  0.69038602456E+03  0.93189654203E+02 0.  0.
         23    2    1    2    0    0 -0.27172074165E+02 -0.18386230941E+03 -0.50192862243E+03  0.54290740023E+03  0.90952915139E+02 0.  0.
        -11    1    4    4    0    0 -0.52433747675E+02 -0.14276950263E+03 -0.31413231336E+03  0.34901509864E+03  0.00000000000E+00 0. -1.
         11    1    4    4    0    0  0.25261673511E+02 -0.41092806777E+02 -0.18779630907E+03  0.19389230159E+03  0.00000000000E+00 0.  1.
        -13    1    3    3    0    0  0.79934259659E+02  0.74599413992E+02 -0.47585735829E+03  0.48825688308E+03  0.00000000000E+00 0. -1.
         13    1    3    3    0    0  0.79456043169E+02  0.62033277027E+02 -0.17519931387E+03  0.20212914148E+03  0.00000000000E+00 0.  1.
          1    1    1    2  501    0 -0.13221822866E+03  0.47229618391E+02 -0.21076358070E+03  0.25324609335E+03  0.00000000000E+00 0. -1.
<scales pt_clust_5="13000.00000" pt_clust_6="13000.00000" pt_clust_7="13000.00000" pt_clust_8="13000.00000" pt_clust_9="13000.00000"></scales>
<clustering>
<clus scale="   90.953">  5  6 -1 -1</clus>
<clus scale="   93.190">  7  8 -1 -1</clus>
<clus scale="  140.401">  5  9 -1 -1</clus>
<clus scale="  229.691">  2  7  1 -1</clus>
<clus scale="  354.866">  1  5  2 -1</clus>
</clustering>
</event>
<event>
 9    1  0.3303741E-006  0.4947398E+03  0.7546771E-02  0.1061438E+00
         -1   -1    0    0    0  501 -0.00000000000E+00  0.00000000000E+00  0.10088087330E+03  0.10088087330E+03  0.00000000000E+00 0.  1.
         21   -1    0    0  501  502  0.00000000000E+00 -0.00000000000E+00 -0.10633867705E+04  0.10633867705E+04  0.00000000000E+00 0.  1.
         23    2    1    2    0    0 -0.36727478919E+02 -0.84797267380E+02 -0.75602600562E+02  0.14870625474E+03  0.88647124739E+02 0.  0.
         23    2    1    2    0    0 -0.32851728073E+02 -0.14527445995E+03 -0.12102920340E+03  0.21285509630E+03  0.92061496788E+02 0.  0.
        -11    1    4    4    0    0  0.42204075985E+01 -0.12187564537E+03 -0.11672030832E+03  0.16880496186E+03  0.00000000000E+00 0.  1.
         11    1    4    4    0    0 -0.37072135672E+02 -0.23398814582E+02 -0.43088950888E+01  0.44050134438E+02  0.00000000000E+00 0. -1.
        -13    1    3    3    0    0 -0.31205459836E+02 -0.46681871030E+02 -0.91244306634E+02  0.10713776785E+03  0.00000000000E+00 0. -1.
         13    1    3    3    0    0 -0.55220190834E+01 -0.38115396350E+02  0.15641706073E+02  0.41568486892E+02  0.00000000000E+00 0.  1.
         -1    1    1    2    0  502  0.69579206993E+02  0.23007172733E+03 -0.76587409318E+03  0.80270629272E+03  0.00000000000E+00 0.  1.
<scales pt_clust_5="13000.00000" pt_clust_6="13000.00000" pt_clust_7="13000.00000" pt_clust_8="13000.00000" pt_clust_9="13000.00000"></scales>
<clustering>
<clus scale="   88.647">  7  8 -1 -1</clus>
<clus scale="   92.061">  5  6 -1 -1</clus>
<clus scale="  128.054">  1  7  2 -1</clus>
<clus scale="  214.104">  5  9 -1 -1</clus>
<clus scale="  494.740">  2  5  1 -1</clus>
</clustering>
</event>
<event>
 9    1  0.3303741E-006  0.1874600E+03  0.7546771E-02  0.1177038E+00
         21   -1    0    0  501  502  0.00000000000E+00  0.00000000000E+00  0.86342020876E+02  0.86342020876E+02  0.00000000000E+00 0.  1.
          1   -1    0    0  502    0 -0.00000000000E+00 -0.00000000000E+00 -0.48656516945E+03  0.48656516945E+03  0.00000000000E+00 0. -1.
         23    2    1    2    0    0 -0.57448364741E+02  0.65231378334E+02 -0.35824420026E+03  0.38080436350E+03  0.95486171313E+02 0.  0.
         23    2    1    2    0    0  0.40879743941E+02  0.17461255627E+02 -0.22657161879E+02  0.10558160204E+03  0.93048797913E+02 0.  0.
        -11    1    3    3    0    0 -0.75495087946E+01 -0.24753129106E+02 -0.61305160219E+02  0.66543483175E+02  0.00000000000E+00 0.  1.
         11    1    3    3    0    0 -0.49898855946E+02  0.89984507440E+02 -0.29693904004E+03  0.31426088033E+03  0.00000000000E+00 0. -1.
        -13    1    4    4    0    0 -0.26063878411E+02 -0.13189818511E+02 -0.99939128575E+01  0.30873538255E+02  0.00000000000E+00 0. -1.
         13    1    4    4    0    0  0.66943622352E+02  0.30651074138E+02 -0.12663249021E+02  0.74708063790E+02  0.00000000000E+00 0.  1.
          1    1    1    2  501    0  0.16568620799E+02 -0.82692633961E+02 -0.19321786438E+02  0.86521224782E+02  0.00000000000E+00 0. -1.
<scales pt_clust_5="13000.00000" pt_clust_6="13000.00000" pt_clust_7="13000.00000" pt_clust_8="13000.00000" pt_clust_9="13000.00000"></scales>
<clustering>
<clus scale="   93.049">  7  8 -1 -1</clus>
<clus scale="   84.336">  7  9 -1 -1</clus>
<clus scale="   95.486">  5  6 -1 -1</clus>
<clus scale="  129.124">  2  5  1 -1</clus>
<clus scale="  187.460">  1  5  2 -1</clus>
</clustering>
</event>
<event>
 9    1  0.3303741E-006  0.3960836E+03  0.7546771E-02  0.1060120E+00
          1   -1    0    0  502    0 -0.00000000000E+00  0.00000000000E+00  0.43466305601E+03  0.43466305601E+03  0.00000000000E+00 0. -1.
         21   -1    0    0  501  502  0.00000000000E+00 -0.00000000000E+00 -0.29781508204E+03  0.29781508204E+03  0.00000000000E+00 0. -1.
         23    2    1    2    0    0 -0.80836372057E+02 -0.22920067972E+03  0.20541472047E+03  0.33050350301E+03  0.89274226330E+02 0.  0.
         23    2    1    2    0    0  0.87885641397E+02  0.12180801747E+03  0.10008494854E+03  0.20190896997E+03  0.90493956396E+02 0.  0.
        -13    1    4    4    0    0 -0.64656900826E+01  0.23084078059E+02  0.51775515846E+02  0.57055971197E+02  0.00000000000E+00 0.  1.
         13    1    4    4    0    0  0.94351331480E+02  0.98723939412E+02  0.48309432693E+02  0.14485299877E+03  0.00000000000E+00 0. -1.
        -13    1    3    3    0    0  0.17293217172E+02 -0.41086462516E+02  0.53047766605E+02  0.69290824097E+02  0.00000000000E+00 0.  1.
         13    1    3    3    0    0 -0.98129589229E+02 -0.18811421721E+03  0.15236695386E+03  0.26121267892E+03  0.00000000000E+00 0. -1.
          1    1    1    2  501    0 -0.70492693404E+01  0.10739266225E+03 -0.16865169504E+03  0.20006566508E+03  0.00000000000E+00 0. -1.
<scales pt_clust_5="13000.00000" pt_clust_6="13000.00000" pt_clust_7="13000.00000" pt_clust_8="13000.00000" pt_clust_9="13000.00000"></scales>
<clustering>
<clus scale="   89.274">  7  8 -1 -1</clus>
<clus scale="   90.494">  5  6 -1 -1</clus>
<clus scale="  107.624">  5  9 -1 -1</clus>
<clus scale="  258.916">  1  7  2 -1</clus>
<clus scale="  396.084">  2  5  1 -1</clus>
</clustering>
</event>
<event>
 9    1  0.3303741E-006  0.2756341E+03  0.7546771E-02  0.1134246E+00
          3   -1    0    0  502    0 -0.00000000000E+00  0.00000000000E+00  0.17963049011E+03  0.17963049011E+03  0.00000000000E+00 0. -1.
         21   -1    0    0  501  502  0.00000000000E+00 -0.00000000000E+00 -0.21168310805E+03  0.21168310805E+03  0.00000000000E+00 0. -1.
         23    2    1    2    0    0 -0.28251991829E+02  0.58334816984E+02 -0.32971825978E+02  0.11567795475E+03  0.89961780727E+02 0.  0.
         23    2    1    2    0    0 -0.27989148919E+02 -0.19114303754E+02 -0.10845581700E+03  0.14654571091E+03  0.92543136315E+02 0.  0.
        -11    1    3    3    0    0  0.30898621874E+02  0.35404535362E+02 -0.19188000714E+02  0.50758106045E+02  0.00000000000E+00 0.  1.
         11    1    3    3    0    0 -0.59150613703E+02  0.22930281622E+02 -0.13783825264E+02  0.64919848703E+02  0.00000000000E+00 0. -1.
        -13    1    4    4    0    0  0.75061605256E+01  0.23493564082E+02  0.79366610536E-01  0.24663663519E+02  0.00000000000E+00 0.  1.
         13    1    4    4    0    0 -0.35495309444E+02 -0.42607867836E+02 -0.10853518361E+03  0.12188204739E+03  0.00000000000E+00 0. -1.
          3    1    1    2  501    0  0.56241140748E+02 -0.39220513230E+02  0.10937502504E+03  0.12908993251E+03  0.00000000000E+00 0. -1.
<scales pt_clust_5="13000.00000" pt_clust_6="13000.00000" pt_clust_7="13000.00000" pt_clust_8="13000.00000" pt_clust_9="13000.00000"></scales>
<clustering>
<clus scale="   89.962">  5  6 -1 -1</clus>
<clus scale="   92.543">  7  8 -1 -1</clus>
<clus scale="   68.566">  7  9 -1 -1</clus>
<clus scale="  110.879">  1  5  2 -1</clus>
<clus scale="  275.634">  2  5  1 -1</clus>
</clustering>
</event>
<event>
 9    1  0.3303741E-006  0.2058861E+03  0.7546771E-02  0.1170410E+00
         -1   -1    0    0    0  501 -0.00000000000E+00  0.00000000000E+00  0.30997687161E+03  0.30997687161E+03  0.00000000000E+00 0.  1.
         21   -1    0    0  501  502  0.00000000000E+00 -0.00000000000E+00 -0.88711768706E+02  0.88711768706E+02  0.00000000000E+00 0.  1.
         23    2    1    2    0    0 -0.68502983485E+02 -0.53098969878E+01  0.13287960735E+03  0.17463270268E+03  0.90104034566E+02 0.  0.
         23    2    1    2    0    0  0.94229046907E+02 -0.36681450296E+02  0.17412561042E+02  0.13767155815E+03  0.91791168223E+02 0.  0.
        -11    1    3    3    0    0 -0.81073333812E+02  0.21326314407E+02  0.96638641363E+02  0.12793249840E+03  0.00000000000E+00 0.  1.
         11    1    3    3    0    0  0.12570350327E+02 -0.26636211395E+02  0.36240965987E+02  0.46700204288E+02  0.00000000000E+00 0. -1.
        -11    1    4    4    0    0  0.36131891260E+02 -0.38283396502E+02 -0.31812601912E+02  0.61507508925E+02  0.00000000000E+00 0.  1.
         11    1    4    4    0    0  0.58097155647E+02  0.16019462063E+01  0.49225162955E+02  0.76164049221E+02  0.00000000000E+00 0. -1.
         -1    1    1    2    0  502 -0.25726063422E+02  0.41991347283E+02  0.70972934508E+02  0.86384379482E+02  0.00000000000E+00 0.  1.
<scales pt_clust_5="13000.00000" pt_clust_6="13000.00000" pt_clust_7="13000.00000" pt_clust_8="13000.00000" pt_clust_9="13000.00000"></scales>
<clustering>
<clus scale="   90.104">  5  6 -1 -1</clus>
<clus scale="   91.791">  7  8 -1 -1</clus>
<clus scale="   49.245">  7  9 -1 -1</clus>
<clus scale="  113.312">  1  5  2 -1</clus>
<clus scale="  205.886">  2  5  1 -1</clus>
</clustering>
</event>
<event>
 9    1  0.3303741E-006  0.2307802E+03  0.7546771E-02  0.1143363E+00
         -1   -1    0    0    0  501 -0.00000000000E+00  0.00000000000E+00  0.22221733461E+03  0.22221733461E+03  0.00000000000E+00 0.  1.
         21   -1    0    0  501  502  0.00000000000E+00 -0.00000000000E+00 -0.18615138867E+03  0.18615138867E+03  0.00000000000E+00 0.  1.
         23    2    1    2    0    0  0.77762356854E+02 -0.92616071062E+02 -0.53655787918E+02  0.16076117725E+03  0.91326292872E+02 0.  0.
         23    2    1    2    0    0  0.32652452688E+02  0.31970817275E+02  0.63837585897E+02  0.11900246803E+03  0.89431729272E+02 0.  0.
        -13    1    4    4    0    0  0.26020789744E+02 -0.27702638513E+02  0.37653522268E+02  0.53500517928E+02  0.00000000000E+00 0. -1.
         13    1    4    4    0    0  0.66316629448E+01  0.59673455788E+02  0.26184063629E+02  0.65501950103E+02  0.00000000000E+00 0.  1.
        -13    1    3    3    0    0  0.18389110129E+02 -0.11809263929E+02 -0.56361666433E+02  0.60450438617E+02  0.00000000000E+00 0. -1.
         13    1    3    3    0    0  0.59373246725E+02 -0.80806807133E+02  0.27058785150E+01  0.10031073863E+03  0.00000000000E+00 0.  1.
         -1    1    1    2    0  502 -0.11041480954E+03  0.60645253787E+02  0.25884147963E+02  0.12860507801E+03  0.00000000000E+00 0.  1.
<scales pt_clust_5="13000.00000" pt_clust_6="13000.00000" pt_clust_7="13000.00000" pt_clust_8="13000.00000" pt_clust_9="13000.00000"></scales>
<clustering>
<clus scale="   89.432">  5  6 -1 -1</clus>
<clus scale="   91.326">  7  8 -1 -1</clus>
<clus scale="  125.973">  5  9 -1 -1</clus>
<clus scale="  151.543">  1  7  2 -1</clus>
<clus scale="  230.780">  2  5  1 -1</clus>
</clustering>
</event>
<event>
 9    1  0.3303741E-006  0.2947811E+03  0.7546771E-02  0.1118814E+00
          4   -1    0    0  502    0 -0.00000000000E+00  0.00000000000E+00  0.34739141493E+03  0.34739141493E+03  0.00000000000E+00 0. -1.
         21   -1    0    0  501  502  0.00000000000E+00 -0.00000000000E+00 -0.34787545538E+03  0.34787545538E+03  0.00000000000E+00 0. -1.
         23    2    1    2    0    0 -0.87609868526E+02 -0.37230356141E+02  0.26638870882E+03  0.29762760773E+03  0.92507622471E+02 0.  0.
         23    2    1    2    0    0 -0.53163486300E+02 -0.68706861509E+01 -0.16450527485E+02  0.10699630546E+03  0.91126433723E+02 0.  0.
        -11    1    4    4    0    0 -0.42771880253E+02  0.37044511144E+02  0.54297951348E+01  0.56843752704E+02  0.00000000000E+00 0. -1.
         11    1    4    4    0    0 -0.10391606048E+02 -0.43915197295E+02 -0.21880322619E+02  0.50152552753E+02  0.00000000000E+00 0.  1.
        -11    1    3    3    0    0 -0.42951201902E+02 -0.26091317299E+02  0.23865944003E+03  0.24389319568E+03  0.00000000000E+00 0. -1.
         11    1    3    3    0    0 -0.44658666624E+02 -0.11139038842E+02  0.27729268791E+02  0.53734412053E+02  0.00000000000E+00 0.  1.
          4    1    1    2  501    0  0.14077335483E+03  0.44101042291E+02 -0.25042222178E+03  0.29064295712E+03  0.00000000000E+00 0. -1.
<scales pt_clust_5="13000.00000" pt_clust_6="13000.00000" pt_clust_7="13000.00000" pt_clust_8="13000.00000" pt_clust_9="13000.00000"></scales>
<clustering>
<clus scale="   91.126">  5  6 -1 -1</clus>
<clus scale="   92.508">  7  8 -1 -1</clus>
<clus scale="  132.738">  1  7  2 -1</clus>
<clus scale="  118.417">  5  9 -1 -1</clus>
<clus scale="  294.781">  2  5  1 -1</clus>
</clustering>
</event>
<event>
 9    1  0.3303741E-006  0.1702675E+03  0.7546771E-02  0.1203516E+00
         21   -1    0    0  501  502  0.00000000000E+00  0.00000000000E+00  0.12004980559E+03  0.12004980559E+03  0.00000000000E+00 0.  1.
          2   -1    0    0  502    0 -0.00000000000E+00 -0.00000000000E+00 -0.16107037780E+03  0.16107037780E+03  0.00000000000E+00 0. -1.
         23    2    1    2    0    0 -0.17366073710E+02 -0.20743499136E+02 -0.54344854433E+02  0.11033214647E+03  0.92130049758E+02 0.  0.
         23    2    1    2    0    0  0.53432756408E+02 -0.43703309013E+00  0.48115391352E+02  0.11638360861E+03  0.91513949829E+02 0.  0.
        -11    1    4    4    0    0  0.16503528716E+02 -0.17921212664E+02  0.67058501990E+02  0.71346892102E+02  0.00000000000E+00 0.  1.
         11    1    4    4    0    0  0.36929227692E+02  0.17484179574E+02 -0.18943110638E+02  0.45036716510E+02  0.00000000000E+00 0. -1.
        -11    1    3    3    0    0  0.73537621055E+01 -0.53741348502E+02 -0.25004885247E+02  0.59728172935E+02  0.00000000000E+00 0.  1.
         11    1    3    3    0    0 -0.24719835816E+02  0.32997849366E+02 -0.29339969186E+02  0.50603973534E+02  0.00000000000E+00 0. -1.
          2    1    1    2  501    0 -0.36066682698E+02  0.21180532226E+02 -0.34791109125E+02  0.54404428316E+02  0.00000000000E+00 0. -1.
<scales pt_clust_5="13000.00000" pt_clust_6="13000.00000" pt_clust_7="13000.00000" pt_clust_8="13000.00000" pt_clust_9="13000.00000"></scales>
<clustering>
<clus scale="   91.514">  5  6 -1 -1</clus>
<clus scale="   41.826">  5  9 -1 -1</clus>
<clus scale="   92.130">  7  8 -1 -1</clus>
<clus scale="   96.020">  2  7  1 -1</clus>
<clus scale="  170.267">  1  5  2 -1</clus>
</clustering>
</event>
<event>
 9    1  0.3303741E-006  0.6682259E+03  0.7546771E-02  0.1028817E+00
          1   -1    0    0  502    0 -0.00000000000E+00  0.00000000000E+00  0.33797729886E+03  0.33797729886E+03  0.00000000000E+00 0. -1.
         21   -1    0    0  501  502  0.00000000000E+00 -0.00000000000E+00 -0.48915880758E+03  0.48915880758E+03  0.00000000000E+00 0. -1.
         23    2    1    2    0    0  0.43960755447E+02 -0.80222141750E+02 -0.79771773032E+02  0.15510543626E+03  0.96571323575E+02 0.  0.
         23    2    1    2    0    0  0.61899854381E+02  0.20177350151E+03  0.23387120080E+03  0.32680950636E+03  0.86974576735E+02 0.  0.
        -11    1    4    4    0    0  0.49828836828E+01  0.14736078500E+03  0.13078743575E+03  0.19709232211E+03  0.00000000000E+00 0.  1.
         11    1    4    4    0    0  0.56916970699E+02  0.54412716508E+02  0.10308376505E+03  0.12971718424E+03  0.00000000000E+00 0. -1.
        -13    1    3    3    0    0  0.27926276126E+02  0.65854047190E+01 -0.57194601059E+02  0.63988021097E+02  0.00000000000E+00 0. -1.
         13    1    3    3    0    0  0.16034479320E+02 -0.86807546469E+02 -0.22577171973E+02  0.91117415159E+02  0.00000000000E+00 0.  1.
          1    1    1    2  501    0 -0.10586060983E+03 -0.12155135976E+03 -0.30528093649E+03  0.34522116383E+03  0.00000000000E+00 0. -1.
<scales pt_clust_5="13000.00000" pt_clust_6="13000.00000" pt_clust_7="13000.00000" pt_clust_8="13000.00000" pt_clust_9="13000.00000"></scales>
<clustering>
<clus scale="   86.975">  5  6 -1 -1</clus>
<clus scale="   96.571">  7  8 -1 -1</clus>
<clus scale="  133.019">  1  7  2 -1</clus>
<clus scale="  163.390">  5  9 -1 -1</clus>
<clus scale="  668.226">  2  5  1 -1</clus>
</clustering>
</event>
<event>
 9    1  0.3303741E-006  0.3570718E+03  0.7546771E-02  0.1065002E+00
         21   -1    0    0  501  502  0.00000000000E+00  0.00000000000E+00  0.32822774208E+03  0.32822774208E+03  0.00000000000E+00 0. -1.
          2   -1    0    0  502    0 -0.00000000000E+00 -0.00000000000E+00 -0.36427104126E+03  0.36427104126E+03  0.00000000000E+00 0. -1.
         23    2    1    2    0    0 -0.93105082412E+02 -0.27933908574E+03  0.77051905041E+02  0.31794466775E+03  0.91939841689E+02 0.  0.
         23    2    1    2    0    0  0.12783481862E+02  0.61196124916E+02 -0.86903175730E+02  0.14062264436E+03  0.91182142125E+02 0.  0.
        -13    1    3    3    0    0 -0.77953893063E+02 -0.10286741095E+03  0.13519227747E+02  0.12977396965E+03  0.00000000000E+00 0.  1.
         13    1    3    3    0    0 -0.15151189349E+02 -0.17647167479E+03  0.63532677294E+02  0.18817069810E+03  0.00000000000E+00 0. -1.
        -13    1    4    4    0    0  0.50278677392E+02  0.47018258964E+02 -0.42964154926E+02  0.81145429230E+02  0.00000000000E+00 0.  1.
         13    1    4    4    0    0 -0.37495195530E+02  0.14177865951E+02 -0.43939020803E+02  0.59477215133E+02  0.00000000000E+00 0. -1.
          2    1    1    2  501    0  0.80321600550E+02  0.21814296082E+03 -0.26192028491E+02  0.23393147122E+03  0.00000000000E+00 0. -1.
<scales pt_clust_5="13000.00000" pt_clust_6="13000.00000" pt_clust_7="13000.00000" pt_clust_8="13000.00000" pt_clust_9="13000.00000"></scales>
<clustering>
<clus scale="   91.182">  7  8 -1 -1</clus>
<clus scale="   91.940">  5  6 -1 -1</clus>
<clus scale="  232.461">  7  9 -1 -1</clus>
<clus scale="  308.467">  2  5  1 -1</clus>
<clus scale="  357.072">  1  5  2 -1</clus>
</clustering>
</event>
<event>
 9    1  0.3303741E-006  0.2877366E+03  0.7546771E-02  0.1130992E+00
         21   -1    0    0  501  502  0.00000000000E+00  0.00000000000E+00  0.79105224928E+02  0.79105224928E+02  0.00000000000E+00 0.  1.
         -3   -1    0    0    0  501 -0.00000000000E+00 -0.00000000000E+00 -0.49447981512E+03  0.49447981512E+03  0.00000000000E+00 0.  1.
         23    2    1    2    0    0  0.23136512111E+02 -0.47383352369E+02 -0.13986880268E+03  0.17521861948E+03  0.91421017132E+02 0.  0.
         23    2    1    2    0    0  0.61337046649E+02  0.12949897082E+03 -0.14865118335E+03  0.22524551623E+03  0.90034168713E+02 0.  0.
        -11    1    4    4    0    0  0.50221276056E+02  0.10817895020E+03 -0.60229435388E+02  0.13361304847E+03  0.00000000000E+00 0.  1.
         11    1    4    4    0    0  0.11115770593E+02  0.21320020623E+02 -0.88421747962E+02  0.91632467761E+02  0.00000000000E+00 0. -1.
        -13    1    3    3    0    0  0.40282461587E+02  0.12982603520E+02 -0.48426235221E+02  0.64314267183E+02  0.00000000000E+00 0. -1.
         13    1    3    3    0    0 -0.17145949476E+02 -0.60365955889E+02 -0.91442567461E+02  0.11090435229E+03  0.00000000000E+00 0.  1.
         -3    1    1    2    0  502 -0.84473558760E+02 -0.82115618450E+02 -0.12685460416E+03  0.17312090434E+03  0.00000000000E+00 0.  1.
<scales pt_clust_5="13000.00000" pt_clust_6="13000.00000" pt_clust_7="13000.00000" pt_clust_8="13000.00000" pt_clust_9="13000.00000"></scales>
<clustering>
<clus scale="   90.034">  5  6 -1 -1</clus>
<clus scale="   91.421">  7  8 -1 -1</clus>
<clus scale="  105.538">  2  7  1 -1</clus>
<clus scale="  127.098">  5  9 -1 -1</clus>
<clus scale="  287.737">  1  5  2 -1</clus>
</clustering>
</event>
<event>
 9    1  0.3303741E-006  0.4230642E+03  0.7546771E-02  0.1080092E+00
         21   -1    0    0  501  502  0.00000000000E+00  0.00000000000E+00  0.40805966714E+02  0.40805966714E+02  0.00000000000E+00 0. -1.
          2   -1    0    0  502    0 -0.00000000000E+00 -0.00000000000E+00 -0.18950652462E+04  0.18950652462E+04  0.00000000000E+00 0. -1.
         23    2    1    2    0    0 -0.81126489644E+02  0.12686275383E+02 -0.59194253481E+03  0.60454599169E+03  0.91309597758E+02 0.  0.
         23    2    1    2    0    0  0.12934691876E+03  0.14902653675E+03 -0.95253369039E+03  0.97856215044E+03  0.10641389427E+03 0.  0.
        -11    1    4    4    0    0  0.77886829587E+02  0.24283592238E+02 -0.24355897388E+03  0.25685993233E+03  0.00000000000E+00 0. -1.
         11    1    4    4    0    0  0.51460089169E+02  0.12474294451E+03 -0.70897471651E+03  0.72170221812E+03  0.00000000000E+00 0.  1.
        -11    1    3    3    0    0  0.13710658588E+02  0.15468004022E+02 -0.46138241220E+02  0.50556687097E+02  0.00000000000E+00 0.  1.
         11    1    3    3    0    0 -0.94837148232E+02 -0.27817286395E+01 -0.54580429359E+03  0.55398930459E+03  0.00000000000E+00 0. -1.
          2    1    1    2  501    0 -0.48220429113E+02 -0.16171281213E+03 -0.30978305429E+03  0.35276307079E+03  0.00000000000E+00 0. -1.
<scales pt_clust_5="13000.00000" pt_clust_6="13000.00000" pt_clust_7="13000.00000" pt_clust_8="13000.00000" pt_clust_9="13000.00000"></scales>
<clustering>
<clus scale="   91.310">  7  8 -1 -1</clus>
<clus scale="  106.414">  5  6 -1 -1</clus>
<clus scale="  122.800">  2  7  1 -1</clus>
<clus scale="  172.820">  5  9 -1 -1</clus>
<clus scale="  423.064">  1  5  2 -1</clus>
</clustering>
</event>
<event>
 9    1  0.3303741E-006  0.1715746E+03  0.7546771E-02  0.1189504E+00
         21   -1    0    0  501  502  0.00000000000E+00  0.00000000000E+00  0.22326040563E+03  0.22326040563E+03  0.00000000000E+00 0.  1.
         -3   -1    0    0    0  501 -0.00000000000E+00 -0.00000000000E+00 -0.11251632239E+03  0.11251632239E+03  0.00000000000E+00 0.  1.
         23    2    1    2    0    0 -0.87926815078E+02  0.76416346653E+01 -0.70585940113E+01  0.12765339159E+03  0.91956757466E+02 0.  0.
         23    2    1    2    0    0  0.18046227257E+02  0.23618296916E+01  0.36421467702E+02  0.10039094983E+03  0.91763690756E+02 0.  0.
        -11    1    4    4    0    0  0.48077453937E+02 -0.40354366694E+01  0.47541635511E+02  0.67734285508E+02  0.00000000000E+00 0. -1.
         11    1    4    4    0    0 -0.30031226680E+02  0.63972663611E+01 -0.11120167809E+02  0.32656664326E+02  0.00000000000E+00 0.  1.
        -11    1    3    3    0    0 -0.58890737838E+02 -0.22650448409E+02  0.31628397852E+02  0.70579865167E+02  0.00000000000E+00 0.  1.
         11    1    3    3    0    0 -0.29036077239E+02  0.30292083074E+02 -0.38686991863E+02  0.57073526419E+02  0.00000000000E+00 0. -1.
         -3    1    1    2    0  502  0.69880587820E+02 -0.10003464357E+02  0.81381209556E+02  0.10773238660E+03  0.00000000000E+00 0.  1.
<scales pt_clust_5="13000.00000" pt_clust_6="13000.00000" pt_clust_7="13000.00000" pt_clust_8="13000.00000" pt_clust_9="13000.00000"></scales>
<clustering>
<clus scale="   91.764">  5  6 -1 -1</clus>
<clus scale="   70.593">  5  9 -1 -1</clus>
<clus scale="   91.957">  7  8 -1 -1</clus>
<clus scale="  127.458">  2  7  1 -1</clus>
<clus scale="  171.575">  1  5  2 -1</clus>
</clustering>
</event>
<event>
 9    1  0.3303741E-006  0.3640617E+03  0.7546771E-02  0.1108410E+00
         21   -1    0    0  501  502  0.00000000000E+00  0.00000000000E+00  0.96267394080E+02  0.96267394080E+02  0.00000000000E+00 0.  1.
          1   -1    0    0  502    0 -0.00000000000E+00 -0.00000000000E+00 -0.66913223892E+03  0.66913223892E+03  0.00000000000E+00 0. -1.
         23    2    1    2    0    0 -0.46508099187E+01  0.10607244630E+02 -0.29063518194E+03  0.30475385708E+03  0.90950320247E+02 0.  0.
         23    2    1    2    0    0 -0.70705836102E+02 -0.10369422844E+03 -0.17630697573E+01  0.15567803906E+03  0.92090907051E+02 0.  0.
        -11    1    4    4    0    0 -0.57143891875E+02 -0.49299075156E+02  0.40333086131E+02  0.85572080883E+02  0.00000000000E+00 0.  1.
         11    1    4    4    0    0 -0.13561944227E+02 -0.54395153281E+02 -0.42096155888E+02  0.70105958179E+02  0.00000000000E+00 0. -1.
        -11    1    3    3    0    0  0.36817251402E+02 -0.12240718022E+02 -0.18452794431E+03  0.18856274131E+03  0.00000000000E+00 0.  1.
         11    1    3    3    0    0 -0.41468061320E+02  0.22847962653E+02 -0.10610723763E+03  0.11619111577E+03  0.00000000000E+00 0. -1.
          1    1    1    2  501    0  0.75356646021E+02  0.93086983806E+02 -0.28046659314E+03  0.30496773685E+03  0.00000000000E+00 0. -1.
<scales pt_clust_5="13000.00000" pt_clust_6="13000.00000" pt_clust_7="13000.00000" pt_clust_8="13000.00000" pt_clust_9="13000.00000"></scales>
<clustering>
<clus scale="   90.950">  7  8 -1 -1</clus>
<clus scale="   91.685">  2  7  1 -1</clus>
<clus scale="   92.091">  5  6 -1 -1</clus>
<clus scale="  124.222">  5  9 -1 -1</clus>
<clus scale="  364.062">  1  5  2 -1</clus>
</clustering>
</event>
<event>
 9    1  0.3303741E-006  0.3040573E+03  0.7546771E-02  0.1110051E+00
         -3   -1    0    0    0  501 -0.00000000000E+00  0.00000000000E+00  0.15999894432E+03  0.15999894432E+03  0.00000000000E+00 0.  1.
         21   -1    0    0  501  502  0.00000000000E+00 -0.00000000000E+00 -0.33609671527E+03  0.33609671527E+03  0.00000000000E+00 0.  1.
         23    2    1    2    0    0  0.80043615436E+02  0.90519756637E+02 -0.10492664668E+03  0.18381985605E+03  0.90439657123E+02 0.  0.
         23    2    1    2    0    0  0.45326559736E+02 -0.27239295046E+02  0.58875121844E+02  0.12087537573E+03  0.91367938976E+02 0.  0.
        -11    1    3    3    0    0  0.21357871653E+02  0.84385812841E+01 -0.75201803854E+02  0.78630017415E+02  0.00000000000E+00 0. -1.
         11    1    3    3    0    0  0.58685743783E+02  0.82081175353E+02 -0.29724842822E+02  0.10518983863E+03  0.00000000000E+00 0.  1.
        -13    1    4    4    0    0  0.45812753930E+02 -0.49817609899E+02  0.11851614596E+02  0.68709995250E+02  0.00000000000E+00 0.  1.
         13    1    4    4    0    0 -0.48619419399E+00  0.22578314853E+02  0.47023507248E+02  0.52165380477E+02  0.00000000000E+00 0. -1.
         -3    1    1    2    0  502 -0.12537017517E+03 -0.63280461591E+02 -0.13004624611E+03  0.19140042782E+03  0.00000000000E+00 0.  1.
<scales pt_clust_5="13000.00000" pt_clust_6="13000.00000" pt_clust_7="13000.00000" pt_clust_8="13000.00000" pt_clust_9="13000.00000"></scales>
<clustering>
<clus scale="   90.440">  5  6 -1 -1</clus>
<clus scale="   91.368">  7  8 -1 -1</clus>
<clus scale="  140.435">  7  9 -1 -1</clus>
<clus scale="  150.931">  1  5  2 -1</clus>
<clus scale="  304.057">  2  5  1 -1</clus>
</clustering>
</event>
<event>
 9    1  0.3303741E-006  0.2667846E+03  0.7546771E-02  0.1143737E+00
         -1   -1    0    0    0  501 -0.00000000000E+00  0.00000000000E+00  0.41767810845E+02  0.41767810845E+02  0.00000000000E+00 0.  1.
         21   -1    0    0  501  502  0.00000000000E+00 -0.00000000000E+00 -0.81862517403E+03  0.81862517403E+03  0.00000000000E+00 0.  1.
         23    2    1    2    0    0  0.75038439690E+01 -0.33352133283E+02 -0.28067213196E+03  0.29703358412E+03  0.91013361494E+02 0.  0.
         23    2    1    2    0    0  0.94949527364E+02 -0.13912837550E+02 -0.13927824481E+03  0.18904233232E+03  0.84436924013E+02 0.  0.
        -13    1    3    3    0    0  0.35043130692E+02 -0.52875889216E+02 -0.17964244030E+03  0.19051322008E+03  0.00000000000E+00 0.  1.
         13    1    3    3    0    0 -0.27539286723E+02  0.19523755933E+02 -0.10102969166E+03  0.10652036404E+03  0.00000000000E+00 0. -1.
        -13    1    4    4    0    0  0.75838432635E+02 -0.25309394600E+02 -0.14542898152E+03  0.16595668707E+03  0.00000000000E+00 0.  1.
         13    1    4    4    0    0  0.19111094729E+02  0.11396557050E+02  0.61507367093E+01  0.23085645245E+02  0.00000000000E+00 0. -1.
         -1    1    1    2    0  502 -0.10245337133E+03  0.47264970833E+02 -0.35690698642E+03  0.37431706843E+03  0.00000000000E+00 0.  1.
<scales pt_clust_5="13000.00000" pt_clust_6="13000.00000" pt_clust_7="13000.00000" pt_clust_8="13000.00000" pt_clust_9="13000.00000"></scales>
<clustering>
<clus scale="   84.437">  7  8 -1 -1</clus>
<clus scale="   91.013">  5  6 -1 -1</clus>
<clus scale="   97.222">  1  5  2 -1</clus>
<clus scale="  107.673">  7  9 -1 -1</clus>
<clus scale="  266.785">  2  5  1 -1</clus>
</clustering>
</event>
<event>
 9    1  0.3303741E-006  0.2318218E+03  0.7546771E-02  0.1159259E+00
          1   -1    0    0  502    0 -0.00000000000E+00  0.00000000000E+00  0.35372906416E+03  0.35372906416E+03  0.00000000000E+00 0. -1.
         21   -1    0    0  501  502  0.00000000000E+00 -0.00000000000E+00 -0.26794944463E+03  0.26794944463E+03  0.00000000000E+00 0. -1.
         23    2    1    2    0    0 -0.19626709939E+02 -0.42098044253E+02 -0.21716334331E+03  0.24021321739E+03  0.91569749686E+02 0.  0.
         23    2    1    2    0    0 -0.75128312818E+02 -0.16479046444E+02  0.15494184210E+03  0.19622457872E+03  0.92635244373E+02 0.  0.
        -13    1    4    4    0    0 -0.58399859630E+02 -0.46717808582E+02  0.13969217197E+03  0.15845188592E+03  0.00000000000E+00 0.  1.
         13    1    4    4    0    0 -0.16728453187E+02  0.30238762138E+02  0.15249670135E+02  0.37772692794E+02  0.00000000000E+00 0. -1.
        -13    1    3    3    0    0  0.19586044341E+02 -0.37419475222E+02 -0.18357251547E+03  0.18836851832E+03  0.00000000000E+00 0. -1.
         13    1    3    3    0    0 -0.39212754279E+02 -0.46785690313E+01 -0.33590827841E+02  0.51844699068E+02  0.00000000000E+00 0.  1.
          1    1    1    2  501    0  0.94755022756E+02  0.58577090697E+02  0.14800112075E+03  0.18524071268E+03  0.00000000000E+00 0. -1.
<scales pt_clust_5="13000.00000" pt_clust_6="13000.00000" pt_clust_7="13000.00000" pt_clust_8="13000.00000" pt_clust_9="13000.00000"></scales>
<clustering>
<clus scale="   91.570">  7  8 -1 -1</clus>
<clus scale="   92.635">  5  6 -1 -1</clus>
<clus scale="  102.677">  1  7  2 -1</clus>
<clus scale="   93.321">  5  9 -1 -1</clus>
<clus scale="  231.822">  2  5  1 -1</clus>
</clustering>
</event>
<event>
 9    1  0.3303741E-006  0.1824095E+03  0.7546771E-02  0.1181035E+00
          1   -1    0    0  502    0 -0.00000000000E+00  0.00000000000E+00  0.11000263202E+03  0.11000263202E+03  0.00000000000E+00 0. -1.
         21   -1    0    0  501  502  0.00000000000E+00 -0.00000000000E+00 -0.21932850102E+03  0.21932850102E+03  0.00000000000E+00 0. -1.
         23    2    1    2    0    0 -0.88908808656E+02  0.59669640996E+01 -0.50285953587E+02  0.13760495189E+03  0.92011220720E+02 0.  0.
         23    2    1    2    0    0  0.27983097857E+02 -0.19203344292E+02  0.10957174823E+02  0.97988586574E+02  0.91268182960E+02 0.  0.
        -11    1    3    3    0    0 -0.58905865511E+02  0.87169511160E+01  0.18627797928E+02  0.62392957007E+02  0.00000000000E+00 0. -1.
         11    1    3    3    0    0 -0.30002943145E+02 -0.27499870164E+01 -0.68913751515E+02  0.75211994880E+02  0.00000000000E+00 0.  1.
        -13    1    4    4    0    0  0.54250160726E+01 -0.53896667504E+02 -0.31691342429E+01  0.54261634506E+02  0.00000000000E+00 0.  1.
         13    1    4    4    0    0  0.22558081785E+02  0.34693323212E+02  0.14126309066E+02  0.43726952068E+02  0.00000000000E+00 0. -1.
          1    1    1    2  501    0  0.60925710799E+02  0.13236380192E+02 -0.69997090235E+02  0.93737594583E+02  0.00000000000E+00 0. -1.
<scales pt_clust_5="13000.00000" pt_clust_6="13000.00000" pt_clust_7="13000.00000" pt_clust_8="13000.00000" pt_clust_9="13000.00000"></scales>
<clustering>
<clus scale="   91.268">  7  8 -1 -1</clus>
<clus scale="   62.347">  7  9 -1 -1</clus>
<clus scale="   92.011">  5  6 -1 -1</clus>
<clus scale="  128.088">  1  5  2 -1</clus>
<clus scale="  182.409">  2  5  1 -1</clus>
</clustering>
</event>
<event>
 9    1  0.3303741E-006  0.2074120E+03  0.7546771E-02  0.1155265E+00
         21   -1    0    0  501  502  0.00000000000E+00  0.00000000000E+00  0.12233245864E+03  0.12233245864E+03  0.00000000000E+00 0.  1.
         -3   -1    0    0    0  501 -0.00000000000E+00 -0.00000000000E+00 -0.45569728644E+03  0.45569728644E+03  0.00000000000E+00 0.  1.
         23    2    1    2    0    0 -0.71362771139E+02  0.10479284978E+03  0.29431574851E+02  0.16012906701E+03  0.93278690146E+02 0.  0.
         23    2    1    2    0    0  0.24827574930E+02 -0.48656831267E+02 -0.30092875691E+03  0.32227441259E+03  0.10158141840E+03 0.  0.
        -11    1    4    4    0    0  0.41895355907E+02 -0.71529566602E+02 -0.25563362235E+03  0.26873825299E+03  0.00000000000E+00 0.  1.
         11    1    4    4    0    0 -0.17067780977E+02  0.22872735335E+02 -0.45295134565E+02  0.53536159597E+02  0.00000000000E+00 0. -1.
        -11    1    3    3    0    0 -0.82899369538E+02  0.47608842795E+02  0.34360240781E+02  0.10158510486E+03  0.00000000000E+00 0.  1.
         11    1    3    3    0    0  0.11536598399E+02  0.57184006985E+02 -0.49286659303E+01  0.58543962159E+02  0.00000000000E+00 0. -1.
         -3    1    1    2    0  502  0.46535196209E+02 -0.56136018512E+02 -0.61867645741E+02  0.95626265483E+02  0.00000000000E+00 0.  1.
<scales pt_clust_5="13000.00000" pt_clust_6="13000.00000" pt_clust_7="13000.00000" pt_clust_8="13000.00000" pt_clust_9="13000.00000"></scales>
<clustering>
<clus scale="   93.279">  7  8 -1 -1</clus>
<clus scale="  101.581">  5  6 -1 -1</clus>
<clus scale="   72.916">  5  9 -1 -1</clus>
<clus scale="  157.401">  2  7  1 -1</clus>
<clus scale="  207.412">  1  5  2 -1</clus>
</clustering>
</event>
<event>
 9    1  0.3303741E-006  0.3176486E+03  0.7546771E-02  0.1082521E+00
          2   -1    0    0  502    0 -0.00000000000E+00  0.00000000000E+00  0.18508178725E+03  0.18508178725E+03  0.00000000000E+00 0. -1.
         21   -1    0    0  501  502  0.00000000000E+00 -0.00000000000E+00 -0.84737408440E+03  0.84737408440E+03  0.00000000000E+00 0. -1.
         23    2    1    2    0    0  0.12198175672E+03 -0.22247745557E+03  0.27364010506E+02  0.27316248002E+03  0.97432972886E+02 0.  0.
         23    2    1    2    0    0 -0.28417578657E+02  0.66862562681E+02 -0.15037188439E+03  0.19026093255E+03  0.91155678782E+02 0.  0.
        -13    1    3    3    0    0  0.10020808524E+03 -0.22639944434E+03  0.34361542823E+02  0.24995816524E+03  0.00000000000E+00 0. -1.
         13    1    3    3    0    0  0.21773671483E+02  0.39219887653E+01 -0.69975323174E+01  0.23204314776E+02  0.00000000000E+00 0.  1.
        -13    1    4    4    0    0 -0.51388642185E+02  0.35732749525E+02 -0.42486793358E+02  0.75648856859E+02  0.00000000000E+00 0. -1.
         13    1    4    4    0    0  0.22971063528E+02  0.31129813156E+02 -0.10788509104E+03  0.11461207569E+03  0.00000000000E+00 0.  1.
          2    1    1    2  501    0 -0.93564178067E+02  0.15561489289E+03 -0.53928442326E+03  0.56903245907E+03  0.00000000000E+00 0. -1.
<scales pt_clust_5="13000.00000" pt_clust_6="13000.00000" pt_clust_7="13000.00000" pt_clust_8="13000.00000" pt_clust_9="13000.00000"></scales>
<clustering>
<clus scale="   91.156">  7  8 -1 -1</clus>
<clus scale="   97.433">  5  6 -1 -1</clus>
<clus scale="  181.577">  7  9 -1 -1</clus>
<clus scale="  271.788">  1  5  2 -1</clus>
<clus scale="  317.649">  2  5  1 -1</clus>
</clustering>
</event>
<event>
 9    1  0.3303741E-006  0.1905061E+03  0.7546771E-02  0.1186842E+00
         21   -1    0    0  501  502  0.00000000000E+00  0.00000000000E+00  0.32514160848E+02  0.32514160848E+02  0.00000000000E+00 0. -1.
          3   -1    0    0  502    0 -0.00000000000E+00 -0.00000000000E+00 -0.85918014015E+03  0.85918014015E+03  0.00000000000E+00 0. -1.
         23    2    1    2    0    0  0.20487848187E+02 -0.33312597075E+02 -0.53002208642E+03  0.53914619126E+03  0.90695768416E+02 0.  0.
         23    2    1    2    0    0  0.44089431444E+02  0.29982647620E+02 -0.10075909993E+03  0.14626634681E+03  0.91643935243E+02 0.  0.
        -11    1    3    3    0    0 -0.38698250750E+01 -0.61377455038E+02 -0.31801735966E+03  0.32390925979E+03  0.00000000000E+00 0.  1.
         11    1    3    3    0    0  0.24357673262E+02  0.28064857963E+02 -0.21200472676E+03  0.21523693147E+03  0.00000000000E+00 0. -1.
        -13    1    4    4    0    0  0.15025068337E+02 -0.17508156254E+02  0.77232479331E+01  0.24329750771E+02  0.00000000000E+00 0.  1.
         13    1    4    4    0    0  0.29064363108E+02  0.47490803874E+02 -0.10848234786E+03  0.12193659604E+03  0.00000000000E+00 0. -1.
          3    1    1    2  501    0 -0.64577279632E+02  0.33299494550E+01 -0.19588479294E+03  0.20628176292E+03  0.00000000000E+00 0. -1.
<scales pt_clust_5="13000.00000" pt_clust_6="13000.00000" pt_clust_7="13000.00000" pt_clust_8="13000.00000" pt_clust_9="13000.00000"></scales>
<clustering>
<clus scale="   90.696">  5  6 -1 -1</clus>
<clus scale="   91.644">  7  8 -1 -1</clus>
<clus scale="   64.663">  7  9 -1 -1</clus>
<clus scale="   98.768">  2  5  1 -1</clus>
<clus scale="  190.506">  1  5  2 -1</clus>
</clustering>
</event>
<event>
 9    1  0.3303741E-006  0.2520056E+03  0.7546771E-02  0.1145452E+00
         21   -1    0    0  501  502  0.00000000000E+00  0.00000000000E+00  0.19675389391E+03  0.19675389391E+03  0.00000000000E+00 0. -1.
         -1   -1    0    0    0  501 -0.00000000000E+00 -0.00000000000E+00 -0.21331418393E+03  0.21331418393E+03  0.00000000000E+00 0.  1.
         23    2    1    2    0    0 -0.36701888521E+02  0.30299973777E+02 -0.95266103815E+02  0.14605777537E+03  0.99960623138E+02 0.  0.
         23    2    1    2    0    0 -0.81730086614E+02 -0.39612026755E+02  0.55806402067E+02  0.14302588148E+03  0.95357897109E+02 0.  0.
        -11    1    3    3    0    0 -0.39027582895E+02 -0.25947045928E+02 -0.70265691254E+02  0.84461048930E+02  0.00000000000E+00 0.  1.
         11    1    3    3    0    0  0.23256943733E+01  0.56247019705E+02 -0.25000412561E+02  0.61596726441E+02  0.00000000000E+00 0. -1.
        -13    1    4    4    0    0  0.18877591855E+02 -0.10461377566E+02 -0.46605406090E+01  0.22079957735E+02  0.00000000000E+00 0.  1.
         13    1    4    4    0    0 -0.10060767847E+03 -0.29150649189E+02  0.60466942676E+02  0.12094592375E+03  0.00000000000E+00 0. -1.
         -1    1    1    2    0  502  0.11843197514E+03  0.93120529781E+01  0.22899411727E+02  0.12098442099E+03  0.00000000000E+00 0.  1.
<scales pt_clust_5="13000.00000" pt_clust_6="13000.00000" pt_clust_7="13000.00000" pt_clust_8="13000.00000" pt_clust_9="13000.00000"></scales>
<clustering>
<clus scale="   95.358">  7  8 -1 -1</clus>
<clus scale="   99.961">  5  6 -1 -1</clus>
<clus scale="  110.712">  2  5  1 -1</clus>
<clus scale="  102.199">  7  9 -1 -1</clus>
<clus scale="  252.006">  1  5  2 -1</clus>
</clustering>
</event>
<event>
 9    1  0.7462320E-006  0.8572401E+03  0.7546771E-02  0.1016405E+00
          1   -1    0    0  502    0 -0.00000000000E+00  0.00000000000E+00  0.47073350682E+03  0.47073350682E+03  0.00000000000E+00 0. -1.
         21   -1    0    0  501  502  0.00000000000E+00 -0.00000000000E+00 -0.49340781057E+03  0.49340781057E+03  0.00000000000E+00 0. -1.
         23    2    1    2    0    0  0.11072620979E+02  0.12997270107E+02 -0.54057826393E+02  0.10632695164E+03  0.89953544043E+02 0.  0.
         23    2    1    2    0    0 -0.70912364770E+02 -0.13807909321E+03  0.41374571354E+03  0.45108705854E+03  0.90551750122E+02 0.  0.
        -11    1    4    4    0    0 -0.83529747660E+02 -0.71376094934E+02  0.28688398961E+03  0.30720382349E+03  0.00000000000E+00 0. -1.
         11    1    4    4    0    0  0.12617382890E+02 -0.66702998274E+02  0.12686172393E+03  0.14388323505E+03  0.00000000000E+00 0.  1.
        -13    1    3    3    0    0 -0.14267621428E+02  0.39400752226E+02 -0.55689697227E+02  0.69694523992E+02  0.00000000000E+00 0.  1.
         13    1    3    3    0    0  0.25340242407E+02 -0.26403482119E+02  0.16318708339E+01  0.36632427652E+02  0.00000000000E+00 0. -1.
          1    1    1    2  501    0  0.59839743792E+02  0.12508182310E+03 -0.38236219090E+03  0.40672730722E+03  0.00000000000E+00 0. -1.
<scales pt_clust_5="13000.00000" pt_clust_6="13000.00000" pt_clust_7="13000.00000" pt_clust_8="13000.00000" pt_clust_9="13000.00000"></scales>
<clustering>
<clus scale="   89.954">  7  8 -1 -1</clus>
<clus scale="   90.552">  5  6 -1 -1</clus>
<clus scale="   91.560">  1  7  2 -1</clus>
<clus scale="  139.111">  5  9 -1 -1</clus>
<clus scale="  857.240">  2  5  1 -1</clus>
</clustering>
</event>
<event>
 9    1  0.3303741E-006  0.2322825E+03  0.7546771E-02  0.1159209E+00
         21   -1    0    0  501  502  0.00000000000E+00  0.00000000000E+00  0.66576521253E+03  0.66576521253E+03  0.00000000000E+00 0.  1.
         -1   -1    0    0    0  501 -0.00000000000E+00 -0.00000000000E+00 -0.42013317382E+02  0.42013317382E+02  0.00000000000E+00 0.  1.
         23    2    1    2    0    0  0.44484698657E+02  0.64347121611E+01  0.18675397691E+03  0.21288225158E+03  0.91768792152E+02 0.  0.
         23    2    1    2    0    0  0.22666534803E+02  0.44799209222E+02  0.84899893227E+02  0.13280896555E+03  0.88935305217E+02 0.  0.
        -11    1    4    4    0    0  0.42545336918E+02 -0.67602613034E+01  0.55370771664E+02  0.70155036747E+02  0.00000000000E+00 0.  1.
         11    1    4    4    0    0 -0.19878802114E+02  0.51559470525E+02  0.29529121563E+02  0.62653928805E+02  0.00000000000E+00 0. -1.
        -13    1    3    3    0    0  0.47798405825E+02 -0.35565934441E+02  0.11934993120E+03  0.13339426288E+03  0.00000000000E+00 0.  1.
         13    1    3    3    0    0 -0.33137071677E+01  0.42000646602E+02  0.67404045702E+02  0.79487988697E+02  0.00000000000E+00 0. -1.
         -1    1    1    2    0  502 -0.67151233460E+02 -0.51233921383E+02  0.35209802501E+03  0.36208731278E+03  0.00000000000E+00 0.  1.
<scales pt_clust_5="13000.00000" pt_clust_6="13000.00000" pt_clust_7="13000.00000" pt_clust_8="13000.00000" pt_clust_9="13000.00000"></scales>
<clustering>
<clus scale="   88.935">  5  6 -1 -1</clus>
<clus scale="   84.464">  5  9 -1 -1</clus>
<clus scale="   91.769">  7  8 -1 -1</clus>
<clus scale="  102.185">  2  7  1 -1</clus>
<clus scale="  232.282">  1  5  2 -1</clus>
</clustering>
</event>
<event>
 9    1  0.4050873E-006  0.5356802E+03  0.7546771E-02  0.1040574E+00
         21   -1    0    0  501  502  0.00000000000E+00  0.00000000000E+00  0.24201017446E+03  0.24201017446E+03  0.00000000000E+00 0.  1.
         -1   -1    0    0    0  501 -0.00000000000E+00 -0.00000000000E+00 -0.55516901979E+03  0.55516901979E+03  0.00000000000E+00 0.  1.
         23    2    1    2    0    0  0.56051039431E+02 -0.15199800877E+03 -0.13175209146E+02  0.18322194909E+03  0.84567031421E+02 0.  0.
         23    2    1    2    0    0  0.39287289171E+02  0.10012120035E+03 -0.42566617516E+03  0.44789490518E+03  0.88602525700E+02 0.  0.
        -11    1    3    3    0    0 -0.19284642504E+02 -0.29580037294E+02  0.11995971740E+02  0.37293154610E+02  0.00000000000E+00 0. -1.
         11    1    3    3    0    0  0.75335681935E+02 -0.12241797147E+03 -0.25171180886E+02  0.14592879448E+03  0.00000000000E+00 0.  1.
        -13    1    4    4    0    0  0.66784748818E+02  0.59352276324E+02 -0.29714760708E+03  0.31028953539E+03  0.00000000000E+00 0.  1.
         13    1    4    4    0    0 -0.27497459648E+02  0.40768924029E+02 -0.12851856808E+03  0.13760536979E+03  0.00000000000E+00 0. -1.
         -1    1    1    2    0  502 -0.95338328602E+02  0.51876808415E+02  0.12568253899E+03  0.16606233997E+03  0.00000000000E+00 0.  1.
<scales pt_clust_5="13000.00000" pt_clust_6="13000.00000" pt_clust_7="13000.00000" pt_clust_8="13000.00000" pt_clust_9="13000.00000"></scales>
<clustering>
<clus scale="   84.567">  5  6 -1 -1</clus>
<clus scale="   88.603">  7  8 -1 -1</clus>
<clus scale="  108.539">  7  9 -1 -1</clus>
<clus scale="  182.748">  2  5  1 -1</clus>
<clus scale="  535.680">  1  5  2 -1</clus>
</clustering>
</event>
<event>
 9    1  0.3303741E-006  0.1253266E+03  0.7546771E-02  0.1245384E+00
          4   -1    0    0  502    0 -0.00000000000E+00  0.00000000000E+00  0.30833974555E+03  0.30833974555E+03  0.00000000000E+00 0. -1.
         21   -1    0    0  501  502  0.00000000000E+00 -0.00000000000E+00 -0.43734192027E+02  0.43734192027E+02  0.00000000000E+00 0.  1.
         23    2    1    2    0    0 -0.23433777342E+02  0.37423522027E+02  0.78009317439E+02  0.12729645553E+03  0.90384025484E+02 0.  0.
         23    2    1    2    0    0  0.14278094412E+02 -0.16453927992E+01  0.15471765784E+03  0.17599075422E+03  0.82635468326E+02 0.  0.
        -11    1    4    4    0    0 -0.26687274900E+02  0.18009952846E+02  0.33158841402E+02  0.46217721777E+02  0.00000000000E+00 0.  1.
         11    1    4    4    0    0  0.40965369313E+02 -0.19655345645E+02  0.12155881644E+03  0.12977303244E+03  0.00000000000E+00 0. -1.
        -13    1    3    3    0    0  0.14156965919E+02 -0.23241805650E+02  0.33605245633E+02  0.43242499326E+02  0.00000000000E+00 0. -1.
         13    1    3    3    0    0 -0.37590743261E+02  0.60665327678E+02  0.44404071806E+02  0.84053956208E+02  0.00000000000E+00 0.  1.
          4    1    1    2  501    0  0.91556829300E+01 -0.35778129228E+02  0.31878578244E+02  0.48786727825E+02  0.00000000000E+00 0. -1.
<scales pt_clust_5="13000.00000" pt_clust_6="13000.00000" pt_clust_7="13000.00000" pt_clust_8="13000.00000" pt_clust_9="13000.00000"></scales>
<clustering>
<clus scale="   82.635">  5  6 -1 -1</clus>
<clus scale="   36.931">  5  9 -1 -1</clus>
<clus scale="   90.384">  7  8 -1 -1</clus>
<clus scale="  100.593">  1  7  2 -1</clus>
<clus scale="  125.327">  2  5  1 -1</clus>
</clustering>
</event>
<event>
 9    1  0.3303741E-006  0.2671057E+03  0.7546771E-02  0.1121116E+00
          3   -1    0    0  502    0 -0.00000000000E+00  0.00000000000E+00  0.37110926767E+03  0.37110926767E+03  0.00000000000E+00 0. -1.
         21   -1    0    0  501  502  0.00000000000E+00 -0.00000000000E+00 -0.13639486254E+03  0.13639486254E+03  0.00000000000E+00 0.  1.
         23    2    1    2    0    0 -0.13805616402E+03 -0.29145369270E+02  0.30265668311E+02  0.17113417200E+03  0.91988788319E+02 0.  0.
         23    2    1    2    0    0  0.24166373115E+02 -0.69016841359E+01  0.19511443451E+03  0.21654757411E+03  0.90507250905E+02 0.  0.
        -11    1    3    3    0    0 -0.96570037971E+02  0.21180211207E+02 -0.85465012507E+00  0.98869125652E+02  0.00000000000E+00 0.  1.
         11    1    3    3    0    0 -0.41486126045E+02 -0.50325580477E+02  0.31120318436E+02  0.72265046351E+02  0.00000000000E+00 0. -1.
        -13    1    4    4    0    0  0.58101191278E+02 -0.68572757789E+01  0.14122573471E+03  0.15286424959E+03  0.00000000000E+00 0. -1.
         13    1    4    4    0    0 -0.33934818163E+02 -0.44408356977E-01  0.53888699805E+02  0.63683324525E+02  0.00000000000E+00 0.  1.
          3    1    1    2  501    0  0.11388979090E+03  0.36047053405E+02  0.93343023132E+01  0.11982238409E+03  0.00000000000E+00 0. -1.
<scales pt_clust_5="13000.00000" pt_clust_6="13000.00000" pt_clust_7="13000.00000" pt_clust_8="13000.00000" pt_clust_9="13000.00000"></scales>
<clustering>
<clus scale="   90.507">  7  8 -1 -1</clus>
<clus scale="   91.989">  5  6 -1 -1</clus>
<clus scale="  119.458">  7  9 -1 -1</clus>
<clus scale="  168.437">  1  5  2 -1</clus>
<clus scale="  267.106">  2  5  1 -1</clus>
</clustering>
</event>
<event>
 9    1  0.3303741E-006  0.6427746E+03  0.7546771E-02  0.1020808E+00
         21   -1    0    0  501  502  0.00000000000E+00  0.00000000000E+00  0.19759725452E+03  0.19759725452E+03  0.00000000000E+00 0. -1.
          2   -1    0    0  502    0 -0.00000000000E+00 -0.00000000000E+00 -0.11247681595E+04  0.11247681595E+04  0.00000000000E+00 0. -1.
         23    2    1    2    0    0  0.96201710690E+02 -0.13698183954E+03 -0.53890838424E+03  0.57142801967E+03  0.89938543219E+02 0.  0.
         23    2    1    2    0    0  0.23752896924E+03  0.11555876826E+03 -0.67542261599E+02  0.28758375043E+03  0.91480141325E+02 0.  0.
        -11    1    3    3    0    0  0.56600786518E+02 -0.79214163105E+02 -0.16977669923E+03  0.19571065447E+03  0.00000000000E+00 0. -1.
         11    1    3    3    0    0  0.39600924172E+02 -0.57767676431E+02 -0.36913168500E+03  0.37571736520E+03  0.00000000000E+00 0.  1.
        -13    1    4    4    0    0  0.13114940417E+03  0.11244679794E+03 -0.34695283353E+02  0.17620502623E+03  0.00000000000E+00 0. -1.
         13    1    4    4    0    0  0.10637956507E+03  0.31119703182E+01 -0.32846978246E+02  0.11137872420E+03  0.00000000000E+00 0.  1.
          2    1    1    2  501    0 -0.33373067993E+03  0.21423071279E+02 -0.32072025912E+03  0.46335364391E+03  0.00000000000E+00 0. -1.
<scales pt_clust_5="13000.00000" pt_clust_6="13000.00000" pt_clust_7="13000.00000" pt_clust_8="13000.00000" pt_clust_9="13000.00000"></scales>
<clustering>
<clus scale="   89.939">  5  6 -1 -1</clus>
<clus scale="   91.480">  7  8 -1 -1</clus>
<clus scale="  190.020">  2  5  1 -1</clus>
<clus scale="  277.262">  7  9 -1 -1</clus>
<clus scale="  642.775">  1  5  2 -1</clus>
</clustering>
</event>
<event>
 9    1  0.3303741E-006  0.5234353E+03  0.7546771E-02  0.1020166E+00
         21   -1    0    0  501  502  0.00000000000E+00  0.00000000000E+00  0.86582061946E+03  0.86582061946E+03  0.00000000000E+00 0.  1.
         -3   -1    0    0    0  501 -0.00000000000E+00 -0.00000000000E+00 -0.31307145115E+03  0.31307145115E+03  0.00000000000E+00 0.  1.
         23    2    1    2    0    0 -0.48956365776E+02  0.34411694538E+03 -0.69841862952E+02  0.36550156311E+03  0.88883682240E+02 0.  0.
         23    2    1    2    0    0 -0.13142053372E+03 -0.37119354853E+02  0.17767555316E+03  0.24353690427E+03  0.95354173293E+02 0.  0.
        -11    1    3    3    0    0 -0.54223469637E+02  0.18781632394E+03 -0.74085695664E+02  0.20905464955E+03  0.00000000000E+00 0. -1.
         11    1    3    3    0    0  0.52671038612E+01  0.15630062144E+03  0.42438327119E+01  0.15644691356E+03  0.00000000000E+00 0.  1.
        -13    1    4    4    0    0 -0.13499674581E+02  0.16579100078E+02  0.75665630809E+02  0.78628210325E+02  0.00000000000E+00 0.  1.
         13    1    4    4    0    0 -0.11792085914E+03 -0.53698454931E+02  0.10200992236E+03  0.16490869395E+03  0.00000000000E+00 0. -1.
         -3    1    1    2    0  502  0.18037689949E+03 -0.30699759053E+03  0.44491547810E+03  0.56985360322E+03  0.00000000000E+00 0.  1.
<scales pt_clust_5="13000.00000" pt_clust_6="13000.00000" pt_clust_7="13000.00000" pt_clust_8="13000.00000" pt_clust_9="13000.00000"></scales>
<clustering>
<clus scale="   88.884">  5  6 -1 -1</clus>
<clus scale="   95.354">  7  8 -1 -1</clus>
<clus scale="  356.067">  7  9 -1 -1</clus>
<clus scale="  358.767">  2  5  1 -1</clus>
<clus scale="  523.435">  1  5  2 -1</clus>
</clustering>
</event>
<event>
 9    1  0.3303741E-006  0.5691895E+03  0.7546771E-02  0.1026264E+00
          1   -1    0    0  502    0 -0.00000000000E+00  0.00000000000E+00  0.16627184397E+04  0.16627184397E+04  0.00000000000E+00 0. -1.
         21   -1    0    0  501  502  0.00000000000E+00 -0.00000000000E+00 -0.96979927076E+02  0.96979927076E+02  0.00000000000E+00 0. -1.
         23    2    1    2    0    0  0.16708362119E+02 -0.21327959119E+03  0.50651407235E+03  0.55722879579E+03  0.90443750408E+02 0.  0.
         23    2    1    2    0    0  0.11240840102E+03 -0.13371383865E+03  0.41608682122E+03  0.46037687063E+03  0.91123986724E+02 0.  0.
        -11    1    3    3    0    0  0.47094889242E+02 -0.98049419383E+02  0.29558460846E+03  0.31496329626E+03  0.00000000000E+00 0.  1.
         11    1    3    3    0    0 -0.30386527123E+02 -0.11523017181E+03  0.21092946389E+03  0.24226549953E+03  0.00000000000E+00 0. -1.
        -11    1    4    4    0    0  0.35610313495E+02 -0.61563874748E+01  0.16108737520E+03  0.16509130196E+03  0.00000000000E+00 0.  1.
         11    1    4    4    0    0  0.76798087525E+02 -0.12755745117E+03  0.25499944602E+03  0.29528556868E+03  0.00000000000E+00 0. -1.
          1    1    1    2  501    0 -0.12911676314E+03  0.34699342984E+03  0.64313761907E+03  0.74209270037E+03  0.00000000000E+00 0. -1.
<scales pt_clust_5="13000.00000" pt_clust_6="13000.00000" pt_clust_7="13000.00000" pt_clust_8="13000.00000" pt_clust_9="13000.00000"></scales>
<clustering>
<clus scale="   90.444">  5  6 -1 -1</clus>
<clus scale="   91.124">  7  8 -1 -1</clus>
<clus scale="  232.266">  1  5  2 -1</clus>
<clus scale="  246.875">  7  9 -1 -1</clus>
<clus scale="  569.189">  2  5  1 -1</clus>
</clustering>
</event>
<event>
 9    1  0.3303741E-006  0.2249985E+03  0.7546771E-02  0.1145948E+00
         21   -1    0    0  501  502  0.00000000000E+00  0.00000000000E+00  0.17442480075E+03  0.17442480075E+03  0.00000000000E+00 0.  1.
         -4   -1    0    0    0  501 -0.00000000000E+00 -0.00000000000E+00 -0.28818573244E+03  0.28818573244E+03  0.00000000000E+00 0.  1.
         23    2    1    2    0    0  0.49490187841E+02  0.11224900032E+03  0.73022997998E+02  0.17018522455E+03  0.92636578377E+02 0.  0.
         23    2    1    2    0    0  0.65558725225E+01 -0.10415118490E+02 -0.13872531574E+03  0.16664402726E+03  0.91509914426E+02 0.  0.
        -13    1    4    4    0    0 -0.35695522353E+02 -0.23338599032E+02 -0.96606464704E+02  0.10560146563E+03  0.00000000000E+00 0.  1.
         13    1    4    4    0    0  0.42251394875E+02  0.12923480542E+02 -0.42118851032E+02  0.61042561631E+02  0.00000000000E+00 0. -1.
        -13    1    3    3    0    0  0.22607619726E+02  0.24581010495E+01  0.49861500552E+02  0.54802517895E+02  0.00000000000E+00 0. -1.
         13    1    3    3    0    0  0.26882568116E+02  0.10979089927E+03  0.23161497446E+02  0.11538270666E+03  0.00000000000E+00 0.  1.
         -4    1    1    2    0  502 -0.56046060364E+02 -0.10183388183E+03 -0.48058613944E+02  0.12578128138E+03  0.00000000000E+00 0.  1.
<scales pt_clust_5="13000.00000" pt_clust_6="13000.00000" pt_clust_7="13000.00000" pt_clust_8="13000.00000" pt_clust_9="13000.00000"></scales>
<clustering>
<clus scale="   91.510">  5  6 -1 -1</clus>
<clus scale="   92.637">  7  8 -1 -1</clus>
<clus scale="  116.238">  5  9 -1 -1</clus>
<clus scale="  153.723">  2  7  1 -1</clus>
<clus scale="  224.998">  1  5  2 -1</clus>
</clustering>
</event>
<event>
 9    1  0.3303741E-006  0.2025943E+03  0.7546771E-02  0.1159389E+00
         21   -1    0    0  501  502  0.00000000000E+00  0.00000000000E+00  0.44391699155E+02  0.44391699155E+02  0.00000000000E+00 0.  1.
          1   -1    0    0  502    0 -0.00000000000E+00 -0.00000000000E+00 -0.71384633634E+03  0.71384633634E+03  0.00000000000E+00 0. -1.
         23    2    1    2    0    0 -0.91637094218E+02 -0.84568421710E+02 -0.29568781460E+03  0.33309558400E+03  0.89287229716E+02 0.  0.
         23    2    1    2    0    0  0.83987420992E+02  0.75305687064E+01 -0.25121164567E+03  0.28018342389E+03  0.91021226931E+02 0.  0.
        -13    1    3    3    0    0 -0.72786277035E+02 -0.74412398034E+02 -0.29368901001E+03  0.31158992556E+03  0.00000000000E+00 0. -1.
         13    1    3    3    0    0 -0.18850817183E+02 -0.10156023676E+02 -0.19988045885E+01  0.21505658445E+02  0.00000000000E+00 0.  1.
        -13    1    4    4    0    0  0.84741763955E+02 -0.27366461669E+02 -0.18595731410E+03  0.20618004862E+03  0.00000000000E+00 0.  1.
         13    1    4    4    0    0 -0.75434296254E+00  0.34897030375E+02 -0.65254331577E+02  0.74003375274E+02  0.00000000000E+00 0. -1.
          1    1    1    2  501    0  0.76496732259E+01  0.77037853004E+02 -0.12255517691E+03  0.14495902760E+03  0.00000000000E+00 0. -1.
<scales pt_clust_5="13000.00000" pt_clust_6="13000.00000" pt_clust_7="13000.00000" pt_clust_8="13000.00000" pt_clust_9="13000.00000"></scales>
<clustering>
<clus scale="   89.287">  5  6 -1 -1</clus>
<clus scale="   91.021">  7  8 -1 -1</clus>
<clus scale="   77.417">  7  9 -1 -1</clus>
<clus scale="  153.367">  2  5  1 -1</clus>
<clus scale="  202.594">  1  5  2 -1</clus>
</clustering>
</event>
<event>
 9    1  0.3303741E-006  0.1845521E+03  0.7546771E-02  0.1185715E+00
         21   -1    0    0  501  502  0.00000000000E+00  0.00000000000E+00  0.83816097146E+02  0.83816097146E+02  0.00000000000E+00 0.  1.
          3   -1    0    0  502    0 -0.00000000000E+00 -0.00000000000E+00 -0.30516652225E+03  0.30516652225E+03  0.00000000000E+00 0. -1.
         23    2    1    2    0    0 -0.59023106889E+02 -0.21049613147E+02 -0.15908479958E+03  0.19420975207E+03  0.92101253977E+02 0.  0.
         23    2    1    2    0    0  0.10117473678E+03  0.44772571756E+01 -0.59583332470E+02  0.14940109658E+03  0.92272102814E+02 0.  0.
        -11    1    3    3    0    0  0.23935286259E+02 -0.12606696866E+02 -0.28697464831E+02  0.39438194963E+02  0.00000000000E+00 0.  1.
         11    1    3    3    0    0 -0.82958393148E+02 -0.84429162810E+01 -0.13038733474E+03  0.15477155711E+03  0.00000000000E+00 0. -1.
        -11    1    4    4    0    0  0.76935318588E+02 -0.58438873469E+01 -0.83591595883E+02  0.11375741368E+03  0.00000000000E+00 0.  1.
         11    1    4    4    0    0  0.24239418188E+02  0.10321144523E+02  0.24008263414E+02  0.35643682897E+02  0.00000000000E+00 0. -1.
          3    1    1    2  501    0 -0.42151629887E+02  0.16572355972E+02 -0.26822930637E+01  0.45371770746E+02  0.00000000000E+00 0. -1.
<scales pt_clust_5="13000.00000" pt_clust_6="13000.00000" pt_clust_7="13000.00000" pt_clust_8="13000.00000" pt_clust_9="13000.00000"></scales>
<clustering>
<clus scale="   92.101">  5  6 -1 -1</clus>
<clus scale="   92.272">  7  8 -1 -1</clus>
<clus scale="   45.292">  7  9 -1 -1</clus>
<clus scale="  111.398">  2  5  1 -1</clus>
<clus scale="  184.552">  1  5  2 -1</clus>
</clustering>
</event>
<event>
 9    1  0.3303741E-006  0.3210155E+03  0.7546771E-02  0.1080408E+00
         21   -1    0    0  501  502  0.00000000000E+00  0.00000000000E+00  0.18483472019E+03  0.18483472019E+03  0.00000000000E+00 0.  1.
          1   -1    0    0  502    0 -0.00000000000E+00 -0.00000000000E+00 -0.50517784455E+03  0.50517784455E+03  0.00000000000E+00 0. -1.
         23    2    1    2    0    0  0.25538080477E+03 -0.63635361808E+02 -0.83042281788E+02  0.29081003388E+03  0.91682280312E+02 0.  0.
         23    2    1    2    0    0 -0.12895105786E+03  0.10340009108E+03 -0.14316090361E+03  0.23663549022E+03  0.90450852673E+02 0.  0.
        -11    1    3    3    0    0  0.45697647486E+02  0.22581181210E+02 -0.25045022804E+02  0.56792938803E+02  0.00000000000E+00 0. -1.
         11    1    3    3    0    0  0.20968315728E+03 -0.86216543018E+02 -0.57997258984E+02  0.23401709507E+03  0.00000000000E+00 0.  1.
        -13    1    4    4    0    0 -0.84047305073E+02  0.47132547424E+02 -0.13254121706E+03  0.16386763175E+03  0.00000000000E+00 0. -1.
         13    1    4    4    0    0 -0.44903752791E+02  0.56267543655E+02 -0.10619686555E+02  0.72767858470E+02  0.00000000000E+00 0.  1.
          1    1    1    2  501    0 -0.12642974690E+03 -0.39764729271E+02 -0.94139938962E+02  0.16256704064E+03  0.00000000000E+00 0. -1.
<scales pt_clust_5="13000.00000" pt_clust_6="13000.00000" pt_clust_7="13000.00000" pt_clust_8="13000.00000" pt_clust_9="13000.00000"></scales>
<clustering>
<clus scale="   90.451">  7  8 -1 -1</clus>
<clus scale="   91.682">  5  6 -1 -1</clus>
<clus scale="  132.536">  7  9 -1 -1</clus>
<clus scale="  278.702">  2  5  1 -1</clus>
<clus scale="  321.016">  1  5  2 -1</clus>
</clustering>
</event>
<event>
 9    1  0.3303741E-006  0.2178828E+03  0.7546771E-02  0.1166691E+00
         21   -1    0    0  501  502  0.00000000000E+00  0.00000000000E+00  0.61583149737E+02  0.61583149737E+02  0.00000000000E+00 0.  1.
          2   -1    0    0  502    0 -0.00000000000E+00 -0.00000000000E+00 -0.43903970197E+03  0.43903970197E+03  0.00000000000E+00 0. -1.
         23    2    1    2    0    0  0.38011977243E+02  0.46654420608E+01 -0.77074052300E+02  0.12953992187E+03  0.96816863492E+02 0.  0.
         23    2    1    2    0    0 -0.88990910577E+02 -0.53931804271E+02 -0.14397733977E+03  0.19936047873E+03  0.90482619519E+02 0.  0.
        -11    1    4    4    0    0 -0.42565948772E+02  0.22339542539E+02 -0.58917396878E+02  0.76040612903E+02  0.00000000000E+00 0. -1.
         11    1    4    4    0    0 -0.46424961804E+02 -0.76271346811E+02 -0.85059942893E+02  0.12331986583E+03  0.00000000000E+00 0.  1.
        -11    1    3    3    0    0  0.52604833948E+02 -0.33095585942E+02 -0.57099885039E+02  0.84397767950E+02  0.00000000000E+00 0.  1.
         11    1    3    3    0    0 -0.14592856705E+02  0.37761028003E+02 -0.19974167261E+02  0.45142153919E+02  0.00000000000E+00 0. -1.
          2    1    1    2  501    0  0.50978933334E+02  0.49266362210E+02 -0.15640516017E+03  0.17172245111E+03  0.00000000000E+00 0. -1.
<scales pt_clust_5="13000.00000" pt_clust_6="13000.00000" pt_clust_7="13000.00000" pt_clust_8="13000.00000" pt_clust_9="13000.00000"></scales>
<clustering>
<clus scale="   90.483">  5  6 -1 -1</clus>
<clus scale="   70.895">  5  9 -1 -1</clus>
<clus scale="   96.817">  7  8 -1 -1</clus>
<clus scale="  104.116">  2  7  1 -1</clus>
<clus scale="  217.883">  1  5  2 -1</clus>
</clustering>
</event>
<event>
 9    1  0.3303741E-006  0.1815358E+03  0.7546771E-02  0.1177366E+00
         -4   -1    0    0    0  501 -0.00000000000E+00  0.00000000000E+00  0.25218815580E+03  0.25218815580E+03  0.00000000000E+00 0. -1.
         21   -1    0    0  501  502  0.00000000000E+00 -0.00000000000E+00 -0.14534550093E+03  0.14534550093E+03  0.00000000000E+00 0.  1.
         23    2    1    2    0    0 -0.21805170728E+02 -0.10516713416E+03  0.15509180229E+03  0.20969536866E+03  0.91559209916E+02 0.  0.
         23    2    1    2    0    0 -0.11759676051E+01  0.30021021818E+02 -0.49330974173E+02  0.10924922223E+03  0.92731887154E+02 0.  0.
        -11    1    4    4    0    0 -0.45044279816E+02  0.24922364509E+01 -0.28889508006E+02  0.53570533501E+02  0.00000000000E+00 0.  1.
         11    1    4    4    0    0  0.43868312211E+02  0.27528785367E+02 -0.20441466166E+02  0.55678688733E+02  0.00000000000E+00 0. -1.
        -11    1    3    3    0    0 -0.24774226891E+02 -0.26893931005E+02  0.11702727321E+03  0.12260680453E+03  0.00000000000E+00 0. -1.
         11    1    3    3    0    0  0.29690561636E+01 -0.78273203160E+02  0.38064529081E+02  0.87088564126E+02  0.00000000000E+00 0.  1.
         -4    1    1    2    0  502  0.22981138333E+02  0.75146112347E+02  0.10818267480E+01  0.78589065837E+02  0.00000000000E+00 0. -1.
<scales pt_clust_5="13000.00000" pt_clust_6="13000.00000" pt_clust_7="13000.00000" pt_clust_8="13000.00000" pt_clust_9="13000.00000"></scales>
<clustering>
<clus scale="   91.559">  7  8 -1 -1</clus>
<clus scale="   92.732">  5  6 -1 -1</clus>
<clus scale="   78.582">  5  9 -1 -1</clus>
<clus scale="  141.134">  1  7  2 -1</clus>
<clus scale="  181.536">  2  5  1 -1</clus>
</clustering>
</event>
<event>
 9    1  0.3303741E-006  0.2929200E+03  0.7546771E-02  0.1114304E+00
         21   -1    0    0  501  502  0.00000000000E+00  0.00000000000E+00  0.19306723557E+03  0.19306723557E+03  0.00000000000E+00 0.  1.
          1   -1    0    0  502    0 -0.00000000000E+00 -0.00000000000E+00 -0.49275064075E+03  0.49275064075E+03  0.00000000000E+00 0. -1.
         23    2    1    2    0    0 -0.65779340562E+02 -0.10027658023E+03 -0.35655986956E+03  0.38742709065E+03  0.92641760587E+02 0.  0.
         23    2    1    2    0    0 -0.47157267570E+00  0.17027726971E+03  0.28151057194E+02  0.19782026786E+03  0.96673705815E+02 0.  0.
        -13    1    4    4    0    0  0.13736200022E+01  0.11710639794E+03 -0.28054406706E+02  0.12042775845E+03  0.00000000000E+00 0.  1.
         13    1    4    4    0    0 -0.18451926779E+01  0.53170871774E+02  0.56205463901E+02  0.77392509415E+02  0.00000000000E+00 0. -1.
        -13    1    3    3    0    0 -0.48932990517E+02 -0.62358102859E+02 -0.32703111690E+03  0.33650010695E+03  0.00000000000E+00 0. -1.
         13    1    3    3    0    0 -0.16846350045E+02 -0.37918477370E+02 -0.29528752657E+02  0.50926983706E+02  0.00000000000E+00 0.  1.
          1    1    1    2  501    0  0.66250913238E+02 -0.70000689481E+02  0.28725407192E+02  0.10057051780E+03  0.00000000000E+00 0. -1.
<scales pt_clust_5="13000.00000" pt_clust_6="13000.00000" pt_clust_7="13000.00000" pt_clust_8="13000.00000" pt_clust_9="13000.00000"></scales>
<clustering>
<clus scale="   92.642">  7  8 -1 -1</clus>
<clus scale="   96.674">  5  6 -1 -1</clus>
<clus scale="   96.381">  5  9 -1 -1</clus>
<clus scale="  151.541">  2  7  1 -1</clus>
<clus scale="  292.920">  1  5  2 -1</clus>
</clustering>
</event>
<event>
 9    1  0.3360445E-006  0.2596860E+03  0.7546771E-02  0.1144143E+00
         -2   -1    0    0    0  501 -0.00000000000E+00  0.00000000000E+00  0.37505477021E+03  0.37505477021E+03  0.00000000000E+00 0.  1.
         21   -1    0    0  501  502  0.00000000000E+00 -0.00000000000E+00 -0.12189363704E+03  0.12189363704E+03  0.00000000000E+00 0.  1.
         23    2    1    2    0    0 -0.33291329805E+02  0.45932325668E+02 -0.33991979383E+02  0.10978729866E+03  0.87633926665E+02 0.  0.
         23    2    1    2    0    0 -0.29980186641E+02 -0.12448836304E+02  0.29969450234E+03  0.31448569796E+03  0.89614030021E+02 0.  0.
        -11    1    4    4    0    0  0.15265573439E+02  0.29622031671E+02  0.95358337313E+02  0.10101343964E+03  0.00000000000E+00 0. -1.
         11    1    4    4    0    0 -0.45245760080E+02 -0.42070867975E+02  0.20433616502E+03  0.21347225832E+03  0.00000000000E+00 0.  1.
        -13    1    3    3    0    0  0.28158628805E+02  0.16133597406E+02  0.21412878609E+01  0.32523629182E+02  0.00000000000E+00 0. -1.
         13    1    3    3    0    0 -0.61449958610E+02  0.29798728262E+02 -0.36133267244E+02  0.77263669476E+02  0.00000000000E+00 0.  1.
         -2    1    1    2    0  502  0.63271516446E+02 -0.33483489364E+02 -0.12541389781E+02  0.72675410635E+02  0.00000000000E+00 0.  1.
<scales pt_clust_5="13000.00000" pt_clust_6="13000.00000" pt_clust_7="13000.00000" pt_clust_8="13000.00000" pt_clust_9="13000.00000"></scales>
<clustering>
<clus scale="   87.634">  7  8 -1 -1</clus>
<clus scale="   89.614">  5  6 -1 -1</clus>
<clus scale="   71.585">  5  9 -1 -1</clus>
<clus scale="  104.393">  1  7  2 -1</clus>
<clus scale="  259.686">  2  5  1 -1</clus>
</clustering>
</event>
<event>
 9    1  0.3303741E-006  0.1348695E+03  0.7546771E-02  0.1236417E+00
         21   -1    0    0  501  502  0.00000000000E+00  0.00000000000E+00  0.33842868935E+02  0.33842868935E+02  0.00000000000E+00 0.  1.
          2   -1    0    0  502    0 -0.00000000000E+00 -0.00000000000E+00 -0.40485905923E+03  0.40485905923E+03  0.00000000000E+00 0. -1.
         23    2    1    2    0    0 -0.35055703117E+02  0.17401072257E+01 -0.12457767424E+03  0.15777180605E+03  0.90224251566E+02 0.  0.
         23    2    1    2    0    0  0.11018953544E+02  0.22935253520E+02 -0.16440721397E+03  0.19195949056E+03  0.95766752158E+02 0.  0.
        -11    1    4    4    0    0  0.32548764360E+02  0.48002497024E+01 -0.16014395839E+03  0.16348869034E+03  0.00000000000E+00 0. -1.
         11    1    4    4    0    0 -0.21529810816E+02  0.18135003818E+02 -0.42632555807E+01  0.28470800224E+02  0.00000000000E+00 0.  1.
        -11    1    3    3    0    0 -0.31473417377E+02  0.42273367061E+02 -0.90356188304E+02  0.10460331892E+03  0.00000000000E+00 0.  1.
         11    1    3    3    0    0 -0.35822857408E+01 -0.40533259836E+02 -0.34221485938E+02  0.53168487131E+02  0.00000000000E+00 0. -1.
          2    1    1    2  501    0  0.24036749574E+02 -0.24675360746E+02 -0.82031302077E+02  0.88970631550E+02  0.00000000000E+00 0. -1.
<scales pt_clust_5="13000.00000" pt_clust_6="13000.00000" pt_clust_7="13000.00000" pt_clust_8="13000.00000" pt_clust_9="13000.00000"></scales>
<clustering>
<clus scale="   90.224">  7  8 -1 -1</clus>
<clus scale="   95.767">  5  6 -1 -1</clus>
<clus scale="   34.448">  5  9 -1 -1</clus>
<clus scale="   96.811">  2  7  1 -1</clus>
<clus scale="  134.870">  1  5  2 -1</clus>
</clustering>
</event>
<event>
 9    1  0.3303741E-006  0.4757427E+03  0.7546771E-02  0.1044655E+00
          1   -1    0    0  502    0 -0.00000000000E+00  0.00000000000E+00  0.78670727837E+03  0.78670727837E+03  0.00000000000E+00 0. -1.
         21   -1    0    0  501  502  0.00000000000E+00 -0.00000000000E+00 -0.25365165566E+03  0.25365165566E+03  0.00000000000E+00 0. -1.
         23    2    1    2    0    0 -0.17527980911E+03 -0.12196893417E+03  0.51443031535E+03  0.56425180924E+03  0.90233710405E+02 0.  0.
         23    2    1    2    0    0 -0.12239114141E+03  0.45956383943E+02  0.52379136823E+02  0.16703557388E+03  0.89809399559E+02 0.  0.
        -11    1    3    3    0    0 -0.50668151130E+02 -0.12973775824E+02  0.22328086329E+03  0.22932493172E+03  0.00000000000E+00 0. -1.
         11    1    3    3    0    0 -0.12461165798E+03 -0.10899515835E+03  0.29114945206E+03  0.33492687752E+03  0.00000000000E+00 0.  1.
        -11    1    4    4    0    0 -0.29168402438E+02 -0.10095209767E+02 -0.19634439346E+02  0.36581691725E+02  0.00000000000E+00 0.  1.
         11    1    4    4    0    0 -0.93222738968E+02  0.56051593709E+02  0.72013576169E+02  0.13045388216E+03  0.00000000000E+00 0. -1.
          1    1    1    2  501    0  0.29767095052E+03  0.76012550232E+02 -0.33753829460E+02  0.30907155090E+03  0.00000000000E+00 0. -1.
<scales pt_clust_5="13000.00000" pt_clust_6="13000.00000" pt_clust_7="13000.00000" pt_clust_8="13000.00000" pt_clust_9="13000.00000"></scales>
<clustering>
<clus scale="   89.809">  7  8 -1 -1</clus>
<clus scale="   90.234">  5  6 -1 -1</clus>
<clus scale="  231.822">  1  5  2 -1</clus>
<clus scale="  200.294">  7  9 -1 -1</clus>
<clus scale="  475.743">  2  5  1 -1</clus>
</clustering>
</event>
<event>
 9    1  0.3303741E-006  0.1376527E+03  0.7546771E-02  0.1233907E+00
         21   -1    0    0  501  502  0.00000000000E+00  0.00000000000E+00  0.16415265927E+03  0.16415265927E+03  0.00000000000E+00 0.  1.
         -3   -1    0    0    0  501 -0.00000000000E+00 -0.00000000000E+00 -0.17516747887E+03  0.17516747887E+03  0.00000000000E+00 0.  1.
         23    2    1    2    0    0  0.30509982062E+02  0.73400239313E+01 -0.12713961704E+03  0.15922781150E+03  0.90577473898E+02 0.  0.
         23    2    1    2    0    0 -0.10423564985E+02 -0.17863184461E+02  0.44296941416E+02  0.10477007255E+03  0.92665015066E+02 0.  0.
        -11    1    4    4    0    0 -0.14569175886E+00 -0.35969733355E+02  0.65705459211E+02  0.74906944363E+02  0.00000000000E+00 0.  1.
         11    1    4    4    0    0 -0.10277873226E+02  0.18106548893E+02 -0.21408517795E+02  0.29863128186E+02  0.00000000000E+00 0. -1.
        -13    1    3    3    0    0  0.62840514038E+02  0.88927380319E+01 -0.85905390067E+02  0.10680705518E+03  0.00000000000E+00 0.  1.
         13    1    3    3    0    0 -0.32330531976E+02 -0.15527141006E+01 -0.41234226973E+02  0.52420756318E+02  0.00000000000E+00 0. -1.
         -3    1    1    2    0  502 -0.20086417077E+02  0.10523160530E+02  0.71827856032E+02  0.75322254086E+02  0.00000000000E+00 0.  1.
<scales pt_clust_5="13000.00000" pt_clust_6="13000.00000" pt_clust_7="13000.00000" pt_clust_8="13000.00000" pt_clust_9="13000.00000"></scales>
<clustering>
<clus scale="   90.577">  7  8 -1 -1</clus>
<clus scale="   92.665">  5  6 -1 -1</clus>
<clus scale="   22.676">  5  9 -1 -1</clus>
<clus scale="   95.859">  2  7  1 -1</clus>
<clus scale="  137.653">  1  5  2 -1</clus>
</clustering>
</event>
<event>
 9    1  0.3303741E-006  0.1534139E+03  0.7546771E-02  0.1214335E+00
         21   -1    0    0  501  502  0.00000000000E+00  0.00000000000E+00  0.67456683847E+02  0.67456683847E+02  0.00000000000E+00 0. -1.
          1   -1    0    0  502    0 -0.00000000000E+00 -0.00000000000E+00 -0.26849348017E+03  0.26849348017E+03  0.00000000000E+00 0. -1.
         23    2    1    2    0    0 -0.23414752015E+02 -0.42065256222E+02 -0.13086645546E+03  0.16725012183E+03  0.92351706491E+02 0.  0.
         23    2    1    2    0    0  0.22021543446E+02  0.85666471723E+00 -0.16796622577E+01  0.88755923590E+02  0.85959935184E+02 0.  0.
        -11    1    3    3    0    0 -0.52439338285E+02 -0.47208615442E+02 -0.68847281156E+02  0.98582380242E+02  0.00000000000E+00 0. -1.
         11    1    3    3    0    0  0.29024586270E+02  0.51433592203E+01 -0.62019174309E+02  0.68667741583E+02  0.00000000000E+00 0.  1.
        -11    1    4    4    0    0 -0.29741546337E+02 -0.14159566841E+02 -0.95276860006E+01  0.34290373462E+02  0.00000000000E+00 0.  1.
         11    1    4    4    0    0  0.51763089783E+02  0.15016231558E+02  0.78480237428E+01  0.54465550128E+02  0.00000000000E+00 0. -1.
          1    1    1    2  501    0  0.13932085694E+01  0.41208591505E+02 -0.68490678605E+02  0.79944118606E+02  0.00000000000E+00 0. -1.
<scales pt_clust_5="13000.00000" pt_clust_6="13000.00000" pt_clust_7="13000.00000" pt_clust_8="13000.00000" pt_clust_9="13000.00000"></scales>
<clustering>
<clus scale="   85.960">  7  8 -1 -1</clus>
<clus scale="   41.232">  7  9 -1 -1</clus>
<clus scale="   92.352">  5  6 -1 -1</clus>
<clus scale="  104.147">  2  5  1 -1</clus>
<clus scale="  153.414">  1  5  2 -1</clus>
</clustering>
</event>
<event>
 9    1  0.3303741E-006  0.3751662E+03  0.7546771E-02  0.1094571E+00
         21   -1    0    0  501  502  0.00000000000E+00  0.00000000000E+00  0.10681667212E+03  0.10681667212E+03  0.00000000000E+00 0.  1.
          1   -1    0    0  502    0 -0.00000000000E+00 -0.00000000000E+00 -0.66439762171E+03  0.66439762171E+03  0.00000000000E+00 0. -1.
         23    2    1    2    0    0 -0.16950090740E+02  0.75951419649E+02 -0.27983735044E+03  0.30442614261E+03  0.91161449532E+02 0.  0.
         23    2    1    2    0    0  0.11297619914E+03 -0.15823786180E+03 -0.27178127485E+03  0.34018790885E+03  0.63717419060E+02 0.  0.
        -13    1    3    3    0    0 -0.23663088749E+02  0.31433311173E+00 -0.13012600603E+02  0.27006820415E+02  0.00000000000E+00 0. -1.
         13    1    3    3    0    0  0.67129980090E+01  0.75637086537E+02 -0.26682474984E+03  0.27741932219E+03  0.00000000000E+00 0.  1.
        -13    1    4    4    0    0  0.42346470310E+02 -0.44240604358E+02 -0.42415222107E+02  0.74495004450E+02  0.00000000000E+00 0. -1.
         13    1    4    4    0    0  0.70629728827E+02 -0.11399725744E+03 -0.22936605275E+03  0.26569290440E+03  0.00000000000E+00 0.  1.
          1    1    1    2  501    0 -0.96026108397E+02  0.82286442151E+02 -0.59623243060E+01  0.12660024236E+03  0.00000000000E+00 0. -1.
<scales pt_clust_5="13000.00000" pt_clust_6="13000.00000" pt_clust_7="13000.00000" pt_clust_8="13000.00000" pt_clust_9="13000.00000"></scales>
<clustering>
<clus scale="   63.717">  7  8 -1 -1</clus>
<clus scale="   91.161">  5  6 -1 -1</clus>
<clus scale="  119.860">  2  5  1 -1</clus>
<clus scale="  137.801">  7  9 -1 -1</clus>
<clus scale="  375.166">  1  5  2 -1</clus>
</clustering>
</event>
<event>
 9    1  0.3303741E-006  0.2788981E+03  0.7546771E-02  0.1137270E+00
         -2   -1    0    0    0  501 -0.00000000000E+00  0.00000000000E+00  0.78590854210E+02  0.78590854210E+02  0.00000000000E+00 0.  1.
         21   -1    0    0  501  502  0.00000000000E+00 -0.00000000000E+00 -0.55835402314E+03  0.55835402314E+03  0.00000000000E+00 0.  1.
         23    2    1    2    0    0  0.90907130813E+01 -0.43284905420E+02 -0.23488686506E+02  0.10218271579E+03  0.89069438702E+02 0.  0.
         23    2    1    2    0    0  0.68581206946E+02 -0.74098818273E+02 -0.18672098190E+03  0.23067178784E+03  0.90281403432E+02 0.  0.
        -11    1    3    3    0    0  0.17696116489E+02  0.23172784937E+02 -0.19449188379E+02  0.35048558160E+02  0.00000000000E+00 0. -1.
         11    1    3    3    0    0 -0.86054034074E+01 -0.66457690357E+02 -0.40394981272E+01  0.67134157628E+02  0.00000000000E+00 0.  1.
        -13    1    4    4    0    0 -0.13037026940E+02 -0.40211715731E+02 -0.34101675927E+02  0.54312709880E+02  0.00000000000E+00 0. -1.
         13    1    4    4    0    0  0.81618233886E+02 -0.33887102541E+02 -0.15261930598E+03  0.17635907796E+03  0.00000000000E+00 0.  1.
         -2    1    1    2    0  502 -0.77671920028E+02  0.11738372369E+03 -0.26955350052E+03  0.30409037372E+03  0.00000000000E+00 0.  1.
<scales pt_clust_5="13000.00000" pt_clust_6="13000.00000" pt_clust_7="13000.00000" pt_clust_8="13000.00000" pt_clust_9="13000.00000"></scales>
<clustering>
<clus scale="   89.069">  5  6 -1 -1</clus>
<clus scale="   90.281">  7  8 -1 -1</clus>
<clus scale="   99.446">  1  5  2 -1</clus>
<clus scale="  122.873">  7  9 -1 -1</clus>
<clus scale="  278.898">  2  5  1 -1</clus>
</clustering>
</event>
<event>
 9    1  0.3303741E-006  0.3437995E+03  0.7546771E-02  0.1110571E+00
          1   -1    0    0  502    0 -0.00000000000E+00  0.00000000000E+00  0.45218341922E+03  0.45218341922E+03  0.00000000000E+00 0. -1.
         21   -1    0    0  501  502  0.00000000000E+00 -0.00000000000E+00 -0.12333571630E+03  0.12333571630E+03  0.00000000000E+00 0. -1.
         23    2    1    2    0    0 -0.38044922108E+02 -0.30325710501E+02  0.16534694991E+03  0.19482159289E+03  0.90822763641E+02 0.  0.
         23    2    1    2    0    0 -0.29011515708E+02  0.13093651818E+03  0.19773591515E+03  0.25503471279E+03  0.89202986198E+02 0.  0.
        -11    1    4    4    0    0  0.87128584258E+01  0.12057049466E+03  0.16131693728E+03  0.20158450421E+03  0.00000000000E+00 0. -1.
         11    1    4    4    0    0 -0.37724374134E+02  0.10366023525E+02  0.36418977875E+02  0.53450208578E+02  0.00000000000E+00 0.  1.
        -11    1    3    3    0    0 -0.56155292763E+02 -0.15297499303E+01  0.14422690862E+03  0.15478100080E+03  0.00000000000E+00 0.  1.
         11    1    3    3    0    0  0.18110370655E+02 -0.28795960571E+02  0.21120041296E+02  0.40040592088E+02  0.00000000000E+00 0. -1.
          1    1    1    2  501    0  0.67056437816E+02 -0.10061080768E+03 -0.34235162146E+02  0.12566282984E+03  0.00000000000E+00 0. -1.
<scales pt_clust_5="13000.00000" pt_clust_6="13000.00000" pt_clust_7="13000.00000" pt_clust_8="13000.00000" pt_clust_9="13000.00000"></scales>
<clustering>
<clus scale="   89.203">  5  6 -1 -1</clus>
<clus scale="   90.823">  7  8 -1 -1</clus>
<clus scale="  103.033">  1  7  2 -1</clus>
<clus scale="  121.877">  5  9 -1 -1</clus>
<clus scale="  343.800">  2  5  1 -1</clus>
</clustering>
</event>
<event>
 9    1  0.3303741E-006  0.4011650E+03  0.7546771E-02  0.1055125E+00
          1   -1    0    0  502    0 -0.00000000000E+00  0.00000000000E+00  0.13547870605E+04  0.13547870605E+04  0.00000000000E+00 0. -1.
         21   -1    0    0  501  502  0.00000000000E+00 -0.00000000000E+00 -0.16603620532E+03  0.16603620532E+03  0.00000000000E+00 0.  1.
         23    2    1    2    0    0  0.21917807874E+03 -0.16030646803E+03  0.22669679055E+02  0.28766526131E+03  0.92196498413E+02 0.  0.
         23    2    1    2    0    0 -0.27320540529E+03  0.95863575716E+02  0.10256014234E+04  0.10694314053E+04  0.89410470361E+02 0.  0.
        -11    1    4    4    0    0 -0.33447311425E+02  0.34606914841E+02  0.27244832980E+03  0.27666668322E+03  0.00000000000E+00 0.  1.
         11    1    4    4    0    0 -0.23975809387E+03  0.61256660875E+02  0.75315309363E+03  0.79276472205E+03  0.00000000000E+00 0. -1.
        -13    1    3    3    0    0  0.20228440644E+03 -0.10307882155E+03  0.15405087025E+02  0.22755557837E+03  0.00000000000E+00 0.  1.
         13    1    3    3    0    0  0.16893672307E+02 -0.57227646480E+02  0.72645920308E+01  0.60109682939E+02  0.00000000000E+00 0. -1.
          1    1    1    2  501    0  0.54027326550E+02  0.64442892315E+02  0.14047975271E+03  0.16372659926E+03  0.00000000000E+00 0. -1.
<scales pt_clust_5="13000.00000" pt_clust_6="13000.00000" pt_clust_7="13000.00000" pt_clust_8="13000.00000" pt_clust_9="13000.00000"></scales>
<clustering>
<clus scale="   89.410">  5  6 -1 -1</clus>
<clus scale="   84.094">  5  9 -1 -1</clus>
<clus scale="   92.196">  7  8 -1 -1</clus>
<clus scale="  286.771">  1  7  2 -1</clus>
<clus scale="  401.165">  2  5  1 -1</clus>
</clustering>
</event>
<event>
 9    1  0.3303741E-006  0.3647787E+03  0.7546771E-02  0.1106054E+00
         21   -1    0    0  501  502  0.00000000000E+00  0.00000000000E+00  0.21633793502E+03  0.21633793502E+03  0.00000000000E+00 0. -1.
          1   -1    0    0  502    0 -0.00000000000E+00 -0.00000000000E+00 -0.24621981741E+03  0.24621981741E+03  0.00000000000E+00 0. -1.
         23    2    1    2    0    0 -0.29558982696E+02 -0.56767383327E+01 -0.64617135648E+01  0.97028021119E+02  0.92014804917E+02 0.  0.
         23    2    1    2    0    0 -0.84781678121E+01 -0.48895969122E+01 -0.18157726853E+03  0.20252009832E+03  0.89153229257E+02 0.  0.
        -13    1    3    3    0    0 -0.35174603167E+02  0.32709553724E+02  0.17852672632E+02  0.51243395017E+02  0.00000000000E+00 0.  1.
         13    1    3    3    0    0  0.56156204710E+01 -0.38386292057E+02 -0.24314386197E+02  0.45784626102E+02  0.00000000000E+00 0. -1.
        -13    1    4    4    0    0  0.32404525500E+02 -0.27167370977E+02 -0.10034922744E+03  0.10889484270E+03  0.00000000000E+00 0. -1.
         13    1    4    4    0    0 -0.40882693312E+02  0.22277774064E+02 -0.81228041095E+02  0.93625255620E+02  0.00000000000E+00 0.  1.
          1    1    1    2  501    0  0.38037150509E+02  0.10566335245E+02  0.15815709971E+03  0.16300963299E+03  0.00000000000E+00 0. -1.
<scales pt_clust_5="13000.00000" pt_clust_6="13000.00000" pt_clust_7="13000.00000" pt_clust_8="13000.00000" pt_clust_9="13000.00000"></scales>
<clustering>
<clus scale="   89.153">  7  8 -1 -1</clus>
<clus scale="   39.478">  7  9 -1 -1</clus>
<clus scale="   92.015">  5  6 -1 -1</clus>
<clus scale="   96.813">  2  5  1 -1</clus>
<clus scale="  364.779">  1  5  2 -1</clus>
</clustering>
</event>
<event>
 9    1  0.3303741E-006  0.1960070E+03  0.7546771E-02  0.1176905E+00
          1   -1    0    0  502    0 -0.00000000000E+00  0.00000000000E+00  0.52378011365E+02  0.52378011365E+02  0.00000000000E+00 0. -1.
         21   -1    0    0  501  502  0.00000000000E+00 -0.00000000000E+00 -0.56896064098E+03  0.56896064098E+03  0.00000000000E+00 0.  1.
         23    2    1    2    0    0  0.57695214542E+02 -0.41072660127E+02 -0.68843288205E+02  0.13257566727E+03  0.88437593992E+02 0.  0.
         23    2    1    2    0    0  0.12622982602E+02  0.74264207731E+02 -0.28670326463E+03  0.30993640510E+03  0.90483705788E+02 0.  0.
        -13    1    3    3    0    0  0.75298751866E+02 -0.16000826302E+02 -0.28874690670E+02  0.82217250236E+02  0.00000000000E+00 0.  1.
         13    1    3    3    0    0 -0.17603537324E+02 -0.25071833825E+02 -0.39968597535E+02  0.50358417038E+02  0.00000000000E+00 0. -1.
        -13    1    4    4    0    0  0.23400187082E+02 -0.86373302815E+01 -0.12956476851E+03  0.13194393305E+03  0.00000000000E+00 0. -1.
         13    1    4    4    0    0 -0.10777204480E+02  0.82901538012E+02 -0.15713849613E+03  0.17799247205E+03  0.00000000000E+00 0.  1.
          1    1    1    2  501    0 -0.70318197145E+02 -0.33191547604E+02 -0.16103607678E+03  0.17882657997E+03  0.00000000000E+00 0. -1.
<scales pt_clust_5="13000.00000" pt_clust_6="13000.00000" pt_clust_7="13000.00000" pt_clust_8="13000.00000" pt_clust_9="13000.00000"></scales>
<clustering>
<clus scale="   88.438">  5  6 -1 -1</clus>
<clus scale="   90.484">  7  8 -1 -1</clus>
<clus scale="   77.758">  7  9 -1 -1</clus>
<clus scale="  113.300">  1  5  2 -1</clus>
<clus scale="  196.007">  2  5  1 -1</clus>
</clustering>
</event>
<event>
 9    1  0.3303741E-006  0.3695564E+03  0.7546771E-02  0.1107302E+00
         21   -1    0    0  501  502  0.00000000000E+00  0.00000000000E+00  0.16368909762E+03  0.16368909762E+03  0.00000000000E+00 0.  1.
          1   -1    0    0  502    0 -0.00000000000E+00 -0.00000000000E+00 -0.47106722269E+03  0.47106722269E+03  0.00000000000E+00 0. -1.
         23    2    1    2    0    0  0.41824320375E+01  0.53565496218E+01 -0.24357727444E+03  0.25973300604E+03  0.89917520233E+02 0.  0.
         23    2    1    2    0    0  0.86535357126E+02 -0.48260883243E+02  0.10904255849E+03  0.17516000299E+03  0.94727325529E+02 0.  0.
        -13    1    4    4    0    0  0.35493875662E+02  0.27790081113E+02  0.29716744416E+02  0.53992487593E+02  0.00000000000E+00 0. -1.
         13    1    4    4    0    0  0.51041481464E+02 -0.76050964356E+02  0.79325814078E+02  0.12116751540E+03  0.00000000000E+00 0.  1.
        -13    1    3    3    0    0  0.26039717391E+02 -0.27954400724E+02 -0.18491507040E+03  0.18882028138E+03  0.00000000000E+00 0.  1.
         13    1    3    3    0    0 -0.21857285353E+02  0.33310950346E+02 -0.58662204038E+02  0.70912724659E+02  0.00000000000E+00 0. -1.
          1    1    1    2  501    0 -0.90717789163E+02  0.42904333621E+02 -0.17284340913E+03  0.19986331127E+03  0.00000000000E+00 0. -1.
<scales pt_clust_5="13000.00000" pt_clust_6="13000.00000" pt_clust_7="13000.00000" pt_clust_8="13000.00000" pt_clust_9="13000.00000"></scales>
<clustering>
<clus scale="   89.918">  7  8 -1 -1</clus>
<clus scale="   90.174">  2  7  1 -1</clus>
<clus scale="   94.727">  5  6 -1 -1</clus>
<clus scale="   99.246">  5  9 -1 -1</clus>
<clus scale="  369.556">  1  5  2 -1</clus>
</clustering>
</event>
<event>
 9    1  0.3303741E-006  0.1701858E+03  0.7546771E-02  0.1193686E+00
          2   -1    0    0  502    0 -0.00000000000E+00  0.00000000000E+00  0.12849876793E+03  0.12849876793E+03  0.00000000000E+00 0. -1.
         21   -1    0    0  501  502  0.00000000000E+00 -0.00000000000E+00 -0.27276575273E+03  0.27276575273E+03  0.00000000000E+00 0.  1.
         23    2    1    2    0    0  0.58956077157E+02 -0.49508051678E+02  0.61654828133E+02  0.13411849606E+03  0.90882269662E+02 0.  0.
         23    2    1    2    0    0 -0.51616324202E+02  0.64231276251E-01 -0.78896337309E+02  0.13063948699E+03  0.90431158744E+02 0.  0.
        -11    1    3    3    0    0  0.15307496233E+02  0.26203313125E+02  0.25128006770E+02  0.39399870354E+02  0.00000000000E+00 0.  1.
         11    1    3    3    0    0  0.43648580924E+02 -0.75711364804E+02  0.36526821363E+02  0.94718625708E+02  0.00000000000E+00 0. -1.
        -13    1    4    4    0    0  0.22298160314E+02 -0.46036203385E+01 -0.47466694341E+00  0.22773374416E+02  0.00000000000E+00 0. -1.
         13    1    4    4    0    0 -0.73914484516E+02  0.46678516147E+01 -0.78421670365E+02  0.10786611258E+03  0.00000000000E+00 0.  1.
          2    1    1    2  501    0 -0.73397529553E+01  0.49443820402E+02 -0.12702547563E+03  0.13650653760E+03  0.00000000000E+00 0. -1.
<scales pt_clust_5="13000.00000" pt_clust_6="13000.00000" pt_clust_7="13000.00000" pt_clust_8="13000.00000" pt_clust_9="13000.00000"></scales>
<clustering>
<clus scale="   90.431">  7  8 -1 -1</clus>
<clus scale="   49.986">  7  9 -1 -1</clus>
<clus scale="   90.882">  5  6 -1 -1</clus>
<clus scale="  119.107">  1  5  2 -1</clus>
<clus scale="  170.186">  2  5  1 -1</clus>
</clustering>
</event>
<event>
 9    1  0.3303741E-006  0.4687991E+03  0.7546771E-02  0.1050984E+00
          1   -1    0    0  502    0 -0.00000000000E+00  0.00000000000E+00  0.15574872322E+03  0.15574872322E+03  0.00000000000E+00 0. -1.
         21   -1    0    0  501  502  0.00000000000E+00 -0.00000000000E+00 -0.72471175249E+03  0.72471175249E+03  0.00000000000E+00 0. -1.
         23    2    1    2    0    0  0.17991313944E+03 -0.27510071376E+02 -0.14927812994E+03  0.25124827570E+03  0.87841870384E+02 0.  0.
         23    2    1    2    0    0 -0.31102343900E+03  0.63525337934E+02 -0.32214050779E+03  0.46187446249E+03  0.93714802370E+02 0.  0.
        -11    1    4    4    0    0 -0.22917891023E+02  0.29581295443E+02 -0.17854586239E+02  0.41461657213E+02  0.00000000000E+00 0.  1.
         11    1    4    4    0    0 -0.28810554797E+03  0.33944042491E+02 -0.30428592155E+03  0.42041280528E+03  0.00000000000E+00 0. -1.
        -13    1    3    3    0    0  0.55053317925E+02 -0.49706262138E+02 -0.67958665036E+02  0.10059801421E+03  0.00000000000E+00 0. -1.
         13    1    3    3    0    0  0.12485982151E+03  0.22196190762E+02 -0.81319464906E+02  0.15065026148E+03  0.00000000000E+00 0.  1.
          1    1    1    2  501    0  0.13111029956E+03 -0.36015266558E+02 -0.97544391538E+02  0.16733773751E+03  0.00000000000E+00 0. -1.
<scales pt_clust_5="13000.00000" pt_clust_6="13000.00000" pt_clust_7="13000.00000" pt_clust_8="13000.00000" pt_clust_9="13000.00000"></scales>
<clustering>
<clus scale="   87.842">  7  8 -1 -1</clus>
<clus scale="   93.715">  5  6 -1 -1</clus>
<clus scale="  135.967">  5  9 -1 -1</clus>
<clus scale="  202.093">  1  7  2 -1</clus>
<clus scale="  468.799">  2  5  1 -1</clus>
</clustering>
</event>
<event>
 9    1  0.3303741E-006  0.4348199E+03  0.7546771E-02  0.1051128E+00
         21   -1    0    0  501  502  0.00000000000E+00  0.00000000000E+00  0.12776852474E+04  0.12776852474E+04  0.00000000000E+00 0.  1.
          2   -1    0    0  502    0 -0.00000000000E+00 -0.00000000000E+00 -0.92421672778E+02  0.92421672778E+02  0.00000000000E+00 0. -1.
         23    2    1    2    0    0  0.92015599742E+02 -0.21664858825E+03  0.45195499799E+03  0.51757552467E+03  0.90651101161E+02 0.  0.
         23    2    1    2    0    0 -0.82116477080E+02  0.30629356038E+03  0.65361731885E+03  0.73217812293E+03  0.91161084065E+02 0.  0.
        -11    1    3    3    0    0 -0.56092995876E+01 -0.87984012723E+02  0.19612357474E+03  0.21502815468E+03  0.00000000000E+00 0.  1.
         11    1    3    3    0    0  0.97624899330E+02 -0.12866457553E+03  0.25583142325E+03  0.30254736999E+03  0.00000000000E+00 0. -1.
        -11    1    4    4    0    0 -0.24903551838E+02  0.24119252968E+03  0.45815524446E+03  0.51836304970E+03  0.00000000000E+00 0.  1.
         11    1    4    4    0    0 -0.57212925242E+02  0.65101030706E+02  0.19546207439E+03  0.21381507323E+03  0.00000000000E+00 0. -1.
          2    1    1    2  501    0 -0.98991226620E+01 -0.89644972130E+02  0.79691257818E+02  0.12035327262E+03  0.00000000000E+00 0. -1.
<scales pt_clust_5="13000.00000" pt_clust_6="13000.00000" pt_clust_7="13000.00000" pt_clust_8="13000.00000" pt_clust_9="13000.00000"></scales>
<clustering>
<clus scale="   90.651">  5  6 -1 -1</clus>
<clus scale="   91.161">  7  8 -1 -1</clus>
<clus scale="   90.190">  7  9 -1 -1</clus>
<clus scale="  252.232">  2  5  1 -1</clus>
<clus scale="  434.820">  1  5  2 -1</clus>
</clustering>
</event>
<event>
 9    1  0.3303741E-006  0.1570233E+03  0.7546771E-02  0.1213428E+00
          2   -1    0    0  502    0 -0.00000000000E+00  0.00000000000E+00  0.15447021746E+03  0.15447021746E+03  0.00000000000E+00 0. -1.
         21   -1    0    0  501  502  0.00000000000E+00 -0.00000000000E+00 -0.11225872431E+03  0.11225872431E+03  0.00000000000E+00 0. -1.
         23    2    1    2    0    0  0.36291493610E+02 -0.21670189362E+02  0.47058985836E+02  0.10963078634E+03  0.89541563252E+02 0.  0.
         23    2    1    2    0    0  0.37318482834E+01  0.14635325533E+02  0.35958400675E+02  0.99509283774E+02  0.91547646245E+02 0.  0.
        -13    1    4    4    0    0  0.23550954547E+02  0.41643701251E+02 -0.32334952749E+01  0.47951025074E+02  0.00000000000E+00 0.  1.
         13    1    4    4    0    0 -0.19819106264E+02 -0.27008375718E+02  0.39191895950E+02  0.51558258700E+02  0.00000000000E+00 0. -1.
        -13    1    3    3    0    0  0.23190355174E+02  0.28694269395E+02  0.44112210667E+02  0.57506876103E+02  0.00000000000E+00 0.  1.
         13    1    3    3    0    0  0.13101138436E+02 -0.50364458757E+02  0.29467751696E+01  0.52123910235E+02  0.00000000000E+00 0. -1.
          2    1    1    2  501    0 -0.40023341894E+02  0.70348638291E+01 -0.40805893361E+02  0.57588871654E+02  0.00000000000E+00 0. -1.
<scales pt_clust_5="13000.00000" pt_clust_6="13000.00000" pt_clust_7="13000.00000" pt_clust_8="13000.00000" pt_clust_9="13000.00000"></scales>
<clustering>
<clus scale="   89.542">  7  8 -1 -1</clus>
<clus scale="   91.548">  5  6 -1 -1</clus>
<clus scale="   40.637">  5  9 -1 -1</clus>
<clus scale="   99.017">  1  7  2 -1</clus>
<clus scale="  157.023">  2  5  1 -1</clus>
</clustering>
</event>
<event>
 9    1  0.3303741E-006  0.2371633E+03  0.7546771E-02  0.1137284E+00
          1   -1    0    0  502    0 -0.00000000000E+00  0.00000000000E+00  0.13418344428E+04  0.13418344428E+04  0.00000000000E+00 0. -1.
         21   -1    0    0  501  502  0.00000000000E+00 -0.00000000000E+00 -0.36570949972E+02  0.36570949972E+02  0.00000000000E+00 0.  1.
         23    2    1    2    0    0 -0.12229562938E+03  0.52272563449E+02  0.84824370164E+03  0.86351362183E+03  0.91922553604E+02 0.  0.
         23    2    1    2    0    0 -0.73751695924E+01 -0.34362921794E+02  0.27632815007E+03  0.29176682715E+03  0.86806862561E+02 0.  0.
        -13    1    4    4    0    0 -0.22895452060E+02 -0.58810792464E+02  0.16282575375E+03  0.17462856903E+03  0.00000000000E+00 0. -1.
         13    1    4    4    0    0  0.15520282468E+02  0.24447870670E+02  0.11350239631E+03  0.11713825812E+03  0.00000000000E+00 0.  1.
        -13    1    3    3    0    0 -0.85501022110E+02 -0.13017332418E+02  0.43073319098E+03  0.43933012364E+03  0.00000000000E+00 0. -1.
         13    1    3    3    0    0 -0.36794607266E+02  0.65289895867E+02  0.41751051066E+03  0.42418349819E+03  0.00000000000E+00 0.  1.
          1    1    1    2  501    0  0.12967079897E+03 -0.17909641655E+02  0.18069164113E+03  0.22312494380E+03  0.00000000000E+00 0. -1.
<scales pt_clust_5="13000.00000" pt_clust_6="13000.00000" pt_clust_7="13000.00000" pt_clust_8="13000.00000" pt_clust_9="13000.00000"></scales>
<clustering>
<clus scale="   86.807">  5  6 -1 -1</clus>
<clus scale="   91.923">  7  8 -1 -1</clus>
<clus scale="  130.902">  5  9 -1 -1</clus>
<clus scale="  161.674">  1  7  2 -1</clus>
<clus scale="  237.163">  2  5  1 -1</clus>
</clustering>
</event>
<event>
 9    1  0.3303741E-006  0.4947579E+03  0.7546771E-02  0.1040413E+00
         21   -1    0    0  501  502  0.00000000000E+00  0.00000000000E+00  0.24627248125E+03  0.24627248125E+03  0.00000000000E+00 0.  1.
         -3   -1    0    0    0  501 -0.00000000000E+00 -0.00000000000E+00 -0.55337802570E+03  0.55337802570E+03  0.00000000000E+00 0.  1.
         23    2    1    2    0    0  0.19754208232E+03  0.85789666517E+02 -0.16282546370E+03  0.28428454399E+03  0.89010275552E+02 0.  0.
         23    2    1    2    0    0  0.10640589702E+03  0.39584055179E+01 -0.13826256878E+03  0.19838757091E+03  0.94356804058E+02 0.  0.
        -11    1    4    4    0    0  0.88674148509E+02 -0.38123963137E+02 -0.97000701332E+02  0.13684179639E+03  0.00000000000E+00 0.  1.
         11    1    4    4    0    0  0.17731748513E+02  0.42082368655E+02 -0.41261867447E+02  0.61545774527E+02  0.00000000000E+00 0. -1.
        -11    1    3    3    0    0  0.15080604219E+03  0.83762938502E+02 -0.82245393704E+02  0.19110990820E+03  0.00000000000E+00 0.  1.
         11    1    3    3    0    0  0.46736040127E+02  0.20267280157E+01 -0.80580069996E+02  0.93174635785E+02  0.00000000000E+00 0. -1.
         -3    1    1    2    0  502 -0.30394797934E+03 -0.89748072035E+02 -0.60175119735E+01  0.31697839206E+03  0.00000000000E+00 0.  1.
<scales pt_clust_5="13000.00000" pt_clust_6="13000.00000" pt_clust_7="13000.00000" pt_clust_8="13000.00000" pt_clust_9="13000.00000"></scales>
<clustering>
<clus scale="   89.010">  7  8 -1 -1</clus>
<clus scale="   94.357">  5  6 -1 -1</clus>
<clus scale="  233.036">  2  7  1 -1</clus>
<clus scale="  212.650">  5  9 -1 -1</clus>
<clus scale="  494.758">  1  5  2 -1</clus>
</clustering>
</event>
<event>
 9    1  0.3303741E-006  0.8697590E+03  0.7546771E-02  0.1006756E+00
          1   -1    0    0  502    0 -0.00000000000E+00  0.00000000000E+00  0.21756354734E+03  0.21756354734E+03  0.00000000000E+00 0. -1.
         21   -1    0    0  501  502  0.00000000000E+00 -0.00000000000E+00 -0.11216403804E+04  0.11216403804E+04  0.00000000000E+00 0. -1.
         23    2    1    2    0    0 -0.71665375577E+02 -0.23863243005E+02 -0.98605047327E+02  0.15376496568E+03  0.90638451488E+02 0.  0.
         23    2    1    2    0    0  0.14094938007E+03 -0.37034313779E+03 -0.62690151438E+03  0.74716246741E+03  0.90694412822E+02 0.  0.
        -11    1    4    4    0    0  0.98203733687E+02 -0.18040739597E+03 -0.38766604300E+03  0.43872059756E+03  0.00000000000E+00 0. -1.
         11    1    4    4    0    0  0.42745646383E+02 -0.18993574182E+03 -0.23923547138E+03  0.30844186984E+03  0.00000000000E+00 0.  1.
        -11    1    3    3    0    0 -0.30839615030E+02 -0.50449219839E+02 -0.84336626573E+02  0.10299937970E+03  0.00000000000E+00 0. -1.
         11    1    3    3    0    0 -0.40825760547E+02  0.26585976834E+02 -0.14268420755E+02  0.50765585975E+02  0.00000000000E+00 0.  1.
          1    1    1    2  501    0 -0.69284004493E+02  0.39420638079E+03 -0.17857027131E+03  0.43827649461E+03  0.00000000000E+00 0. -1.
<scales pt_clust_5="13000.00000" pt_clust_6="13000.00000" pt_clust_7="13000.00000" pt_clust_8="13000.00000" pt_clust_9="13000.00000"></scales>
<clustering>
<clus scale="   90.638">  7  8 -1 -1</clus>
<clus scale="   90.694">  5  6 -1 -1</clus>
<clus scale="  117.986">  1  7  2 -1</clus>
<clus scale="  395.970">  5  9 -1 -1</clus>
<clus scale="  869.759">  2  5  1 -1</clus>
</clustering>
</event>
<event>
 9    1  0.3303741E-006  0.1257097E+03  0.7546771E-02  0.1246061E+00
         -3   -1    0    0    0  501 -0.00000000000E+00  0.00000000000E+00  0.14709314341E+03  0.14709314341E+03  0.00000000000E+00 0.  1.
         21   -1    0    0  501  502  0.00000000000E+00 -0.00000000000E+00 -0.87478859894E+02  0.87478859894E+02  0.00000000000E+00 0. -1.
         23    2    1    2    0    0 -0.39606909203E+02  0.21545657819E+02  0.44596041868E+02  0.10796842058E+03  0.87381063536E+02 0.  0.
         23    2    1    2    0    0  0.39706728530E+02  0.31358522918E+01  0.18689150624E+02  0.10165037696E+03  0.91635456700E+02 0.  0.
        -13    1    4    4    0    0 -0.19898745866E+02 -0.26310800720E+02  0.10750058545E+02  0.34695562833E+02  0.00000000000E+00 0.  1.
         13    1    4    4    0    0  0.59605474396E+02  0.29446653012E+02  0.79390920788E+01  0.66954814126E+02  0.00000000000E+00 0. -1.
        -13    1    3    3    0    0  0.16895339842E+02  0.36088518009E+02  0.20901741693E+02  0.44996849292E+02  0.00000000000E+00 0. -1.
         13    1    3    3    0    0 -0.56502249045E+02 -0.14542860190E+02  0.23694300175E+02  0.62971571287E+02  0.00000000000E+00 0.  1.
         -3    1    1    2    0  502 -0.99819327671E-01 -0.24681510111E+02 -0.36709089760E+01  0.24953205765E+02  0.00000000000E+00 0.  1.
<scales pt_clust_5="13000.00000" pt_clust_6="13000.00000" pt_clust_7="13000.00000" pt_clust_8="13000.00000" pt_clust_9="13000.00000"></scales>
<clustering>
<clus scale="   87.381">  7  8 -1 -1</clus>
<clus scale="   91.635">  5  6 -1 -1</clus>
<clus scale="   24.682">  5  9 -1 -1</clus>
<clus scale="   98.328">  1  7  2 -1</clus>
<clus scale="  125.710">  2  5  1 -1</clus>
</clustering>
</event>
<event>
 9    1  0.3303741E-006  0.2247285E+03  0.7546771E-02  0.1164736E+00
          2   -1    0    0  502    0 -0.00000000000E+00  0.00000000000E+00  0.13759640784E+03  0.13759640784E+03  0.00000000000E+00 0. -1.
         21   -1    0    0  501  502  0.00000000000E+00 -0.00000000000E+00 -0.83544364473E+03  0.83544364473E+03  0.00000000000E+00 0. -1.
         23    2    1    2    0    0  0.36693238230E+02  0.15842455195E+02  0.10193722067E+03  0.14228251721E+03  0.90861106251E+02 0.  0.
         23    2    1    2    0    0  0.54202531431E+02  0.90371763375E+01 -0.24104869064E+03  0.26413006141E+03  0.92955005847E+02 0.  0.
        -11    1    3    3    0    0  0.56736652485E+02  0.30640149095E+02  0.97625200963E+02  0.11699806124E+03  0.00000000000E+00 0. -1.
         11    1    3    3    0    0 -0.20043414255E+02 -0.14797693900E+02  0.43120197022E+01  0.25284455969E+02  0.00000000000E+00 0.  1.
        -13    1    4    4    0    0 -0.96697328793E+01  0.31206497550E+02 -0.13065521195E+03  0.13467788843E+03  0.00000000000E+00 0.  1.
         13    1    4    4    0    0  0.63872264310E+02 -0.22169321213E+02 -0.11039347869E+03  0.12945217297E+03  0.00000000000E+00 0. -1.
          2    1    1    2  501    0 -0.90895769661E+02 -0.24879631532E+02 -0.55873576692E+03  0.56662747395E+03  0.00000000000E+00 0. -1.
<scales pt_clust_5="13000.00000" pt_clust_6="13000.00000" pt_clust_7="13000.00000" pt_clust_8="13000.00000" pt_clust_9="13000.00000"></scales>
<clustering>
<clus scale="   90.861">  5  6 -1 -1</clus>
<clus scale="   92.955">  7  8 -1 -1</clus>
<clus scale="   94.239">  7  9 -1 -1</clus>
<clus scale="   99.263">  1  5  2 -1</clus>
<clus scale="  224.729">  2  5  1 -1</clus>
</clustering>
</event>
<event>
 9    1  0.3303741E-006  0.1627490E+03  0.7546771E-02  0.1203377E+00
         21   -1    0    0  501  502  0.00000000000E+00  0.00000000000E+00  0.32990131080E+03  0.32990131080E+03  0.00000000000E+00 0.  1.
         -2   -1    0    0    0  501 -0.00000000000E+00 -0.00000000000E+00 -0.71602791599E+02  0.71602791599E+02  0.00000000000E+00 0.  1.
         23    2    1    2    0    0 -0.58196237337E+02 -0.16913877640E+02  0.18696955326E+02  0.11185577345E+03  0.92137161979E+02 0.  0.
         23    2    1    2    0    0  0.27605749887E+02 -0.91158799717E+01  0.77517098735E+02  0.12266120357E+03  0.90507975180E+02 0.  0.
        -13    1    3    3    0    0 -0.14422764089E+02  0.18216215736E+02  0.44408791734E+02  0.50119730875E+02  0.00000000000E+00 0. -1.
         13    1    3    3    0    0 -0.43773473248E+02 -0.35130093376E+02 -0.25711836408E+02  0.61736042570E+02  0.00000000000E+00 0.  1.
        -13    1    4    4    0    0 -0.18968091960E+02  0.19159554147E+02 -0.11304571241E+01  0.26984346592E+02  0.00000000000E+00 0. -1.
         13    1    4    4    0    0  0.46573841846E+02 -0.28275434119E+02  0.78647555860E+02  0.95676856980E+02  0.00000000000E+00 0.  1.
         -2    1    1    2    0  502  0.30590487450E+02  0.26029757612E+02  0.16208446514E+03  0.16698712538E+03  0.00000000000E+00 0.  1.
<scales pt_clust_5="13000.00000" pt_clust_6="13000.00000" pt_clust_7="13000.00000" pt_clust_8="13000.00000" pt_clust_9="13000.00000"></scales>
<clustering>
<clus scale="   90.508">  7  8 -1 -1</clus>
<clus scale="   40.166">  7  9 -1 -1</clus>
<clus scale="   92.137">  5  6 -1 -1</clus>
<clus scale="  110.282">  2  5  1 -1</clus>
<clus scale="  162.749">  1  5  2 -1</clus>
</clustering>
</event>
<event>
 9    1  0.3303741E-006  0.6330058E+03  0.7546771E-02  0.1043374E+00
          2   -1    0    0  502    0 -0.00000000000E+00  0.00000000000E+00  0.75673933725E+03  0.75673933725E+03  0.00000000000E+00 0. -1.
         21   -1    0    0  501  502  0.00000000000E+00 -0.00000000000E+00 -0.35270873229E+03  0.35270873229E+03  0.00000000000E+00 0. -1.
         23    2    1    2    0    0  0.26811528619E+02 -0.44158908087E+02  0.46260093509E+03  0.47373836134E+03  0.88088266147E+02 0.  0.
         23    2    1    2    0    0  0.20313426882E+03  0.17279012974E+03  0.13152438889E+03  0.31081424326E+03  0.90481317602E+02 0.  0.
        -11    1    3    3    0    0 -0.25899178950E+02 -0.42026208973E+02  0.22333412835E+03  0.22872494966E+03  0.00000000000E+00 0.  1.
         11    1    3    3    0    0  0.52710707569E+02 -0.21326991145E+01  0.23926680674E+03  0.24501341169E+03  0.00000000000E+00 0. -1.
        -11    1    4    4    0    0 -0.60090670941E+01  0.23087954706E+02  0.59065685314E+01  0.24577430534E+02  0.00000000000E+00 0.  1.
         11    1    4    4    0    0  0.20914333591E+03  0.14970217503E+03  0.12561782036E+03  0.28623681272E+03  0.00000000000E+00 0. -1.
          2    1    1    2  501    0 -0.22994579744E+03 -0.12863122165E+03 -0.19009471902E+03  0.32489546495E+03  0.00000000000E+00 0. -1.
<scales pt_clust_5="13000.00000" pt_clust_6="13000.00000" pt_clust_7="13000.00000" pt_clust_8="13000.00000" pt_clust_9="13000.00000"></scales>
<clustering>
<clus scale="   88.088">  5  6 -1 -1</clus>
<clus scale="   90.481">  7  8 -1 -1</clus>
<clus scale="  102.120">  1  5  2 -1</clus>
<clus scale="  263.325">  7  9 -1 -1</clus>
<clus scale="  633.006">  2  5  1 -1</clus>
</clustering>
</event>
<event>
 9    1  0.3303741E-006  0.3340440E+03  0.7546771E-02  0.1085978E+00
         21   -1    0    0  501  502  0.00000000000E+00  0.00000000000E+00  0.61740195100E+02  0.61740195100E+02  0.00000000000E+00 0. -1.
          2   -1    0    0  502    0 -0.00000000000E+00 -0.00000000000E+00 -0.13838166622E+04  0.13838166622E+04  0.00000000000E+00 0. -1.
         23    2    1    2    0    0 -0.18865060704E+03  0.30343583590E+02 -0.78211876530E+03  0.81062399482E+03  0.94295881848E+02 0.  0.
         23    2    1    2    0    0  0.80936381178E+02  0.60813741635E+01 -0.50010057330E+03  0.51444334966E+03  0.89239541056E+02 0.  0.
        -11    1    3    3    0    0 -0.13348907625E+03  0.36685777993E+02 -0.68413600864E+03  0.69800233388E+03  0.00000000000E+00 0. -1.
         11    1    3    3    0    0 -0.55161530789E+02 -0.63421944029E+01 -0.97982756660E+02  0.11262166093E+03  0.00000000000E+00 0.  1.
        -13    1    4    4    0    0  0.23157090282E+02  0.43999875492E+02 -0.16680041446E+03  0.17405349217E+03  0.00000000000E+00 0. -1.
         13    1    4    4    0    0  0.57779290896E+02 -0.37918501328E+02 -0.33330015884E+03  0.34038985749E+03  0.00000000000E+00 0.  1.
          2    1    1    2  501    0  0.10771422587E+03 -0.36424957753E+02 -0.39857128459E+02  0.12048951278E+03  0.00000000000E+00 0. -1.
<scales pt_clust_5="13000.00000" pt_clust_6="13000.00000" pt_clust_7="13000.00000" pt_clust_8="13000.00000" pt_clust_9="13000.00000"></scales>
<clustering>
<clus scale="   89.240">  7  8 -1 -1</clus>
<clus scale="   94.296">  5  6 -1 -1</clus>
<clus scale="  113.706">  7  9 -1 -1</clus>
<clus scale="  213.076">  2  5  1 -1</clus>
<clus scale="  334.044">  1  5  2 -1</clus>
</clustering>
</event>
<event>
 9    1  0.3303741E-006  0.3010300E+03  0.7546771E-02  0.1101951E+00
         -1   -1    0    0    0  501 -0.00000000000E+00  0.00000000000E+00  0.17374278605E+03  0.17374278605E+03  0.00000000000E+00 0.  1.
         21   -1    0    0  501  502  0.00000000000E+00 -0.00000000000E+00 -0.35144207048E+03  0.35144207048E+03  0.00000000000E+00 0.  1.
         23    2    1    2    0    0  0.25153564364E+02  0.16676749309E+03 -0.47884545619E+02  0.19735723138E+03  0.90624767667E+02 0.  0.
         23    2    1    2    0    0 -0.12546414880E+03 -0.11041780344E+03 -0.88638737041E+02  0.20562711780E+03  0.80575070094E+02 0.  0.
        -11    1    3    3    0    0 -0.21179799992E+02  0.12427047459E+03 -0.16657527200E+02  0.12715820066E+03  0.00000000000E+00 0.  1.
         11    1    3    3    0    0  0.46333364356E+02  0.42497018503E+02 -0.31227018419E+02  0.70199030717E+02  0.00000000000E+00 0. -1.
        -11    1    4    4    0    0 -0.30155595211E+02  0.29791211830E+01  0.45207618788E+01  0.30637760583E+02  0.00000000000E+00 0. -1.
         11    1    4    4    0    0 -0.95308553592E+02 -0.11339692462E+03 -0.93159498919E+02  0.17498935722E+03  0.00000000000E+00 0.  1.
         -1    1    1    2    0  502  0.10031058444E+03 -0.56349689657E+02 -0.41176001763E+02  0.12220050735E+03  0.00000000000E+00 0.  1.
<scales pt_clust_5="13000.00000" pt_clust_6="13000.00000" pt_clust_7="13000.00000" pt_clust_8="13000.00000" pt_clust_9="13000.00000"></scales>
<clustering>
<clus scale="   80.575">  7  8 -1 -1</clus>
<clus scale="   90.625">  5  6 -1 -1</clus>
<clus scale="  115.054">  7  9 -1 -1</clus>
<clus scale="  191.460">  1  5  2 -1</clus>
<clus scale="  301.030">  2  5  1 -1</clus>
</clustering>
</event>
<event>
 9    1  0.3303741E-006  0.2954104E+03  0.7546771E-02  0.1098170E+00
         21   -1    0    0  501  502  0.00000000000E+00  0.00000000000E+00  0.10225892802E+04  0.10225892802E+04  0.00000000000E+00 0. -1.
         -2   -1    0    0    0  501 -0.00000000000E+00 -0.00000000000E+00 -0.91760522856E+02  0.91760522856E+02  0.00000000000E+00 0.  1.
         23    2    1    2    0    0  0.76354073584E+02  0.18880634455E+03  0.71330256583E+03  0.74749158909E+03  0.92007309751E+02 0.  0.
         23    2    1    2    0    0  0.33684496611E+02 -0.13608969449E+03  0.97740420613E+02  0.19587235774E+03  0.95696083754E+02 0.  0.
        -13    1    3    3    0    0  0.94899892518E+02  0.17711734151E+03  0.62492357817E+03  0.65643432331E+03  0.00000000000E+00 0. -1.
         13    1    3    3    0    0 -0.18545818934E+02  0.11689003032E+02  0.88378987664E+02  0.91057265786E+02  0.00000000000E+00 0.  1.
        -13    1    4    4    0    0 -0.39665814006E+01 -0.13120469735E+03  0.82000212117E+02  0.15477222348E+03  0.00000000000E+00 0.  1.
         13    1    4    4    0    0  0.37651078012E+02 -0.48849971455E+01  0.15740208495E+02  0.41100134258E+02  0.00000000000E+00 0. -1.
         -2    1    1    2    0  502 -0.11003857019E+03 -0.52716650052E+02  0.11978577095E+03  0.17098585627E+03  0.00000000000E+00 0.  1.
<scales pt_clust_5="13000.00000" pt_clust_6="13000.00000" pt_clust_7="13000.00000" pt_clust_8="13000.00000" pt_clust_9="13000.00000"></scales>
<clustering>
<clus scale="   92.007">  5  6 -1 -1</clus>
<clus scale="   95.696">  7  8 -1 -1</clus>
<clus scale="  122.015">  7  9 -1 -1</clus>
<clus scale="  223.480">  2  5  1 -1</clus>
<clus scale="  295.410">  1  5  2 -1</clus>
</clustering>
</event>
<event>
 9    1  0.3303741E-006  0.2363609E+03  0.7546771E-02  0.1152807E+00
         21   -1    0    0  501  502  0.00000000000E+00  0.00000000000E+00  0.27955680260E+02  0.27955680260E+02  0.00000000000E+00 0. -1.
          1   -1    0    0  502    0 -0.00000000000E+00 -0.00000000000E+00 -0.12011877493E+04  0.12011877493E+04  0.00000000000E+00 0. -1.
         23    2    1    2    0    0  0.18110406252E+02  0.58618648657E+02 -0.57444934507E+03  0.58539873008E+03  0.94527722608E+02 0.  0.
         23    2    1    2    0    0  0.12437631562E+02 -0.12833057363E+03 -0.35952325322E+03  0.39267094649E+03  0.91159595243E+02 0.  0.
        -11    1    3    3    0    0 -0.29354640077E+02 -0.80565569544E+01 -0.13453786575E+03  0.13793853822E+03  0.00000000000E+00 0. -1.
         11    1    3    3    0    0  0.47465046329E+02  0.66675205612E+02 -0.43991147931E+03  0.44746019186E+03  0.00000000000E+00 0.  1.
        -13    1    4    4    0    0  0.34940802113E+02 -0.16844874936E+02 -0.52623883031E+02  0.65374938081E+02  0.00000000000E+00 0.  1.
         13    1    4    4    0    0 -0.22503170550E+02 -0.11148569869E+03 -0.30689937019E+03  0.32729600841E+03  0.00000000000E+00 0. -1.
          1    1    1    2  501    0 -0.30548037814E+02  0.69711924971E+02 -0.23925947075E+03  0.25107375299E+03  0.00000000000E+00 0. -1.
<scales pt_clust_5="13000.00000" pt_clust_6="13000.00000" pt_clust_7="13000.00000" pt_clust_8="13000.00000" pt_clust_9="13000.00000"></scales>
<clustering>
<clus scale="   91.160">  7  8 -1 -1</clus>
<clus scale="   76.111">  7  9 -1 -1</clus>
<clus scale="   94.528">  5  6 -1 -1</clus>
<clus scale="  112.693">  2  5  1 -1</clus>
<clus scale="  236.361">  1  5  2 -1</clus>
</clustering>
</event>
<event>
 9    1  0.3303741E-006  0.4086432E+03  0.7546771E-02  0.1077596E+00
         21   -1    0    0  501  502  0.00000000000E+00  0.00000000000E+00  0.16346782267E+03  0.16346782267E+03  0.00000000000E+00 0. -1.
          1   -1    0    0  502    0 -0.00000000000E+00 -0.00000000000E+00 -0.48599829412E+03  0.48599829412E+03  0.00000000000E+00 0. -1.
         23    2    1    2    0    0 -0.14508633186E+02  0.11188711976E+03 -0.35306145371E+02  0.14997928514E+03  0.92293196202E+02 0.  0.
         23    2    1    2    0    0 -0.11896352640E+03 -0.10304239789E+03 -0.31346225444E+03  0.36317294617E+03  0.94159160427E+02 0.  0.
        -11    1    4    4    0    0 -0.47871231306E+02 -0.58778956408E+02 -0.24028792200E+03  0.25196211216E+03  0.00000000000E+00 0. -1.
         11    1    4    4    0    0 -0.71092295093E+02 -0.44263441479E+02 -0.73174332444E+02  0.11121083401E+03  0.00000000000E+00 0.  1.
        -13    1    3    3    0    0  0.16819512388E+02  0.11279292818E+03 -0.32116245370E+02  0.11847613203E+03  0.00000000000E+00 0. -1.
         13    1    3    3    0    0 -0.31328145574E+02 -0.90580841581E+00 -0.31899000008E+01  0.31503153112E+02  0.00000000000E+00 0.  1.
          1    1    1    2  501    0  0.13347215958E+03 -0.88447218779E+01  0.26237928370E+02  0.13631388548E+03  0.00000000000E+00 0. -1.
<scales pt_clust_5="13000.00000" pt_clust_6="13000.00000" pt_clust_7="13000.00000" pt_clust_8="13000.00000" pt_clust_9="13000.00000"></scales>
<clustering>
<clus scale="   92.293">  7  8 -1 -1</clus>
<clus scale="   94.159">  5  6 -1 -1</clus>
<clus scale="  133.765">  5  9 -1 -1</clus>
<clus scale="  145.764">  2  7  1 -1</clus>
<clus scale="  408.643">  1  5  2 -1</clus>
</clustering>
</event>
<event>
 9    1  0.3303741E-006  0.2524424E+03  0.7546771E-02  0.1114774E+00
          1   -1    0    0  502    0 -0.00000000000E+00  0.00000000000E+00  0.18050640500E+04  0.18050640500E+04  0.00000000000E+00 0. -1.
         21   -1    0    0  501  502  0.00000000000E+00 -0.00000000000E+00 -0.38671534873E+02  0.38671534873E+02  0.00000000000E+00 0.  1.
         23    2    1    2    0    0  0.14182691192E+03  0.16382804294E+03  0.12147578634E+04  0.12370825202E+04  0.88215612962E+02 0.  0.
         23    2    1    2    0    0 -0.10805682750E+03 -0.12761556903E+03  0.50012159157E+03  0.53520128213E+03  0.91415505279E+02 0.  0.
        -13    1    4    4    0    0 -0.86432522890E+02 -0.86706430505E+02  0.45262715896E+03  0.46889223829E+03  0.00000000000E+00 0. -1.
         13    1    4    4    0    0 -0.21624304612E+02 -0.40909138530E+02  0.47494432615E+02  0.66309043837E+02  0.00000000000E+00 0.  1.
        -13    1    3    3    0    0  0.42506885345E+02  0.11435876095E+03  0.57894633456E+03  0.59166174441E+03  0.00000000000E+00 0.  1.
         13    1    3    3    0    0  0.99320026574E+02  0.49469281985E+02  0.63581152888E+03  0.64542077577E+03  0.00000000000E+00 0. -1.
          1    1    1    2  501    0 -0.33770084418E+02 -0.36212473902E+02  0.51513060104E+02  0.71451782545E+02  0.00000000000E+00 0. -1.
<scales pt_clust_5="13000.00000" pt_clust_6="13000.00000" pt_clust_7="13000.00000" pt_clust_8="13000.00000" pt_clust_9="13000.00000"></scales>
<clustering>
<clus scale="   88.216">  7  8 -1 -1</clus>
<clus scale="   91.416">  5  6 -1 -1</clus>
<clus scale="   49.515">  5  9 -1 -1</clus>
<clus scale="  233.958">  1  7  2 -1</clus>
<clus scale="  252.442">  2  5  1 -1</clus>
</clustering>
</event>
<event>
 9    1  0.3303741E-006  0.5368677E+03  0.7546771E-02  0.1058221E+00
         21   -1    0    0  501  502  0.00000000000E+00  0.00000000000E+00  0.89033311787E+02  0.89033311787E+02  0.00000000000E+00 0.  1.
          2   -1    0    0  502    0 -0.00000000000E+00 -0.00000000000E+00 -0.13642598496E+04  0.13642598496E+04  0.00000000000E+00 0. -1.
         23    2    1    2    0    0 -0.26052110462E+02  0.54562174550E+02 -0.48973014523E+03  0.50185661978E+03  0.91480644508E+02 0.  0.
         23    2    1    2    0    0  0.30962311000E+02  0.23032150282E+03 -0.32451628134E+03  0.40950897942E+03  0.91543039062E+02 0.  0.
        -13    1    4    4    0    0  0.43118391880E+02  0.13241728133E+03 -0.24889099509E+03  0.28520213805E+03  0.00000000000E+00 0.  1.
         13    1    4    4    0    0 -0.12156080881E+02  0.97904221498E+02 -0.75625286255E+02  0.12430684137E+03  0.00000000000E+00 0. -1.
        -13    1    3    3    0    0 -0.34314321382E+02  0.76157842459E+02 -0.42473661166E+03  0.43287258969E+03  0.00000000000E+00 0.  1.
         13    1    3    3    0    0  0.82622109200E+01 -0.21595667909E+02 -0.64993533571E+02  0.68984030092E+02  0.00000000000E+00 0. -1.
          2    1    1    2  501    0 -0.49102005372E+01 -0.28488367737E+03 -0.46098011124E+03  0.54192756219E+03  0.00000000000E+00 0. -1.
<scales pt_clust_5="13000.00000" pt_clust_6="13000.00000" pt_clust_7="13000.00000" pt_clust_8="13000.00000" pt_clust_9="13000.00000"></scales>
<clustering>
<clus scale="   91.481">  7  8 -1 -1</clus>
<clus scale="   91.543">  5  6 -1 -1</clus>
<clus scale="  109.656">  2  7  1 -1</clus>
<clus scale="  254.164">  5  9 -1 -1</clus>
<clus scale="  536.868">  1  5  2 -1</clus>
</clustering>
</event>
<event>
 9    1  0.3303741E-006  0.5153610E+03  0.7546771E-02  0.1025327E+00
         21   -1    0    0  501  502  0.00000000000E+00  0.00000000000E+00  0.12813953311E+04  0.12813953311E+04  0.00000000000E+00 0. -1.
          3   -1    0    0  502    0 -0.00000000000E+00 -0.00000000000E+00 -0.17558692562E+03  0.17558692562E+03  0.00000000000E+00 0. -1.
         23    2    1    2    0    0  0.25303809590E+03  0.17528737851E+03  0.78882761008E+03  0.85194194162E+03  0.93819669719E+02 0.  0.
         23    2    1    2    0    0  0.72502848150E+02 -0.30844040913E+02 -0.23932832857E+02  0.11202623216E+03  0.75954449207E+02 0.  0.
        -13    1    4    4    0    0  0.99975170120E-01 -0.30451538028E+02 -0.25328912538E+02  0.39608837065E+02  0.00000000000E+00 0.  1.
         13    1    4    4    0    0  0.72402872980E+02 -0.39250288477E+00  0.13960796810E+01  0.72417395098E+02  0.00000000000E+00 0. -1.
        -13    1    3    3    0    0  0.23478049282E+03  0.14112849027E+03  0.60571727997E+03  0.66478007929E+03  0.00000000000E+00 0. -1.
         13    1    3    3    0    0  0.18257603084E+02  0.34158888233E+02  0.18311033011E+03  0.18716186233E+03  0.00000000000E+00 0.  1.
          3    1    1    2  501    0 -0.32554094405E+03 -0.14444333759E+03  0.34091362821E+03  0.49301408289E+03  0.00000000000E+00 0. -1.
<scales pt_clust_5="13000.00000" pt_clust_6="13000.00000" pt_clust_7="13000.00000" pt_clust_8="13000.00000" pt_clust_9="13000.00000"></scales>
<clustering>
<clus scale="   75.954">  5  6 -1 -1</clus>
<clus scale="   93.820">  7  8 -1 -1</clus>
<clus scale="  321.801">  2  7  1 -1</clus>
<clus scale="  198.823">  5  9 -1 -1</clus>
<clus scale="  515.361">  1  5  2 -1</clus>
</clustering>
</event>
<event>
 9    1  0.3303741E-006  0.2067369E+03  0.7546771E-02  0.1178681E+00
         21   -1    0    0  501  502  0.00000000000E+00  0.00000000000E+00  0.77920012808E+03  0.77920012808E+03  0.00000000000E+00 0. -1.
         -1   -1    0    0    0  501 -0.00000000000E+00 -0.00000000000E+00 -0.30739688884E+02  0.30739688884E+02  0.00000000000E+00 0.  1.
         23    2    1    2    0    0  0.17795914299E+02 -0.25951355286E+01  0.33596653536E+03  0.34853828024E+03  0.91005442789E+02 0.  0.
         23    2    1    2    0    0  0.99284344401E+01  0.77894905963E+02  0.23538915893E+03  0.26696700890E+03  0.98474044880E+02 0.  0.
        -11    1    4    4    0    0  0.47190492986E+02  0.33510942569E+02  0.17005445069E+03  0.17963418968E+03  0.00000000000E+00 0.  1.
         11    1    4    4    0    0 -0.37262058546E+02  0.44383963393E+02  0.65334708238E+02  0.87332819227E+02  0.00000000000E+00 0. -1.
        -13    1    3    3    0    0  0.22170050912E+02  0.37606664766E+02  0.24678633650E+03  0.25061777327E+03  0.00000000000E+00 0. -1.
         13    1    3    3    0    0 -0.43741366128E+01 -0.40201800295E+02  0.89180198858E+02  0.97920506975E+02  0.00000000000E+00 0.  1.
         -1    1    1    2    0  502 -0.27724348739E+02 -0.75299770434E+02  0.17710474491E+03  0.19443452782E+03  0.00000000000E+00 0.  1.
<scales pt_clust_5="13000.00000" pt_clust_6="13000.00000" pt_clust_7="13000.00000" pt_clust_8="13000.00000" pt_clust_9="13000.00000"></scales>
<clustering>
<clus scale="   91.005">  7  8 -1 -1</clus>
<clus scale="   92.765">  2  7  1 -1</clus>
<clus scale="   98.474">  5  6 -1 -1</clus>
<clus scale="   79.172">  5  9 -1 -1</clus>
<clus scale="  206.737">  1  5  2 -1</clus>
</clustering>
</event>
<event>
 9    1  0.3303741E-006  0.1405043E+03  0.7546771E-02  0.1229753E+00
         21   -1    0    0  501  502  0.00000000000E+00  0.00000000000E+00  0.12071473366E+03  0.12071473366E+03  0.00000000000E+00 0. -1.
          2   -1    0    0  502    0 -0.00000000000E+00 -0.00000000000E+00 -0.16024820739E+03  0.16024820739E+03  0.00000000000E+00 0. -1.
         23    2    1    2    0    0  0.11500288956E+02 -0.17394738451E+02 -0.88484554808E+02  0.13217558762E+03  0.95948089872E+02 0.  0.
         23    2    1    2    0    0 -0.14772928188E+02  0.52252550826E+02  0.35836717663E+02  0.11140067427E+03  0.90428266707E+02 0.  0.
        -11    1    3    3    0    0  0.47565771079E+02 -0.10644968909E+02 -0.81292813582E+02  0.94785755689E+02  0.00000000000E+00 0.  1.
         11    1    3    3    0    0 -0.36065482123E+02 -0.67497695422E+01 -0.71917412264E+01  0.37389831927E+02  0.00000000000E+00 0. -1.
        -11    1    4    4    0    0  0.26545968257E+02 -0.52275323211E+01  0.29958083496E+02  0.40367094169E+02  0.00000000000E+00 0.  1.
         11    1    4    4    0    0 -0.41318896446E+02  0.57480083147E+02  0.58786341669E+01  0.71033580100E+02  0.00000000000E+00 0. -1.
          2    1    1    2  501    0  0.32726392326E+01 -0.34857812375E+02  0.13114363414E+02  0.37386679163E+02  0.00000000000E+00 0. -1.
<scales pt_clust_5="13000.00000" pt_clust_6="13000.00000" pt_clust_7="13000.00000" pt_clust_8="13000.00000" pt_clust_9="13000.00000"></scales>
<clustering>
<clus scale="   90.428">  7  8 -1 -1</clus>
<clus scale="   35.011">  7  9 -1 -1</clus>
<clus scale="   95.948">  5  6 -1 -1</clus>
<clus scale="   98.188">  2  5  1 -1</clus>
<clus scale="  140.504">  1  5  2 -1</clus>
</clustering>
</event>
<event>
 9    1  0.3303741E-006  0.4151789E+03  0.7546771E-02  0.1081104E+00
         -4   -1    0    0    0  501 -0.00000000000E+00  0.00000000000E+00  0.19114347072E+03  0.19114347072E+03  0.00000000000E+00 0.  1.
         21   -1    0    0  501  502  0.00000000000E+00 -0.00000000000E+00 -0.38449261466E+03  0.38449261466E+03  0.00000000000E+00 0.  1.
         23    2    1    2    0    0 -0.63230816510E+02 -0.62999760023E+02 -0.34037345424E+02  0.13094091214E+03  0.89553758538E+02 0.  0.
         23    2    1    2    0    0 -0.10462439519E+03  0.29023302811E+02  0.70570196427E+02  0.15803247366E+03  0.90584181457E+02 0.  0.
        -11    1    4    4    0    0 -0.83204471917E+02 -0.15604410661E+02  0.19425877264E+02  0.86855319276E+02  0.00000000000E+00 0.  1.
         11    1    4    4    0    0 -0.21419923278E+02  0.44627713472E+02  0.51144319163E+02  0.71177154380E+02  0.00000000000E+00 0. -1.
        -13    1    3    3    0    0 -0.31726819575E+02 -0.80608718336E+02 -0.91690334500E+01  0.87111582046E+02  0.00000000000E+00 0.  1.
         13    1    3    3    0    0 -0.31503996935E+02  0.17608958313E+02 -0.24868311974E+02  0.43829330091E+02  0.00000000000E+00 0. -1.
         -4    1    1    2    0  502  0.16785521170E+03  0.33976457212E+02 -0.22988199494E+03  0.28666269959E+03  0.00000000000E+00 0.  1.
<scales pt_clust_5="13000.00000" pt_clust_6="13000.00000" pt_clust_7="13000.00000" pt_clust_8="13000.00000" pt_clust_9="13000.00000"></scales>
<clustering>
<clus scale="   89.554">  7  8 -1 -1</clus>
<clus scale="   90.584">  5  6 -1 -1</clus>
<clus scale="  126.440">  1  7  2 -1</clus>
<clus scale="  156.748">  5  9 -1 -1</clus>
<clus scale="  415.179">  2  5  1 -1</clus>
</clustering>
</event>
<event>
 9    1  0.3303741E-006  0.4034712E+03  0.7546771E-02  0.1089080E+00
         -1   -1    0    0    0  501 -0.00000000000E+00  0.00000000000E+00  0.81065326910E+03  0.81065326910E+03  0.00000000000E+00 0.  1.
         21   -1    0    0  501  502  0.00000000000E+00 -0.00000000000E+00 -0.16175335428E+03  0.16175335428E+03  0.00000000000E+00 0. -1.
         23    2    1    2    0    0 -0.50413512115E+02  0.38446768681E+02  0.54433002660E+03  0.55560464118E+03  0.91551423879E+02 0.  0.
         23    2    1    2    0    0  0.20161119106E+03 -0.83916972160E+02  0.20479462526E+02  0.23791800523E+03  0.92176126262E+02 0.  0.
        -11    1    4    4    0    0  0.19980453909E+03 -0.54794855920E+02  0.11983493700E+02  0.20752815278E+03  0.00000000000E+00 0. -1.
         11    1    4    4    0    0  0.18066519665E+01 -0.29122116239E+02  0.84959688254E+01  0.30389852449E+02  0.00000000000E+00 0.  1.
        -13    1    3    3    0    0 -0.13294838229E+02  0.63977420639E+02  0.28543200753E+03  0.29281614368E+03  0.00000000000E+00 0.  1.
         13    1    3    3    0    0 -0.37118673886E+02 -0.25530651958E+02  0.25889801907E+03  0.26278849750E+03  0.00000000000E+00 0. -1.
         -1    1    1    2    0  502 -0.15119767894E+03  0.45470203479E+02  0.84090425692E+02  0.17888397697E+03  0.00000000000E+00 0.  1.
<scales pt_clust_5="13000.00000" pt_clust_6="13000.00000" pt_clust_7="13000.00000" pt_clust_8="13000.00000" pt_clust_9="13000.00000"></scales>
<clustering>
<clus scale="   91.551">  7  8 -1 -1</clus>
<clus scale="   92.176">  5  6 -1 -1</clus>
<clus scale="  111.361">  1  7  2 -1</clus>
<clus scale="  188.159">  5  9 -1 -1</clus>
<clus scale="  403.471">  2  5  1 -1</clus>
</clustering>
</event>
<event>
 9    1  0.3303741E-006  0.3006561E+03  0.7546771E-02  0.1105005E+00
         -1   -1    0    0    0  501 -0.00000000000E+00  0.00000000000E+00  0.49295920397E+02  0.49295920397E+02  0.00000000000E+00 0.  1.
         21   -1    0    0  501  502  0.00000000000E+00 -0.00000000000E+00 -0.13739962827E+04  0.13739962827E+04  0.00000000000E+00 0.  1.
         23    2    1    2    0    0 -0.47159820292E+02 -0.13943421756E+03 -0.79131326878E+03  0.81100478168E+03  0.99428953928E+02 0.  0.
         23    2    1    2    0    0 -0.24636757051E+02 -0.39948320385E+02 -0.14456085260E+03  0.17810003207E+03  0.92838263766E+02 0.  0.
        -11    1    3    3    0    0 -0.24471359318E+02 -0.13139624899E+03 -0.75918325805E+03  0.77085863878E+03  0.00000000000E+00 0.  1.
         11    1    3    3    0    0 -0.22688460974E+02 -0.80379685683E+01 -0.32130010727E+02  0.40146142896E+02  0.00000000000E+00 0. -1.
        -11    1    4    4    0    0 -0.85014207026E+01 -0.56724848702E+02 -0.14379285358E+03  0.15481074690E+03  0.00000000000E+00 0.  1.
         11    1    4    4    0    0 -0.16135336348E+02  0.16776528317E+02 -0.76799902305E+00  0.23289285174E+02  0.00000000000E+00 0. -1.
         -1    1    1    2    0  502  0.71796577343E+02  0.17938253794E+03 -0.38882624087E+03  0.43418738930E+03  0.00000000000E+00 0.  1.
<scales pt_clust_5="13000.00000" pt_clust_6="13000.00000" pt_clust_7="13000.00000" pt_clust_8="13000.00000" pt_clust_9="13000.00000"></scales>
<clustering>
<clus scale="   92.838">  7  8 -1 -1</clus>
<clus scale="   99.429">  5  6 -1 -1</clus>
<clus scale="  177.629">  1  5  2 -1</clus>
<clus scale="  108.817">  7  9 -1 -1</clus>
<clus scale="  300.656">  2  5  1 -1</clus>
</clustering>
</event>
<event>
 9    1  0.3303741E-006  0.5713278E+03  0.7546771E-02  0.1041907E+00
          2   -1    0    0  502    0 -0.00000000000E+00  0.00000000000E+00  0.40779167901E+03  0.40779167901E+03  0.00000000000E+00 0. -1.
         21   -1    0    0  501  502  0.00000000000E+00 -0.00000000000E+00 -0.35495073258E+03  0.35495073258E+03  0.00000000000E+00 0. -1.
         23    2    1    2    0    0 -0.43403428654E+02 -0.10385903854E+03 -0.94143549322E+02  0.17281031872E+03  0.91267961917E+02 0.  0.
         23    2    1    2    0    0  0.21395070027E+03  0.23946626719E+03  0.16256936687E+03  0.37148626314E+03  0.91946992257E+02 0.  0.
        -11    1    4    4    0    0  0.16693693646E+03  0.21118611253E+03  0.16642282368E+03  0.31648707892E+03  0.00000000000E+00 0. -1.
         11    1    4    4    0    0  0.47013763810E+02  0.28280154661E+02 -0.38534568098E+01  0.54999184218E+02  0.00000000000E+00 0.  1.
        -13    1    3    3    0    0 -0.55237288054E+02 -0.75731809829E+02 -0.10469173550E+03  0.14052339482E+03  0.00000000000E+00 0.  1.
         13    1    3    3    0    0  0.11833859401E+02 -0.28127228710E+02  0.10548186174E+02  0.32286923898E+02  0.00000000000E+00 0. -1.
          2    1    1    2  501    0 -0.17054727162E+03 -0.13560722865E+03 -0.15584871123E+02  0.21844582973E+03  0.00000000000E+00 0. -1.
<scales pt_clust_5="13000.00000" pt_clust_6="13000.00000" pt_clust_7="13000.00000" pt_clust_8="13000.00000" pt_clust_9="13000.00000"></scales>
<clustering>
<clus scale="   91.268">  7  8 -1 -1</clus>
<clus scale="   91.947">  5  6 -1 -1</clus>
<clus scale="  144.915">  1  7  2 -1</clus>
<clus scale="  245.491">  5  9 -1 -1</clus>
<clus scale="  571.328">  2  5  1 -1</clus>
</clustering>
</event>
<event>
 9    1  0.3303741E-006  0.1583143E+03  0.7546771E-02  0.1205913E+00
         -2   -1    0    0    0  501 -0.00000000000E+00  0.00000000000E+00  0.16474081603E+03  0.16474081603E+03  0.00000000000E+00 0.  1.
         21   -1    0    0  501  502  0.00000000000E+00 -0.00000000000E+00 -0.11297813939E+03  0.11297813939E+03  0.00000000000E+00 0. -1.
         23    2    1    2    0    0 -0.47738361358E+02 -0.53847505562E+02  0.33914538718E+02  0.11840174507E+03  0.87694197632E+02 0.  0.
         23    2    1    2    0    0  0.31638461664E+02  0.20359431535E+02  0.15474833464E+02  0.12208428882E+03  0.11510692593E+03 0.  0.
        -11    1    3    3    0    0 -0.68314008718E+02 -0.52657240532E+02  0.42402581759E+02  0.96112266165E+02  0.00000000000E+00 0. -1.
         11    1    3    3    0    0  0.20575647360E+02 -0.11902650296E+01 -0.84880430409E+01  0.22289478903E+02  0.00000000000E+00 0.  1.
        -13    1    4    4    0    0  0.55812979435E+02  0.54723962231E+02  0.17191514315E+02  0.80033423519E+02  0.00000000000E+00 0.  1.
         13    1    4    4    0    0 -0.24174517771E+02 -0.34364530696E+02 -0.17166808514E+01  0.42050865301E+02  0.00000000000E+00 0. -1.
         -2    1    1    2    0  502  0.16099899694E+02  0.33488074027E+02  0.23733044542E+01  0.37232921537E+02  0.00000000000E+00 0.  1.
<scales pt_clust_5="13000.00000" pt_clust_6="13000.00000" pt_clust_7="13000.00000" pt_clust_8="13000.00000" pt_clust_9="13000.00000"></scales>
<clustering>
<clus scale="   87.694">  5  6 -1 -1</clus>
<clus scale="  113.441">  1  5  2 -1</clus>
<clus scale="  115.107">  7  8 -1 -1</clus>
<clus scale="   22.126">  7  9 -1 -1</clus>
<clus scale="  158.314">  2  5  1 -1</clus>
</clustering>
</event>
<event>
 9    1  0.3303741E-006  0.3146847E+03  0.7546771E-02  0.1119148E+00
          3   -1    0    0  502    0 -0.00000000000E+00  0.00000000000E+00  0.78060713030E+03  0.78060713030E+03  0.00000000000E+00 0. -1.
         21   -1    0    0  501  502  0.00000000000E+00 -0.00000000000E+00 -0.57701428840E+02  0.57701428840E+02  0.00000000000E+00 0. -1.
         23    2    1    2    0    0  0.64733927998E+02  0.27057435377E+02  0.15473694366E+03  0.18881474935E+03  0.82370514129E+02 0.  0.
         23    2    1    2    0    0 -0.46687744391E+02 -0.45271558320E+02  0.59910200416E+03  0.60931564722E+03  0.90072676745E+02 0.  0.
        -11    1    3    3    0    0 -0.13272312922E+02  0.24205144868E+02  0.60119633853E+02  0.66154468504E+02  0.00000000000E+00 0.  1.
         11    1    3    3    0    0  0.78006240920E+02  0.28522905086E+01  0.94617309805E+02  0.12266028085E+03  0.00000000000E+00 0. -1.
        -11    1    4    4    0    0  0.18890679783E+02  0.13217182602E+02  0.13868746572E+03  0.14059077085E+03  0.00000000000E+00 0.  1.
         11    1    4    4    0    0 -0.65578424175E+02 -0.58488740922E+02  0.46041453843E+03  0.46872487637E+03  0.00000000000E+00 0. -1.
          3    1    1    2  501    0 -0.18046183607E+02  0.18214122944E+02 -0.30933246351E+02  0.40178162566E+02  0.00000000000E+00 0. -1.
<scales pt_clust_5="13000.00000" pt_clust_6="13000.00000" pt_clust_7="13000.00000" pt_clust_8="13000.00000" pt_clust_9="13000.00000"></scales>
<clustering>
<clus scale="   82.371">  5  6 -1 -1</clus>
<clus scale="   90.073">  7  8 -1 -1</clus>
<clus scale="   25.640">  7  9 -1 -1</clus>
<clus scale="  108.201">  1  5  2 -1</clus>
<clus scale="  314.685">  2  5  1 -1</clus>
</clustering>
</event>
<event>
 9    1  0.3303741E-006  0.4805099E+03  0.7546771E-02  0.1069187E+00
         21   -1    0    0  501  502  0.00000000000E+00  0.00000000000E+00  0.28735364262E+03  0.28735364262E+03  0.00000000000E+00 0.  1.
         -2   -1    0    0    0  501 -0.00000000000E+00 -0.00000000000E+00 -0.30626379198E+03  0.30626379198E+03  0.00000000000E+00 0.  1.
         23    2    1    2    0    0 -0.53266082235E+02 -0.44419704554E+02 -0.62127991767E+01  0.11293977507E+03  0.88917986088E+02 0.  0.
         23    2    1    2    0    0 -0.11753320352E+03 -0.10359410771E+03 -0.13299860183E+03  0.22464470113E+03  0.90723869918E+02 0.  0.
        -11    1    3    3    0    0 -0.31565767855E+02 -0.71331704400E+02 -0.12470087025E+01  0.78013875584E+02  0.00000000000E+00 0.  1.
         11    1    3    3    0    0 -0.21700314379E+02  0.26911999846E+02 -0.49657904742E+01  0.34925899486E+02  0.00000000000E+00 0. -1.
        -13    1    4    4    0    0 -0.38840089145E+02 -0.75384361768E+01 -0.80757463781E+02  0.89928574441E+02  0.00000000000E+00 0. -1.
         13    1    4    4    0    0 -0.78693114378E+02 -0.96055671537E+02 -0.52241138051E+02  0.13471612669E+03  0.00000000000E+00 0.  1.
         -2    1    1    2    0  502  0.17079928576E+03  0.14801381227E+03  0.12030125166E+03  0.25603295840E+03  0.00000000000E+00 0.  1.
<scales pt_clust_5="13000.00000" pt_clust_6="13000.00000" pt_clust_7="13000.00000" pt_clust_8="13000.00000" pt_clust_9="13000.00000"></scales>
<clustering>
<clus scale="   88.918">  5  6 -1 -1</clus>
<clus scale="   90.724">  7  8 -1 -1</clus>
<clus scale="  112.769">  2  5  1 -1</clus>
<clus scale="  206.933">  7  9 -1 -1</clus>
<clus scale="  480.510">  1  5  2 -1</clus>
</clustering>
</event>
<event>
 9    1  0.3303741E-006  0.1980184E+03  0.7546771E-02  0.1181332E+00
         21   -1    0    0  501  502  0.00000000000E+00  0.00000000000E+00  0.10836444089E+03  0.10836444089E+03  0.00000000000E+00 0.  1.
          1   -1    0    0  502    0 -0.00000000000E+00 -0.00000000000E+00 -0.26116730516E+03  0.26116730516E+03  0.00000000000E+00 0. -1.
         23    2    1    2    0    0  0.11341048602E+02 -0.39700250525E+02 -0.13915523505E+03  0.17104362046E+03  0.90482105318E+02 0.  0.
         23    2    1    2    0    0  0.44685064611E+02 -0.26898875778E+02 -0.29298747591E+02  0.11006116990E+03  0.92383656523E+02 0.  0.
        -11    1    4    4    0    0  0.71610893046E+02 -0.16728372061E+02 -0.33789807349E+02  0.80930275641E+02  0.00000000000E+00 0.  1.
         11    1    4    4    0    0 -0.26925828435E+02 -0.10170503716E+02  0.44910597576E+01  0.29130894262E+02  0.00000000000E+00 0. -1.
        -13    1    3    3    0    0  0.19151920519E+00  0.24880427369E+02 -0.11208660486E+02  0.27289309547E+02  0.00000000000E+00 0. -1.
         13    1    3    3    0    0  0.11149529397E+02 -0.64580677894E+02 -0.12794657457E+03  0.14375431091E+03  0.00000000000E+00 0.  1.
          1    1    1    2  501    0 -0.56026113213E+02  0.66599126302E+02  0.15651118373E+02  0.88426955689E+02  0.00000000000E+00 0. -1.
<scales pt_clust_5="13000.00000" pt_clust_6="13000.00000" pt_clust_7="13000.00000" pt_clust_8="13000.00000" pt_clust_9="13000.00000"></scales>
<clustering>
<clus scale="   90.482">  7  8 -1 -1</clus>
<clus scale="   92.384">  5  6 -1 -1</clus>
<clus scale="   87.031">  5  9 -1 -1</clus>
<clus scale="   99.457">  2  7  1 -1</clus>
<clus scale="  198.018">  1  5  2 -1</clus>
</clustering>
</event>
<event>
 9    1  0.3303741E-006  0.2225275E+03  0.7546771E-02  0.1161304E+00
         21   -1    0    0  501  502  0.00000000000E+00  0.00000000000E+00  0.61391140251E+02  0.61391140251E+02  0.00000000000E+00 0. -1.
         -1   -1    0    0    0  501 -0.00000000000E+00 -0.00000000000E+00 -0.48422736773E+03  0.48422736773E+03  0.00000000000E+00 0.  1.
         23    2    1    2    0    0 -0.36015457237E+02  0.51956992376E+02 -0.21156546510E+03  0.23877353653E+03  0.90863708408E+02 0.  0.
         23    2    1    2    0    0 -0.11386672085E+02 -0.79571407681E+02 -0.22102353648E+03  0.25112572523E+03  0.88042381694E+02 0.  0.
        -11    1    4    4    0    0 -0.13249489270E+02 -0.49059359932E+02 -0.21374439130E+03  0.21970214969E+03  0.00000000000E+00 0.  1.
         11    1    4    4    0    0  0.18628171848E+01 -0.30512047749E+02 -0.72791451764E+01  0.31423575547E+02  0.00000000000E+00 0. -1.
        -11    1    3    3    0    0 -0.59429929067E+02  0.30430970815E+02 -0.18707061854E+03  0.19862874106E+03  0.00000000000E+00 0. -1.
         11    1    3    3    0    0  0.23414471830E+02  0.21526021560E+02 -0.24494846565E+02  0.40144795473E+02  0.00000000000E+00 0.  1.
         -1    1    1    2    0  502  0.47402129322E+02  0.27614415305E+02  0.97527741003E+01  0.55719246222E+02  0.00000000000E+00 0.  1.
<scales pt_clust_5="13000.00000" pt_clust_6="13000.00000" pt_clust_7="13000.00000" pt_clust_8="13000.00000" pt_clust_9="13000.00000"></scales>
<clustering>
<clus scale="   88.042">  5  6 -1 -1</clus>
<clus scale="   54.859">  5  9 -1 -1</clus>
<clus scale="   90.864">  7  8 -1 -1</clus>
<clus scale="  110.693">  2  7  1 -1</clus>
<clus scale="  222.528">  1  5  2 -1</clus>
</clustering>
</event>
<event>
 9    1  0.3303741E-006  0.2547127E+03  0.7546771E-02  0.1147152E+00
         21   -1    0    0  501  502  0.00000000000E+00  0.00000000000E+00  0.21686518340E+03  0.21686518340E+03  0.00000000000E+00 0. -1.
          2   -1    0    0  502    0 -0.00000000000E+00 -0.00000000000E+00 -0.30656282234E+03  0.30656282234E+03  0.00000000000E+00 0. -1.
         23    2    1    2    0    0  0.50886987726E+02  0.46622616849E+01 -0.21587890505E+03  0.23917414952E+03  0.89383163696E+02 0.  0.
         23    2    1    2    0    0  0.70235092272E+02  0.26663212462E+02  0.21688170746E+02  0.12124879320E+03  0.92666056446E+02 0.  0.
        -11    1    3    3    0    0  0.21453882660E+02 -0.24856802810E+02 -0.18343608508E+03  0.18635162204E+03  0.00000000000E+00 0. -1.
         11    1    3    3    0    0  0.29433105066E+02  0.29519064495E+02 -0.32442819967E+02  0.52822527485E+02  0.00000000000E+00 0.  1.
        -13    1    4    4    0    0  0.31012438589E+02  0.58834872027E+02  0.23362986046E+02  0.70492145880E+02  0.00000000000E+00 0. -1.
         13    1    4    4    0    0  0.39222653682E+02 -0.32171659565E+02 -0.16748152996E+01  0.50756647322E+02  0.00000000000E+00 0.  1.
          2    1    1    2  501    0 -0.12112208000E+03 -0.31325474147E+02  0.10449309536E+03  0.16300506302E+03  0.00000000000E+00 0. -1.
<scales pt_clust_5="13000.00000" pt_clust_6="13000.00000" pt_clust_7="13000.00000" pt_clust_8="13000.00000" pt_clust_9="13000.00000"></scales>
<clustering>
<clus scale="   89.383">  5  6 -1 -1</clus>
<clus scale="   92.666">  7  8 -1 -1</clus>
<clus scale="  102.959">  2  5  1 -1</clus>
<clus scale="  106.483">  7  9 -1 -1</clus>
<clus scale="  254.713">  1  5  2 -1</clus>
</clustering>
</event>
<event>
 9    1  0.3303741E-006  0.2662811E+03  0.7546771E-02  0.1112006E+00
         21   -1    0    0  501  502  0.00000000000E+00  0.00000000000E+00  0.72216701498E+02  0.72216701498E+02  0.00000000000E+00 0. -1.
         -1   -1    0    0    0  501 -0.00000000000E+00 -0.00000000000E+00 -0.80998879042E+03  0.80998879042E+03  0.00000000000E+00 0.  1.
         23    2    1    2    0    0  0.17343554572E+03  0.85743262226E+02 -0.27563579024E+03  0.34884295278E+03  0.91019345785E+02 0.  0.
         23    2    1    2    0    0 -0.69807132858E+02 -0.37977159611E+02 -0.35685303117E+03  0.37810464101E+03  0.96455861660E+02 0.  0.
        -11    1    4    4    0    0 -0.21180854892E+02  0.30510407153E+02 -0.15670258823E+03  0.16104413903E+03  0.00000000000E+00 0. -1.
         11    1    4    4    0    0 -0.48626277966E+02 -0.68487566765E+02 -0.20015044295E+03  0.21706050198E+03  0.00000000000E+00 0.  1.
        -13    1    3    3    0    0  0.41792406963E+02 -0.14506778841E+01 -0.15624012390E+02  0.44641007037E+02  0.00000000000E+00 0.  1.
         13    1    3    3    0    0  0.13164313876E+03  0.87193940110E+02 -0.26001177785E+03  0.30420194575E+03  0.00000000000E+00 0. -1.
         -1    1    1    2    0  502 -0.10362841286E+03 -0.47766102614E+02 -0.10528326750E+03  0.15525789812E+03  0.00000000000E+00 0.  1.
<scales pt_clust_5="13000.00000" pt_clust_6="13000.00000" pt_clust_7="13000.00000" pt_clust_8="13000.00000" pt_clust_9="13000.00000"></scales>
<clustering>
<clus scale="   91.019">  7  8 -1 -1</clus>
<clus scale="   96.456">  5  6 -1 -1</clus>
<clus scale="  114.107">  5  9 -1 -1</clus>
<clus scale="  213.814">  2  7  1 -1</clus>
<clus scale="  266.281">  1  5  2 -1</clus>
</clustering>
</event>
<event>
 9    1  0.3303741E-006  0.4404119E+03  0.7546771E-02  0.1072204E+00
          1   -1    0    0  502    0 -0.00000000000E+00  0.00000000000E+00  0.29069630350E+03  0.29069630350E+03  0.00000000000E+00 0. -1.
         21   -1    0    0  501  502  0.00000000000E+00 -0.00000000000E+00 -0.28470511022E+03  0.28470511022E+03  0.00000000000E+00 0.  1.
         23    2    1    2    0    0 -0.13959848733E+02  0.97343831988E+02 -0.36519154546E+01  0.13488396270E+03  0.92247752849E+02 0.  0.
         23    2    1    2    0    0 -0.92167833999E+02 -0.21835558952E+03  0.76267216332E+02  0.26631727244E+03  0.94520517441E+02 0.  0.
        -13    1    3    3    0    0 -0.38371747508E+02  0.88010669524E+02  0.21742884701E+02  0.98442988536E+02  0.00000000000E+00 0.  1.
         13    1    3    3    0    0  0.24411898775E+02  0.93331624639E+01 -0.25394800155E+02  0.36440974168E+02  0.00000000000E+00 0. -1.
        -13    1    4    4    0    0 -0.78068601943E+02 -0.20222852682E+03  0.34671170272E+02  0.21952943702E+03  0.00000000000E+00 0.  1.
         13    1    4    4    0    0 -0.14099232056E+02 -0.16127062692E+02  0.41596046060E+02  0.46787835422E+02  0.00000000000E+00 0. -1.
          1    1    1    2  501    0  0.10612768273E+03  0.12101175753E+03 -0.66624107596E+02  0.17420017857E+03  0.00000000000E+00 0. -1.
<scales pt_clust_5="13000.00000" pt_clust_6="13000.00000" pt_clust_7="13000.00000" pt_clust_8="13000.00000" pt_clust_9="13000.00000"></scales>
<clustering>
<clus scale="   92.248">  5  6 -1 -1</clus>
<clus scale="   94.521">  7  8 -1 -1</clus>
<clus scale="  134.835">  1  5  2 -1</clus>
<clus scale="  177.147">  7  9 -1 -1</clus>
<clus scale="  440.412">  2  5  1 -1</clus>
</clustering>
</event>
<event>
 9    1  0.3303741E-006  0.2187793E+03  0.7546771E-02  0.1156489E+00
          1   -1    0    0  502    0 -0.00000000000E+00  0.00000000000E+00  0.21569197708E+03  0.21569197708E+03  0.00000000000E+00 0. -1.
         21   -1    0    0  501  502  0.00000000000E+00 -0.00000000000E+00 -0.17917932192E+03  0.17917932192E+03  0.00000000000E+00 0. -1.
         23    2    1    2    0    0  0.33901569987E+02 -0.88955527476E+02  0.10310948657E+03  0.16618044341E+03  0.89005456220E+02 0.  0.
         23    2    1    2    0    0  0.61737049390E+01 -0.21722969580E+02  0.27501166449E+01  0.92071835776E+02  0.89216914100E+02 0.  0.
        -11    1    4    4    0    0 -0.28796476011E+02 -0.35191161879E+02  0.21351707121E+02  0.50234951000E+02  0.00000000000E+00 0. -1.
         11    1    4    4    0    0  0.34970180950E+02  0.13468192299E+02 -0.18601590476E+02  0.41836884776E+02  0.00000000000E+00 0.  1.
        -13    1    3    3    0    0  0.23863405303E+01 -0.80076574857E+02  0.10649539815E+03  0.13326373209E+03  0.00000000000E+00 0. -1.
         13    1    3    3    0    0  0.31515229457E+02 -0.88789526187E+01 -0.33859115853E+01  0.32916711327E+02  0.00000000000E+00 0.  1.
          1    1    1    2  501    0 -0.40075274926E+02  0.11067849706E+03 -0.69346948056E+02  0.13661901982E+03  0.00000000000E+00 0. -1.
<scales pt_clust_5="13000.00000" pt_clust_6="13000.00000" pt_clust_7="13000.00000" pt_clust_8="13000.00000" pt_clust_9="13000.00000"></scales>
<clustering>
<clus scale="   89.005">  7  8 -1 -1</clus>
<clus scale="   89.217">  5  6 -1 -1</clus>
<clus scale="  117.711">  5  9 -1 -1</clus>
<clus scale="  130.324">  1  7  2 -1</clus>
<clus scale="  218.779">  2  5  1 -1</clus>
</clustering>
</event>
<event>
 9    1  0.3303741E-006  0.1841194E+03  0.7546771E-02  0.1183007E+00
         21   -1    0    0  501  502  0.00000000000E+00  0.00000000000E+00  0.32873864838E+02  0.32873864838E+02  0.00000000000E+00 0. -1.
         -1   -1    0    0    0  501 -0.00000000000E+00 -0.00000000000E+00 -0.77527613799E+03  0.77527613799E+03  0.00000000000E+00 0.  1.
         23    2    1    2    0    0  0.30478971236E+02 -0.19017948290E+02 -0.42313707468E+03  0.43959850601E+03  0.11362751636E+03 0.  0.
         23    2    1    2    0    0 -0.57346313036E+02  0.40805935323E+02 -0.31327270307E+03  0.33344479610E+03  0.89955108679E+02 0.  0.
        -11    1    3    3    0    0 -0.13146365704E+02 -0.56685274262E+02 -0.16081182017E+03  0.17101604824E+03  0.00000000000E+00 0. -1.
         11    1    3    3    0    0  0.43625336940E+02  0.37667325972E+02 -0.26232525451E+03  0.26858245777E+03  0.00000000000E+00 0.  1.
        -11    1    4    4    0    0 -0.53420666256E+02 -0.15267872643E+02 -0.12143812964E+03  0.13354435536E+03  0.00000000000E+00 0.  1.
         11    1    4    4    0    0 -0.39256467797E+01  0.56073807966E+02 -0.19183457344E+03  0.19990044074E+03  0.00000000000E+00 0. -1.
         -1    1    1    2    0  502  0.26867341799E+02 -0.21787987033E+02 -0.59924954000E+01  0.35106700719E+02  0.00000000000E+00 0.  1.
<scales pt_clust_5="13000.00000" pt_clust_6="13000.00000" pt_clust_7="13000.00000" pt_clust_8="13000.00000" pt_clust_9="13000.00000"></scales>
<clustering>
<clus scale="   89.955">  7  8 -1 -1</clus>
<clus scale="   34.591">  7  9 -1 -1</clus>
<clus scale="  113.628">  5  6 -1 -1</clus>
<clus scale="  119.172">  2  5  1 -1</clus>
<clus scale="  184.119">  1  5  2 -1</clus>
</clustering>
</event>
<event>
 9    1  0.3303741E-006  0.1880090E+03  0.7546771E-02  0.1181619E+00
         21   -1    0    0  501  502  0.00000000000E+00  0.00000000000E+00  0.44653733154E+03  0.44653733154E+03  0.00000000000E+00 0. -1.
         -2   -1    0    0    0  501 -0.00000000000E+00 -0.00000000000E+00 -0.82699853749E+02  0.82699853749E+02  0.00000000000E+00 0.  1.
         23    2    1    2    0    0  0.74220358505E+02 -0.36456491357E+01 -0.46547529562E+01  0.11555384318E+03  0.88368951420E+02 0.  0.
         23    2    1    2    0    0 -0.11180179161E+03  0.13031629922E+02  0.32409180948E+03  0.35476086628E+03  0.90279052289E+02 0.  0.
        -13    1    4    4    0    0 -0.80295245620E+02  0.48218927951E+02  0.24919451817E+03  0.26621476174E+03  0.00000000000E+00 0. -1.
         13    1    4    4    0    0 -0.31506545987E+02 -0.35187298029E+02  0.74897291310E+02  0.88546104535E+02  0.00000000000E+00 0.  1.
        -13    1    3    3    0    0  0.22071855342E+02 -0.16749623400E+02  0.37923771114E+02  0.46967319466E+02  0.00000000000E+00 0. -1.
         13    1    3    3    0    0  0.52148503163E+02  0.13103974265E+02 -0.42578524070E+02  0.68586523717E+02  0.00000000000E+00 0.  1.
         -2    1    1    2    0  502  0.37581433103E+02 -0.93859807858E+01  0.44400421263E+02  0.58922475828E+02  0.00000000000E+00 0.  1.
<scales pt_clust_5="13000.00000" pt_clust_6="13000.00000" pt_clust_7="13000.00000" pt_clust_8="13000.00000" pt_clust_9="13000.00000"></scales>
<clustering>
<clus scale="   88.369">  7  8 -1 -1</clus>
<clus scale="   90.279">  5  6 -1 -1</clus>
<clus scale="   38.736">  5  9 -1 -1</clus>
<clus scale="  115.460">  2  7  1 -1</clus>
<clus scale="  188.009">  1  5  2 -1</clus>
</clustering>
</event>
<event>
 9    1  0.3303741E-006  0.3021071E+03  0.7546771E-02  0.1115149E+00
         21   -1    0    0  501  502  0.00000000000E+00  0.00000000000E+00  0.21412741465E+03  0.21412741465E+03  0.00000000000E+00 0. -1.
          1   -1    0    0  502    0 -0.00000000000E+00 -0.00000000000E+00 -0.22401927203E+03  0.22401927203E+03  0.00000000000E+00 0. -1.
         23    2    1    2    0    0 -0.25343214459E+02 -0.96497921152E+02  0.84749498524E+01  0.13548179532E+03  0.91265353683E+02 0.  0.
         23    2    1    2    0    0 -0.10470013551E+02  0.35994856521E+02 -0.13470759148E+03  0.16672966338E+03  0.90815167063E+02 0.  0.
        -11    1    3    3    0    0  0.30983659604E+02 -0.11765896446E+02  0.61566679992E+01  0.33709465177E+02  0.00000000000E+00 0.  1.
         11    1    3    3    0    0 -0.56326874063E+02 -0.84732024706E+02  0.23182818532E+01  0.10177233014E+03  0.00000000000E+00 0. -1.
        -13    1    4    4    0    0  0.40462851658E+02  0.15034496178E+02 -0.58352710057E+02  0.72583174432E+02  0.00000000000E+00 0.  1.
         13    1    4    4    0    0 -0.50932865209E+02  0.20960360343E+02 -0.76354881420E+02  0.94146488945E+02  0.00000000000E+00 0. -1.
          1    1    1    2  501    0  0.35813228009E+02  0.60503064630E+02  0.11634078424E+03  0.13593522799E+03  0.00000000000E+00 0. -1.
<scales pt_clust_5="13000.00000" pt_clust_6="13000.00000" pt_clust_7="13000.00000" pt_clust_8="13000.00000" pt_clust_9="13000.00000"></scales>
<clustering>
<clus scale="   90.815">  7  8 -1 -1</clus>
<clus scale="   70.308">  7  9 -1 -1</clus>
<clus scale="   91.265">  5  6 -1 -1</clus>
<clus scale="  135.217">  2  5  1 -1</clus>
<clus scale="  302.107">  1  5  2 -1</clus>
</clustering>
</event>
<event>
 9    1  0.3303741E-006  0.2274221E+03  0.7546771E-02  0.1143318E+00
         21   -1    0    0  501  502  0.00000000000E+00  0.00000000000E+00  0.17552779073E+03  0.17552779073E+03  0.00000000000E+00 0.  1.
          2   -1    0    0  502    0 -0.00000000000E+00 -0.00000000000E+00 -0.21514589692E+03  0.21514589692E+03  0.00000000000E+00 0. -1.
         23    2    1    2    0    0 -0.11191739863E+03  0.64776997538E+02 -0.38985070793E+02  0.16325067863E+03  0.91702697891E+02 0.  0.
         23    2    1    2    0    0  0.63173290144E+02 -0.56655725423E+02 -0.59871797777E+02  0.15027915547E+03  0.10862070055E+03 0.  0.
        -11    1    3    3    0    0 -0.27424298952E+02  0.59995340724E+02  0.80079072029E+01  0.66450430091E+02  0.00000000000E+00 0.  1.
         11    1    3    3    0    0 -0.84493099680E+02  0.47816568144E+01 -0.46992977996E+02  0.96800248534E+02  0.00000000000E+00 0. -1.
        -13    1    4    4    0    0 -0.29166804284E+02 -0.14143677522E+02 -0.22485610909E+00  0.32415993680E+02  0.00000000000E+00 0.  1.
         13    1    4    4    0    0  0.92340094428E+02 -0.42512047902E+02 -0.59646941668E+02  0.11786316179E+03  0.00000000000E+00 0. -1.
          2    1    1    2  501    0  0.48744108487E+02 -0.81212721148E+01  0.59238762376E+02  0.77143853552E+02  0.00000000000E+00 0. -1.
<scales pt_clust_5="13000.00000" pt_clust_6="13000.00000" pt_clust_7="13000.00000" pt_clust_8="13000.00000" pt_clust_9="13000.00000"></scales>
<clustering>
<clus scale="   91.703">  5  6 -1 -1</clus>
<clus scale="  108.621">  7  8 -1 -1</clus>
<clus scale="   49.416">  7  9 -1 -1</clus>
<clus scale="  158.527">  2  5  1 -1</clus>
<clus scale="  227.422">  1  5  2 -1</clus>
</clustering>
</event>
<event>
 9    1  0.3303741E-006  0.1860147E+03  0.7546771E-02  0.1185427E+00
         21   -1    0    0  501  502  0.00000000000E+00  0.00000000000E+00  0.43724059188E+03  0.43724059188E+03  0.00000000000E+00 0. -1.
         -3   -1    0    0    0  501 -0.00000000000E+00 -0.00000000000E+00 -0.49929539245E+02  0.49929539245E+02  0.00000000000E+00 0.  1.
         23    2    1    2    0    0  0.51475121634E+02 -0.31262763804E+02  0.14472272640E+03  0.18147329932E+03  0.91437641482E+02 0.  0.
         23    2    1    2    0    0 -0.57468048956E+01  0.65839359472E+01  0.23294750453E+03  0.25284733854E+03  0.97932950335E+02 0.  0.
        -13    1    3    3    0    0  0.73939842807E+02 -0.40156692805E+02  0.12272061582E+03  0.14879519440E+03  0.00000000000E+00 0. -1.
         13    1    3    3    0    0 -0.22464721173E+02  0.88939290012E+01  0.22002110583E+02  0.32678104911E+02  0.00000000000E+00 0.  1.
        -13    1    4    4    0    0  0.71236320355E+01  0.51299175090E+02  0.12282080939E+03  0.13329404606E+03  0.00000000000E+00 0.  1.
         13    1    4    4    0    0 -0.12870436931E+02 -0.44715239142E+02  0.11012669514E+03  0.11955329247E+03  0.00000000000E+00 0. -1.
         -3    1    1    2    0  502 -0.45728316739E+02  0.24678827856E+02  0.96408217096E+01  0.52849493274E+02  0.00000000000E+00 0.  1.
<scales pt_clust_5="13000.00000" pt_clust_6="13000.00000" pt_clust_7="13000.00000" pt_clust_8="13000.00000" pt_clust_9="13000.00000"></scales>
<clustering>
<clus scale="   91.438">  5  6 -1 -1</clus>
<clus scale="   97.933">  7  8 -1 -1</clus>
<clus scale="   51.963">  7  9 -1 -1</clus>
<clus scale="  109.489">  2  5  1 -1</clus>
<clus scale="  186.015">  1  5  2 -1</clus>
</clustering>
</event>
<event>
 9    1  0.3303741E-006  0.4189303E+03  0.7546771E-02  0.1056124E+00
          3   -1    0    0  502    0 -0.00000000000E+00  0.00000000000E+00  0.19794142162E+03  0.19794142162E+03  0.00000000000E+00 0. -1.
         21   -1    0    0  501  502  0.00000000000E+00 -0.00000000000E+00 -0.55786433409E+03  0.55786433409E+03  0.00000000000E+00 0. -1.
         23    2    1    2    0    0  0.12706415516E+03 -0.18839525098E+03 -0.11432891352E+03  0.27019373125E+03  0.91079535689E+02 0.  0.
         23    2    1    2    0    0  0.75796565679E+01  0.89424160787E+02  0.57060202702E+02  0.13988988385E+03  0.90880037104E+02 0.  0.
        -11    1    3    3    0    0  0.12875551137E+03 -0.16230024961E+03 -0.12499000959E+03  0.24195424202E+03  0.00000000000E+00 0. -1.
         11    1    3    3    0    0 -0.16913562144E+01 -0.26095001376E+02  0.10661096076E+02  0.28239489234E+02  0.00000000000E+00 0.  1.
        -13    1    4    4    0    0 -0.22556828803E+02  0.94403382224E+02  0.40811742435E+02  0.10529201025E+03  0.00000000000E+00 0.  1.
         13    1    4    4    0    0  0.30136485371E+02 -0.49792214371E+01  0.16248460268E+02  0.34597873601E+02  0.00000000000E+00 0. -1.
          3    1    1    2  501    0 -0.13464381172E+03  0.98971090198E+02 -0.30265420165E+03  0.34572214061E+03  0.00000000000E+00 0. -1.
<scales pt_clust_5="13000.00000" pt_clust_6="13000.00000" pt_clust_7="13000.00000" pt_clust_8="13000.00000" pt_clust_9="13000.00000"></scales>
<clustering>
<clus scale="   90.880">  7  8 -1 -1</clus>
<clus scale="   91.080">  5  6 -1 -1</clus>
<clus scale="  167.106">  7  9 -1 -1</clus>
<clus scale="  244.813">  1  5  2 -1</clus>
<clus scale="  418.930">  2  5  1 -1</clus>
</clustering>
</event>
<event>
 9    1  0.3303741E-006  0.2631016E+03  0.7546771E-02  0.1111153E+00
          1   -1    0    0  502    0 -0.00000000000E+00  0.00000000000E+00  0.11844112890E+04  0.11844112890E+04  0.00000000000E+00 0. -1.
         21   -1    0    0  501  502  0.00000000000E+00 -0.00000000000E+00 -0.85786123783E+02  0.85786123783E+02  0.00000000000E+00 0. -1.
         23    2    1    2    0    0  0.19257076162E+03  0.79727732959E+02  0.93117406919E+03  0.95832831335E+03  0.88701744047E+02 0.  0.
         23    2    1    2    0    0 -0.10751288797E+03 -0.56844551832E+02  0.16236037771E+03  0.22363986809E+03  0.94146556994E+02 0.  0.
        -11    1    4    4    0    0 -0.39580683433E+02  0.20778362662E+02  0.79999070457E+02  0.91641814309E+02  0.00000000000E+00 0. -1.
         11    1    4    4    0    0 -0.67932204542E+02 -0.77622914494E+02  0.82361307253E+02  0.13199805378E+03  0.00000000000E+00 0.  1.
        -11    1    3    3    0    0  0.39237294710E+02 -0.10008842841E+02  0.91424868457E+02  0.99991243634E+02  0.00000000000E+00 0.  1.
         11    1    3    3    0    0  0.15333346691E+03  0.89736575800E+02  0.83974920073E+03  0.85833706971E+03  0.00000000000E+00 0. -1.
          1    1    1    2  501    0 -0.85057873641E+02 -0.22883181127E+02  0.50907182885E+01  0.88229231321E+02  0.00000000000E+00 0. -1.
<scales pt_clust_5="13000.00000" pt_clust_6="13000.00000" pt_clust_7="13000.00000" pt_clust_8="13000.00000" pt_clust_9="13000.00000"></scales>
<clustering>
<clus scale="   88.702">  7  8 -1 -1</clus>
<clus scale="   94.147">  5  6 -1 -1</clus>
<clus scale="   88.082">  5  9 -1 -1</clus>
<clus scale="  226.513">  1  7  2 -1</clus>
<clus scale="  263.102">  2  5  1 -1</clus>
</clustering>
</event>
<event>
 9    1  0.3303741E-006  0.2619139E+03  0.7546771E-02  0.1142775E+00
          2   -1    0    0  502    0 -0.00000000000E+00  0.00000000000E+00  0.37831720976E+03  0.37831720976E+03  0.00000000000E+00 0. -1.
         21   -1    0    0  501  502  0.00000000000E+00 -0.00000000000E+00 -0.90393742395E+02  0.90393742395E+02  0.00000000000E+00 0. -1.
         23    2    1    2    0    0  0.41725087496E+01  0.52810929437E+02  0.57368631247E+02  0.11977769026E+03  0.90824727559E+02 0.  0.
         23    2    1    2    0    0 -0.58919584249E+01  0.82635527971E+02  0.14224728215E+03  0.18723315855E+03  0.89211102032E+02 0.  0.
        -11    1    4    4    0    0  0.16904947683E+02  0.93727176243E+02  0.10103542951E+03  0.13884782620E+03  0.00000000000E+00 0. -1.
         11    1    4    4    0    0 -0.22796906108E+02 -0.11091648273E+02  0.41211852636E+02  0.48385332356E+02  0.00000000000E+00 0.  1.
        -13    1    3    3    0    0 -0.33693320350E+02 -0.69442536275E+01  0.18490464540E+02  0.39055854536E+02  0.00000000000E+00 0.  1.
         13    1    3    3    0    0  0.37865829099E+02  0.59755183065E+02  0.38878166707E+02  0.80721835726E+02  0.00000000000E+00 0. -1.
          2    1    1    2  501    0  0.17194496753E+01 -0.13544645741E+03  0.88307553967E+02  0.16170010334E+03  0.00000000000E+00 0. -1.
<scales pt_clust_5="13000.00000" pt_clust_6="13000.00000" pt_clust_7="13000.00000" pt_clust_8="13000.00000" pt_clust_9="13000.00000"></scales>
<clustering>
<clus scale="   89.211">  5  6 -1 -1</clus>
<clus scale="   90.825">  7  8 -1 -1</clus>
<clus scale="  105.145">  1  7  2 -1</clus>
<clus scale="  112.717">  5  9 -1 -1</clus>
<clus scale="  261.914">  2  5  1 -1</clus>
</clustering>
</event>
<event>
 9    1  0.3303741E-006  0.1639423E+03  0.7546771E-02  0.1209446E+00
         21   -1    0    0  501  502  0.00000000000E+00  0.00000000000E+00  0.80808898722E+03  0.80808898722E+03  0.00000000000E+00 0.  1.
         -3   -1    0    0    0  501 -0.00000000000E+00 -0.00000000000E+00 -0.43647309930E+02  0.43647309930E+02  0.00000000000E+00 0.  1.
         23    2    1    2    0    0  0.20501942411E+02  0.22597818087E+02  0.30181175404E+02  0.99396240364E+02  0.89653322442E+02 0.  0.
         23    2    1    2    0    0  0.34527994846E+02 -0.36025804321E+02  0.37481571326E+03  0.38845936085E+03  0.89015813847E+02 0.  0.
        -11    1    3    3    0    0 -0.14868558802E+02  0.48493907957E+02  0.13451937430E+02  0.52475592140E+02  0.00000000000E+00 0.  1.
         11    1    3    3    0    0  0.35370501213E+02 -0.25896089870E+02  0.16729237974E+02  0.46920648225E+02  0.00000000000E+00 0. -1.
        -13    1    4    4    0    0 -0.14277332488E+02 -0.39742267441E+02  0.89336347929E+02  0.98814336538E+02  0.00000000000E+00 0. -1.
         13    1    4    4    0    0  0.48805327334E+02  0.37164631202E+01  0.28547936534E+03  0.28964502431E+03  0.00000000000E+00 0.  1.
         -3    1    1    2    0  502 -0.55029937257E+02  0.13427986233E+02  0.35944478863E+03  0.36388069594E+03  0.00000000000E+00 0.  1.
<scales pt_clust_5="13000.00000" pt_clust_6="13000.00000" pt_clust_7="13000.00000" pt_clust_8="13000.00000" pt_clust_9="13000.00000"></scales>
<clustering>
<clus scale="   89.016">  7  8 -1 -1</clus>
<clus scale="   56.645">  7  9 -1 -1</clus>
<clus scale="   89.653">  5  6 -1 -1</clus>
<clus scale="   94.703">  2  5  1 -1</clus>
<clus scale="  163.942">  1  5  2 -1</clus>
</clustering>
</event>
<event>
 9    1  0.3303741E-006  0.1369650E+03  0.7546771E-02  0.1226214E+00
         21   -1    0    0  501  502  0.00000000000E+00  0.00000000000E+00  0.10326166776E+03  0.10326166776E+03  0.00000000000E+00 0. -1.
         -3   -1    0    0    0  501 -0.00000000000E+00 -0.00000000000E+00 -0.15414993705E+03  0.15414993705E+03  0.00000000000E+00 0.  1.
         23    2    1    2    0    0 -0.67784553224E+02 -0.55201533128E+01 -0.10133545495E+02  0.11451180955E+03  0.91569907900E+02 0.  0.
         23    2    1    2    0    0  0.52872360228E+02  0.31540663261E+02 -0.36135585498E+02  0.11255548976E+03  0.87021019423E+02 0.  0.
        -13    1    3    3    0    0  0.20365754572E+02 -0.14782794736E+02 -0.54738112462E+01  0.25753787858E+02  0.00000000000E+00 0. -1.
         13    1    3    3    0    0 -0.88150307796E+02  0.92626414229E+01 -0.46597342486E+01  0.88758021688E+02  0.00000000000E+00 0.  1.
        -13    1    4    4    0    0  0.60228987179E+02  0.54789364459E+02 -0.21881727050E+02  0.84310232671E+02  0.00000000000E+00 0. -1.
         13    1    4    4    0    0 -0.73566269516E+01 -0.23248701198E+02 -0.14253858448E+02  0.28245257091E+02  0.00000000000E+00 0.  1.
         -3    1    1    2    0  502  0.14912192997E+02 -0.26020509948E+02 -0.46191383014E+01  0.30344305505E+02  0.00000000000E+00 0.  1.
<scales pt_clust_5="13000.00000" pt_clust_6="13000.00000" pt_clust_7="13000.00000" pt_clust_8="13000.00000" pt_clust_9="13000.00000"></scales>
<clustering>
<clus scale="   87.021">  7  8 -1 -1</clus>
<clus scale="   29.991">  7  9 -1 -1</clus>
<clus scale="   91.570">  5  6 -1 -1</clus>
<clus scale="  114.063">  2  5  1 -1</clus>
<clus scale="  136.965">  1  5  2 -1</clus>
</clustering>
</event>
<event>
 9    1  0.3303741E-006  0.1726492E+03  0.7546771E-02  0.1203812E+00
         21   -1    0    0  501  502  0.00000000000E+00  0.00000000000E+00  0.78322494585E+02  0.78322494585E+02  0.00000000000E+00 0.  1.
          4   -1    0    0  502    0 -0.00000000000E+00 -0.00000000000E+00 -0.22296328075E+03  0.22296328075E+03  0.00000000000E+00 0. -1.
         23    2    1    2    0    0 -0.32952500599E+01  0.69506289999E+01 -0.54657330934E+02  0.10659433595E+03  0.91190781967E+02 0.  0.
         23    2    1    2    0    0 -0.26015112916E+02  0.49487701694E+02 -0.41928057919E+02  0.11498131606E+03  0.91306748290E+02 0.  0.
        -11    1    4    4    0    0 -0.90528553562E+01  0.27487484727E+02  0.27672840300E+02  0.40041254938E+02  0.00000000000E+00 0.  1.
         11    1    4    4    0    0 -0.16962257560E+02  0.22000216966E+02 -0.69600898219E+02  0.74940061123E+02  0.00000000000E+00 0. -1.
        -11    1    3    3    0    0 -0.21070203845E+02  0.25059263871E+02  0.12312240847E+02  0.34978728829E+02  0.00000000000E+00 0.  1.
         11    1    3    3    0    0  0.17774953786E+02 -0.18108634871E+02 -0.66969571781E+02  0.71615607122E+02  0.00000000000E+00 0. -1.
          4    1    1    2  501    0  0.29310362976E+02 -0.56438330693E+02 -0.48055397312E+02  0.79710123322E+02  0.00000000000E+00 0. -1.
<scales pt_clust_5="13000.00000" pt_clust_6="13000.00000" pt_clust_7="13000.00000" pt_clust_8="13000.00000" pt_clust_9="13000.00000"></scales>
<clustering>
<clus scale="   91.191">  7  8 -1 -1</clus>
<clus scale="   91.307">  5  6 -1 -1</clus>
<clus scale="   63.595">  5  9 -1 -1</clus>
<clus scale="   91.515">  2  7  1 -1</clus>
<clus scale="  172.649">  1  5  2 -1</clus>
</clustering>
</event>
<event>
 9    1  0.3303741E-006  0.3772214E+03  0.7546771E-02  0.1108438E+00
          1   -1    0    0  502    0 -0.00000000000E+00  0.00000000000E+00  0.18727136323E+03  0.18727136323E+03  0.00000000000E+00 0. -1.
         21   -1    0    0  501  502  0.00000000000E+00 -0.00000000000E+00 -0.29869509804E+03  0.29869509804E+03  0.00000000000E+00 0. -1.
         23    2    1    2    0    0  0.28114115028E+02 -0.67861258829E+01  0.22995931290E+02  0.85510962861E+02  0.77115867013E+02 0.  0.
         23    2    1    2    0    0 -0.13272297827E+03 -0.48028645988E+02 -0.20290489169E+03  0.26393480544E+03  0.92569145256E+02 0.  0.
        -13    1    4    4    0    0 -0.16848707777E+02 -0.44718489860E+02 -0.32323038076E+02  0.57692296536E+02  0.00000000000E+00 0.  1.
         13    1    4    4    0    0 -0.11587427050E+03 -0.33101561285E+01 -0.17058185361E+03  0.20624250890E+03  0.00000000000E+00 0. -1.
        -13    1    3    3    0    0  0.76940509672E-01  0.24386391983E+02  0.34301895420E+02  0.42087077152E+02  0.00000000000E+00 0.  1.
         13    1    3    3    0    0  0.28037174519E+02 -0.31172517866E+02 -0.11305964130E+02  0.43423885709E+02  0.00000000000E+00 0. -1.
          1    1    1    2  501    0  0.10460886324E+03  0.54814771871E+02  0.68485225590E+02  0.13652069297E+03  0.00000000000E+00 0. -1.
<scales pt_clust_5="13000.00000" pt_clust_6="13000.00000" pt_clust_7="13000.00000" pt_clust_8="13000.00000" pt_clust_9="13000.00000"></scales>
<clustering>
<clus scale="   77.116">  7  8 -1 -1</clus>
<clus scale="   82.361">  1  7  2 -1</clus>
<clus scale="   92.569">  5  6 -1 -1</clus>
<clus scale="  135.660">  5  9 -1 -1</clus>
<clus scale="  377.221">  2  5  1 -1</clus>
</clustering>
</event>
<event>
 9    1  0.3303741E-006  0.3050104E+03  0.7546771E-02  0.1115650E+00
         21   -1    0    0  501  502  0.00000000000E+00  0.00000000000E+00  0.99519405040E+02  0.99519405040E+02  0.00000000000E+00 0.  1.
          2   -1    0    0  502    0 -0.00000000000E+00 -0.00000000000E+00 -0.47725353471E+03  0.47725353471E+03  0.00000000000E+00 0. -1.
         23    2    1    2    0    0 -0.74111769545E+02 -0.55617198628E+02 -0.94213752051E+02  0.16034151270E+03  0.90814880117E+02 0.  0.
         23    2    1    2    0    0  0.12209319555E+03  0.12960436747E+03 -0.20664448336E+03  0.29944330153E+03  0.12353261860E+03 0.  0.
        -13    1    3    3    0    0 -0.59286582087E+02 -0.79404464142E+02 -0.85795566980E+02  0.13107573023E+03  0.00000000000E+00 0. -1.
         13    1    3    3    0    0 -0.14825187458E+02  0.23787265514E+02 -0.84181850705E+01  0.29265782471E+02  0.00000000000E+00 0.  1.
        -13    1    4    4    0    0  0.87320671647E+02  0.14753659448E+02 -0.12915193869E+03  0.15659755244E+03  0.00000000000E+00 0. -1.
         13    1    4    4    0    0  0.34772523908E+02  0.11485070802E+03 -0.77492544669E+02  0.14284574908E+03  0.00000000000E+00 0.  1.
          2    1    1    2  501    0 -0.47981426010E+02 -0.73987168840E+02 -0.76875894256E+02  0.11698812552E+03  0.00000000000E+00 0. -1.
<scales pt_clust_5="13000.00000" pt_clust_6="13000.00000" pt_clust_7="13000.00000" pt_clust_8="13000.00000" pt_clust_9="13000.00000"></scales>
<clustering>
<clus scale="   90.815">  5  6 -1 -1</clus>
<clus scale="  123.533">  7  8 -1 -1</clus>
<clus scale="   88.183">  7  9 -1 -1</clus>
<clus scale="  129.743">  2  5  1 -1</clus>
<clus scale="  305.010">  1  5  2 -1</clus>
</clustering>
</event>
<event>
 9    1  0.3303741E-006  0.1346823E+03  0.7546771E-02  0.1229377E+00
         21   -1    0    0  501  502  0.00000000000E+00  0.00000000000E+00  0.40660994729E+02  0.40660994729E+02  0.00000000000E+00 0.  1.
          1   -1    0    0  502    0 -0.00000000000E+00 -0.00000000000E+00 -0.39191776249E+03  0.39191776249E+03  0.00000000000E+00 0. -1.
         23    2    1    2    0    0 -0.55018818013E+02 -0.34555962442E+02 -0.11593096643E+03  0.16143753891E+03  0.91656451580E+02 0.  0.
         23    2    1    2    0    0  0.23685144663E+02  0.28488262603E+02 -0.20236235738E+03  0.22525870853E+03  0.91751811418E+02 0.  0.
        -11    1    3    3    0    0 -0.13284318043E+02 -0.61337309142E+02 -0.64573098023E+02  0.90046785544E+02  0.00000000000E+00 0. -1.
         11    1    3    3    0    0 -0.41734499970E+02  0.26781346700E+02 -0.51357868411E+02  0.71390753369E+02  0.00000000000E+00 0.  1.
        -13    1    4    4    0    0  0.11344966568E+02  0.60870520378E+02 -0.15197860884E+03  0.16410797075E+03  0.00000000000E+00 0.  1.
         13    1    4    4    0    0  0.12340178095E+02 -0.32382257775E+02 -0.50383748536E+02  0.61150737776E+02  0.00000000000E+00 0. -1.
          1    1    1    2  501    0  0.31333673350E+02  0.60676998384E+01 -0.32963443949E+02  0.45882509782E+02  0.00000000000E+00 0. -1.
<scales pt_clust_5="13000.00000" pt_clust_6="13000.00000" pt_clust_7="13000.00000" pt_clust_8="13000.00000" pt_clust_9="13000.00000"></scales>
<clustering>
<clus scale="   91.656">  5  6 -1 -1</clus>
<clus scale="   91.752">  7  8 -1 -1</clus>
<clus scale="   31.916">  7  9 -1 -1</clus>
<clus scale="  112.348">  2  5  1 -1</clus>
<clus scale="  134.682">  1  5  2 -1</clus>
</clustering>
</event>
<event>
 9    1  0.3303741E-006  0.2074305E+03  0.7546771E-02  0.1163171E+00
         21   -1    0    0  501  502  0.00000000000E+00  0.00000000000E+00  0.11327937293E+03  0.11327937293E+03  0.00000000000E+00 0.  1.
          1   -1    0    0  502    0 -0.00000000000E+00 -0.00000000000E+00 -0.25989571156E+03  0.25989571156E+03  0.00000000000E+00 0. -1.
         23    2    1    2    0    0  0.38986912783E+02  0.87151244175E+02 -0.26673625610E+02  0.13356358274E+03  0.89512175722E+02 0.  0.
         23    2    1    2    0    0 -0.57157528374E+02 -0.13712006168E+02 -0.16330026057E+02  0.11131854850E+03  0.93113625893E+02 0.  0.
        -11    1    3    3    0    0  0.59768775122E+02  0.25099924196E+02 -0.19708778575E+02  0.67755063480E+02  0.00000000000E+00 0. -1.
         11    1    3    3    0    0 -0.20781862339E+02  0.62051319979E+02 -0.69648470349E+01  0.65808519263E+02  0.00000000000E+00 0.  1.
        -13    1    4    4    0    0  0.15182626310E+00 -0.20507393326E+02 -0.43077954268E+02  0.47710443052E+02  0.00000000000E+00 0. -1.
         13    1    4    4    0    0 -0.57309354637E+02  0.67953871583E+01  0.26747928212E+02  0.63608105452E+02  0.00000000000E+00 0.  1.
          1    1    1    2  501    0  0.18170615591E+02 -0.73439238007E+02 -0.10361268697E+03  0.12829295324E+03  0.00000000000E+00 0. -1.
<scales pt_clust_5="13000.00000" pt_clust_6="13000.00000" pt_clust_7="13000.00000" pt_clust_8="13000.00000" pt_clust_9="13000.00000"></scales>
<clustering>
<clus scale="   89.512">  5  6 -1 -1</clus>
<clus scale="   93.114">  7  8 -1 -1</clus>
<clus scale="   75.654">  7  9 -1 -1</clus>
<clus scale="  130.873">  2  5  1 -1</clus>
<clus scale="  207.431">  1  5  2 -1</clus>
</clustering>
</event>
<event>
 9    1  0.3303741E-006  0.7591660E+03  0.7546771E-02  0.9807308E-01
         21   -1    0    0  501  502  0.00000000000E+00  0.00000000000E+00  0.14985190069E+04  0.14985190069E+04  0.00000000000E+00 0. -1.
          2   -1    0    0  502    0 -0.00000000000E+00 -0.00000000000E+00 -0.30974588668E+03  0.30974588668E+03  0.00000000000E+00 0. -1.
         23    2    1    2    0    0  0.40844494812E+02  0.39500403908E+03  0.11496335654E+02  0.40743882425E+03  0.90431002034E+02 0.  0.
         23    2    1    2    0    0 -0.90607971513E+02  0.15126378347E+02 -0.22272205230E+02  0.13212549716E+03  0.92317300929E+02 0.  0.
        -11    1    3    3    0    0  0.21008653535E+02  0.22819789527E+02 -0.13629910158E+02  0.33880389140E+02  0.00000000000E+00 0.  1.
         11    1    3    3    0    0  0.19835841277E+02  0.37218424955E+03  0.25126245812E+02  0.37355843511E+03  0.00000000000E+00 0. -1.
        -13    1    4    4    0    0 -0.41856070611E+02 -0.20069912119E+02  0.27600656812E+02  0.54004891222E+02  0.00000000000E+00 0.  1.
         13    1    4    4    0    0 -0.48751900902E+02  0.35196290466E+02 -0.49872862042E+02  0.78120605940E+02  0.00000000000E+00 0. -1.
          2    1    1    2  501    0  0.49763476701E+02 -0.41013041743E+03  0.11995489898E+04  0.12687005722E+04  0.00000000000E+00 0. -1.
<scales pt_clust_5="13000.00000" pt_clust_6="13000.00000" pt_clust_7="13000.00000" pt_clust_8="13000.00000" pt_clust_9="13000.00000"></scales>
<clustering>
<clus scale="   90.431">  5  6 -1 -1</clus>
<clus scale="   92.317">  7  8 -1 -1</clus>
<clus scale="  407.277">  2  5  1 -1</clus>
<clus scale="  294.625">  7  9 -1 -1</clus>
<clus scale="  759.166">  1  5  2 -1</clus>
</clustering>
</event>
<event>
 9    1  0.3303741E-006  0.1861958E+03  0.7546771E-02  0.1189708E+00
         21   -1    0    0  501  502  0.00000000000E+00  0.00000000000E+00  0.40343290422E+03  0.40343290422E+03  0.00000000000E+00 0.  1.
         -1   -1    0    0    0  501 -0.00000000000E+00 -0.00000000000E+00 -0.10520707922E+03  0.10520707922E+03  0.00000000000E+00 0.  1.
         23    2    1    2    0    0  0.12693579807E+01 -0.43829727005E+02 -0.51943305176E+02  0.11204536875E+03  0.89069643913E+02 0.  0.
         23    2    1    2    0    0  0.27762561138E+02 -0.26733086163E+02  0.25652925772E+03  0.27580393358E+03  0.93675674591E+02 0.  0.
        -11    1    4    4    0    0 -0.17105926205E+02  0.25932193868E+02  0.62214583595E+02  0.69539526904E+02  0.00000000000E+00 0. -1.
         11    1    4    4    0    0  0.44868487342E+02 -0.52665280031E+02  0.19431467413E+03  0.20626440667E+03  0.00000000000E+00 0.  1.
        -11    1    3    3    0    0 -0.27542140031E+01 -0.71378797325E+02 -0.37849762006E+02  0.80840106917E+02  0.00000000000E+00 0.  1.
         11    1    3    3    0    0  0.40235719838E+01  0.27549070321E+02 -0.14093543170E+02  0.31205261834E+02  0.00000000000E+00 0. -1.
         -1    1    1    2    0  502 -0.29031919118E+02  0.70562813168E+02  0.93639872455E+02  0.12079068111E+03  0.00000000000E+00 0.  1.
<scales pt_clust_5="13000.00000" pt_clust_6="13000.00000" pt_clust_7="13000.00000" pt_clust_8="13000.00000" pt_clust_9="13000.00000"></scales>
<clustering>
<clus scale="   89.070">  7  8 -1 -1</clus>
<clus scale="   93.676">  5  6 -1 -1</clus>
<clus scale="   76.302">  5  9 -1 -1</clus>
<clus scale="   99.278">  2  7  1 -1</clus>
<clus scale="  186.196">  1  5  2 -1</clus>
</clustering>
</event>
<event>
 9    1  0.3303741E-006  0.6293009E+03  0.7546771E-02  0.1028140E+00
          1   -1    0    0  502    0 -0.00000000000E+00  0.00000000000E+00  0.21734714105E+04  0.21734714105E+04  0.00000000000E+00 0. -1.
         21   -1    0    0  501  502  0.00000000000E+00 -0.00000000000E+00 -0.72226995819E+02  0.72226995819E+02  0.00000000000E+00 0. -1.
         23    2    1    2    0    0 -0.11977958469E+03  0.59377905070E+02  0.46802243928E+03  0.49543168535E+03  0.92383259637E+02 0.  0.
         23    2    1    2    0    0 -0.15676681499E+03 -0.39984485070E+02  0.14120686040E+03  0.23271503509E+03  0.89678965228E+02 0.  0.
        -11    1    4    4    0    0 -0.13094477316E+03 -0.27058242663E+02  0.60055044593E+02  0.14657861541E+03  0.00000000000E+00 0. -1.
         11    1    4    4    0    0 -0.25822041835E+02 -0.12926242407E+02  0.81151815809E+02  0.86136419686E+02  0.00000000000E+00 0.  1.
        -13    1    3    3    0    0 -0.10717898507E+03  0.89029661908E+01  0.26850149704E+03  0.28923978212E+03  0.00000000000E+00 0. -1.
         13    1    3    3    0    0 -0.12600599615E+02  0.50474938879E+02  0.19952094223E+03  0.20619190323E+03  0.00000000000E+00 0.  1.
          1    1    1    2  501    0  0.27654639968E+03 -0.19393419999E+02  0.14920151150E+04  0.15175516859E+04  0.00000000000E+00 0. -1.
<scales pt_clust_5="13000.00000" pt_clust_6="13000.00000" pt_clust_7="13000.00000" pt_clust_8="13000.00000" pt_clust_9="13000.00000"></scales>
<clustering>
<clus scale="   89.679">  5  6 -1 -1</clus>
<clus scale="   92.383">  7  8 -1 -1</clus>
<clus scale="  162.504">  1  7  2 -1</clus>
<clus scale="  173.258">  5  9 -1 -1</clus>
<clus scale="  629.301">  2  5  1 -1</clus>
</clustering>
</event>
<event>
 9    1  0.3303741E-006  0.3924044E+03  0.7546771E-02  0.1081177E+00
          2   -1    0    0  502    0 -0.00000000000E+00  0.00000000000E+00  0.29772841381E+03  0.29772841381E+03  0.00000000000E+00 0. -1.
         21   -1    0    0  501  502  0.00000000000E+00 -0.00000000000E+00 -0.43366643212E+03  0.43366643212E+03  0.00000000000E+00 0. -1.
         23    2    1    2    0    0  0.44420041063E+02 -0.10218424939E+03  0.17542824739E+03  0.23046551288E+03  0.99621894041E+02 0.  0.
         23    2    1    2    0    0 -0.12725502180E+03  0.55482107899E+02  0.90508914399E+01  0.16669905518E+03  0.91839814308E+02 0.  0.
        -11    1    3    3    0    0 -0.26526620181E+02 -0.56583484183E+02  0.53818157373E+02  0.82472700474E+02  0.00000000000E+00 0. -1.
         11    1    3    3    0    0  0.70946661244E+02 -0.45600765205E+02  0.12161009002E+03  0.14799281240E+03  0.00000000000E+00 0.  1.
        -13    1    4    4    0    0 -0.79638805071E+02 -0.92915635179E+01  0.26481041375E+02  0.84438841643E+02  0.00000000000E+00 0. -1.
         13    1    4    4    0    0 -0.47616216724E+02  0.64773671417E+02 -0.17430149935E+02  0.82260213534E+02  0.00000000000E+00 0.  1.
          2    1    1    2  501    0  0.82834980732E+02  0.46702141489E+02 -0.32041715715E+03  0.33423027787E+03  0.00000000000E+00 0. -1.
<scales pt_clust_5="13000.00000" pt_clust_6="13000.00000" pt_clust_7="13000.00000" pt_clust_8="13000.00000" pt_clust_9="13000.00000"></scales>
<clustering>
<clus scale="   91.840">  7  8 -1 -1</clus>
<clus scale="   95.093">  7  9 -1 -1</clus>
<clus scale="   99.622">  5  6 -1 -1</clus>
<clus scale="  149.463">  1  5  2 -1</clus>
<clus scale="  392.404">  2  5  1 -1</clus>
</clustering>
</event>
<event>
 9    1  0.3303741E-006  0.2685839E+03  0.7546771E-02  0.1127666E+00
         21   -1    0    0  501  502  0.00000000000E+00  0.00000000000E+00  0.69562652773E+03  0.69562652773E+03  0.00000000000E+00 0. -1.
         -1   -1    0    0    0  501 -0.00000000000E+00 -0.00000000000E+00 -0.60340876490E+02  0.60340876490E+02  0.00000000000E+00 0.  1.
         23    2    1    2    0    0 -0.76987323650E+02  0.75395777905E+02  0.23348805990E+03  0.27266769557E+03  0.90661054286E+02 0.  0.
         23    2    1    2    0    0  0.13033852276E+03 -0.79115655243E+01  0.15629173988E+03  0.22315822317E+03  0.91223687874E+02 0.  0.
        -13    1    4    4    0    0  0.12511621675E+03 -0.28834144749E+02  0.99582857030E+02  0.16248760264E+03  0.00000000000E+00 0. -1.
         13    1    4    4    0    0  0.52223060109E+01  0.20922579224E+02  0.56708882855E+02  0.60670620535E+02  0.00000000000E+00 0.  1.
        -13    1    3    3    0    0 -0.43255071746E+02  0.10121836256E+02  0.23626466641E+02  0.50315631039E+02  0.00000000000E+00 0.  1.
         13    1    3    3    0    0 -0.33732251904E+02  0.65273941649E+02  0.20986159326E+03  0.22235206453E+03  0.00000000000E+00 0. -1.
         -1    1    1    2    0  502 -0.53351199108E+02 -0.67484212381E+02  0.24550585145E+03  0.26014148547E+03  0.00000000000E+00 0.  1.
<scales pt_clust_5="13000.00000" pt_clust_6="13000.00000" pt_clust_7="13000.00000" pt_clust_8="13000.00000" pt_clust_9="13000.00000"></scales>
<clustering>
<clus scale="   90.661">  7  8 -1 -1</clus>
<clus scale="   91.224">  5  6 -1 -1</clus>
<clus scale="   86.026">  5  9 -1 -1</clus>
<clus scale="  140.823">  2  7  1 -1</clus>
<clus scale="  268.584">  1  5  2 -1</clus>
</clustering>
</event>
<event>
 9    1  0.3303741E-006  0.2289826E+03  0.7546771E-02  0.1144371E+00
          2   -1    0    0  502    0 -0.00000000000E+00  0.00000000000E+00  0.94368100239E+03  0.94368100239E+03  0.00000000000E+00 0. -1.
         21   -1    0    0  501  502  0.00000000000E+00 -0.00000000000E+00 -0.42304586627E+02  0.42304586627E+02  0.00000000000E+00 0.  1.
         23    2    1    2    0    0  0.36886831010E+02 -0.11772673121E+03  0.51549374607E+03  0.53727805918E+03  0.87827610093E+02 0.  0.
         23    2    1    2    0    0  0.31164944306E+02  0.10855940619E+03  0.33187512172E+03  0.36134678802E+03  0.87601406234E+02 0.  0.
        -11    1    3    3    0    0  0.58246040639E+02 -0.80705770309E+02  0.26320539408E+03  0.28139492192E+03  0.00000000000E+00 0.  1.
         11    1    3    3    0    0 -0.21359209629E+02 -0.37020960896E+02  0.25228835199E+03  0.25588313726E+03  0.00000000000E+00 0. -1.
        -11    1    4    4    0    0 -0.19242427075E+02  0.66209088848E+02  0.22946588257E+03  0.23960072143E+03  0.00000000000E+00 0. -1.
         11    1    4    4    0    0  0.50407371381E+02  0.42350317339E+02  0.10240923915E+03  0.12174606660E+03  0.00000000000E+00 0.  1.
          2    1    1    2  501    0 -0.68051775317E+02  0.91673250177E+01  0.54007547967E+02  0.87360741808E+02  0.00000000000E+00 0. -1.
<scales pt_clust_5="13000.00000" pt_clust_6="13000.00000" pt_clust_7="13000.00000" pt_clust_8="13000.00000" pt_clust_9="13000.00000"></scales>
<clustering>
<clus scale="   87.601">  7  8 -1 -1</clus>
<clus scale="   68.667">  7  9 -1 -1</clus>
<clus scale="   87.828">  5  6 -1 -1</clus>
<clus scale="  151.439">  1  5  2 -1</clus>
<clus scale="  228.983">  2  5  1 -1</clus>
</clustering>
</event>
<event>
 9    1  0.3303741E-006  0.2067640E+03  0.7546771E-02  0.1177988E+00
         21   -1    0    0  501  502  0.00000000000E+00  0.00000000000E+00  0.21434532776E+03  0.21434532776E+03  0.00000000000E+00 0. -1.
         -3   -1    0    0    0  501 -0.00000000000E+00 -0.00000000000E+00 -0.10939031921E+03  0.10939031921E+03  0.00000000000E+00 0.  1.
         23    2    1    2    0    0  0.20013111052E+02 -0.90682596970E+01  0.61401601555E+02  0.11243431656E+03  0.91589087330E+02 0.  0.
         23    2    1    2    0    0  0.37420231237E+02 -0.45019123150E+02 -0.19661877456E+02  0.11020629603E+03  0.91278930235E+02 0.  0.
        -11    1    4    4    0    0  0.65693872562E+02 -0.23877712036E+02 -0.21149364544E+00  0.69899032567E+02  0.00000000000E+00 0.  1.
         11    1    4    4    0    0 -0.28273641324E+02 -0.21141411114E+02 -0.19450383810E+02  0.40307263465E+02  0.00000000000E+00 0. -1.
        -11    1    3    3    0    0 -0.12543492261E+02  0.28486152323E+02 -0.27900627171E+01  0.31250352354E+02  0.00000000000E+00 0.  1.
         11    1    3    3    0    0  0.32556603313E+02 -0.37554412020E+02  0.64191664272E+02  0.81183964202E+02  0.00000000000E+00 0. -1.
         -3    1    1    2    0  502 -0.57433342290E+02  0.54087382847E+02  0.63215284447E+02  0.10109503439E+03  0.00000000000E+00 0.  1.
<scales pt_clust_5="13000.00000" pt_clust_6="13000.00000" pt_clust_7="13000.00000" pt_clust_8="13000.00000" pt_clust_9="13000.00000"></scales>
<clustering>
<clus scale="   91.279">  5  6 -1 -1</clus>
<clus scale="   78.893">  5  9 -1 -1</clus>
<clus scale="   91.589">  7  8 -1 -1</clus>
<clus scale="   94.188">  2  7  1 -1</clus>
<clus scale="  206.764">  1  5  2 -1</clus>
</clustering>
</event>
<event>
 9    1  0.3303741E-006  0.1888610E+03  0.7546771E-02  0.1192673E+00
         21   -1    0    0  501  502  0.00000000000E+00  0.00000000000E+00  0.21295230195E+03  0.21295230195E+03  0.00000000000E+00 0. -1.
          1   -1    0    0  502    0 -0.00000000000E+00 -0.00000000000E+00 -0.16960339012E+03  0.16960339012E+03  0.00000000000E+00 0. -1.
         23    2    1    2    0    0 -0.13882977655E+01 -0.54619306987E+01 -0.10836834126E+03  0.14030248428E+03  0.88934412077E+02 0.  0.
         23    2    1    2    0    0  0.23506909025E+02 -0.62252466306E+02  0.11801420952E+03  0.16344732176E+03  0.91431553688E+02 0.  0.
        -11    1    4    4    0    0 -0.76661426381E+00 -0.70225042939E+02  0.38842280683E+02  0.80255013064E+02  0.00000000000E+00 0. -1.
         11    1    4    4    0    0  0.24273523289E+02  0.79725766329E+01  0.79171928835E+02  0.83192308698E+02  0.00000000000E+00 0.  1.
        -11    1    3    3    0    0  0.20272153045E+02  0.33374144345E+02 -0.26673390376E+02  0.47289147317E+02  0.00000000000E+00 0.  1.
         11    1    3    3    0    0 -0.21660450810E+02 -0.38836075043E+02 -0.81694950882E+02  0.93013336967E+02  0.00000000000E+00 0. -1.
          1    1    1    2  501    0 -0.22118611260E+02  0.67714397005E+02  0.33703043567E+02  0.78805886021E+02  0.00000000000E+00 0. -1.
<scales pt_clust_5="13000.00000" pt_clust_6="13000.00000" pt_clust_7="13000.00000" pt_clust_8="13000.00000" pt_clust_9="13000.00000"></scales>
<clustering>
<clus scale="   88.934">  7  8 -1 -1</clus>
<clus scale="   89.113">  2  7  1 -1</clus>
<clus scale="   91.432">  5  6 -1 -1</clus>
<clus scale="   68.880">  5  9 -1 -1</clus>
<clus scale="  188.861">  1  5  2 -1</clus>
</clustering>
</event>
<event>
 9    1  0.3303741E-006  0.1834367E+03  0.7546771E-02  0.1181886E+00
         21   -1    0    0  501  502  0.00000000000E+00  0.00000000000E+00  0.32324350115E+03  0.32324350115E+03  0.00000000000E+00 0.  1.
          1   -1    0    0  502    0 -0.00000000000E+00 -0.00000000000E+00 -0.73119198582E+02  0.73119198582E+02  0.00000000000E+00 0. -1.
         23    2    1    2    0    0  0.56602730816E+02 -0.54641660112E+02  0.89990449125E+02  0.15286347932E+03  0.95285792325E+02 0.  0.
         23    2    1    2    0    0  0.12131989673E+02  0.32077116308E+02  0.45376474880E+02  0.10784201872E+03  0.91622868132E+02 0.  0.
        -11    1    3    3    0    0  0.20759390700E+02 -0.73489358473E+02  0.33580365775E+02  0.83422293643E+02  0.00000000000E+00 0.  1.
         11    1    3    3    0    0  0.35843340115E+02  0.18847698361E+02  0.56410083349E+02  0.69441185672E+02  0.00000000000E+00 0. -1.
        -13    1    4    4    0    0 -0.25879024787E+02  0.47832639484E+02  0.14171406575E+02  0.56200659144E+02  0.00000000000E+00 0. -1.
         13    1    4    4    0    0  0.38011014460E+02 -0.15755523175E+02  0.31205068305E+02  0.51641359575E+02  0.00000000000E+00 0.  1.
          1    1    1    2  501    0 -0.68734720488E+02  0.22564543804E+02  0.11475737856E+03  0.13565720170E+03  0.00000000000E+00 0. -1.
<scales pt_clust_5="13000.00000" pt_clust_6="13000.00000" pt_clust_7="13000.00000" pt_clust_8="13000.00000" pt_clust_9="13000.00000"></scales>
<clustering>
<clus scale="   91.623">  7  8 -1 -1</clus>
<clus scale="   72.344">  7  9 -1 -1</clus>
<clus scale="   95.286">  5  6 -1 -1</clus>
<clus scale="  123.568">  2  5  1 -1</clus>
<clus scale="  183.437">  1  5  2 -1</clus>
</clustering>
</event>
<event>
 9    1  0.3303741E-006  0.1742801E+03  0.7546771E-02  0.1198534E+00
         21   -1    0    0  501  502  0.00000000000E+00  0.00000000000E+00  0.24771245963E+02  0.24771245963E+02  0.00000000000E+00 0.  1.
          1   -1    0    0  502    0 -0.00000000000E+00 -0.00000000000E+00 -0.84153152533E+03  0.84153152533E+03  0.00000000000E+00 0. -1.
         23    2    1    2    0    0  0.35371101012E+02  0.20585975240E+02 -0.44029853520E+03  0.45145700927E+03  0.90971061055E+02 0.  0.
         23    2    1    2    0    0 -0.29735699714E+02 -0.72750232122E+02 -0.24735186424E+03  0.27548210630E+03  0.92361453198E+02 0.  0.
        -13    1    3    3    0    0 -0.23769944414E+02 -0.15098237168E+02 -0.86151450395E+02  0.90636854691E+02  0.00000000000E+00 0.  1.
         13    1    3    3    0    0  0.59141045426E+02  0.35684212408E+02 -0.35414708481E+03  0.36082015458E+03  0.00000000000E+00 0. -1.
        -13    1    4    4    0    0 -0.31526703502E+02 -0.16986301728E+02 -0.19731579479E+03  0.20053924891E+03  0.00000000000E+00 0. -1.
         13    1    4    4    0    0  0.17910037880E+01 -0.55763930395E+02 -0.50036069452E+02  0.74942857391E+02  0.00000000000E+00 0.  1.
          1    1    1    2  501    0 -0.56354012980E+01  0.52164256882E+02 -0.12910987992E+03  0.13936365572E+03  0.00000000000E+00 0. -1.
<scales pt_clust_5="13000.00000" pt_clust_6="13000.00000" pt_clust_7="13000.00000" pt_clust_8="13000.00000" pt_clust_9="13000.00000"></scales>
<clustering>
<clus scale="   90.971">  5  6 -1 -1</clus>
<clus scale="   92.361">  7  8 -1 -1</clus>
<clus scale="   52.468">  7  9 -1 -1</clus>
<clus scale="   99.753">  2  5  1 -1</clus>
<clus scale="  174.280">  1  5  2 -1</clus>
</clustering>
</event>
<event>
 9    1  0.3303741E-006  0.2995663E+03  0.7546771E-02  0.1119666E+00
         -2   -1    0    0    0  501 -0.00000000000E+00  0.00000000000E+00  0.25175386096E+03  0.25175386096E+03  0.00000000000E+00 0.  1.
         21   -1    0    0  501  502  0.00000000000E+00 -0.00000000000E+00 -0.22827271992E+03  0.22827271992E+03  0.00000000000E+00 0.  1.
         23    2    1    2    0    0 -0.79004797139E+02 -0.17140765074E+02  0.11273845642E+03  0.16744566452E+03  0.93768476644E+02 0.  0.
         23    2    1    2    0    0  0.57448790191E+01  0.61030374719E+02  0.81690726119E+02  0.12148788580E+03  0.65789219391E+02 0.  0.
        -11    1    3    3    0    0 -0.89901725903E+02  0.13479488143E+02  0.88794462049E+02  0.12707664385E+03  0.00000000000E+00 0.  1.
         11    1    3    3    0    0  0.10896928764E+02 -0.30620253217E+02  0.23943994367E+02  0.40369020669E+02  0.00000000000E+00 0. -1.
        -11    1    4    4    0    0  0.25949726414E+02  0.29937447944E+02  0.10134307063E+02  0.40894293856E+02  0.00000000000E+00 0.  1.
         11    1    4    4    0    0 -0.20204847395E+02  0.31092926775E+02  0.71556419055E+02  0.80593591939E+02  0.00000000000E+00 0. -1.
         -2    1    1    2    0  502  0.73259918120E+02 -0.43889609645E+02 -0.17094804150E+03  0.19109303056E+03  0.00000000000E+00 0.  1.
<scales pt_clust_5="13000.00000" pt_clust_6="13000.00000" pt_clust_7="13000.00000" pt_clust_8="13000.00000" pt_clust_9="13000.00000"></scales>
<clustering>
<clus scale="   65.789">  7  8 -1 -1</clus>
<clus scale="   85.401">  7  9 -1 -1</clus>
<clus scale="   93.768">  5  6 -1 -1</clus>
<clus scale="  123.807">  1  5  2 -1</clus>
<clus scale="  299.566">  2  5  1 -1</clus>
</clustering>
</event>
<event>
 9    1  0.3303741E-006  0.3289959E+03  0.7546771E-02  0.1080251E+00
         -1   -1    0    0    0  501 -0.00000000000E+00  0.00000000000E+00  0.50256253352E+03  0.50256253352E+03  0.00000000000E+00 0.  1.
         21   -1    0    0  501  502  0.00000000000E+00 -0.00000000000E+00 -0.18652320893E+03  0.18652320893E+03  0.00000000000E+00 0.  1.
         23    2    1    2    0    0 -0.24614037691E+03 -0.12640338050E+02  0.23450373360E+03  0.35013687462E+03  0.82818878325E+02 0.  0.
         23    2    1    2    0    0  0.59227466763E+02  0.57852418031E+02  0.78761501720E+02  0.14662553663E+03  0.91874255091E+02 0.  0.
        -11    1    3    3    0    0 -0.87463175263E+02  0.84638841437E+01  0.35572689879E+02  0.94799053936E+02  0.00000000000E+00 0. -1.
         11    1    3    3    0    0 -0.15867720164E+03 -0.21104222193E+02  0.19893104373E+03  0.25533782069E+03  0.00000000000E+00 0.  1.
        -13    1    4    4    0    0  0.59742800718E+02 -0.56520307979E+01  0.34547132533E+02  0.69243426085E+02  0.00000000000E+00 0.  1.
         13    1    4    4    0    0 -0.51533395565E+00  0.63504448829E+02  0.44214369187E+02  0.77382110547E+02  0.00000000000E+00 0. -1.
         -1    1    1    2    0  502  0.18691291014E+03 -0.45212079981E+02  0.27740892667E+01  0.19232333120E+03  0.00000000000E+00 0.  1.
<scales pt_clust_5="13000.00000" pt_clust_6="13000.00000" pt_clust_7="13000.00000" pt_clust_8="13000.00000" pt_clust_9="13000.00000"></scales>
<clustering>
<clus scale="   82.819">  5  6 -1 -1</clus>
<clus scale="   91.874">  7  8 -1 -1</clus>
<clus scale="  192.303">  7  9 -1 -1</clus>
<clus scale="  260.007">  1  5  2 -1</clus>
<clus scale="  328.996">  2  5  1 -1</clus>
</clustering>
</event>
<event>
 9    1  0.3303741E-006  0.1939854E+03  0.7546771E-02  0.1179501E+00
          1   -1    0    0  502    0 -0.00000000000E+00  0.00000000000E+00  0.48313026105E+03  0.48313026105E+03  0.00000000000E+00 0. -1.
         21   -1    0    0  501  502  0.00000000000E+00 -0.00000000000E+00 -0.56846445020E+02  0.56846445020E+02  0.00000000000E+00 0. -1.
         23    2    1    2    0    0  0.55866848985E+02  0.28012266220E+02  0.26739471903E+03  0.28922569398E+03  0.90806246611E+02 0.  0.
         23    2    1    2    0    0  0.10861620408E+02 -0.69228491957E+02  0.91863174902E+02  0.14758153925E+03  0.91819981092E+02 0.  0.
        -11    1    3    3    0    0 -0.62078516261E+00  0.37836186940E+02  0.41474639026E+02  0.56143638096E+02  0.00000000000E+00 0. -1.
         11    1    3    3    0    0  0.56487634147E+02 -0.98239207203E+01  0.22592008000E+03  0.23308205589E+03  0.00000000000E+00 0.  1.
        -13    1    4    4    0    0 -0.20114687468E+02 -0.47358862123E+02  0.96520038505E+02  0.10937815278E+03  0.00000000000E+00 0.  1.
         13    1    4    4    0    0  0.30976307877E+02 -0.21869629835E+02 -0.46568636036E+01  0.38203386465E+02  0.00000000000E+00 0. -1.
          1    1    1    2  501    0 -0.66728469393E+02  0.41216225738E+02  0.67025922100E+02  0.10316947283E+03  0.00000000000E+00 0. -1.
<scales pt_clust_5="13000.00000" pt_clust_6="13000.00000" pt_clust_7="13000.00000" pt_clust_8="13000.00000" pt_clust_9="13000.00000"></scales>
<clustering>
<clus scale="   90.806">  5  6 -1 -1</clus>
<clus scale="   91.820">  7  8 -1 -1</clus>
<clus scale="   78.431">  7  9 -1 -1</clus>
<clus scale="  110.234">  1  5  2 -1</clus>
<clus scale="  193.985">  2  5  1 -1</clus>
</clustering>
</event>
<event>
 9    1  0.3303741E-006  0.3232607E+03  0.7546771E-02  0.1114311E+00
         21   -1    0    0  501  502  0.00000000000E+00  0.00000000000E+00  0.11213062266E+03  0.11213062266E+03  0.00000000000E+00 0. -1.
         -1   -1    0    0    0  501 -0.00000000000E+00 -0.00000000000E+00 -0.43553005654E+03  0.43553005654E+03  0.00000000000E+00 0.  1.
         23    2    1    2    0    0 -0.54246130755E+02  0.60580844407E+02 -0.46224686753E+02  0.12183993126E+03  0.78074104373E+02 0.  0.
         23    2    1    2    0    0  0.13007211957E+03 -0.12737819938E+03 -0.24835105123E+03  0.32073852939E+03  0.89727351556E+02 0.  0.
        -13    1    4    4    0    0  0.55939589102E+02 -0.27568949794E+02 -0.14921912606E+03  0.16172702991E+03  0.00000000000E+00 0.  1.
         13    1    4    4    0    0  0.74132530469E+02 -0.99809249584E+02 -0.99131925170E+02  0.15901149947E+03  0.00000000000E+00 0. -1.
        -13    1    3    3    0    0 -0.23454505560E+02  0.26947184095E+02 -0.63677449305E+02  0.73014259646E+02  0.00000000000E+00 0.  1.
         13    1    3    3    0    0 -0.30791625196E+02  0.33633660312E+02  0.17452762551E+02  0.48825671617E+02  0.00000000000E+00 0. -1.
         -1    1    1    2    0  502 -0.75825988815E+02  0.66797354971E+02 -0.28823695886E+02  0.10508221855E+03  0.00000000000E+00 0.  1.
<scales pt_clust_5="13000.00000" pt_clust_6="13000.00000" pt_clust_7="13000.00000" pt_clust_8="13000.00000" pt_clust_9="13000.00000"></scales>
<clustering>
<clus scale="   78.074">  7  8 -1 -1</clus>
<clus scale="   89.727">  5  6 -1 -1</clus>
<clus scale="  101.052">  5  9 -1 -1</clus>
<clus scale="  112.731">  2  7  1 -1</clus>
<clus scale="  323.261">  1  5  2 -1</clus>
</clustering>
</event>
<event>
 9    1  0.3303741E-006  0.3023137E+03  0.7546771E-02  0.1130849E+00
         -3   -1    0    0    0  501 -0.00000000000E+00  0.00000000000E+00  0.35282930723E+03  0.35282930723E+03  0.00000000000E+00 0.  1.
         21   -1    0    0  501  502  0.00000000000E+00 -0.00000000000E+00 -0.18171353725E+03  0.18171353725E+03  0.00000000000E+00 0. -1.
         23    2    1    2    0    0 -0.88234912220E+01  0.28854392909E+02  0.21071148654E+03  0.22964714269E+03  0.86186133444E+02 0.  0.
         23    2    1    2    0    0  0.85442422418E+02  0.15314543329E+02 -0.11925171804E+03  0.18587287156E+03  0.11310530201E+03 0.  0.
        -13    1    4    4    0    0  0.78074053631E+02 -0.25747614543E+02 -0.11840457161E+03  0.14414624547E+03  0.00000000000E+00 0.  1.
         13    1    4    4    0    0  0.73683687864E+01  0.41062157872E+02 -0.84714642239E+00  0.41726626088E+02  0.00000000000E+00 0. -1.
        -13    1    3    3    0    0 -0.32311719379E+02 -0.10086999205E+02  0.37290077678E+02  0.50362135136E+02  0.00000000000E+00 0.  1.
         13    1    3    3    0    0  0.23488228157E+02  0.38941392115E+02  0.17342140887E+03  0.17928500756E+03  0.00000000000E+00 0. -1.
         -3    1    1    2    0  502 -0.76618931196E+02 -0.44168936238E+02  0.79656001468E+02  0.11902283023E+03  0.00000000000E+00 0.  1.
<scales pt_clust_5="13000.00000" pt_clust_6="13000.00000" pt_clust_7="13000.00000" pt_clust_8="13000.00000" pt_clust_9="13000.00000"></scales>
<clustering>
<clus scale="   86.186">  7  8 -1 -1</clus>
<clus scale="   91.315">  1  7  2 -1</clus>
<clus scale="  113.105">  5  6 -1 -1</clus>
<clus scale="   86.230">  5  9 -1 -1</clus>
<clus scale="  302.314">  2  5  1 -1</clus>
</clustering>
</event>
<event>
 9    1  0.3303741E-006  0.2132377E+03  0.7546771E-02  0.1169612E+00
         -1   -1    0    0    0  501 -0.00000000000E+00  0.00000000000E+00  0.32240330845E+03  0.32240330845E+03  0.00000000000E+00 0.  1.
         21   -1    0    0  501  502  0.00000000000E+00 -0.00000000000E+00 -0.88589067146E+02  0.88589067146E+02  0.00000000000E+00 0. -1.
         23    2    1    2    0    0  0.43621300358E+02 -0.22990493868E+02  0.14872405351E+03  0.18140435281E+03  0.91418348667E+02 0.  0.
         23    2    1    2    0    0 -0.10564458055E+03 -0.43150476221E+01  0.80178912250E+02  0.16164245258E+03  0.92305078258E+02 0.  0.
        -13    1    3    3    0    0 -0.12349922336E+02  0.22882339472E+02  0.68982717939E+02  0.73720671563E+02  0.00000000000E+00 0.  1.
         13    1    3    3    0    0  0.55971222695E+02 -0.45872833339E+02  0.79741335574E+02  0.10768368125E+03  0.00000000000E+00 0. -1.
        -13    1    4    4    0    0 -0.23778398711E+02  0.40544045903E+02  0.26456378612E+02  0.53936739544E+02  0.00000000000E+00 0.  1.
         13    1    4    4    0    0 -0.81866181840E+02 -0.44859093525E+02  0.53722533638E+02  0.10770571304E+03  0.00000000000E+00 0. -1.
         -1    1    1    2    0  502  0.62023280192E+02  0.27305541490E+02  0.49112755383E+01  0.67945570196E+02  0.00000000000E+00 0.  1.
<scales pt_clust_5="13000.00000" pt_clust_6="13000.00000" pt_clust_7="13000.00000" pt_clust_8="13000.00000" pt_clust_9="13000.00000"></scales>
<clustering>
<clus scale="   91.418">  5  6 -1 -1</clus>
<clus scale="   92.305">  7  8 -1 -1</clus>
<clus scale="   67.768">  7  9 -1 -1</clus>
<clus scale="  103.869">  1  5  2 -1</clus>
<clus scale="  213.238">  2  5  1 -1</clus>
</clustering>
</event>
<event>
 9    1  0.3303741E-006  0.2765599E+03  0.7546771E-02  0.1140214E+00
         21   -1    0    0  501  502  0.00000000000E+00  0.00000000000E+00  0.32939094080E+03  0.32939094080E+03  0.00000000000E+00 0.  1.
         -2   -1    0    0    0  501 -0.00000000000E+00 -0.00000000000E+00 -0.41064821110E+03  0.41064821110E+03  0.00000000000E+00 0.  1.
         23    2    1    2    0    0  0.30080618767E+02 -0.14731127501E+02 -0.34502627483E+03  0.35786188482E+03  0.88882779784E+02 0.  0.
         23    2    1    2    0    0 -0.21647435880E+02 -0.10554065367E+03  0.20302886051E+03  0.24717435965E+03  0.90923070828E+02 0.  0.
        -13    1    3    3    0    0  0.30220938307E+02 -0.50695357831E+02 -0.21436210023E+03  0.22233855813E+03  0.00000000000E+00 0.  1.
         13    1    3    3    0    0 -0.14031954013E+00  0.35964230330E+02 -0.13066417460E+03  0.13552332669E+03  0.00000000000E+00 0. -1.
        -13    1    4    4    0    0  0.15101288202E+01 -0.10388271859E+03  0.19772616395E+03  0.22335965532E+03  0.00000000000E+00 0.  1.
         13    1    4    4    0    0 -0.23157564700E+02 -0.16579350813E+01  0.53026965564E+01  0.23814704330E+02  0.00000000000E+00 0. -1.
         -2    1    1    2    0  502 -0.84331828873E+01  0.12027178117E+03  0.60740144013E+02  0.13500290743E+03  0.00000000000E+00 0.  1.
<scales pt_clust_5="13000.00000" pt_clust_6="13000.00000" pt_clust_7="13000.00000" pt_clust_8="13000.00000" pt_clust_9="13000.00000"></scales>
<clustering>
<clus scale="   88.883">  5  6 -1 -1</clus>
<clus scale="   90.923">  7  8 -1 -1</clus>
<clus scale="   94.984">  2  5  1 -1</clus>
<clus scale="  111.522">  7  9 -1 -1</clus>
<clus scale="  276.560">  1  5  2 -1</clus>
</clustering>
</event>
<event>
 9    1  0.3303741E-006  0.1905300E+03  0.7546771E-02  0.1173595E+00
         -1   -1    0    0    0  501 -0.00000000000E+00  0.00000000000E+00  0.42704397482E+03  0.42704397482E+03  0.00000000000E+00 0.  1.
         21   -1    0    0  501  502  0.00000000000E+00 -0.00000000000E+00 -0.63787654299E+02  0.63787654299E+02  0.00000000000E+00 0. -1.
         23    2    1    2    0    0  0.29211429763E+01 -0.95878746353E+02  0.10251617356E+03  0.16789649425E+03  0.92078226861E+02 0.  0.
         23    2    1    2    0    0  0.10190888814E+02  0.31531012546E+01  0.16575728813E+03  0.18954955053E+03  0.91322271526E+02 0.  0.
        -11    1    4    4    0    0 -0.28972409638E+02  0.98549481823E+01  0.13732070701E+03  0.14068936384E+03  0.00000000000E+00 0.  1.
         11    1    4    4    0    0  0.39163298452E+02 -0.67018469277E+01  0.28436581119E+02  0.48860186692E+02  0.00000000000E+00 0. -1.
        -11    1    3    3    0    0  0.27591111901E+02  0.48383538794E+01  0.12885216019E+02  0.30833551791E+02  0.00000000000E+00 0.  1.
         11    1    3    3    0    0 -0.24669968925E+02 -0.10071710023E+03  0.89630957542E+02  0.13706294246E+03  0.00000000000E+00 0. -1.
         -1    1    1    2    0  502 -0.13112031790E+02  0.92725645099E+02  0.94982858828E+02  0.13338558433E+03  0.00000000000E+00 0.  1.
<scales pt_clust_5="13000.00000" pt_clust_6="13000.00000" pt_clust_7="13000.00000" pt_clust_8="13000.00000" pt_clust_9="13000.00000"></scales>
<clustering>
<clus scale="   91.322">  5  6 -1 -1</clus>
<clus scale="   92.078">  7  8 -1 -1</clus>
<clus scale="   93.648">  5  9 -1 -1</clus>
<clus scale="  132.965">  1  7  2 -1</clus>
<clus scale="  190.530">  2  5  1 -1</clus>
</clustering>
</event>
<event>
 9    1  0.3303741E-006  0.3704188E+03  0.7546771E-02  0.1073151E+00
         21   -1    0    0  501  502  0.00000000000E+00  0.00000000000E+00  0.46712253270E+02  0.46712253270E+02  0.00000000000E+00 0. -1.
          2   -1    0    0  502    0 -0.00000000000E+00 -0.00000000000E+00 -0.19178876524E+04  0.19178876524E+04  0.00000000000E+00 0. -1.
         23    2    1    2    0    0  0.76871185190E+02  0.18309238311E+03 -0.85355922899E+03  0.88166281155E+03  0.96612400939E+02 0.  0.
         23    2    1    2    0    0  0.48731797361E+02  0.43155380372E+01 -0.12196945345E+03  0.15931331830E+03  0.90059834949E+02 0.  0.
        -11    1    3    3    0    0  0.48684968852E+02  0.17122535309E+03 -0.80364751607E+03  0.82312676898E+03  0.00000000000E+00 0. -1.
         11    1    3    3    0    0  0.28186216338E+02  0.11867030022E+02 -0.49911712921E+02  0.58536042569E+02  0.00000000000E+00 0.  1.
        -13    1    4    4    0    0  0.48568249168E+02 -0.36817774060E+02 -0.79712131447E+02  0.10034165244E+03  0.00000000000E+00 0.  1.
         13    1    4    4    0    0  0.16354819271E+00  0.41133312097E+02 -0.42257322005E+02  0.58971665867E+02  0.00000000000E+00 0. -1.
          2    1    1    2  501    0 -0.12560298255E+03 -0.18740792115E+03 -0.89564671671E+03  0.92362377583E+03  0.00000000000E+00 0. -1.
<scales pt_clust_5="13000.00000" pt_clust_6="13000.00000" pt_clust_7="13000.00000" pt_clust_8="13000.00000" pt_clust_9="13000.00000"></scales>
<clustering>
<clus scale="   90.060">  7  8 -1 -1</clus>
<clus scale="   96.612">  5  6 -1 -1</clus>
<clus scale="  220.830">  2  5  1 -1</clus>
<clus scale="   65.692">  7  9 -1 -1</clus>
<clus scale="  370.419">  1  5  2 -1</clus>
</clustering>
</event>
<event>
 9    1  0.3303741E-006  0.2984086E+03  0.7546771E-02  0.1119114E+00
         -1   -1    0    0    0  501 -0.00000000000E+00  0.00000000000E+00  0.36862887191E+03  0.36862887191E+03  0.00000000000E+00 0.  1.
         21   -1    0    0  501  502  0.00000000000E+00 -0.00000000000E+00 -0.16439710562E+03  0.16439710562E+03  0.00000000000E+00 0.  1.
         23    2    1    2    0    0  0.52927512572E+02  0.74275246490E+02 -0.54379830175E+02  0.13814924749E+03  0.88373722470E+02 0.  0.
         23    2    1    2    0    0  0.26982418159E+02  0.39695252191E+02  0.23233216452E+03  0.25322405572E+03  0.88546167531E+02 0.  0.
        -11    1    3    3    0    0  0.28667661172E+02  0.66920296936E+02  0.56150754598E+01  0.73018422412E+02  0.00000000000E+00 0.  1.
         11    1    3    3    0    0  0.24259851400E+02  0.73549495540E+01 -0.59994905635E+02  0.65130825075E+02  0.00000000000E+00 0. -1.
        -13    1    4    4    0    0  0.50174274044E+02  0.25204557533E+01  0.77881989922E+02  0.92679095956E+02  0.00000000000E+00 0.  1.
         13    1    4    4    0    0 -0.23191855885E+02  0.37174796438E+02  0.15445017460E+03  0.16054495976E+03  0.00000000000E+00 0. -1.
         -1    1    1    2    0  502 -0.79909930731E+02 -0.11397049868E+03  0.26279431939E+02  0.14165267432E+03  0.00000000000E+00 0.  1.
<scales pt_clust_5="13000.00000" pt_clust_6="13000.00000" pt_clust_7="13000.00000" pt_clust_8="13000.00000" pt_clust_9="13000.00000"></scales>
<clustering>
<clus scale="   88.374">  5  6 -1 -1</clus>
<clus scale="   88.546">  7  8 -1 -1</clus>
<clus scale="  126.996">  1  5  2 -1</clus>
<clus scale="  115.757">  7  9 -1 -1</clus>
<clus scale="  298.409">  2  5  1 -1</clus>
</clustering>
</event>
<event>
 9    1  0.3303741E-006  0.3344852E+03  0.7546771E-02  0.1090457E+00
         21   -1    0    0  501  502  0.00000000000E+00  0.00000000000E+00  0.49665793942E+03  0.49665793942E+03  0.00000000000E+00 0. -1.
          1   -1    0    0  502    0 -0.00000000000E+00 -0.00000000000E+00 -0.23691582792E+03  0.23691582792E+03  0.00000000000E+00 0. -1.
         23    2    1    2    0    0  0.48272068672E+02  0.15619567291E+03 -0.12317167511E+03  0.22514155855E+03  0.93755954408E+02 0.  0.
         23    2    1    2    0    0 -0.56312890135E+02  0.22945997808E+02  0.34290479130E+02  0.11639317565E+03  0.93133634994E+02 0.  0.
        -11    1    4    4    0    0 -0.81343087270E+02  0.73040433859E+01  0.23781703191E+02  0.85062425918E+02  0.00000000000E+00 0. -1.
         11    1    4    4    0    0  0.25030197135E+02  0.15641954422E+02  0.10508775939E+02  0.31330749728E+02  0.00000000000E+00 0.  1.
        -13    1    3    3    0    0  0.60555545566E+02  0.98069806315E+02 -0.38127966450E+02  0.12140182385E+03  0.00000000000E+00 0. -1.
         13    1    3    3    0    0 -0.12283476894E+02  0.58125866595E+02 -0.85043708659E+02  0.10373973469E+03  0.00000000000E+00 0.  1.
          1    1    1    2  501    0  0.80408214630E+01 -0.17914167072E+03  0.34862330748E+03  0.39203903315E+03  0.00000000000E+00 0. -1.
<scales pt_clust_5="13000.00000" pt_clust_6="13000.00000" pt_clust_7="13000.00000" pt_clust_8="13000.00000" pt_clust_9="13000.00000"></scales>
<clustering>
<clus scale="   93.134">  5  6 -1 -1</clus>
<clus scale="   93.756">  7  8 -1 -1</clus>
<clus scale="  179.322">  5  9 -1 -1</clus>
<clus scale="  188.461">  2  7  1 -1</clus>
<clus scale="  334.485">  1  5  2 -1</clus>
</clustering>
</event>
<event>
 9    1  0.3303741E-006  0.2401753E+03  0.7546771E-02  0.1160204E+00
          3   -1    0    0  502    0 -0.00000000000E+00  0.00000000000E+00  0.72835335479E+02  0.72835335479E+02  0.00000000000E+00 0. -1.
         21   -1    0    0  501  502  0.00000000000E+00 -0.00000000000E+00 -0.40432059844E+03  0.40432059844E+03  0.00000000000E+00 0. -1.
         23    2    1    2    0    0 -0.34651316857E+00 -0.10092528462E+02 -0.15394101185E+03  0.17848199937E+03  0.89755277088E+02 0.  0.
         23    2    1    2    0    0 -0.31204752756E+02 -0.18360111189E+02  0.18272981595E+02  0.98300723500E+02  0.89544961370E+02 0.  0.
        -13    1    4    4    0    0  0.21437711835E+02 -0.33493126626E+02 -0.21952309364E+01  0.39826926303E+02  0.00000000000E+00 0.  1.
         13    1    4    4    0    0 -0.52642464591E+02  0.15133015437E+02  0.20468212531E+02  0.58473797197E+02  0.00000000000E+00 0. -1.
        -13    1    3    3    0    0 -0.30989094429E+02 -0.22481130919E+02 -0.13513649916E+03  0.14045497010E+03  0.00000000000E+00 0. -1.
         13    1    3    3    0    0  0.30642581261E+02  0.12388602457E+02 -0.18804512696E+02  0.38027029267E+02  0.00000000000E+00 0.  1.
          3    1    1    2  501    0  0.31551265924E+02  0.28452639651E+02 -0.19581723270E+03  0.20037321106E+03  0.00000000000E+00 0. -1.
<scales pt_clust_5="13000.00000" pt_clust_6="13000.00000" pt_clust_7="13000.00000" pt_clust_8="13000.00000" pt_clust_9="13000.00000"></scales>
<clustering>
<clus scale="   89.545">  5  6 -1 -1</clus>
<clus scale="   42.486">  5  9 -1 -1</clus>
<clus scale="   89.755">  7  8 -1 -1</clus>
<clus scale="   90.322">  1  7  2 -1</clus>
<clus scale="  240.175">  2  5  1 -1</clus>
</clustering>
</event>
<event>
 9    1  0.3303741E-006  0.1689009E+03  0.7546771E-02  0.1194695E+00
          2   -1    0    0  502    0 -0.00000000000E+00  0.00000000000E+00  0.86672049232E+02  0.86672049232E+02  0.00000000000E+00 0. -1.
         21   -1    0    0  501  502  0.00000000000E+00 -0.00000000000E+00 -0.24139319825E+03  0.24139319825E+03  0.00000000000E+00 0.  1.
         23    2    1    2    0    0 -0.61152382256E+02  0.36355997783E+02 -0.78892224566E+02  0.14292330174E+03  0.95612314333E+02 0.  0.
         23    2    1    2    0    0  0.38069916213E+02 -0.71197684736E+02 -0.39897547378E+02  0.13002563920E+03  0.93789251682E+02 0.  0.
        -11    1    3    3    0    0 -0.31816491319E+02  0.68321446140E+02 -0.44193413735E+02  0.87367997230E+02  0.00000000000E+00 0. -1.
         11    1    3    3    0    0 -0.29335890937E+02 -0.31965448357E+02 -0.34698810831E+02  0.55555304507E+02  0.00000000000E+00 0.  1.
        -13    1    4    4    0    0  0.54377895718E+02 -0.85066166269E+02 -0.40056753363E+02  0.10861745567E+03  0.00000000000E+00 0.  1.
         13    1    4    4    0    0 -0.16307979505E+02  0.13868481533E+02  0.15920598443E+00  0.21408183532E+02  0.00000000000E+00 0. -1.
          2    1    1    2  501    0  0.23082466043E+02  0.34841686953E+02 -0.35931377070E+02  0.55116306539E+02  0.00000000000E+00 0. -1.
<scales pt_clust_5="13000.00000" pt_clust_6="13000.00000" pt_clust_7="13000.00000" pt_clust_8="13000.00000" pt_clust_9="13000.00000"></scales>
<clustering>
<clus scale="   93.789">  7  8 -1 -1</clus>
<clus scale="   41.794">  7  9 -1 -1</clus>
<clus scale="   95.612">  5  6 -1 -1</clus>
<clus scale="  119.177">  1  5  2 -1</clus>
<clus scale="  168.901">  2  5  1 -1</clus>
</clustering>
</event>
<event>
 9    1  0.3303741E-006  0.2834072E+03  0.7546771E-02  0.1134976E+00
         21   -1    0    0  501  502  0.00000000000E+00  0.00000000000E+00  0.62929005339E+02  0.62929005339E+02  0.00000000000E+00 0. -1.
          2   -1    0    0  502    0 -0.00000000000E+00 -0.00000000000E+00 -0.59640101499E+03  0.59640101499E+03  0.00000000000E+00 0. -1.
         23    2    1    2    0    0 -0.39986053642E+02  0.25211080570E+02 -0.18268371591E+03  0.20836208037E+03  0.88356852643E+02 0.  0.
         23    2    1    2    0    0  0.12831043210E+02 -0.71061312827E+02 -0.37313906045E+03  0.39318217040E+03  0.10072296083E+03 0.  0.
        -11    1    3    3    0    0  0.25982652830E+02 -0.10063282427E+01 -0.28252988067E+02  0.38397164991E+02  0.00000000000E+00 0.  1.
         11    1    3    3    0    0 -0.65968706472E+02  0.26217408813E+02 -0.15443072785E+03  0.16996491538E+03  0.00000000000E+00 0. -1.
        -11    1    4    4    0    0  0.35204410733E+02 -0.72098291261E+02 -0.35613548495E+03  0.36506163558E+03  0.00000000000E+00 0.  1.
         11    1    4    4    0    0 -0.22373367522E+02  0.10369784331E+01 -0.17003575503E+02  0.28120534818E+02  0.00000000000E+00 0. -1.
          2    1    1    2  501    0  0.27155010431E+02  0.45850232257E+02  0.22350766715E+02  0.57785769548E+02  0.00000000000E+00 0. -1.
<scales pt_clust_5="13000.00000" pt_clust_6="13000.00000" pt_clust_7="13000.00000" pt_clust_8="13000.00000" pt_clust_9="13000.00000"></scales>
<clustering>
<clus scale="   88.357">  5  6 -1 -1</clus>
<clus scale="  100.207">  2  5  1 -1</clus>
<clus scale="  100.723">  7  8 -1 -1</clus>
<clus scale="   53.387">  7  9 -1 -1</clus>
<clus scale="  283.407">  1  5  2 -1</clus>
</clustering>
</event>
<event>
 9    1  0.3303741E-006  0.2647146E+03  0.7546771E-02  0.1145500E+00
         21   -1    0    0  501  502  0.00000000000E+00  0.00000000000E+00  0.62146072114E+02  0.62146072114E+02  0.00000000000E+00 0. -1.
          2   -1    0    0  502    0 -0.00000000000E+00 -0.00000000000E+00 -0.56823063924E+03  0.56823063924E+03  0.00000000000E+00 0. -1.
         23    2    1    2    0    0 -0.98460868526E+01  0.24355883449E+01 -0.22433235454E+03  0.24377857831E+03  0.94868922383E+02 0.  0.
         23    2    1    2    0    0  0.95388753841E+02 -0.37571550310E+02 -0.25614939166E+03  0.29064195483E+03  0.91376141877E+02 0.  0.
        -11    1    3    3    0    0 -0.10809077082E+02  0.47969961565E+02 -0.10175376446E+03  0.11301230880E+03  0.00000000000E+00 0.  1.
         11    1    3    3    0    0  0.96299022942E+00 -0.45534373220E+02 -0.12257859008E+03  0.13076626951E+03  0.00000000000E+00 0. -1.
        -11    1    4    4    0    0  0.45196076358E+01  0.23403462814E+02 -0.23165899638E+02  0.33238649655E+02  0.00000000000E+00 0.  1.
         11    1    4    4    0    0  0.90869146205E+02 -0.60975013123E+02 -0.23298349202E+03  0.25740330517E+03  0.00000000000E+00 0. -1.
          2    1    1    2  501    0 -0.85542666988E+02  0.35135961965E+02 -0.25602820928E+02  0.95956178218E+02  0.00000000000E+00 0. -1.
<scales pt_clust_5="13000.00000" pt_clust_6="13000.00000" pt_clust_7="13000.00000" pt_clust_8="13000.00000" pt_clust_9="13000.00000"></scales>
<clustering>
<clus scale="   91.376">  7  8 -1 -1</clus>
<clus scale="   92.478">  7  9 -1 -1</clus>
<clus scale="   94.869">  5  6 -1 -1</clus>
<clus scale="   95.410">  2  5  1 -1</clus>
<clus scale="  264.715">  1  5  2 -1</clus>
</clustering>
</event>
<event>
 9    1  0.3303741E-006  0.1576945E+03  0.7546771E-02  0.1206121E+00
         21   -1    0    0  501  502  0.00000000000E+00  0.00000000000E+00  0.14690596694E+03  0.14690596694E+03  0.00000000000E+00 0. -1.
          2   -1    0    0  502    0 -0.00000000000E+00 -0.00000000000E+00 -0.46176966104E+03  0.46176966104E+03  0.00000000000E+00 0. -1.
         23    2    1    2    0    0 -0.30817655630E+02  0.57934512592E+02 -0.40924183417E+03  0.42489645614E+03  0.93552038780E+02 0.  0.
         23    2    1    2    0    0  0.41670135137E+02 -0.47135403471E+01  0.44805381063E+02  0.11024206125E+03  0.91581506167E+02 0.  0.
        -11    1    4    4    0    0  0.51466047515E+02 -0.38361844699E+02  0.37833310944E+02  0.74510030147E+02  0.00000000000E+00 0.  1.
         11    1    4    4    0    0 -0.97959123780E+01  0.33648304352E+02  0.69720701190E+01  0.35732031104E+02  0.00000000000E+00 0. -1.
        -13    1    3    3    0    0  0.22717107599E+02  0.37979119149E+02 -0.86784266365E+02  0.97416576400E+02  0.00000000000E+00 0.  1.
         13    1    3    3    0    0 -0.53534763229E+02  0.19955393443E+02 -0.32245756780E+03  0.32747987974E+03  0.00000000000E+00 0. -1.
          2    1    1    2  501    0 -0.10852479507E+02 -0.53220972245E+02  0.49572759000E+02  0.73537110584E+02  0.00000000000E+00 0. -1.
<scales pt_clust_5="13000.00000" pt_clust_6="13000.00000" pt_clust_7="13000.00000" pt_clust_8="13000.00000" pt_clust_9="13000.00000"></scales>
<clustering>
<clus scale="   91.582">  5  6 -1 -1</clus>
<clus scale="   54.316">  5  9 -1 -1</clus>
<clus scale="   93.552">  7  8 -1 -1</clus>
<clus scale="  114.272">  2  7  1 -1</clus>
<clus scale="  157.694">  1  5  2 -1</clus>
</clustering>
</event>
<event>
 9    1  0.3303741E-006  0.2531918E+03  0.7546771E-02  0.1127110E+00
         -1   -1    0    0    0  501 -0.00000000000E+00  0.00000000000E+00  0.53527780381E+02  0.53527780381E+02  0.00000000000E+00 0.  1.
         21   -1    0    0  501  502  0.00000000000E+00 -0.00000000000E+00 -0.84072028277E+03  0.84072028277E+03  0.00000000000E+00 0.  1.
         23    2    1    2    0    0 -0.11797393609E+03 -0.82453073820E+02 -0.29242821062E+03  0.33846230887E+03  0.91247559842E+02 0.  0.
         23    2    1    2    0    0  0.26064986042E+02  0.96328946760E+02 -0.16806075258E+03  0.21611680153E+03  0.92213913623E+02 0.  0.
        -11    1    4    4    0    0  0.91996891446E+01  0.11226877944E+03 -0.13780069029E+03  0.17798298616E+03  0.00000000000E+00 0.  1.
         11    1    4    4    0    0  0.16865296898E+02 -0.15939832679E+02 -0.30260062291E+02  0.38133815376E+02  0.00000000000E+00 0. -1.
        -13    1    3    3    0    0 -0.79374194959E+02 -0.62597128221E+02 -0.10374548034E+03  0.14485091638E+03  0.00000000000E+00 0.  1.
         13    1    3    3    0    0 -0.38599741126E+02 -0.19855945599E+02 -0.18868273029E+03  0.19361139248E+03  0.00000000000E+00 0. -1.
         -1    1    1    2    0  502  0.91908950043E+02 -0.13875872940E+02 -0.32670353919E+03  0.33966895275E+03  0.00000000000E+00 0.  1.
<scales pt_clust_5="13000.00000" pt_clust_6="13000.00000" pt_clust_7="13000.00000" pt_clust_8="13000.00000" pt_clust_9="13000.00000"></scales>
<clustering>
<clus scale="   91.248">  7  8 -1 -1</clus>
<clus scale="   92.214">  5  6 -1 -1</clus>
<clus scale="   92.951">  5  9 -1 -1</clus>
<clus scale="  170.419">  1  7  2 -1</clus>
<clus scale="  253.192">  2  5  1 -1</clus>
</clustering>
</event>
<event>
 9    1  0.3303741E-006  0.3214168E+03  0.7546771E-02  0.1099133E+00
         21   -1    0    0  501  502  0.00000000000E+00  0.00000000000E+00  0.61943158032E+02  0.61943158032E+02  0.00000000000E+00 0. -1.
          1   -1    0    0  502    0 -0.00000000000E+00 -0.00000000000E+00 -0.97311704691E+03  0.97311704691E+03  0.00000000000E+00 0. -1.
         23    2    1    2    0    0  0.13738002995E+03  0.40497623293E+02 -0.33445195264E+03  0.37482012605E+03  0.90103763192E+02 0.  0.
         23    2    1    2    0    0  0.50755606072E+02 -0.13712229011E+02 -0.34333407894E+03  0.35927103261E+03  0.91832610452E+02 0.  0.
        -11    1    3    3    0    0  0.14320155162E+03  0.20937047169E+02 -0.31486625183E+03  0.34653398228E+03  0.00000000000E+00 0. -1.
         11    1    3    3    0    0 -0.58215216774E+01  0.19560576124E+02 -0.19585700815E+02  0.28286143769E+02  0.00000000000E+00 0.  1.
        -13    1    4    4    0    0  0.14970637669E+02 -0.51419668543E+02 -0.18722479013E+03  0.19473372678E+03  0.00000000000E+00 0.  1.
         13    1    4    4    0    0  0.35784968403E+02  0.37707439531E+02 -0.15610928881E+03  0.16453730583E+03  0.00000000000E+00 0. -1.
          1    1    1    2  501    0 -0.18813563602E+03 -0.26785394282E+02 -0.23338785730E+03  0.30096904628E+03  0.00000000000E+00 0. -1.
<scales pt_clust_5="13000.00000" pt_clust_6="13000.00000" pt_clust_7="13000.00000" pt_clust_8="13000.00000" pt_clust_9="13000.00000"></scales>
<clustering>
<clus scale="   90.104">  5  6 -1 -1</clus>
<clus scale="   91.833">  7  8 -1 -1</clus>
<clus scale="  169.210">  2  5  1 -1</clus>
<clus scale="  129.123">  7  9 -1 -1</clus>
<clus scale="  321.417">  1  5  2 -1</clus>
</clustering>
</event>
<event>
 9    1  0.3303741E-006  0.2568973E+03  0.7546771E-02  0.1140476E+00
          1   -1    0    0  502    0 -0.00000000000E+00  0.00000000000E+00  0.56318964887E+02  0.56318964887E+02  0.00000000000E+00 0. -1.
         21   -1    0    0  501  502  0.00000000000E+00 -0.00000000000E+00 -0.82400261769E+03  0.82400261769E+03  0.00000000000E+00 0. -1.
         23    2    1    2    0    0  0.42154275708E+02  0.59790494552E+02 -0.70348416009E+02  0.13717109574E+03  0.92277427753E+02 0.  0.
         23    2    1    2    0    0 -0.69245779452E+02 -0.13442470663E+03 -0.50129611824E+03  0.53164268275E+03  0.92093236624E+02 0.  0.
        -13    1    4    4    0    0  0.21149286791E+02 -0.10648989658E+02 -0.73358374838E+02  0.77085306455E+02  0.00000000000E+00 0.  1.
         13    1    4    4    0    0 -0.90395066243E+02 -0.12377571697E+03 -0.42793774340E+03  0.45455737629E+03  0.00000000000E+00 0. -1.
        -13    1    3    3    0    0  0.40362856664E+02  0.72290269972E+01  0.89951522293E+01  0.41980135696E+02  0.00000000000E+00 0. -1.
         13    1    3    3    0    0  0.17914190444E+01  0.52561467554E+02 -0.79343568238E+02  0.95190960046E+02  0.00000000000E+00 0.  1.
          1    1    1    2  501    0  0.27091503744E+02  0.74634212074E+02 -0.19603911855E+03  0.21150780409E+03  0.00000000000E+00 0. -1.
<scales pt_clust_5="13000.00000" pt_clust_6="13000.00000" pt_clust_7="13000.00000" pt_clust_8="13000.00000" pt_clust_9="13000.00000"></scales>
<clustering>
<clus scale="   92.093">  5  6 -1 -1</clus>
<clus scale="   79.399">  5  9 -1 -1</clus>
<clus scale="   92.277">  7  8 -1 -1</clus>
<clus scale="  117.758">  1  7  2 -1</clus>
<clus scale="  256.897">  2  5  1 -1</clus>
</clustering>
</event>
<event>
 9    1  0.3303741E-006  0.5527237E+03  0.7546771E-02  0.1053874E+00
         21   -1    0    0  501  502  0.00000000000E+00  0.00000000000E+00  0.25668954169E+03  0.25668954169E+03  0.00000000000E+00 0. -1.
          2   -1    0    0  502    0 -0.00000000000E+00 -0.00000000000E+00 -0.53135332603E+03  0.53135332603E+03  0.00000000000E+00 0. -1.
         23    2    1    2    0    0  0.34343525984E+02  0.58796478700E+02 -0.20039645171E+03  0.23035195406E+03  0.90921841145E+02 0.  0.
         23    2    1    2    0    0 -0.15003419248E+03 -0.10730438253E+03 -0.26454323219E+03  0.32978245616E+03  0.68911953015E+02 0.  0.
        -11    1    3    3    0    0 -0.21717569141E+02 -0.70756795283E+01 -0.72007306527E+02  0.75543168080E+02  0.00000000000E+00 0. -1.
         11    1    3    3    0    0  0.56061095125E+02  0.65872158228E+02 -0.12838914518E+03  0.15480878598E+03  0.00000000000E+00 0.  1.
        -11    1    4    4    0    0 -0.14546685243E+02 -0.45647356415E+02 -0.59112459944E+02  0.76089224729E+02  0.00000000000E+00 0.  1.
         11    1    4    4    0    0 -0.13548750724E+03 -0.61657026112E+02 -0.20543077225E+03  0.25369323143E+03  0.00000000000E+00 0. -1.
          2    1    1    2  501    0  0.11569066650E+03  0.48507903827E+02  0.19027589956E+03  0.22790845751E+03  0.00000000000E+00 0. -1.
<scales pt_clust_5="13000.00000" pt_clust_6="13000.00000" pt_clust_7="13000.00000" pt_clust_8="13000.00000" pt_clust_9="13000.00000"></scales>
<clustering>
<clus scale="   68.912">  7  8 -1 -1</clus>
<clus scale="   90.922">  5  6 -1 -1</clus>
<clus scale="  113.593">  2  5  1 -1</clus>
<clus scale="  128.712">  7  9 -1 -1</clus>
<clus scale="  552.724">  1  5  2 -1</clus>
</clustering>
</event>
<event>
 9    1  0.3303741E-006  0.4267834E+03  0.7546771E-02  0.1047046E+00
          1   -1    0    0  502    0 -0.00000000000E+00  0.00000000000E+00  0.10255977922E+04  0.10255977922E+04  0.00000000000E+00 0. -1.
         21   -1    0    0  501  502  0.00000000000E+00 -0.00000000000E+00 -0.15935932150E+03  0.15935932150E+03  0.00000000000E+00 0. -1.
         23    2    1    2    0    0  0.27105483931E+02 -0.28445986466E+03  0.62873924571E+03  0.69654132122E+03  0.90579529763E+02 0.  0.
         23    2    1    2    0    0  0.51360552717E+02 -0.23226883609E+02  0.45513389459E+02  0.11735432183E+03  0.92321036246E+02 0.  0.
        -13    1    4    4    0    0  0.16852138931E+02 -0.23402107507E+02 -0.25438926068E+02  0.38455067050E+02  0.00000000000E+00 0. -1.
         13    1    4    4    0    0  0.34508413786E+02  0.17522389861E+00  0.70952315527E+02  0.78899254776E+02  0.00000000000E+00 0.  1.
        -13    1    3    3    0    0  0.68654760625E+01 -0.16947545189E+03  0.46866165637E+03  0.49841028451E+03  0.00000000000E+00 0.  1.
         13    1    3    3    0    0  0.20240007869E+02 -0.11498441278E+03  0.16007758933E+03  0.19813103671E+03  0.00000000000E+00 0. -1.
          1    1    1    2  501    0 -0.78466036648E+02  0.30768674827E+03  0.19198583554E+03  0.37106147067E+03  0.00000000000E+00 0. -1.
<scales pt_clust_5="13000.00000" pt_clust_6="13000.00000" pt_clust_7="13000.00000" pt_clust_8="13000.00000" pt_clust_9="13000.00000"></scales>
<clustering>
<clus scale="   90.580">  7  8 -1 -1</clus>
<clus scale="   92.321">  5  6 -1 -1</clus>
<clus scale="  299.761">  1  7  2 -1</clus>
<clus scale="  104.293">  5  9 -1 -1</clus>
<clus scale="  426.783">  2  5  1 -1</clus>
</clustering>
</event>
<event>
 9    1  0.3303741E-006  0.5190264E+03  0.7546771E-02  0.1061542E+00
         21   -1    0    0  501  502  0.00000000000E+00  0.00000000000E+00  0.41660453746E+03  0.41660453746E+03  0.00000000000E+00 0. -1.
          2   -1    0    0  502    0 -0.00000000000E+00 -0.00000000000E+00 -0.47400731247E+03  0.47400731247E+03  0.00000000000E+00 0. -1.
         23    2    1    2    0    0 -0.58897714421E+02  0.23026545229E+02 -0.29849725263E+03  0.31832264782E+03  0.90716788632E+02 0.  0.
         23    2    1    2    0    0 -0.78420501301E+02  0.90075885003E+02 -0.10572525990E+03  0.18250415568E+03  0.88693270185E+02 0.  0.
        -13    1    4    4    0    0 -0.48047592010E+02  0.66373656035E+02 -0.11656357741E+03  0.14248193181E+03  0.00000000000E+00 0. -1.
         13    1    4    4    0    0 -0.30372909291E+02  0.23702228968E+02  0.10838317514E+02  0.40022223868E+02  0.00000000000E+00 0.  1.
        -13    1    3    3    0    0  0.25480393443E+01 -0.28497730263E+02 -0.10593655071E+03  0.10973224645E+03  0.00000000000E+00 0.  1.
         13    1    3    3    0    0 -0.61445753766E+02  0.51524275492E+02 -0.19256070192E+03  0.20859040137E+03  0.00000000000E+00 0. -1.
          2    1    1    2  501    0  0.13731821572E+03 -0.11310243023E+03  0.34681973751E+03  0.38978504643E+03  0.00000000000E+00 0. -1.
<scales pt_clust_5="13000.00000" pt_clust_6="13000.00000" pt_clust_7="13000.00000" pt_clust_8="13000.00000" pt_clust_9="13000.00000"></scales>
<clustering>
<clus scale="   88.693">  5  6 -1 -1</clus>
<clus scale="   90.717">  7  8 -1 -1</clus>
<clus scale="  110.583">  2  7  1 -1</clus>
<clus scale="  170.122">  5  9 -1 -1</clus>
<clus scale="  519.026">  1  5  2 -1</clus>
</clustering>
</event>
<event>
 9    1  0.3303741E-006  0.3518470E+03  0.7546771E-02  0.1091376E+00
          2   -1    0    0  502    0 -0.00000000000E+00  0.00000000000E+00  0.30031771279E+03  0.30031771279E+03  0.00000000000E+00 0. -1.
         21   -1    0    0  501  502  0.00000000000E+00 -0.00000000000E+00 -0.30894602483E+03  0.30894602483E+03  0.00000000000E+00 0. -1.
         23    2    1    2    0    0  0.11585041087E+03  0.55178797556E+02  0.15488198615E+03  0.22127927453E+03  0.92250042303E+02 0.  0.
         23    2    1    2    0    0  0.15974438080E+02  0.93561298010E+02 -0.19336952765E+01  0.13184308526E+03  0.91487489836E+02 0.  0.
        -11    1    4    4    0    0 -0.29186232825E+02  0.31532312875E+02  0.25963184360E+02  0.50201692042E+02  0.00000000000E+00 0.  1.
         11    1    4    4    0    0  0.45160670904E+02  0.62028985134E+02 -0.27896879636E+02  0.81641393219E+02  0.00000000000E+00 0. -1.
        -11    1    3    3    0    0  0.34201837788E+02 -0.30978380164E+01 -0.27326532698E+01  0.34450394806E+02  0.00000000000E+00 0.  1.
         11    1    3    3    0    0  0.81648573087E+02  0.58276635573E+02  0.15761463942E+03  0.18682887973E+03  0.00000000000E+00 0. -1.
          2    1    1    2  501    0 -0.13182484895E+03 -0.14874009557E+03 -0.16157660291E+03  0.25614137783E+03  0.00000000000E+00 0. -1.
<scales pt_clust_5="13000.00000" pt_clust_6="13000.00000" pt_clust_7="13000.00000" pt_clust_8="13000.00000" pt_clust_9="13000.00000"></scales>
<clustering>
<clus scale="   91.487">  5  6 -1 -1</clus>
<clus scale="   92.250">  7  8 -1 -1</clus>
<clus scale="  158.038">  1  7  2 -1</clus>
<clus scale="  150.470">  5  9 -1 -1</clus>
<clus scale="  351.847">  2  5  1 -1</clus>
</clustering>
</event>
<event>
 9    1  0.3303741E-006  0.3101260E+03  0.7546771E-02  0.1085795E+00
         21   -1    0    0  501  502  0.00000000000E+00  0.00000000000E+00  0.56152878864E+03  0.56152878864E+03  0.00000000000E+00 0.  1.
         -1   -1    0    0    0  501 -0.00000000000E+00 -0.00000000000E+00 -0.20310416495E+03  0.20310416495E+03  0.00000000000E+00 0.  1.
         23    2    1    2    0    0 -0.43350639860E+02 -0.24721342776E+03 -0.28127440183E+02  0.26905186569E+03  0.92757731223E+02 0.  0.
         23    2    1    2    0    0  0.28020582180E+02  0.41093498842E+02  0.12202796717E+03  0.15988266147E+03  0.90541769328E+02 0.  0.
        -11    1    4    4    0    0 -0.32176761888E+02  0.20703759140E+02  0.59382749670E+02  0.70642059756E+02  0.00000000000E+00 0.  1.
         11    1    4    4    0    0  0.60197344068E+02  0.20389739702E+02  0.62645217501E+02  0.89240601711E+02  0.00000000000E+00 0. -1.
        -13    1    3    3    0    0 -0.10781159231E+01 -0.17708809583E+03 -0.50533824781E+02  0.18416032001E+03  0.00000000000E+00 0. -1.
         13    1    3    3    0    0 -0.42272523937E+02 -0.70125331927E+02  0.22406384598E+02  0.84891545684E+02  0.00000000000E+00 0.  1.
         -1    1    1    2    0  502  0.15330057680E+02  0.20611992892E+03  0.26452409670E+03  0.33569842642E+03  0.00000000000E+00 0.  1.
<scales pt_clust_5="13000.00000" pt_clust_6="13000.00000" pt_clust_7="13000.00000" pt_clust_8="13000.00000" pt_clust_9="13000.00000"></scales>
<clustering>
<clus scale="   90.542">  5  6 -1 -1</clus>
<clus scale="   92.758">  7  8 -1 -1</clus>
<clus scale="  206.689">  5  9 -1 -1</clus>
<clus scale="  267.578">  2  7  1 -1</clus>
<clus scale="  310.126">  1  5  2 -1</clus>
</clustering>
</event>
<event>
 9    1  0.3303741E-006  0.2273163E+03  0.7546771E-02  0.1166908E+00
         21   -1    0    0  501  502  0.00000000000E+00  0.00000000000E+00  0.41272638796E+02  0.41272638796E+02  0.00000000000E+00 0.  1.
          1   -1    0    0  502    0 -0.00000000000E+00 -0.00000000000E+00 -0.63850848687E+03  0.63850848687E+03  0.00000000000E+00 0. -1.
         23    2    1    2    0    0 -0.15754016469E+02 -0.14732892248E+01 -0.23548130794E+03  0.25253524460E+03  0.89845666348E+02 0.  0.
         23    2    1    2    0    0  0.49743740382E+02  0.33085960545E+02 -0.36541836269E+03  0.38068317157E+03  0.88430632869E+02 0.  0.
        -11    1    3    3    0    0  0.28115277814E+01  0.42186002241E+02 -0.88375428098E+02  0.97968258967E+02  0.00000000000E+00 0.  1.
         11    1    3    3    0    0 -0.18565544251E+02 -0.43659291465E+02 -0.14710587984E+03  0.15456698563E+03  0.00000000000E+00 0. -1.
        -13    1    4    4    0    0  0.19255072177E+02 -0.28850079133E+02 -0.83123277456E+02  0.90069773651E+02  0.00000000000E+00 0. -1.
         13    1    4    4    0    0  0.30488668205E+02  0.61936039678E+02 -0.28229508524E+03  0.29061339792E+03  0.00000000000E+00 0.  1.
          1    1    1    2  501    0 -0.33989723913E+02 -0.31612671320E+02  0.36638225605E+01  0.46562709494E+02  0.00000000000E+00 0. -1.
<scales pt_clust_5="13000.00000" pt_clust_6="13000.00000" pt_clust_7="13000.00000" pt_clust_8="13000.00000" pt_clust_9="13000.00000"></scales>
<clustering>
<clus scale="   88.431">  7  8 -1 -1</clus>
<clus scale="   46.418">  7  9 -1 -1</clus>
<clus scale="   89.846">  5  6 -1 -1</clus>
<clus scale="   91.228">  2  5  1 -1</clus>
<clus scale="  227.316">  1  5  2 -1</clus>
</clustering>
</event>
<event>
 9    1  0.3303741E-006  0.1464080E+03  0.7546771E-02  0.1224172E+00
          3   -1    0    0  502    0 -0.00000000000E+00  0.00000000000E+00  0.84705976564E+02  0.84705976564E+02  0.00000000000E+00 0. -1.
         21   -1    0    0  501  502  0.00000000000E+00 -0.00000000000E+00 -0.20627772923E+03  0.20627772923E+03  0.00000000000E+00 0.  1.
         23    2    1    2    0    0 -0.38731619936E+02  0.13630113208E+02 -0.10563336556E+03  0.14371067942E+03  0.88365338747E+02 0.  0.
         23    2    1    2    0    0 -0.15256541679E+02 -0.71549911829E+01 -0.16933758608E+02  0.92888841499E+02  0.89764295417E+02 0.  0.
        -11    1    4    4    0    0  0.35569751634E+01 -0.44431276214E+02 -0.23868832871E+02  0.50561957646E+02  0.00000000000E+00 0. -1.
         11    1    4    4    0    0 -0.18813516843E+02  0.37276285031E+02  0.69350742628E+01  0.42326883854E+02  0.00000000000E+00 0.  1.
        -13    1    3    3    0    0  0.21267776280E+02  0.69225449191E+01 -0.37734913634E+00  0.22369227265E+02  0.00000000000E+00 0. -1.
         13    1    3    3    0    0 -0.59999396216E+02  0.67075682892E+01 -0.10525601642E+03  0.12134145216E+03  0.00000000000E+00 0.  1.
          3    1    1    2  501    0  0.53988161615E+02 -0.64751220254E+01  0.99537149990E+00  0.54384184872E+02  0.00000000000E+00 0. -1.
<scales pt_clust_5="13000.00000" pt_clust_6="13000.00000" pt_clust_7="13000.00000" pt_clust_8="13000.00000" pt_clust_9="13000.00000"></scales>
<clustering>
<clus scale="   88.365">  7  8 -1 -1</clus>
<clus scale="   89.764">  5  6 -1 -1</clus>
<clus scale="   54.375">  5  9 -1 -1</clus>
<clus scale="   97.439">  1  7  2 -1</clus>
<clus scale="  146.408">  2  5  1 -1</clus>
</clustering>
</event>
<event>
 9    1  0.3303741E-006  0.3974111E+03  0.7546771E-02  0.1094498E+00
         21   -1    0    0  501  502  0.00000000000E+00  0.00000000000E+00  0.72315214760E+02  0.72315214760E+02  0.00000000000E+00 0.  1.
          1   -1    0    0  502    0 -0.00000000000E+00 -0.00000000000E+00 -0.11068117455E+04  0.11068117455E+04  0.00000000000E+00 0. -1.
         23    2    1    2    0    0 -0.64264553638E+00 -0.41815815668E+02 -0.51626524180E+03  0.52605784257E+03  0.91967811794E+02 0.  0.
         23    2    1    2    0    0 -0.14267474456E+03  0.27050977485E+02 -0.11367659001E+03  0.22362484985E+03  0.12648267959E+03 0.  0.
        -11    1    4    4    0    0 -0.11518313363E+03  0.68301996111E+02 -0.50033381721E+02  0.14295333586E+03  0.00000000000E+00 0.  1.
         11    1    4    4    0    0 -0.27491610927E+02 -0.41251018626E+02 -0.63643208290E+02  0.80671513997E+02  0.00000000000E+00 0. -1.
        -11    1    3    3    0    0 -0.33387960941E+02  0.13327902509E+02 -0.15229868410E+03  0.15648411453E+03  0.00000000000E+00 0.  1.
         11    1    3    3    0    0  0.32745315405E+02 -0.55143718177E+02 -0.36396655770E+03  0.36957372805E+03  0.00000000000E+00 0. -1.
          1    1    1    2  501    0  0.14331739009E+03  0.14764838184E+02 -0.40455469889E+03  0.42944426780E+03  0.00000000000E+00 0. -1.
<scales pt_clust_5="13000.00000" pt_clust_6="13000.00000" pt_clust_7="13000.00000" pt_clust_8="13000.00000" pt_clust_9="13000.00000"></scales>
<clustering>
<clus scale="   91.968">  7  8 -1 -1</clus>
<clus scale="  101.030">  2  7  1 -1</clus>
<clus scale="  126.483">  5  6 -1 -1</clus>
<clus scale="  143.646">  5  9 -1 -1</clus>
<clus scale="  397.411">  1  5  2 -1</clus>
</clustering>
</event>
<event>
 9    1  0.3303741E-006  0.3697890E+03  0.7546771E-02  0.1105675E+00
         21   -1    0    0  501  502  0.00000000000E+00  0.00000000000E+00  0.30704172771E+03  0.30704172771E+03  0.00000000000E+00 0. -1.
          2   -1    0    0  502    0 -0.00000000000E+00 -0.00000000000E+00 -0.26707897924E+03  0.26707897924E+03  0.00000000000E+00 0. -1.
         23    2    1    2    0    0  0.70414309552E+01 -0.25027142423E+02 -0.13549492014E+03  0.16481727960E+03  0.90166083765E+02 0.  0.
         23    2    1    2    0    0  0.16821150724E+03  0.10058441841E+02  0.71491006056E+02  0.20498328329E+03  0.92254534104E+02 0.  0.
        -13    1    4    4    0    0  0.13716221622E+03 -0.14047847690E+02  0.86657016164E+02  0.16285040385E+03  0.00000000000E+00 0. -1.
         13    1    4    4    0    0  0.31049291024E+02  0.24106289531E+02 -0.15166010108E+02  0.42132879448E+02  0.00000000000E+00 0.  1.
        -13    1    3    3    0    0 -0.67363176888E+01 -0.51974079439E+02 -0.43945899221E+02  0.68395357795E+02  0.00000000000E+00 0. -1.
         13    1    3    3    0    0  0.13777748644E+02  0.26946937016E+02 -0.91549020923E+02  0.96421921803E+02  0.00000000000E+00 0.  1.
          2    1    1    2  501    0 -0.17525293820E+03  0.14968700582E+02  0.10396666256E+03  0.20432014406E+03  0.00000000000E+00 0. -1.
<scales pt_clust_5="13000.00000" pt_clust_6="13000.00000" pt_clust_7="13000.00000" pt_clust_8="13000.00000" pt_clust_9="13000.00000"></scales>
<clustering>
<clus scale="   90.166">  7  8 -1 -1</clus>
<clus scale="   92.255">  5  6 -1 -1</clus>
<clus scale="   93.840">  2  7  1 -1</clus>
<clus scale="  172.283">  5  9 -1 -1</clus>
<clus scale="  369.789">  1  5  2 -1</clus>
</clustering>
</event>
<event>
 9    1  0.3303741E-006  0.3719888E+03  0.7546771E-02  0.1101435E+00
         21   -1    0    0  501  502  0.00000000000E+00  0.00000000000E+00  0.21351888005E+03  0.21351888005E+03  0.00000000000E+00 0.  1.
         -2   -1    0    0    0  501 -0.00000000000E+00 -0.00000000000E+00 -0.26464973294E+03  0.26464973294E+03  0.00000000000E+00 0.  1.
         23    2    1    2    0    0 -0.23087594955E+02 -0.20893761346E+02 -0.11337186288E+01  0.10283495251E+03  0.98000795075E+02 0.  0.
         23    2    1    2    0    0  0.27479755664E+02  0.13463739520E+03 -0.14996730289E+03  0.22383798419E+03  0.93439210579E+02 0.  0.
        -13    1    4    4    0    0  0.58868278556E+02  0.61005186919E+02 -0.62859426138E+02  0.10553868725E+03  0.00000000000E+00 0. -1.
         13    1    4    4    0    0 -0.31388522892E+02  0.73632208281E+02 -0.87107876756E+02  0.11829929695E+03  0.00000000000E+00 0.  1.
        -13    1    3    3    0    0 -0.50823554956E+02 -0.55210052583E+01  0.29265352929E+02  0.58906503202E+02  0.00000000000E+00 0. -1.
         13    1    3    3    0    0  0.27735960000E+02 -0.15372756087E+02 -0.30399071558E+02  0.43928449306E+02  0.00000000000E+00 0.  1.
         -2    1    1    2    0  502 -0.43921607088E+01 -0.11374363385E+03  0.99970168627E+02  0.15149567629E+03  0.00000000000E+00 0.  1.
<scales pt_clust_5="13000.00000" pt_clust_6="13000.00000" pt_clust_7="13000.00000" pt_clust_8="13000.00000" pt_clust_9="13000.00000"></scales>
<clustering>
<clus scale="   93.439">  5  6 -1 -1</clus>
<clus scale="   98.001">  7  8 -1 -1</clus>
<clus scale="  102.829">  2  7  1 -1</clus>
<clus scale="  116.497">  5  9 -1 -1</clus>
<clus scale="  371.989">  1  5  2 -1</clus>
</clustering>
</event>
<event>
 9    1  0.3303741E-006  0.2540571E+03  0.7546771E-02  0.1143082E+00
          3   -1    0    0  502    0 -0.00000000000E+00  0.00000000000E+00  0.15371603190E+03  0.15371603190E+03  0.00000000000E+00 0. -1.
         21   -1    0    0  501  502  0.00000000000E+00 -0.00000000000E+00 -0.30262532317E+03  0.30262532317E+03  0.00000000000E+00 0. -1.
         23    2    1    2    0    0  0.69284755450E+02  0.11519344693E+02  0.58426370321E+02  0.12841895232E+03  0.90248068820E+02 0.  0.
         23    2    1    2    0    0  0.11206323008E+02 -0.60930980839E+02  0.11651863282E+02  0.89435800311E+02  0.63441550721E+02 0.  0.
        -11    1    4    4    0    0  0.21680525119E+02 -0.12195484642E+02  0.27545426828E+02  0.37115031379E+02  0.00000000000E+00 0. -1.
         11    1    4    4    0    0 -0.10474202111E+02 -0.48735496198E+02 -0.15893563546E+02  0.52320768932E+02  0.00000000000E+00 0.  1.
        -13    1    3    3    0    0  0.61873472522E+02 -0.30866243346E+02  0.23597508433E+02  0.73060892305E+02  0.00000000000E+00 0. -1.
         13    1    3    3    0    0  0.74112829277E+01  0.42385588038E+02  0.34828861888E+02  0.55358060013E+02  0.00000000000E+00 0.  1.
          3    1    1    2  501    0 -0.80491078458E+02  0.49411636147E+02 -0.21898752487E+03  0.23848660244E+03  0.00000000000E+00 0. -1.
<scales pt_clust_5="13000.00000" pt_clust_6="13000.00000" pt_clust_7="13000.00000" pt_clust_8="13000.00000" pt_clust_9="13000.00000"></scales>
<clustering>
<clus scale="   63.442">  5  6 -1 -1</clus>
<clus scale="   90.248">  7  8 -1 -1</clus>
<clus scale="   94.448">  5  9 -1 -1</clus>
<clus scale="  114.358">  1  7  2 -1</clus>
<clus scale="  254.057">  2  5  1 -1</clus>
</clustering>
</event>
<event>
 9    1  0.3303741E-006  0.1802448E+03  0.7546771E-02  0.1180327E+00
          1   -1    0    0  502    0 -0.00000000000E+00  0.00000000000E+00  0.28828758221E+02  0.28828758221E+02  0.00000000000E+00 0. -1.
         21   -1    0    0  501  502  0.00000000000E+00 -0.00000000000E+00 -0.90322404294E+03  0.90322404294E+03  0.00000000000E+00 0. -1.
         23    2    1    2    0    0  0.54726656955E+02 -0.83974700326E+02 -0.47674999709E+03  0.49546377405E+03  0.90260923952E+02 0.  0.
         23    2    1    2    0    0 -0.77971164222E+02  0.32943391889E+02 -0.28124373781E+03  0.30738445150E+03  0.90677403177E+02 0.  0.
        -11    1    3    3    0    0  0.22991154426E+02  0.15693169831E+02 -0.66536022451E+02  0.72124275004E+02  0.00000000000E+00 0.  1.
         11    1    3    3    0    0  0.31735502529E+02 -0.99667870157E+02 -0.41021397464E+03  0.42333949904E+03  0.00000000000E+00 0. -1.
        -13    1    4    4    0    0  0.15339935485E+02  0.25814608606E+02 -0.79851175500E+02  0.85310713670E+02  0.00000000000E+00 0.  1.
         13    1    4    4    0    0 -0.93311099707E+02  0.71287832831E+01 -0.20139256231E+03  0.22207373783E+03  0.00000000000E+00 0. -1.
          1    1    1    2  501    0  0.23244507267E+02  0.51031308437E+02 -0.11640154982E+03  0.12920457561E+03  0.00000000000E+00 0. -1.
<scales pt_clust_5="13000.00000" pt_clust_6="13000.00000" pt_clust_7="13000.00000" pt_clust_8="13000.00000" pt_clust_9="13000.00000"></scales>
<clustering>
<clus scale="   90.261">  5  6 -1 -1</clus>
<clus scale="   90.677">  7  8 -1 -1</clus>
<clus scale="   56.076">  7  9 -1 -1</clus>
<clus scale="  134.884">  1  5  2 -1</clus>
<clus scale="  180.245">  2  5  1 -1</clus>
</clustering>
</event>
<event>
 9    1  0.3303741E-006  0.3119737E+03  0.7546771E-02  0.1116978E+00
          1   -1    0    0  502    0 -0.00000000000E+00  0.00000000000E+00  0.98873914961E+03  0.98873914961E+03  0.00000000000E+00 0. -1.
         21   -1    0    0  501  502  0.00000000000E+00 -0.00000000000E+00 -0.53157852829E+02  0.53157852829E+02  0.00000000000E+00 0. -1.
         23    2    1    2    0    0  0.40551941120E+02 -0.60441998428E+02  0.44766922504E+03  0.46277199752E+03  0.91937432721E+02 0.  0.
         23    2    1    2    0    0 -0.22400363379E+02  0.15614098196E+03  0.42649908873E+03  0.46397584207E+03  0.92142969402E+02 0.  0.
        -11    1    3    3    0    0  0.59254879075E+02 -0.11207258378E+02  0.17601002539E+03  0.18605448764E+03  0.00000000000E+00 0.  1.
         11    1    3    3    0    0 -0.18702937955E+02 -0.49234740049E+02  0.27165919965E+03  0.27671750987E+03  0.00000000000E+00 0. -1.
        -11    1    4    4    0    0  0.31629176592E+02  0.54201301375E+02  0.20264450117E+03  0.21213905755E+03  0.00000000000E+00 0.  1.
         11    1    4    4    0    0 -0.54029539971E+02  0.10193968058E+03  0.22385458756E+03  0.25183678452E+03  0.00000000000E+00 0. -1.
          1    1    1    2  501    0 -0.18151577742E+02 -0.95698983527E+02  0.61412983000E+02  0.11514916284E+03  0.00000000000E+00 0. -1.
<scales pt_clust_5="13000.00000" pt_clust_6="13000.00000" pt_clust_7="13000.00000" pt_clust_8="13000.00000" pt_clust_9="13000.00000"></scales>
<clustering>
<clus scale="   91.937">  5  6 -1 -1</clus>
<clus scale="   92.143">  7  8 -1 -1</clus>
<clus scale="   97.405">  7  9 -1 -1</clus>
<clus scale="  117.261">  1  5  2 -1</clus>
<clus scale="  311.974">  2  5  1 -1</clus>
</clustering>
</event>
<event>
 9    1  0.3303741E-006  0.2779078E+03  0.7546771E-02  0.1114517E+00
         21   -1    0    0  501  502  0.00000000000E+00  0.00000000000E+00  0.50296774528E+02  0.50296774528E+02  0.00000000000E+00 0. -1.
          1   -1    0    0  502    0 -0.00000000000E+00 -0.00000000000E+00 -0.11908237840E+04  0.11908237840E+04  0.00000000000E+00 0. -1.
         23    2    1    2    0    0  0.14793269584E+03 -0.35473264511E+02 -0.68620428438E+03  0.70854015752E+03  0.89500837549E+02 0.  0.
         23    2    1    2    0    0  0.74116848063E+01 -0.44918838945E+02 -0.19825984554E+03  0.22247886090E+03  0.90095738126E+02 0.  0.
        -11    1    4    4    0    0  0.39405167177E+02 -0.45858271363E+02 -0.16753393879E+03  0.17811055247E+03  0.00000000000E+00 0. -1.
         11    1    4    4    0    0 -0.31993482371E+02  0.93943241884E+00 -0.30725906748E+02  0.44368308430E+02  0.00000000000E+00 0.  1.
        -13    1    3    3    0    0  0.99748490164E+02  0.12081221972E+02 -0.29816473148E+03  0.31463935595E+03  0.00000000000E+00 0. -1.
         13    1    3    3    0    0  0.48184205675E+02 -0.47554486483E+02 -0.38803955291E+03  0.39390080158E+03  0.00000000000E+00 0.  1.
          1    1    1    2  501    0 -0.15534438065E+03  0.80392103456E+02 -0.25606287956E+03  0.31010154012E+03  0.00000000000E+00 0. -1.
<scales pt_clust_5="13000.00000" pt_clust_6="13000.00000" pt_clust_7="13000.00000" pt_clust_8="13000.00000" pt_clust_9="13000.00000"></scales>
<clustering>
<clus scale="   89.501">  7  8 -1 -1</clus>
<clus scale="   90.096">  5  6 -1 -1</clus>
<clus scale="  174.914">  5  9 -1 -1</clus>
<clus scale="  176.502">  2  7  1 -1</clus>
<clus scale="  277.908">  1  5  2 -1</clus>
</clustering>
</event>
<event>
 9    1  0.3303741E-006  0.3202636E+03  0.7546771E-02  0.1120692E+00
         21   -1    0    0  501  502  0.00000000000E+00  0.00000000000E+00  0.42242928849E+03  0.42242928849E+03  0.00000000000E+00 0.  1.
         -3   -1    0    0    0  501 -0.00000000000E+00 -0.00000000000E+00 -0.15911566547E+03  0.15911566547E+03  0.00000000000E+00 0.  1.
         23    2    1    2    0    0 -0.76876058660E+01  0.34803155185E+02 -0.68653576540E+02  0.12027388663E+03  0.92098508883E+02 0.  0.
         23    2    1    2    0    0 -0.41212219063E+01  0.17388101436E+02 -0.29721167514E+02  0.95645780250E+02  0.89137180456E+02 0.  0.
        -11    1    3    3    0    0 -0.41322558071E+02 -0.98346249226E+01 -0.34949147001E+02  0.55006513514E+02  0.00000000000E+00 0. -1.
         11    1    3    3    0    0  0.33634952205E+02  0.44637780107E+02 -0.33704429539E+02  0.65267373115E+02  0.00000000000E+00 0.  1.
        -13    1    4    4    0    0  0.39112335308E+02  0.17997724484E+02 -0.29880877608E+02  0.52407630232E+02  0.00000000000E+00 0.  1.
         13    1    4    4    0    0 -0.43233557215E+02 -0.60962304770E+00  0.15971009451E+00  0.43238150018E+02  0.00000000000E+00 0. -1.
         -3    1    1    2    0  502  0.11808827772E+02 -0.52191256620E+02  0.36168836707E+03  0.36562528709E+03  0.00000000000E+00 0.  1.
<scales pt_clust_5="13000.00000" pt_clust_6="13000.00000" pt_clust_7="13000.00000" pt_clust_8="13000.00000" pt_clust_9="13000.00000"></scales>
<clustering>
<clus scale="   89.137">  7  8 -1 -1</clus>
<clus scale="   53.511">  7  9 -1 -1</clus>
<clus scale="   92.099">  5  6 -1 -1</clus>
<clus scale="   98.755">  2  5  1 -1</clus>
<clus scale="  320.264">  1  5  2 -1</clus>
</clustering>
</event>
<event>
 9    1  0.3303741E-006  0.1509504E+03  0.7546771E-02  0.1215797E+00
         -1   -1    0    0    0  501 -0.00000000000E+00  0.00000000000E+00  0.89170374927E+02  0.89170374927E+02  0.00000000000E+00 0.  1.
         21   -1    0    0  501  502  0.00000000000E+00 -0.00000000000E+00 -0.24652708197E+03  0.24652708197E+03  0.00000000000E+00 0. -1.
         23    2    1    2    0    0  0.61282470110E+01 -0.86172610690E+01  0.14472753743E+02  0.10698060976E+03  0.10546837281E+03 0.  0.
         23    2    1    2    0    0 -0.47923553324E+02  0.24696729832E+02 -0.81998650997E+02  0.12834269044E+03  0.82713191190E+02 0.  0.
        -13    1    4    4    0    0  0.17756664305E+02  0.23502678345E+02 -0.10559471156E+02  0.31291811193E+02  0.00000000000E+00 0.  1.
         13    1    4    4    0    0 -0.65680217629E+02  0.11940514876E+01 -0.71439179840E+02  0.97050879249E+02  0.00000000000E+00 0. -1.
        -13    1    3    3    0    0 -0.56504063136E+00  0.39787322322E+02  0.35929326895E+02  0.53612189095E+02  0.00000000000E+00 0.  1.
         13    1    3    3    0    0  0.66932876424E+01 -0.48404583391E+02 -0.21456573151E+02  0.53368420663E+02  0.00000000000E+00 0. -1.
         -1    1    1    2    0  502  0.41795306313E+02 -0.16079468763E+02 -0.89830809794E+02  0.10037415670E+03  0.00000000000E+00 0.  1.
<scales pt_clust_5="13000.00000" pt_clust_6="13000.00000" pt_clust_7="13000.00000" pt_clust_8="13000.00000" pt_clust_9="13000.00000"></scales>
<clustering>
<clus scale="   82.713">  5  6 -1 -1</clus>
<clus scale="   44.782">  5  9 -1 -1</clus>
<clus scale="  105.468">  7  8 -1 -1</clus>
<clus scale="  105.997">  1  7  2 -1</clus>
<clus scale="  150.950">  2  5  1 -1</clus>
</clustering>
</event>
<event>
 9    1  0.3303741E-006  0.1851630E+03  0.7546771E-02  0.1182669E+00
         21   -1    0    0  501  502  0.00000000000E+00  0.00000000000E+00  0.13491028778E+03  0.13491028778E+03  0.00000000000E+00 0. -1.
          2   -1    0    0  502    0 -0.00000000000E+00 -0.00000000000E+00 -0.19898911369E+03  0.19898911369E+03  0.00000000000E+00 0. -1.
         23    2    1    2    0    0  0.72007415652E+02 -0.12300864379E+02 -0.87934230210E+02  0.14720598053E+03  0.92740458735E+02 0.  0.
         23    2    1    2    0    0 -0.39568389128E+02 -0.50368488978E+02  0.30760050433E+02  0.11578917263E+03  0.91423791737E+02 0.  0.
        -13    1    4    4    0    0 -0.77771395250E+01 -0.59594460056E+02  0.49401985743E+02  0.77798070438E+02  0.00000000000E+00 0.  1.
         13    1    4    4    0    0 -0.31791249603E+02  0.92259710777E+01 -0.18641935310E+02  0.37991102192E+02  0.00000000000E+00 0. -1.
        -13    1    3    3    0    0  0.18098385970E+02  0.25233034840E+02 -0.73725760886E+02  0.79998408985E+02  0.00000000000E+00 0.  1.
         13    1    3    3    0    0  0.53909029682E+02 -0.37533899218E+02 -0.14208469324E+02  0.67207571540E+02  0.00000000000E+00 0. -1.
          2    1    1    2  501    0 -0.32439026524E+02  0.62669353357E+02 -0.69046461327E+01  0.70904248322E+02  0.00000000000E+00 0. -1.
<scales pt_clust_5="13000.00000" pt_clust_6="13000.00000" pt_clust_7="13000.00000" pt_clust_8="13000.00000" pt_clust_9="13000.00000"></scales>
<clustering>
<clus scale="   91.424">  5  6 -1 -1</clus>
<clus scale="   70.567">  5  9 -1 -1</clus>
<clus scale="   92.740">  7  8 -1 -1</clus>
<clus scale="  118.056">  2  7  1 -1</clus>
<clus scale="  185.163">  1  5  2 -1</clus>
</clustering>
</event>
<event>
 9    1  0.3303741E-006  0.1749291E+03  0.7546771E-02  0.1181116E+00
         -3   -1    0    0    0  501 -0.00000000000E+00  0.00000000000E+00  0.16553290527E+03  0.16553290527E+03  0.00000000000E+00 0.  1.
         21   -1    0    0  501  502  0.00000000000E+00 -0.00000000000E+00 -0.15918228240E+03  0.15918228240E+03  0.00000000000E+00 0.  1.
         23    2    1    2    0    0 -0.25671604891E+02 -0.10736588552E+03  0.30457877552E+02  0.14813277355E+03  0.93963671835E+02 0.  0.
         23    2    1    2    0    0  0.21599939477E+02  0.73758805577E+02 -0.24862221088E+02  0.14272116406E+03  0.11766172635E+03 0.  0.
        -11    1    3    3    0    0 -0.18133558022E+02 -0.42283011396E+02 -0.33236400842E+02  0.56756826199E+02  0.00000000000E+00 0. -1.
         11    1    3    3    0    0 -0.75380468689E+01 -0.65082874120E+02  0.63694278394E+02  0.91375947352E+02  0.00000000000E+00 0.  1.
        -13    1    4    4    0    0  0.40735405405E+02  0.92042397188E+02  0.74788433536E+01  0.10093121039E+03  0.00000000000E+00 0.  1.
         13    1    4    4    0    0 -0.19135465929E+02 -0.18283591611E+02 -0.32341064441E+02  0.41789953669E+02  0.00000000000E+00 0. -1.
         -3    1    1    2    0  502  0.40716654145E+01  0.33607079938E+02  0.75496641291E+00  0.33861250058E+02  0.00000000000E+00 0.  1.
<scales pt_clust_5="13000.00000" pt_clust_6="13000.00000" pt_clust_7="13000.00000" pt_clust_8="13000.00000" pt_clust_9="13000.00000"></scales>
<clustering>
<clus scale="   93.964">  5  6 -1 -1</clus>
<clus scale="  117.662">  7  8 -1 -1</clus>
<clus scale="   33.853">  7  9 -1 -1</clus>
<clus scale="  144.968">  1  5  2 -1</clus>
<clus scale="  174.929">  2  5  1 -1</clus>
</clustering>
</event>
<event>
 9    1  0.3303741E-006  0.1094356E+03  0.7546771E-02  0.1271017E+00
         -3   -1    0    0    0  501 -0.00000000000E+00  0.00000000000E+00  0.19162508168E+03  0.19162508168E+03  0.00000000000E+00 0.  1.
         21   -1    0    0  501  502  0.00000000000E+00 -0.00000000000E+00 -0.54210812397E+02  0.54210812397E+02  0.00000000000E+00 0. -1.
         23    2    1    2    0    0 -0.91842130903E+00 -0.10248745303E+01  0.84451311834E+02  0.12425778605E+03  0.91137695050E+02 0.  0.
         23    2    1    2    0    0  0.21481926008E+02  0.37860693819E+01  0.41841037731E+02  0.98037100807E+02  0.85934819659E+02 0.  0.
        -11    1    4    4    0    0 -0.92469769386E+01 -0.34049239067E+02  0.33371998242E+02  0.48564879596E+02  0.00000000000E+00 0.  1.
         11    1    4    4    0    0  0.30728902946E+02  0.37835308448E+02  0.84690394893E+01  0.49472221211E+02  0.00000000000E+00 0. -1.
        -13    1    3    3    0    0  0.40043242741E+02 -0.17860151527E+02  0.57877978499E+02  0.72610651401E+02  0.00000000000E+00 0.  1.
         13    1    3    3    0    0 -0.40961664050E+02  0.16835276997E+02  0.26573333335E+02  0.51647134653E+02  0.00000000000E+00 0. -1.
         -3    1    1    2    0  502 -0.20563504699E+02 -0.27611948516E+01  0.11121919715E+02  0.23541007214E+02  0.00000000000E+00 0.  1.
<scales pt_clust_5="13000.00000" pt_clust_6="13000.00000" pt_clust_7="13000.00000" pt_clust_8="13000.00000" pt_clust_9="13000.00000"></scales>
<clustering>
<clus scale="   85.935">  5  6 -1 -1</clus>
<clus scale="   20.748">  5  9 -1 -1</clus>
<clus scale="   91.138">  7  8 -1 -1</clus>
<clus scale="   91.148">  1  7  2 -1</clus>
<clus scale="  109.436">  2  5  1 -1</clus>
</clustering>
</event>
<event>
 9    1  0.3303741E-006  0.4022200E+03  0.7546771E-02  0.1094026E+00
          2   -1    0    0  502    0 -0.00000000000E+00  0.00000000000E+00  0.88219497348E+03  0.88219497348E+03  0.00000000000E+00 0.  1.
         21   -1    0    0  501  502  0.00000000000E+00 -0.00000000000E+00 -0.71285016299E+02  0.71285016299E+02  0.00000000000E+00 0.  1.
         23    2    1    2    0    0  0.40749944255E+02  0.13084868394E+02  0.17989023732E+03  0.20517068908E+03  0.88897370256E+02 0.  0.
         23    2    1    2    0    0 -0.17552034890E+03  0.10495009597E+03  0.34347304021E+03  0.40951967901E+03  0.88942243196E+02 0.  0.
        -11    1    4    4    0    0 -0.14092526546E+03  0.35361195073E+02  0.22342763376E+03  0.26651501288E+03  0.00000000000E+00 0.  1.
         11    1    4    4    0    0 -0.34595083440E+02  0.69588900894E+02  0.12004540645E+03  0.14300466613E+03  0.00000000000E+00 0. -1.
        -13    1    3    3    0    0  0.38133896360E+02 -0.32218641810E+02  0.67421022618E+02  0.83891770887E+02  0.00000000000E+00 0. -1.
         13    1    3    3    0    0  0.26160478947E+01  0.45303510204E+02  0.11246921470E+03  0.12127891819E+03  0.00000000000E+00 0.  1.
          2    1    1    2  501    0  0.13477040465E+03 -0.11803496436E+03  0.28754667965E+03  0.33878962168E+03  0.00000000000E+00 0.  1.
<scales pt_clust_5="13000.00000" pt_clust_6="13000.00000" pt_clust_7="13000.00000" pt_clust_8="13000.00000" pt_clust_9="13000.00000"></scales>
<clustering>
<clus scale="   88.897">  7  8 -1 -1</clus>
<clus scale="   88.942">  5  6 -1 -1</clus>
<clus scale="   98.664">  1  7  2 -1</clus>
<clus scale="  189.889">  5  9 -1 -1</clus>
<clus scale="  402.220">  2  5  1 -1</clus>
</clustering>
</event>
<event>
 9    1  0.3303741E-006  0.5955295E+03  0.7546771E-02  0.1049040E+00
         21   -1    0    0  501  502  0.00000000000E+00  0.00000000000E+00  0.18171301756E+03  0.18171301756E+03  0.00000000000E+00 0. -1.
          2   -1    0    0  502    0 -0.00000000000E+00 -0.00000000000E+00 -0.72480931504E+03  0.72480931504E+03  0.00000000000E+00 0. -1.
         23    2    1    2    0    0 -0.27989404879E+02 -0.43348006794E+02 -0.56853864988E+01  0.10435905868E+03  0.90531944810E+02 0.  0.
         23    2    1    2    0    0 -0.77713516860E+02 -0.15432406720E+03 -0.54390658926E+03  0.57790995658E+03  0.91050709245E+02 0.  0.
        -11    1    3    3    0    0  0.21189078948E+02  0.85525530628E+01 -0.21228758656E+02  0.31189476184E+02  0.00000000000E+00 0.  1.
         11    1    3    3    0    0 -0.49178483827E+02 -0.51900559856E+02  0.15543372158E+02  0.73169582498E+02  0.00000000000E+00 0. -1.
        -11    1    4    4    0    0 -0.41545000133E+02 -0.23243034000E+02 -0.24422159638E+03  0.24881803352E+03  0.00000000000E+00 0. -1.
         11    1    4    4    0    0 -0.36168516727E+02 -0.13108103320E+03 -0.29968499288E+03  0.32909192307E+03  0.00000000000E+00 0.  1.
          2    1    1    2  501    0  0.10570292174E+03  0.19767207399E+03  0.64956782806E+01  0.22425331734E+03  0.00000000000E+00 0. -1.
<scales pt_clust_5="13000.00000" pt_clust_6="13000.00000" pt_clust_7="13000.00000" pt_clust_8="13000.00000" pt_clust_9="13000.00000"></scales>
<clustering>
<clus scale="   90.532">  5  6 -1 -1</clus>
<clus scale="   91.051">  7  8 -1 -1</clus>
<clus scale="  104.204">  2  5  1 -1</clus>
<clus scale="  215.801">  7  9 -1 -1</clus>
<clus scale="  595.530">  1  5  2 -1</clus>
</clustering>
</event>
<event>
 9    1  0.3303741E-006  0.1372017E+03  0.7546771E-02  0.1230392E+00
         -1   -1    0    0    0  501 -0.00000000000E+00  0.00000000000E+00  0.19879764581E+03  0.19879764581E+03  0.00000000000E+00 0.  1.
         21   -1    0    0  501  502  0.00000000000E+00 -0.00000000000E+00 -0.18418393995E+03  0.18418393995E+03  0.00000000000E+00 0. -1.
         23    2    1    2    0    0  0.36212932741E+02 -0.40876674756E+02  0.15499306976E+03  0.18668927599E+03  0.88587555895E+02 0.  0.
         23    2    1    2    0    0 -0.66194910613E+00  0.46645494185E+02 -0.99862124626E+02  0.14208162454E+03  0.89657703480E+02 0.  0.
        -11    1    3    3    0    0  0.13141427519E+02 -0.57481034419E+02  0.14504728000E+03  0.15657419925E+03  0.00000000000E+00 0.  1.
         11    1    3    3    0    0  0.23071505223E+02  0.16604359663E+02  0.99457897570E+01  0.30115076738E+02  0.00000000000E+00 0. -1.
        -11    1    4    4    0    0  0.15922339858E+02  0.66104697074E+02 -0.93718210895E+02  0.11578624674E+03  0.00000000000E+00 0.  1.
         11    1    4    4    0    0 -0.16584288964E+02 -0.19459202890E+02 -0.61439137308E+01  0.26295377797E+02  0.00000000000E+00 0. -1.
         -1    1    1    2    0  502 -0.35550983635E+02 -0.57688194288E+01 -0.40517239267E+02  0.54210685228E+02  0.00000000000E+00 0.  1.
<scales pt_clust_5="13000.00000" pt_clust_6="13000.00000" pt_clust_7="13000.00000" pt_clust_8="13000.00000" pt_clust_9="13000.00000"></scales>
<clustering>
<clus scale="   88.588">  5  6 -1 -1</clus>
<clus scale="   89.658">  7  8 -1 -1</clus>
<clus scale="   36.016">  7  9 -1 -1</clus>
<clus scale="  104.067">  1  5  2 -1</clus>
<clus scale="  137.202">  2  5  1 -1</clus>
</clustering>
</event>
<event>
 9    1  0.3303741E-006  0.2305533E+03  0.7546771E-02  0.1163754E+00
         21   -1    0    0  501  502  0.00000000000E+00  0.00000000000E+00  0.95577967128E+02  0.95577967128E+02  0.00000000000E+00 0. -1.
          1   -1    0    0  502    0 -0.00000000000E+00 -0.00000000000E+00 -0.43361764984E+03  0.43361764984E+03  0.00000000000E+00 0. -1.
         23    2    1    2    0    0  0.13375504599E+02  0.22324759043E+02 -0.27433327363E+03  0.29000255878E+03  0.90362824708E+02 0.  0.
         23    2    1    2    0    0  0.14648589409E+02  0.35137701996E+00 -0.13327797791E+03  0.16083643638E+03  0.88829247636E+02 0.  0.
        -11    1    3    3    0    0  0.37411840729E+02 -0.21265204130E+02 -0.15072374757E+03  0.15674661979E+03  0.00000000000E+00 0.  1.
         11    1    3    3    0    0 -0.24036336130E+02  0.43589963173E+02 -0.12360952606E+03  0.13325593899E+03  0.00000000000E+00 0. -1.
        -11    1    4    4    0    0  0.27909167428E+02 -0.25089005546E+02 -0.17229726590E+02  0.41294591706E+02  0.00000000000E+00 0.  1.
         11    1    4    4    0    0 -0.13260578019E+02  0.25440382566E+02 -0.11604825132E+03  0.11954184468E+03  0.00000000000E+00 0. -1.
          1    1    1    2  501    0 -0.28024094008E+02 -0.22676136063E+02  0.69571568827E+02  0.78356621805E+02  0.00000000000E+00 0. -1.
<scales pt_clust_5="13000.00000" pt_clust_6="13000.00000" pt_clust_7="13000.00000" pt_clust_8="13000.00000" pt_clust_9="13000.00000"></scales>
<clustering>
<clus scale="   88.829">  7  8 -1 -1</clus>
<clus scale="   36.049">  7  9 -1 -1</clus>
<clus scale="   90.363">  5  6 -1 -1</clus>
<clus scale="   94.036">  2  5  1 -1</clus>
<clus scale="  230.553">  1  5  2 -1</clus>
</clustering>
</event>
<event>
 9    1  0.3303741E-006  0.3769753E+03  0.7546771E-02  0.1084464E+00
         21   -1    0    0  501  502  0.00000000000E+00  0.00000000000E+00  0.13997592596E+03  0.13997592596E+03  0.00000000000E+00 0.  1.
          1   -1    0    0  502    0 -0.00000000000E+00 -0.00000000000E+00 -0.68689316749E+03  0.68689316749E+03  0.00000000000E+00 0. -1.
         23    2    1    2    0    0 -0.72046790378E+02 -0.10236729590E+03 -0.38834489266E+03  0.41790021778E+03  0.90327366275E+02 0.  0.
         23    2    1    2    0    0 -0.91343741003E+02  0.45266307558E+02 -0.18963444537E+03  0.23312279964E+03  0.89399660066E+02 0.  0.
        -13    1    4    4    0    0 -0.52533609640E+02 -0.68929742781E+01 -0.30302621635E+02  0.61037219089E+02  0.00000000000E+00 0.  1.
         13    1    4    4    0    0 -0.38810131363E+02  0.52159281837E+02 -0.15933182374E+03  0.17208558055E+03  0.00000000000E+00 0. -1.
        -13    1    3    3    0    0 -0.22018731095E+02 -0.10023706534E+03 -0.28834787515E+03  0.30606664453E+03  0.00000000000E+00 0.  1.
         13    1    3    3    0    0 -0.50028059284E+02 -0.21302305605E+01 -0.99997017504E+02  0.11183357326E+03  0.00000000000E+00 0. -1.
          1    1    1    2  501    0  0.16339053138E+03  0.57100988338E+02  0.31062096494E+02  0.17584607602E+03  0.00000000000E+00 0. -1.
<scales pt_clust_5="13000.00000" pt_clust_6="13000.00000" pt_clust_7="13000.00000" pt_clust_8="13000.00000" pt_clust_9="13000.00000"></scales>
<clustering>
<clus scale="   89.400">  5  6 -1 -1</clus>
<clus scale="   90.327">  7  8 -1 -1</clus>
<clus scale="  154.366">  2  7  1 -1</clus>
<clus scale="  148.285">  5  9 -1 -1</clus>
<clus scale="  376.975">  1  5  2 -1</clus>
</clustering>
</event>
<event>
 9    1  0.3441646E-006  0.8961596E+03  0.7546771E-02  0.9952233E-01
          1   -1    0    0  502    0 -0.00000000000E+00  0.00000000000E+00  0.33398277191E+03  0.33398277191E+03  0.00000000000E+00 0. -1.
         21   -1    0    0  501  502  0.00000000000E+00 -0.00000000000E+00 -0.82759884546E+03  0.82759884546E+03  0.00000000000E+00 0. -1.
         23    2    1    2    0    0  0.73802212679E+02 -0.98137654507E+02 -0.82631285232E+02  0.17567571186E+03  0.94637522214E+02 0.  0.
         23    2    1    2    0    0 -0.37532950963E+03  0.58673194440E+02  0.88585412471E+02  0.40105845537E+03  0.93197235869E+02 0.  0.
        -11    1    4    4    0    0 -0.38423147421E+02  0.94985548718E+01 -0.19115481151E+02  0.43954094485E+02  0.00000000000E+00 0.  1.
         11    1    4    4    0    0 -0.33690636221E+03  0.49174639568E+02  0.10770089362E+03  0.35710436089E+03  0.00000000000E+00 0. -1.
        -13    1    3    3    0    0 -0.16212663234E+02 -0.28745838558E+02 -0.45295849052E+02  0.56043622517E+02  0.00000000000E+00 0.  1.
         13    1    3    3    0    0  0.90014875913E+02 -0.69391815950E+02 -0.37335436180E+02  0.11963208935E+03  0.00000000000E+00 0. -1.
          1    1    1    2  501    0  0.30152729696E+03  0.39464460068E+02 -0.49957020078E+03  0.58484745013E+03  0.00000000000E+00 0. -1.
<scales pt_clust_5="13000.00000" pt_clust_6="13000.00000" pt_clust_7="13000.00000" pt_clust_8="13000.00000" pt_clust_9="13000.00000"></scales>
<clustering>
<clus scale="   93.197">  5  6 -1 -1</clus>
<clus scale="   94.638">  7  8 -1 -1</clus>
<clus scale="  155.029">  1  7  2 -1</clus>
<clus scale="  313.466">  5  9 -1 -1</clus>
<clus scale="  896.160">  2  5  1 -1</clus>
</clustering>
</event>
<event>
 9    1  0.3303741E-006  0.2687726E+03  0.7546771E-02  0.1126695E+00
          2   -1    0    0  502    0 -0.00000000000E+00  0.00000000000E+00  0.66618427443E+03  0.66618427443E+03  0.00000000000E+00 0. -1.
         21   -1    0    0  501  502  0.00000000000E+00 -0.00000000000E+00 -0.87790456392E+02  0.87790456392E+02  0.00000000000E+00 0. -1.
         23    2    1    2    0    0  0.10534862858E+03 -0.33879216083E+02  0.41542548366E+03  0.43965420637E+03  0.92039958045E+02 0.  0.
         23    2    1    2    0    0 -0.60443528050E+02  0.50205242960E+01  0.21344310205E+03  0.24085628610E+03  0.93675861315E+02 0.  0.
        -11    1    4    4    0    0 -0.19743622089E+02 -0.23699811438E+02  0.17562660768E+03  0.17831488161E+03  0.00000000000E+00 0. -1.
         11    1    4    4    0    0 -0.40699905961E+02  0.28720335734E+02  0.37816494368E+02  0.62541404495E+02  0.00000000000E+00 0.  1.
        -13    1    3    3    0    0  0.29045912229E+02  0.15443181927E+02  0.33043503918E+02  0.46626495004E+02  0.00000000000E+00 0.  1.
         13    1    3    3    0    0  0.76302716348E+02 -0.49322398010E+02  0.38238197974E+03  0.39302771137E+03  0.00000000000E+00 0. -1.
          2    1    1    2  501    0 -0.44905100526E+02  0.28858691787E+02 -0.50474767676E+02  0.73464238353E+02  0.00000000000E+00 0. -1.
<scales pt_clust_5="13000.00000" pt_clust_6="13000.00000" pt_clust_7="13000.00000" pt_clust_8="13000.00000" pt_clust_9="13000.00000"></scales>
<clustering>
<clus scale="   92.040">  7  8 -1 -1</clus>
<clus scale="   93.676">  5  6 -1 -1</clus>
<clus scale="   53.379">  5  9 -1 -1</clus>
<clus scale="  143.936">  1  7  2 -1</clus>
<clus scale="  268.773">  2  5  1 -1</clus>
</clustering>
</event>
<event>
 9    1  0.3303741E-006  0.2508880E+03  0.7546771E-02  0.1152375E+00
         -3   -1    0    0    0  501 -0.00000000000E+00  0.00000000000E+00  0.19278351789E+03  0.19278351789E+03  0.00000000000E+00 0.  1.
         21   -1    0    0  501  502  0.00000000000E+00 -0.00000000000E+00 -0.19613887964E+03  0.19613887964E+03  0.00000000000E+00 0.  1.
         23    2    1    2    0    0 -0.59367855557E+01  0.29960693314E+02 -0.82373481150E+02  0.12588499982E+03  0.90159604129E+02 0.  0.
         23    2    1    2    0    0  0.36953209268E+02 -0.10340936118E+03  0.10827914084E+03  0.17810841133E+03  0.89102178368E+02 0.  0.
        -11    1    3    3    0    0  0.41704937515E+02  0.14438866072E+02 -0.29764184850E+02  0.53232408985E+02  0.00000000000E+00 0.  1.
         11    1    3    3    0    0 -0.47641723071E+02  0.15521827242E+02 -0.52609296301E+02  0.72652590837E+02  0.00000000000E+00 0. -1.
        -13    1    4    4    0    0  0.65607955305E+02 -0.61393855161E+02  0.60456468919E+02  0.10829863289E+03  0.00000000000E+00 0. -1.
         13    1    4    4    0    0 -0.28654746036E+02 -0.42015506024E+02  0.47822671925E+02  0.69809778448E+02  0.00000000000E+00 0.  1.
         -3    1    1    2    0  502 -0.31016423713E+02  0.73448667871E+02 -0.29261021441E+02  0.84928986381E+02  0.00000000000E+00 0.  1.
<scales pt_clust_5="13000.00000" pt_clust_6="13000.00000" pt_clust_7="13000.00000" pt_clust_8="13000.00000" pt_clust_9="13000.00000"></scales>
<clustering>
<clus scale="   89.102">  7  8 -1 -1</clus>
<clus scale="   79.729">  7  9 -1 -1</clus>
<clus scale="   90.160">  5  6 -1 -1</clus>
<clus scale="   95.193">  1  5  2 -1</clus>
<clus scale="  250.888">  2  5  1 -1</clus>
</clustering>
</event>
<event>
 9    1  0.3303741E-006  0.2283749E+03  0.7546771E-02  0.1146648E+00
         21   -1    0    0  501  502  0.00000000000E+00  0.00000000000E+00  0.56423417688E+02  0.56423417688E+02  0.00000000000E+00 0. -1.
          1   -1    0    0  502    0 -0.00000000000E+00 -0.00000000000E+00 -0.77953927083E+03  0.77953927083E+03  0.00000000000E+00 0. -1.
         23    2    1    2    0    0 -0.47091214770E+02 -0.10222043392E+03 -0.48475783180E+03  0.50585717847E+03  0.90745412517E+02 0.  0.
         23    2    1    2    0    0 -0.21759919427E+02  0.12413073590E+03 -0.13805201952E+03  0.20648579474E+03  0.87727359745E+02 0.  0.
        -11    1    4    4    0    0  0.16272034226E+02  0.15911311254E+02 -0.68864353827E+02  0.72527568219E+02  0.00000000000E+00 0.  1.
         11    1    4    4    0    0 -0.38031953653E+02  0.10821942464E+03 -0.69187665692E+02  0.13395822652E+03  0.00000000000E+00 0. -1.
        -11    1    3    3    0    0  0.27257605384E+02 -0.25560559435E+02 -0.10954726741E+03  0.11574507785E+03  0.00000000000E+00 0.  1.
         11    1    3    3    0    0 -0.74348820154E+02 -0.76659874489E+02 -0.37521056440E+03  0.39011210062E+03  0.00000000000E+00 0. -1.
          1    1    1    2  501    0  0.68851134197E+02 -0.21910301972E+02 -0.10030600182E+03  0.12361971531E+03  0.00000000000E+00 0. -1.
<scales pt_clust_5="13000.00000" pt_clust_6="13000.00000" pt_clust_7="13000.00000" pt_clust_8="13000.00000" pt_clust_9="13000.00000"></scales>
<clustering>
<clus scale="   87.727">  5  6 -1 -1</clus>
<clus scale="   72.253">  5  9 -1 -1</clus>
<clus scale="   90.745">  7  8 -1 -1</clus>
<clus scale="  144.573">  2  7  1 -1</clus>
<clus scale="  228.375">  1  5  2 -1</clus>
</clustering>
</event>
<event>
 9    1  0.3303741E-006  0.2972240E+03  0.7546771E-02  0.1124851E+00
          2   -1    0    0  502    0 -0.00000000000E+00  0.00000000000E+00  0.92186315249E+03  0.92186315249E+03  0.00000000000E+00 0. -1.
         21   -1    0    0  501  502  0.00000000000E+00 -0.00000000000E+00 -0.52349032881E+02  0.52349032881E+02  0.00000000000E+00 0. -1.
         23    2    1    2    0    0 -0.24213247126E+01  0.62943520442E+02  0.42592105328E+03  0.44024877827E+03  0.91883042812E+02 0.  0.
         23    2    1    2    0    0  0.78660126256E+02  0.52747663100E+02  0.32810883448E+03  0.35359319722E+03  0.91667935672E+02 0.  0.
        -11    1    4    4    0    0  0.48213843239E+02 -0.17157038149E+02  0.17827340516E+03  0.18547330165E+03  0.00000000000E+00 0.  1.
         11    1    4    4    0    0  0.30446283017E+02  0.69904701248E+02  0.14983542932E+03  0.16811989557E+03  0.00000000000E+00 0. -1.
        -11    1    3    3    0    0 -0.42178237221E+02  0.12716484021E+02  0.12360929200E+03  0.13122488228E+03  0.00000000000E+00 0.  1.
         11    1    3    3    0    0  0.39756912509E+02  0.50227036421E+02  0.30231176128E+03  0.30902389599E+03  0.00000000000E+00 0. -1.
          2    1    1    2  501    0 -0.76238801543E+02 -0.11569118354E+03  0.11548423185E+03  0.18037020989E+03  0.00000000000E+00 0. -1.
<scales pt_clust_5="13000.00000" pt_clust_6="13000.00000" pt_clust_7="13000.00000" pt_clust_8="13000.00000" pt_clust_9="13000.00000"></scales>
<clustering>
<clus scale="   91.668">  5  6 -1 -1</clus>
<clus scale="   91.883">  7  8 -1 -1</clus>
<clus scale="  111.401">  1  7  2 -1</clus>
<clus scale="  123.548">  5  9 -1 -1</clus>
<clus scale="  297.224">  2  5  1 -1</clus>
</clustering>
</event>
<event>
 9    1  0.3303741E-006  0.7270342E+03  0.7546771E-02  0.1015114E+00
          2   -1    0    0  502    0 -0.00000000000E+00  0.00000000000E+00  0.40361140524E+03  0.40361140524E+03  0.00000000000E+00 0. -1.
         21   -1    0    0  501  502  0.00000000000E+00 -0.00000000000E+00 -0.62570102483E+03  0.62570102483E+03  0.00000000000E+00 0. -1.
         23    2    1    2    0    0  0.33521002484E+01  0.12676541337E+03  0.14657576499E+03  0.21414808214E+03  0.91072716001E+02 0.  0.
         23    2    1    2    0    0 -0.24874719467E+03 -0.50092279420E+02  0.94195536367E+02  0.28569503440E+03  0.91457368709E+02 0.  0.
        -11    1    4    4    0    0 -0.19375678904E+03  0.22641161500E+01  0.66053260188E+02  0.20471896029E+03  0.00000000000E+00 0. -1.
         11    1    4    4    0    0 -0.54990405633E+02 -0.52356395570E+02  0.28142276179E+02  0.80976074104E+02  0.00000000000E+00 0.  1.
        -11    1    3    3    0    0  0.23320667107E+02 -0.39942634508E+00  0.71685329757E+01  0.24400838526E+02  0.00000000000E+00 0.  1.
         11    1    3    3    0    0 -0.19968566859E+02  0.12716483971E+03  0.13940723202E+03  0.18974724362E+03  0.00000000000E+00 0. -1.
          2    1    1    2  501    0  0.24539509443E+03 -0.76673133949E+02 -0.46286092095E+03  0.52946931354E+03  0.00000000000E+00 0. -1.
<scales pt_clust_5="13000.00000" pt_clust_6="13000.00000" pt_clust_7="13000.00000" pt_clust_8="13000.00000" pt_clust_9="13000.00000"></scales>
<clustering>
<clus scale="   91.073">  7  8 -1 -1</clus>
<clus scale="   91.457">  5  6 -1 -1</clus>
<clus scale="  156.125">  1  7  2 -1</clus>
<clus scale="  252.589">  5  9 -1 -1</clus>
<clus scale="  727.034">  2  5  1 -1</clus>
</clustering>
</event>
<event>
 9    1  0.3303741E-006  0.2516736E+03  0.7546771E-02  0.1114087E+00
          2   -1    0    0  502    0 -0.00000000000E+00  0.00000000000E+00  0.16939164104E+03  0.16939164104E+03  0.00000000000E+00 0. -1.
         21   -1    0    0  501  502  0.00000000000E+00 -0.00000000000E+00 -0.40318332069E+03  0.40318332069E+03  0.00000000000E+00 0. -1.
         23    2    1    2    0    0 -0.21271602202E+03 -0.64268946062E+02 -0.21122092970E+03  0.31989129385E+03  0.91310214551E+02 0.  0.
         23    2    1    2    0    0  0.14081917681E+03  0.65202878730E+02 -0.22982711585E+02  0.18077957694E+03  0.89842052827E+02 0.  0.
        -11    1    4    4    0    0  0.98402789465E+01 -0.19823100437E+02 -0.93626944129E+01  0.24030115425E+02  0.00000000000E+00 0. -1.
         11    1    4    4    0    0  0.13097889786E+03  0.85025979167E+02 -0.13620017172E+02  0.15674946152E+03  0.00000000000E+00 0.  1.
        -13    1    3    3    0    0 -0.85863389811E+02 -0.73525236852E+02 -0.10085045656E+03  0.15149025299E+03  0.00000000000E+00 0.  1.
         13    1    3    3    0    0 -0.12685263221E+03  0.92562907902E+01 -0.11037047314E+03  0.16840104085E+03  0.00000000000E+00 0. -1.
          2    1    1    2  501    0  0.71896845215E+02 -0.93393266790E+00  0.41196164066E+00  0.71904090944E+02  0.00000000000E+00 0. -1.
<scales pt_clust_5="13000.00000" pt_clust_6="13000.00000" pt_clust_7="13000.00000" pt_clust_8="13000.00000" pt_clust_9="13000.00000"></scales>
<clustering>
<clus scale="   89.842">  5  6 -1 -1</clus>
<clus scale="   71.903">  5  9 -1 -1</clus>
<clus scale="   91.310">  7  8 -1 -1</clus>
<clus scale="  240.242">  1  7  2 -1</clus>
<clus scale="  251.674">  2  5  1 -1</clus>
</clustering>
</event>
<event>
 9    1  0.3303741E-006  0.3596159E+03  0.7546771E-02  0.1105224E+00
         21   -1    0    0  501  502  0.00000000000E+00  0.00000000000E+00  0.36184348651E+03  0.36184348651E+03  0.00000000000E+00 0. -1.
          4   -1    0    0  502    0 -0.00000000000E+00 -0.00000000000E+00 -0.15049300753E+03  0.15049300753E+03  0.00000000000E+00 0. -1.
         23    2    1    2    0    0 -0.49048049068E+02  0.24154330209E+02  0.75633694030E+02  0.12796342798E+03  0.87550216688E+02 0.  0.
         23    2    1    2    0    0 -0.95922471748E+02 -0.50073056305E+02 -0.50049689920E+02  0.14731312543E+03  0.86531808662E+02 0.  0.
        -13    1    4    4    0    0 -0.51575239807E+02 -0.62953229247E+02 -0.30750752455E+01  0.81440595047E+02  0.00000000000E+00 0. -1.
         13    1    4    4    0    0 -0.44347231941E+02  0.12880172942E+02 -0.46974614675E+02  0.65872530388E+02  0.00000000000E+00 0.  1.
        -13    1    3    3    0    0 -0.51108694717E+02  0.52717171713E+02  0.45434268655E+02  0.86345073034E+02  0.00000000000E+00 0.  1.
         13    1    3    3    0    0  0.20606456493E+01 -0.28562841504E+02  0.30199425375E+02  0.41618354944E+02  0.00000000000E+00 0. -1.
          4    1    1    2  501    0  0.14497052082E+03  0.25918726096E+02  0.18576647487E+03  0.23705994063E+03  0.00000000000E+00 0. -1.
<scales pt_clust_5="13000.00000" pt_clust_6="13000.00000" pt_clust_7="13000.00000" pt_clust_8="13000.00000" pt_clust_9="13000.00000"></scales>
<clustering>
<clus scale="   86.532">  5  6 -1 -1</clus>
<clus scale="   87.550">  7  8 -1 -1</clus>
<clus scale="  103.219">  2  7  1 -1</clus>
<clus scale="  138.348">  5  9 -1 -1</clus>
<clus scale="  359.616">  1  5  2 -1</clus>
</clustering>
</event>
<event>
 9    1  0.3303741E-006  0.2172026E+03  0.7546771E-02  0.1154250E+00
         21   -1    0    0  501  502  0.00000000000E+00  0.00000000000E+00  0.50273036694E+02  0.50273036694E+02  0.00000000000E+00 0. -1.
         -1   -1    0    0    0  501 -0.00000000000E+00 -0.00000000000E+00 -0.88883682494E+03  0.88883682494E+03  0.00000000000E+00 0.  1.
         23    2    1    2    0    0  0.26532870754E+02  0.10138532386E+03 -0.10847853549E+03  0.17740029639E+03  0.93382521776E+02 0.  0.
         23    2    1    2    0    0  0.48228791556E+02 -0.88793913658E+02 -0.41854554011E+03  0.44107762311E+03  0.95701227892E+02 0.  0.
        -11    1    3    3    0    0  0.49157156752E+02  0.61096499287E+02 -0.10501729915E+03  0.13106426441E+03  0.00000000000E+00 0.  1.
         11    1    3    3    0    0 -0.22624285998E+02  0.40288824574E+02 -0.34612363359E+01  0.46336031977E+02  0.00000000000E+00 0. -1.
        -11    1    4    4    0    0  0.55976104185E+02 -0.77310394759E+01 -0.14330548511E+03  0.15404400435E+03  0.00000000000E+00 0.  1.
         11    1    4    4    0    0 -0.77473126289E+01 -0.81062874182E+02 -0.27524005500E+03  0.28703361876E+03  0.00000000000E+00 0. -1.
         -1    1    1    2    0  502 -0.74761662310E+02 -0.12591410203E+02 -0.31153971264E+03  0.32063194213E+03  0.00000000000E+00 0.  1.
<scales pt_clust_5="13000.00000" pt_clust_6="13000.00000" pt_clust_7="13000.00000" pt_clust_8="13000.00000" pt_clust_9="13000.00000"></scales>
<clustering>
<clus scale="   93.383">  5  6 -1 -1</clus>
<clus scale="   95.701">  7  8 -1 -1</clus>
<clus scale="   75.815">  7  9 -1 -1</clus>
<clus scale="  140.368">  2  5  1 -1</clus>
<clus scale="  217.203">  1  5  2 -1</clus>
</clustering>
</event>
<event>
 9    1  0.3303741E-006  0.3553540E+03  0.7546771E-02  0.1108964E+00
          1   -1    0    0  502    0 -0.00000000000E+00  0.00000000000E+00  0.18324448215E+03  0.18324448215E+03  0.00000000000E+00 0. -1.
         21   -1    0    0  501  502  0.00000000000E+00 -0.00000000000E+00 -0.28146860205E+03  0.28146860205E+03  0.00000000000E+00 0. -1.
         23    2    1    2    0    0  0.19992164620E+02 -0.25880173082E+02 -0.50056641523E+01  0.97335689242E+02  0.91540754430E+02 0.  0.
         23    2    1    2    0    0  0.70416196028E+02 -0.26424291282E+02 -0.19117354788E+03  0.22418302097E+03  0.89744178903E+02 0.  0.
        -11    1    3    3    0    0 -0.17693543177E+02  0.13158879496E+02 -0.30295570780E+02  0.37470510920E+02  0.00000000000E+00 0.  1.
         11    1    3    3    0    0  0.37685707797E+02 -0.39039052577E+02  0.25289906628E+02  0.59865178322E+02  0.00000000000E+00 0. -1.
        -13    1    4    4    0    0  0.89945948072E+02 -0.14367021436E+02 -0.12906940986E+03  0.15797340738E+03  0.00000000000E+00 0. -1.
         13    1    4    4    0    0 -0.19529752043E+02 -0.12057269846E+02 -0.62104138025E+02  0.66209613584E+02  0.00000000000E+00 0.  1.
          1    1    1    2  501    0 -0.90408360649E+02  0.52304464363E+02  0.97955092131E+02  0.14319437399E+03  0.00000000000E+00 0. -1.
<scales pt_clust_5="13000.00000" pt_clust_6="13000.00000" pt_clust_7="13000.00000" pt_clust_8="13000.00000" pt_clust_9="13000.00000"></scales>
<clustering>
<clus scale="   89.744">  7  8 -1 -1</clus>
<clus scale="   91.541">  5  6 -1 -1</clus>
<clus scale="   97.207">  1  5  2 -1</clus>
<clus scale="   78.587">  7  9 -1 -1</clus>
<clus scale="  355.354">  2  5  1 -1</clus>
</clustering>
</event>
<event>
 9    1  0.3303741E-006  0.2511444E+03  0.7546771E-02  0.1140261E+00
          2   -1    0    0  502    0 -0.00000000000E+00  0.00000000000E+00  0.61897572120E+03  0.61897572120E+03  0.00000000000E+00 0. -1.
         21   -1    0    0  501  502  0.00000000000E+00 -0.00000000000E+00 -0.80280466812E+02  0.80280466812E+02  0.00000000000E+00 0. -1.
         23    2    1    2    0    0 -0.66888668739E+02  0.54785750962E+02  0.27418451169E+02  0.12962692377E+03  0.92605590471E+02 0.  0.
         23    2    1    2    0    0 -0.60789566709E+02  0.19674121876E+01  0.26205399038E+03  0.28391145981E+03  0.90742388132E+02 0.  0.
        -11    1    3    3    0    0 -0.49123379900E+02  0.19118250328E+02  0.58754251823E+02  0.78934631535E+02  0.00000000000E+00 0.  1.
         11    1    3    3    0    0 -0.17765288839E+02  0.35667500634E+02 -0.31335800654E+02  0.50692292231E+02  0.00000000000E+00 0. -1.
        -11    1    4    4    0    0 -0.48522660848E+02 -0.34001316598E+02  0.90296779970E+02  0.10800021583E+03  0.00000000000E+00 0. -1.
         11    1    4    4    0    0 -0.12266905862E+02  0.35968728786E+02  0.17175721041E+03  0.17591124398E+03  0.00000000000E+00 0.  1.
          2    1    1    2  501    0  0.12767823545E+03 -0.56753163149E+02  0.24922281284E+03  0.28571780444E+03  0.00000000000E+00 0. -1.
<scales pt_clust_5="13000.00000" pt_clust_6="13000.00000" pt_clust_7="13000.00000" pt_clust_8="13000.00000" pt_clust_9="13000.00000"></scales>
<clustering>
<clus scale="   90.742">  7  8 -1 -1</clus>
<clus scale="   92.606">  5  6 -1 -1</clus>
<clus scale="  126.694">  1  5  2 -1</clus>
<clus scale="   99.111">  7  9 -1 -1</clus>
<clus scale="  251.144">  2  5  1 -1</clus>
</clustering>
</event>
<event>
 9    1  0.3303741E-006  0.2452000E+03  0.7546771E-02  0.1152691E+00
          1   -1    0    0  502    0 -0.00000000000E+00  0.00000000000E+00  0.28580214872E+02  0.28580214872E+02  0.00000000000E+00 0. -1.
         21   -1    0    0  501  502  0.00000000000E+00 -0.00000000000E+00 -0.10814526532E+04  0.10814526532E+04  0.00000000000E+00 0.  1.
         23    2    1    2    0    0 -0.39334127802E+02 -0.49513412988E+01 -0.40079287183E+03  0.41337599000E+03  0.93129445432E+02 0.  0.
         23    2    1    2    0    0  0.17819218739E+01  0.68211147702E+02 -0.14051480182E+03  0.17982955707E+03  0.89097273523E+02 0.  0.
        -11    1    3    3    0    0 -0.55654480743E+02  0.27307868053E+02 -0.29885683493E+03  0.30521885372E+03  0.00000000000E+00 0.  1.
         11    1    3    3    0    0  0.16320352941E+02 -0.32259209352E+02 -0.10193603691E+03  0.10815713628E+03  0.00000000000E+00 0. -1.
        -13    1    4    4    0    0 -0.15639596754E+02 -0.16948606403E+02 -0.16380105087E+02  0.28287101093E+02  0.00000000000E+00 0. -1.
         13    1    4    4    0    0  0.17421518628E+02  0.85159754105E+02 -0.12413469673E+03  0.15154245598E+03  0.00000000000E+00 0.  1.
          1    1    1    2  501    0  0.37552205929E+02 -0.63259806403E+02 -0.51156476469E+03  0.51682732102E+03  0.00000000000E+00 0. -1.
<scales pt_clust_5="13000.00000" pt_clust_6="13000.00000" pt_clust_7="13000.00000" pt_clust_8="13000.00000" pt_clust_9="13000.00000"></scales>
<clustering>
<clus scale="   89.097">  7  8 -1 -1</clus>
<clus scale="   73.566">  7  9 -1 -1</clus>
<clus scale="   93.129">  5  6 -1 -1</clus>
<clus scale="  101.217">  1  5  2 -1</clus>
<clus scale="  245.200">  2  5  1 -1</clus>
</clustering>
</event>
<event>
 9    1  0.3303741E-006  0.1437368E+03  0.7546771E-02  0.1250663E+00
          3   -1    0    0  502    0 -0.00000000000E+00  0.00000000000E+00  0.19190685165E+03  0.19190685165E+03  0.00000000000E+00 0. -1.
         21   -1    0    0  501  502  0.00000000000E+00 -0.00000000000E+00 -0.63057247147E+02  0.63057247147E+02  0.00000000000E+00 0. -1.
         23    2    1    2    0    0 -0.12696120783E+02 -0.62083273271E+01 -0.27991458740E+01  0.60049596458E+02  0.58295660268E+02 0.  0.
         23    2    1    2    0    0 -0.10861596266E+02 -0.20130359832E+02  0.12939140080E+03  0.15950563197E+03  0.90425142339E+02 0.  0.
        -11    1    4    4    0    0 -0.11379759156E+02  0.35683804507E+02  0.51405958255E+02  0.63603501213E+02  0.00000000000E+00 0.  1.
         11    1    4    4    0    0  0.51816288937E+00 -0.55814164338E+02  0.77985442549E+02  0.95902130754E+02  0.00000000000E+00 0. -1.
        -13    1    3    3    0    0 -0.16499476692E+02  0.23963146659E+02  0.24207253580E+01  0.29194606354E+02  0.00000000000E+00 0.  1.
         13    1    3    3    0    0  0.38033559094E+01 -0.30171473986E+02 -0.52198712321E+01  0.30854990104E+02  0.00000000000E+00 0. -1.
          3    1    1    2  501    0  0.23557717049E+02  0.26338687159E+02  0.22573495723E+01  0.35408870370E+02  0.00000000000E+00 0. -1.
<scales pt_clust_5="13000.00000" pt_clust_6="13000.00000" pt_clust_7="13000.00000" pt_clust_8="13000.00000" pt_clust_9="13000.00000"></scales>
<clustering>
<clus scale="   58.296">  7  8 -1 -1</clus>
<clus scale="   59.984">  1  7  2 -1</clus>
<clus scale="   90.425">  5  6 -1 -1</clus>
<clus scale="   33.832">  5  9 -1 -1</clus>
<clus scale="  143.737">  2  5  1 -1</clus>
</clustering>
</event>
<event>
 9    1  0.3303741E-006  0.1804984E+03  0.7546771E-02  0.1197688E+00
          2   -1    0    0  502    0 -0.00000000000E+00  0.00000000000E+00  0.10225996920E+03  0.10225996920E+03  0.00000000000E+00 0.  1.
         21   -1    0    0  501  502  0.00000000000E+00 -0.00000000000E+00 -0.73760286109E+03  0.73760286109E+03  0.00000000000E+00 0.  1.
         23    2    1    2    0    0 -0.30602005277E+01  0.42362331424E+01  0.67843567717E+02  0.11388013613E+03  0.91316073211E+02 0.  0.
         23    2    1    2    0    0 -0.52281454066E+02 -0.35907470009E+02 -0.45530062334E+03  0.47002731953E+03  0.98001666578E+02 0.  0.
        -13    1    4    4    0    0 -0.26073269995E+02  0.31407071812E+02 -0.11193706236E+03  0.11914749472E+03  0.00000000000E+00 0.  1.
         13    1    4    4    0    0 -0.26208184071E+02 -0.67314541821E+02 -0.34336356098E+03  0.35087982481E+03  0.00000000000E+00 0. -1.
        -13    1    3    3    0    0  0.16501827829E+02  0.28238487442E+02  0.75243020775E+02  0.82044101982E+02  0.00000000000E+00 0. -1.
         13    1    3    3    0    0 -0.19562028357E+02 -0.24002254300E+02 -0.73994530582E+01  0.31836034151E+02  0.00000000000E+00 0.  1.
          2    1    1    2  501    0  0.55341654593E+02  0.31671236867E+02 -0.24788583627E+03  0.25595537463E+03  0.00000000000E+00 0.  1.
<scales pt_clust_5="13000.00000" pt_clust_6="13000.00000" pt_clust_7="13000.00000" pt_clust_8="13000.00000" pt_clust_9="13000.00000"></scales>
<clustering>
<clus scale="   91.316">  7  8 -1 -1</clus>
<clus scale="   91.465">  1  7  2 -1</clus>
<clus scale="   98.002">  5  6 -1 -1</clus>
<clus scale="   63.595">  5  9 -1 -1</clus>
<clus scale="  180.498">  2  5  1 -1</clus>
</clustering>
</event>
<event>
 9    1  0.3303741E-006  0.5080801E+03  0.7546771E-02  0.1029699E+00
         21   -1    0    0  501  502  0.00000000000E+00  0.00000000000E+00  0.10471041856E+03  0.10471041856E+03  0.00000000000E+00 0.  1.
          2   -1    0    0  502    0 -0.00000000000E+00 -0.00000000000E+00 -0.15403787660E+04  0.15403787660E+04  0.00000000000E+00 0. -1.
         23    2    1    2    0    0 -0.98995756844E+01  0.27966194526E+03 -0.55111353768E+03  0.62499969950E+03  0.92680568277E+02 0.  0.
         23    2    1    2    0    0 -0.10669588983E+03 -0.11249943300E+03 -0.76062583598E+03  0.78156024445E+03  0.90799878898E+02 0.  0.
        -13    1    3    3    0    0  0.30114999822E+02  0.77209921192E+02 -0.21705129554E+03  0.23233499530E+03  0.00000000000E+00 0.  1.
         13    1    3    3    0    0 -0.40014575507E+02  0.20245202407E+03 -0.33406224214E+03  0.39266470420E+03  0.00000000000E+00 0. -1.
        -13    1    4    4    0    0 -0.58649256676E+02 -0.71704425709E+01 -0.17820823417E+03  0.18774803669E+03  0.00000000000E+00 0.  1.
         13    1    4    4    0    0 -0.48046633157E+02 -0.10532899043E+03 -0.58241760181E+03  0.59381220776E+03  0.00000000000E+00 0. -1.
          2    1    1    2  501    0  0.11659546552E+03 -0.16716251226E+03 -0.12392897377E+03  0.23852924061E+03  0.00000000000E+00 0. -1.
<scales pt_clust_5="13000.00000" pt_clust_6="13000.00000" pt_clust_7="13000.00000" pt_clust_8="13000.00000" pt_clust_9="13000.00000"></scales>
<clustering>
<clus scale="   90.800">  7  8 -1 -1</clus>
<clus scale="   92.681">  5  6 -1 -1</clus>
<clus scale="  203.808">  7  9 -1 -1</clus>
<clus scale="  294.786">  2  5  1 -1</clus>
<clus scale="  508.080">  1  5  2 -1</clus>
</clustering>
</event>
<event>
 9    1  0.3303741E-006  0.2528015E+03  0.7546771E-02  0.1136614E+00
         21   -1    0    0  501  502  0.00000000000E+00  0.00000000000E+00  0.13258843617E+03  0.13258843617E+03  0.00000000000E+00 0.  1.
          1   -1    0    0  502    0 -0.00000000000E+00 -0.00000000000E+00 -0.31554869003E+03  0.31554869003E+03  0.00000000000E+00 0. -1.
         23    2    1    2    0    0 -0.17281679672E+02 -0.96592824120E+02 -0.13389549019E+03  0.19061832479E+03  0.93693720865E+02 0.  0.
         23    2    1    2    0    0  0.94011273471E+02  0.10973792133E+03 -0.53155294091E+02  0.17956396458E+03  0.92396975971E+02 0.  0.
        -11    1    3    3    0    0  0.30058564861E+02 -0.25928057886E+01 -0.34842066853E+02  0.46089148245E+02  0.00000000000E+00 0.  1.
         11    1    3    3    0    0 -0.47340244533E+02 -0.94000018331E+02 -0.99053423336E+02  0.14452917655E+03  0.00000000000E+00 0. -1.
        -13    1    4    4    0    0  0.81246939963E+02  0.94154541376E+02 -0.17745118173E+01  0.12437560777E+03  0.00000000000E+00 0.  1.
         13    1    4    4    0    0  0.12764333508E+02  0.15583379950E+02 -0.51380782273E+02  0.55188356812E+02  0.00000000000E+00 0. -1.
          1    1    1    2  501    0 -0.76729593799E+02 -0.13145097206E+02  0.40905304198E+01  0.77954836824E+02  0.00000000000E+00 0. -1.
<scales pt_clust_5="13000.00000" pt_clust_6="13000.00000" pt_clust_7="13000.00000" pt_clust_8="13000.00000" pt_clust_9="13000.00000"></scales>
<clustering>
<clus scale="   92.397">  7  8 -1 -1</clus>
<clus scale="   77.847">  7  9 -1 -1</clus>
<clus scale="   93.694">  5  6 -1 -1</clus>
<clus scale="  135.674">  2  5  1 -1</clus>
<clus scale="  252.801">  1  5  2 -1</clus>
</clustering>
</event>
<event>
 9    1  0.3303741E-006  0.2170924E+03  0.7546771E-02  0.1151727E+00
          1   -1    0    0  502    0 -0.00000000000E+00  0.00000000000E+00  0.58878402447E+03  0.58878402447E+03  0.00000000000E+00 0. -1.
         21   -1    0    0  501  502  0.00000000000E+00 -0.00000000000E+00 -0.58007262763E+02  0.58007262763E+02  0.00000000000E+00 0. -1.
         23    2    1    2    0    0  0.11155298452E+03 -0.33131646003E+02  0.25963988799E+03  0.29945239969E+03  0.93365378619E+02 0.  0.
         23    2    1    2    0    0 -0.55210475997E+02  0.81649859453E+02  0.12808661921E+03  0.18611894269E+03  0.92299418185E+02 0.  0.
        -11    1    4    4    0    0 -0.40572542099E+02  0.15501731709E+02  0.10649773535E+03  0.11501392304E+03  0.00000000000E+00 0.  1.
         11    1    4    4    0    0 -0.14637933898E+02  0.66148127745E+02  0.21588883866E+02  0.71105019650E+02  0.00000000000E+00 0. -1.
        -11    1    3    3    0    0  0.44170755568E+02 -0.61638379665E+02  0.13986374304E+03  0.15909812102E+03  0.00000000000E+00 0.  1.
         11    1    3    3    0    0  0.67382228956E+02  0.28506733662E+02  0.11977614494E+03  0.14035427867E+03  0.00000000000E+00 0. -1.
          1    1    1    2  501    0 -0.56342508527E+02 -0.48518213451E+02  0.14305025450E+03  0.16121994485E+03  0.00000000000E+00 0. -1.
<scales pt_clust_5="13000.00000" pt_clust_6="13000.00000" pt_clust_7="13000.00000" pt_clust_8="13000.00000" pt_clust_9="13000.00000"></scales>
<clustering>
<clus scale="   92.299">  5  6 -1 -1</clus>
<clus scale="   74.354">  5  9 -1 -1</clus>
<clus scale="   93.365">  7  8 -1 -1</clus>
<clus scale="  149.194">  1  7  2 -1</clus>
<clus scale="  217.092">  2  5  1 -1</clus>
</clustering>
</event>
<event>
 9    1  0.3639577E-006  0.9860146E+03  0.7546771E-02  0.9875049E-01
         21   -1    0    0  501  502  0.00000000000E+00  0.00000000000E+00  0.16759777192E+03  0.16759777192E+03  0.00000000000E+00 0. -1.
          1   -1    0    0  502    0 -0.00000000000E+00 -0.00000000000E+00 -0.19727760495E+04  0.19727760495E+04  0.00000000000E+00 0. -1.
         23    2    1    2    0    0  0.64637684820E+02  0.97860005645E+02 -0.37204359253E+03  0.40080496333E+03  0.92052011861E+02 0.  0.
         23    2    1    2    0    0 -0.18668812027E+03 -0.21658327691E+03 -0.15193893884E+04  0.15486987510E+04  0.90348977303E+02 0.  0.
        -11    1    4    4    0    0 -0.52799411772E+02 -0.15095475161E+02 -0.20475438121E+03  0.21199058441E+03  0.00000000000E+00 0.  1.
         11    1    4    4    0    0 -0.13388870850E+03 -0.20148780175E+03 -0.13146350072E+04  0.13367081666E+04  0.00000000000E+00 0. -1.
        -13    1    3    3    0    0  0.16643504604E+02  0.92897215774E+02 -0.29658683438E+03  0.31124050069E+03  0.00000000000E+00 0. -1.
         13    1    3    3    0    0  0.47994180216E+02  0.49627898717E+01 -0.75456758150E+02  0.89564462642E+02  0.00000000000E+00 0.  1.
          1    1    1    2  501    0  0.12205043545E+03  0.11872327126E+03  0.86254703336E+02  0.19087010709E+03  0.00000000000E+00 0. -1.
<scales pt_clust_5="13000.00000" pt_clust_6="13000.00000" pt_clust_7="13000.00000" pt_clust_8="13000.00000" pt_clust_9="13000.00000"></scales>
<clustering>
<clus scale="   90.349">  5  6 -1 -1</clus>
<clus scale="   92.052">  7  8 -1 -1</clus>
<clus scale="  149.091">  2  7  1 -1</clus>
<clus scale="  174.049">  5  9 -1 -1</clus>
<clus scale="  986.015">  1  5  2 -1</clus>
</clustering>
</event>
<event>
 9    1  0.3303741E-006  0.2170866E+03  0.7546771E-02  0.1166210E+00
          2   -1    0    0  502    0 -0.00000000000E+00  0.00000000000E+00  0.18796950960E+03  0.18796950960E+03  0.00000000000E+00 0. -1.
         21   -1    0    0  501  502  0.00000000000E+00 -0.00000000000E+00 -0.17827173779E+03  0.17827173779E+03  0.00000000000E+00 0. -1.
         23    2    1    2    0    0 -0.51117994122E+02 -0.33382238540E+02 -0.78155593482E+02  0.13205157372E+03  0.87188864866E+02 0.  0.
         23    2    1    2    0    0  0.37476037608E+02 -0.62273949005E+02  0.70640795838E+02  0.13604446624E+03  0.90749526935E+02 0.  0.
        -11    1    4    4    0    0 -0.22810249525E+02 -0.11198901156E+02  0.47236565747E+02  0.53637822607E+02  0.00000000000E+00 0.  1.
         11    1    4    4    0    0  0.60286287132E+02 -0.51075047848E+02  0.23404230091E+02  0.82406643634E+02  0.00000000000E+00 0. -1.
        -13    1    3    3    0    0 -0.28010351692E+02  0.20837852306E+02 -0.95506049798E+00  0.34924318622E+02  0.00000000000E+00 0.  1.
         13    1    3    3    0    0 -0.23107642430E+02 -0.54220090846E+02 -0.77200532984E+02  0.97127255099E+02  0.00000000000E+00 0. -1.
          2    1    1    2  501    0  0.13641956514E+02  0.95656187544E+02  0.17212569455E+02  0.98145207424E+02  0.00000000000E+00 0. -1.
<scales pt_clust_5="13000.00000" pt_clust_6="13000.00000" pt_clust_7="13000.00000" pt_clust_8="13000.00000" pt_clust_9="13000.00000"></scales>
<clustering>
<clus scale="   87.189">  7  8 -1 -1</clus>
<clus scale="   90.750">  5  6 -1 -1</clus>
<clus scale="   96.624">  5  9 -1 -1</clus>
<clus scale="  106.439">  1  7  2 -1</clus>
<clus scale="  217.087">  2  5  1 -1</clus>
</clustering>
</event>
<event>
 9    1  0.3303741E-006  0.1750656E+03  0.7546771E-02  0.1200588E+00
         21   -1    0    0  501  502  0.00000000000E+00  0.00000000000E+00  0.27391598913E+02  0.27391598913E+02  0.00000000000E+00 0. -1.
          1   -1    0    0  502    0 -0.00000000000E+00 -0.00000000000E+00 -0.67477507883E+03  0.67477507883E+03  0.00000000000E+00 0. -1.
         23    2    1    2    0    0 -0.12981216021E+02  0.29975887292E+01 -0.27559238368E+03  0.29122071652E+03  0.93171059250E+02 0.  0.
         23    2    1    2    0    0  0.60787127246E+02 -0.54858342168E+01 -0.32889248837E+03  0.34666620492E+03  0.91005601529E+02 0.  0.
        -11    1    4    4    0    0  0.71192918962E+02 -0.23880194492E+02 -0.30772617373E+03  0.31675557359E+03  0.00000000000E+00 0. -1.
         11    1    4    4    0    0 -0.10405791716E+02  0.18394360275E+02 -0.21166314638E+02  0.29910631329E+02  0.00000000000E+00 0.  1.
        -11    1    3    3    0    0 -0.15171763037E+02 -0.42636329763E+02 -0.99673348501E+02  0.10946604684E+03  0.00000000000E+00 0.  1.
         11    1    3    3    0    0  0.21905470155E+01  0.45633918492E+02 -0.17591903518E+03  0.18175466968E+03  0.00000000000E+00 0. -1.
          1    1    1    2  501    0 -0.47805911225E+02  0.24882454877E+01 -0.42898607869E+02  0.64279756306E+02  0.00000000000E+00 0. -1.
<scales pt_clust_5="13000.00000" pt_clust_6="13000.00000" pt_clust_7="13000.00000" pt_clust_8="13000.00000" pt_clust_9="13000.00000"></scales>
<clustering>
<clus scale="   91.006">  5  6 -1 -1</clus>
<clus scale="   47.871">  5  9 -1 -1</clus>
<clus scale="   93.171">  7  8 -1 -1</clus>
<clus scale="   94.119">  2  7  1 -1</clus>
<clus scale="  175.066">  1  5  2 -1</clus>
</clustering>
</event>
<event>
 9    1  0.3303741E-006  0.3085816E+03  0.7546771E-02  0.1110110E+00
          1   -1    0    0  502    0 -0.00000000000E+00  0.00000000000E+00  0.53112663998E+03  0.53112663998E+03  0.00000000000E+00 0. -1.
         21   -1    0    0  501  502  0.00000000000E+00 -0.00000000000E+00 -0.15964323314E+03  0.15964323314E+03  0.00000000000E+00 0.  1.
         23    2    1    2    0    0  0.10428563068E+03  0.44908041601E+02 -0.63425404134E+02  0.15750795747E+03  0.88846777146E+02 0.  0.
         23    2    1    2    0    0  0.48553830670E+02  0.79772327952E+01  0.31592063016E+03  0.33247610847E+03  0.91177888892E+02 0.  0.
        -11    1    3    3    0    0  0.88518129956E+02  0.79646433267E+01 -0.74357954285E+02  0.11587924853E+03  0.00000000000E+00 0.  1.
         11    1    3    3    0    0  0.15767500725E+02  0.36943398274E+02  0.10932550151E+02  0.41628708939E+02  0.00000000000E+00 0. -1.
        -11    1    4    4    0    0  0.73337265864E+02  0.56790443262E+01  0.27420328391E+03  0.28389795177E+03  0.00000000000E+00 0.  1.
         11    1    4    4    0    0 -0.24783435193E+02  0.22981884689E+01  0.41717346251E+02  0.48578156700E+02  0.00000000000E+00 0. -1.
          1    1    1    2  501    0 -0.15283946135E+03 -0.52885274396E+02  0.11898818081E+03  0.20078580719E+03  0.00000000000E+00 0. -1.
<scales pt_clust_5="13000.00000" pt_clust_6="13000.00000" pt_clust_7="13000.00000" pt_clust_8="13000.00000" pt_clust_9="13000.00000"></scales>
<clustering>
<clus scale="   88.847">  5  6 -1 -1</clus>
<clus scale="   91.178">  7  8 -1 -1</clus>
<clus scale="  144.173">  1  5  2 -1</clus>
<clus scale="  124.360">  7  9 -1 -1</clus>
<clus scale="  308.582">  2  5  1 -1</clus>
</clustering>
</event>
<event>
 9    1  0.3303741E-006  0.3348582E+03  0.7546771E-02  0.1102820E+00
          1   -1    0    0  502    0 -0.00000000000E+00  0.00000000000E+00  0.12950753430E+03  0.12950753430E+03  0.00000000000E+00 0. -1.
         21   -1    0    0  501  502  0.00000000000E+00 -0.00000000000E+00 -0.49585207360E+03  0.49585207360E+03  0.00000000000E+00 0. -1.
         23    2    1    2    0    0 -0.96536179797E+02 -0.27201040764E+02 -0.10013724937E+02  0.13637936669E+03  0.91869071749E+02 0.  0.
         23    2    1    2    0    0  0.12036515264E+02 -0.66743514762E+02  0.55333553941E+00  0.11038802090E+03  0.87095548201E+02 0.  0.
        -11    1    4    4    0    0  0.37056563804E+02 -0.32845066906E+01  0.15920393070E+02  0.40465242130E+02  0.00000000000E+00 0.  1.
         11    1    4    4    0    0 -0.25020048540E+02 -0.63459008071E+02 -0.15367057530E+02  0.69922778774E+02  0.00000000000E+00 0. -1.
        -11    1    3    3    0    0 -0.33595875595E+02 -0.13762319930E+02  0.40627401856E+02  0.54485503470E+02  0.00000000000E+00 0. -1.
         11    1    3    3    0    0 -0.62940304201E+02 -0.13438720835E+02 -0.50641126793E+02  0.81893863223E+02  0.00000000000E+00 0.  1.
          1    1    1    2  501    0  0.84499664533E+02  0.93944555526E+02 -0.35688414990E+03  0.37859222030E+03  0.00000000000E+00 0. -1.
<scales pt_clust_5="13000.00000" pt_clust_6="13000.00000" pt_clust_7="13000.00000" pt_clust_8="13000.00000" pt_clust_9="13000.00000"></scales>
<clustering>
<clus scale="   87.096">  5  6 -1 -1</clus>
<clus scale="   91.869">  7  8 -1 -1</clus>
<clus scale="  126.356">  5  9 -1 -1</clus>
<clus scale="  136.011">  1  7  2 -1</clus>
<clus scale="  334.858">  2  5  1 -1</clus>
</clustering>
</event>
<event>
 9    1  0.3303741E-006  0.1589565E+03  0.7546771E-02  0.1203175E+00
         -1   -1    0    0    0  501 -0.00000000000E+00  0.00000000000E+00  0.29874359705E+03  0.29874359705E+03  0.00000000000E+00 0.  1.
         21   -1    0    0  501  502  0.00000000000E+00 -0.00000000000E+00 -0.98677469196E+02  0.98677469196E+02  0.00000000000E+00 0.  1.
         23    2    1    2    0    0 -0.58888626322E+02  0.51017044270E+02  0.20656448003E+03  0.23833179435E+03  0.89791707147E+02 0.  0.
         23    2    1    2    0    0  0.59583586372E+01 -0.52319860152E+02 -0.11247693856E+02  0.10593038916E+03  0.91224267202E+02 0.  0.
        -11    1    3    3    0    0 -0.36679006185E+02  0.74466341589E+02  0.11977870415E+03  0.14573099702E+03  0.00000000000E+00 0.  1.
         11    1    3    3    0    0 -0.22209620138E+02 -0.23449297319E+02  0.86785775880E+02  0.92600797332E+02  0.00000000000E+00 0. -1.
        -13    1    4    4    0    0  0.46438801457E+02 -0.37154801708E+02 -0.18092195369E+02  0.62164049932E+02  0.00000000000E+00 0. -1.
         13    1    4    4    0    0 -0.40480442819E+02 -0.15165058444E+02  0.68445015123E+01  0.43766339228E+02  0.00000000000E+00 0.  1.
         -1    1    1    2    0  502  0.52930267685E+02  0.13028158819E+01  0.47493416724E+01  0.53158882727E+02  0.00000000000E+00 0.  1.
<scales pt_clust_5="13000.00000" pt_clust_6="13000.00000" pt_clust_7="13000.00000" pt_clust_8="13000.00000" pt_clust_9="13000.00000"></scales>
<clustering>
<clus scale="   89.792">  5  6 -1 -1</clus>
<clus scale="   91.224">  7  8 -1 -1</clus>
<clus scale="   52.946">  7  9 -1 -1</clus>
<clus scale="  118.883">  1  5  2 -1</clus>
<clus scale="  158.956">  2  5  1 -1</clus>
</clustering>
</event>
<event>
 9    1  0.3303741E-006  0.2759950E+03  0.7546771E-02  0.1102345E+00
         21   -1    0    0  501  502  0.00000000000E+00  0.00000000000E+00  0.22160366971E+03  0.22160366971E+03  0.00000000000E+00 0. -1.
         -1   -1    0    0    0  501 -0.00000000000E+00 -0.00000000000E+00 -0.37783235699E+03  0.37783235699E+03  0.00000000000E+00 0.  1.
         23    2    1    2    0    0  0.22628225378E+03  0.29622581531E+02 -0.20377741277E+03  0.31937514000E+03  0.91619268607E+02 0.  0.
         23    2    1    2    0    0 -0.22762847817E+03 -0.12267423054E+01  0.36251832977E+02  0.24947076107E+03  0.95421361678E+02 0.  0.
        -11    1    4    4    0    0 -0.14935168061E+03  0.34398542111E+02  0.52386991408E+02  0.16196783961E+03  0.00000000000E+00 0. -1.
         11    1    4    4    0    0 -0.78276797562E+02 -0.35625284417E+02 -0.16135158431E+02  0.87502921460E+02  0.00000000000E+00 0.  1.
        -13    1    3    3    0    0  0.20423592047E+03  0.59203388837E+00 -0.19387105521E+03  0.28160015583E+03  0.00000000000E+00 0.  1.
         13    1    3    3    0    0  0.22046333311E+02  0.29030547642E+02 -0.99063575624E+01  0.37774984170E+02  0.00000000000E+00 0. -1.
         -1    1    1    2    0  502  0.13462243888E+01 -0.28395839225E+02  0.11296892518E+02  0.30590125629E+02  0.00000000000E+00 0.  1.
<scales pt_clust_5="13000.00000" pt_clust_6="13000.00000" pt_clust_7="13000.00000" pt_clust_8="13000.00000" pt_clust_9="13000.00000"></scales>
<clustering>
<clus scale="   91.619">  7  8 -1 -1</clus>
<clus scale="   95.421">  5  6 -1 -1</clus>
<clus scale="   28.428">  5  9 -1 -1</clus>
<clus scale="  245.917">  2  7  1 -1</clus>
<clus scale="  275.995">  1  5  2 -1</clus>
</clustering>
</event>
<event>
 9    1  0.3303741E-006  0.1233748E+03  0.7546771E-02  0.1251386E+00
         21   -1    0    0  501  502  0.00000000000E+00  0.00000000000E+00  0.27142395061E+03  0.27142395061E+03  0.00000000000E+00 0.  1.
          2   -1    0    0  502    0 -0.00000000000E+00 -0.00000000000E+00 -0.19607432268E+03  0.19607432268E+03  0.00000000000E+00 0. -1.
         23    2    1    2    0    0 -0.90150872204E+01 -0.13078858901E+02 -0.16935601500E+03  0.19345046212E+03  0.92137360133E+02 0.  0.
         23    2    1    2    0    0 -0.16922400385E+02  0.29638187478E+02  0.20405509534E+03  0.22306318951E+03  0.83390136042E+02 0.  0.
        -11    1    3    3    0    0 -0.33737575960E+02  0.22885895308E+02 -0.12390271233E+03  0.13043722766E+03  0.00000000000E+00 0.  1.
         11    1    3    3    0    0  0.24722488740E+02 -0.35964754208E+02 -0.45453302666E+02  0.63013234467E+02  0.00000000000E+00 0. -1.
        -13    1    4    4    0    0  0.19617983137E+02  0.43464702198E+02  0.81440780402E+02  0.94375030130E+02  0.00000000000E+00 0. -1.
         13    1    4    4    0    0 -0.36540383523E+02 -0.13826514721E+02  0.12261431494E+03  0.12868815938E+03  0.00000000000E+00 0.  1.
          2    1    1    2  501    0  0.25937487606E+02 -0.16559328577E+02  0.40650547587E+02  0.50984621655E+02  0.00000000000E+00 0. -1.
<scales pt_clust_5="13000.00000" pt_clust_6="13000.00000" pt_clust_7="13000.00000" pt_clust_8="13000.00000" pt_clust_9="13000.00000"></scales>
<clustering>
<clus scale="   83.390">  7  8 -1 -1</clus>
<clus scale="   30.773">  7  9 -1 -1</clus>
<clus scale="   92.137">  5  6 -1 -1</clus>
<clus scale="   93.497">  2  5  1 -1</clus>
<clus scale="  123.375">  1  5  2 -1</clus>
</clustering>
</event>
<event>
 9    1  0.3303741E-006  0.1711868E+03  0.7546771E-02  0.1201516E+00
         21   -1    0    0  501  502  0.00000000000E+00  0.00000000000E+00  0.22622228469E+03  0.22622228469E+03  0.00000000000E+00 0.  1.
         -4   -1    0    0    0  501 -0.00000000000E+00 -0.00000000000E+00 -0.17196229335E+03  0.17196229335E+03  0.00000000000E+00 0.  1.
         23    2    1    2    0    0 -0.32929617405E+01 -0.34734220907E+02 -0.11902811920E+03  0.15459949356E+03  0.92282178941E+02 0.  0.
         23    2    1    2    0    0 -0.23917735357E+02  0.51284241761E+02  0.54295116385E+02  0.12040368214E+03  0.91361674087E+02 0.  0.
        -11    1    4    4    0    0  0.14382373365E+02  0.51933413346E+02  0.61132069032E+02  0.81492711021E+02  0.00000000000E+00 0.  1.
         11    1    4    4    0    0 -0.38300108722E+02 -0.64917158482E+00 -0.68369526478E+01  0.38910971119E+02  0.00000000000E+00 0. -1.
        -11    1    3    3    0    0 -0.29781650697E+02  0.21174015551E+02 -0.38959445098E+02  0.53414642329E+02  0.00000000000E+00 0.  1.
         11    1    3    3    0    0  0.26488688957E+02 -0.55908236458E+02 -0.80068674099E+02  0.10118485123E+03  0.00000000000E+00 0. -1.
         -4    1    1    2    0  502  0.27210697098E+02 -0.16550020855E+02  0.11899299415E+03  0.12318140235E+03  0.00000000000E+00 0.  1.
<scales pt_clust_5="13000.00000" pt_clust_6="13000.00000" pt_clust_7="13000.00000" pt_clust_8="13000.00000" pt_clust_9="13000.00000"></scales>
<clustering>
<clus scale="   91.362">  5  6 -1 -1</clus>
<clus scale="   31.848">  5  9 -1 -1</clus>
<clus scale="   92.282">  7  8 -1 -1</clus>
<clus scale="   98.658">  2  7  1 -1</clus>
<clus scale="  171.187">  1  5  2 -1</clus>
</clustering>
</event>
<event>
 9    1  0.3303741E-006  0.2974079E+03  0.7546771E-02  0.1118641E+00
         21   -1    0    0  501  502  0.00000000000E+00  0.00000000000E+00  0.13653867577E+03  0.13653867577E+03  0.00000000000E+00 0. -1.
          1   -1    0    0  502    0 -0.00000000000E+00 -0.00000000000E+00 -0.33600605715E+03  0.33600605715E+03  0.00000000000E+00 0. -1.
         23    2    1    2    0    0 -0.59227278354E+02  0.69690932620E+02 -0.44818194815E+02  0.13733160739E+03  0.92122761631E+02 0.  0.
         23    2    1    2    0    0 -0.25281215099E+02  0.18224084706E+02 -0.18420750933E+03  0.20973631420E+03  0.95318717465E+02 0.  0.
        -11    1    4    4    0    0  0.32261515293E+02  0.26002848283E+02 -0.89838333919E+02  0.98933713815E+02  0.00000000000E+00 0. -1.
         11    1    4    4    0    0 -0.57542730392E+02 -0.77787635772E+01 -0.94369175412E+02  0.11080260038E+03  0.00000000000E+00 0.  1.
        -13    1    3    3    0    0 -0.29394109424E+02  0.84632533202E+02 -0.51448889000E+02  0.10331344310E+03  0.00000000000E+00 0. -1.
         13    1    3    3    0    0 -0.29833168930E+02 -0.14941600582E+02  0.66306941852E+01  0.34018164291E+02  0.00000000000E+00 0.  1.
          1    1    1    2  501    0  0.84508493453E+02 -0.87915017325E+02  0.29558322769E+02  0.12547681133E+03  0.00000000000E+00 0. -1.
<scales pt_clust_5="13000.00000" pt_clust_6="13000.00000" pt_clust_7="13000.00000" pt_clust_8="13000.00000" pt_clust_9="13000.00000"></scales>
<clustering>
<clus scale="   92.123">  7  8 -1 -1</clus>
<clus scale="   95.319">  5  6 -1 -1</clus>
<clus scale="  121.946">  5  9 -1 -1</clus>
<clus scale="  129.813">  2  7  1 -1</clus>
<clus scale="  297.408">  1  5  2 -1</clus>
</clustering>
</event>
<event>
 9    1  0.3303741E-006  0.2021161E+03  0.7546771E-02  0.1159041E+00
         21   -1    0    0  501  502  0.00000000000E+00  0.00000000000E+00  0.42205029573E+02  0.42205029573E+02  0.00000000000E+00 0.  1.
          2   -1    0    0  502    0 -0.00000000000E+00 -0.00000000000E+00 -0.76943208713E+03  0.76943208713E+03  0.00000000000E+00 0. -1.
         23    2    1    2    0    0  0.10716384273E+03 -0.68524454095E+02 -0.26911240573E+03  0.31091767933E+03  0.89825533159E+02 0.  0.
         23    2    1    2    0    0 -0.53241832862E+02  0.39575906506E+02 -0.15856099674E+03  0.19497772639E+03  0.92053131174E+02 0.  0.
        -11    1    4    4    0    0 -0.49468734133E+02  0.12204340191E+02 -0.21742418772E+02  0.55397060845E+02  0.00000000000E+00 0.  1.
         11    1    4    4    0    0 -0.37730987284E+01  0.27371566315E+02 -0.13681857797E+03  0.13958066555E+03  0.00000000000E+00 0. -1.
        -13    1    3    3    0    0  0.54834971286E+02 -0.65936440230E+02 -0.23019985960E+03  0.24565517211E+03  0.00000000000E+00 0.  1.
         13    1    3    3    0    0  0.52328871446E+02 -0.25880138649E+01 -0.38912546130E+02  0.65262507222E+02  0.00000000000E+00 0. -1.
          2    1    1    2  501    0 -0.53922009871E+02  0.28948547588E+02 -0.29955365509E+03  0.30574171098E+03  0.00000000000E+00 0. -1.
<scales pt_clust_5="13000.00000" pt_clust_6="13000.00000" pt_clust_7="13000.00000" pt_clust_8="13000.00000" pt_clust_9="13000.00000"></scales>
<clustering>
<clus scale="   89.826">  7  8 -1 -1</clus>
<clus scale="   92.053">  5  6 -1 -1</clus>
<clus scale="   61.201">  5  9 -1 -1</clus>
<clus scale="  155.719">  2  7  1 -1</clus>
<clus scale="  202.116">  1  5  2 -1</clus>
</clustering>
</event>
<event>
 9    1  0.3303741E-006  0.4866031E+03  0.7546771E-02  0.1067158E+00
         21   -1    0    0  501  502  0.00000000000E+00  0.00000000000E+00  0.35918165266E+03  0.35918165266E+03  0.00000000000E+00 0. -1.
          1   -1    0    0  502    0 -0.00000000000E+00 -0.00000000000E+00 -0.66744567941E+03  0.66744567941E+03  0.00000000000E+00 0. -1.
         23    2    1    2    0    0 -0.12641947603E+02  0.71015195598E+02 -0.49295577113E+03  0.50615287867E+03  0.89344095759E+02 0.  0.
         23    2    1    2    0    0  0.15179110007E+03  0.68283635190E+02  0.24846533153E+03  0.31351136175E+03  0.94080604148E+02 0.  0.
        -11    1    3    3    0    0 -0.44869252295E+02  0.12919095936E+02 -0.16199351150E+03  0.16858840592E+03  0.00000000000E+00 0.  1.
         11    1    3    3    0    0  0.32227304692E+02  0.58096099662E+02 -0.33096225963E+03  0.33756447275E+03  0.00000000000E+00 0. -1.
        -13    1    4    4    0    0  0.26583665476E+02 -0.12356419553E+02  0.75359172001E+01  0.30268175075E+02  0.00000000000E+00 0.  1.
         13    1    4    4    0    0  0.12520743459E+03  0.80640054744E+02  0.24092941433E+03  0.28324318667E+03  0.00000000000E+00 0. -1.
          1    1    1    2  501    0 -0.13914915246E+03 -0.13929883079E+03 -0.63773587143E+02  0.20696309166E+03  0.00000000000E+00 0. -1.
<scales pt_clust_5="13000.00000" pt_clust_6="13000.00000" pt_clust_7="13000.00000" pt_clust_8="13000.00000" pt_clust_9="13000.00000"></scales>
<clustering>
<clus scale="   89.344">  5  6 -1 -1</clus>
<clus scale="   94.081">  7  8 -1 -1</clus>
<clus scale="  114.827">  2  5  1 -1</clus>
<clus scale="  170.393">  7  9 -1 -1</clus>
<clus scale="  486.603">  1  5  2 -1</clus>
</clustering>
</event>
<event>
 9    1  0.3303741E-006  0.2307440E+03  0.7546771E-02  0.1157323E+00
         -3   -1    0    0    0  501 -0.00000000000E+00  0.00000000000E+00  0.33327499286E+02  0.33327499286E+02  0.00000000000E+00 0.  1.
         21   -1    0    0  501  502  0.00000000000E+00 -0.00000000000E+00 -0.86561487293E+03  0.86561487293E+03  0.00000000000E+00 0.  1.
         23    2    1    2    0    0 -0.21903565001E+02  0.11853367378E+02 -0.26273141159E+03  0.28442076422E+03  0.10605238332E+03 0.  0.
         23    2    1    2    0    0 -0.39020143095E+02 -0.89865725420E+02 -0.32313231886E+03  0.34896137350E+03  0.88097244766E+02 0.  0.
        -11    1    4    4    0    0 -0.16980159920E+02  0.11554051566E+02 -0.20464770420E+02  0.28993598721E+02  0.00000000000E+00 0. -1.
         11    1    4    4    0    0 -0.22039983175E+02 -0.10141977699E+03 -0.30266754844E+03  0.31996777478E+03  0.00000000000E+00 0.  1.
        -11    1    3    3    0    0  0.38922959773E+02  0.77709052256E+01 -0.54319323599E+02  0.67275349734E+02  0.00000000000E+00 0. -1.
         11    1    3    3    0    0 -0.60826524773E+02  0.40824621528E+01 -0.20841208799E+03  0.21714541449E+03  0.00000000000E+00 0.  1.
         -3    1    1    2    0  502  0.60923708095E+02  0.78012358041E+02 -0.24642364320E+03  0.26556023449E+03  0.00000000000E+00 0.  1.
<scales pt_clust_5="13000.00000" pt_clust_6="13000.00000" pt_clust_7="13000.00000" pt_clust_8="13000.00000" pt_clust_9="13000.00000"></scales>
<clustering>
<clus scale="   88.097">  5  6 -1 -1</clus>
<clus scale="   98.983">  5  9 -1 -1</clus>
<clus scale="  106.052">  7  8 -1 -1</clus>
<clus scale="  108.937">  1  7  2 -1</clus>
<clus scale="  230.744">  2  5  1 -1</clus>
</clustering>
</event>
<event>
 9    1  0.3303741E-006  0.2750420E+03  0.7546771E-02  0.1115225E+00
          2   -1    0    0  502    0 -0.00000000000E+00  0.00000000000E+00  0.11754509386E+04  0.11754509386E+04  0.00000000000E+00 0. -1.
         21   -1    0    0  501  502  0.00000000000E+00 -0.00000000000E+00 -0.74763790158E+02  0.74763790158E+02  0.00000000000E+00 0. -1.
         23    2    1    2    0    0 -0.95712480375E+02 -0.12021969670E+03  0.87883985282E+03  0.89685330129E+03  0.91502474118E+02 0.  0.
         23    2    1    2    0    0  0.41341508275E+01  0.13991919127E+03  0.85817667599E+02  0.18819871911E+03  0.91976162763E+02 0.  0.
        -13    1    4    4    0    0  0.20969536809E+02  0.16251064215E+02  0.52809669390E+02  0.59098897986E+02  0.00000000000E+00 0.  1.
         13    1    4    4    0    0 -0.16835385982E+02  0.12366812705E+03  0.33007998209E+02  0.12909982113E+03  0.00000000000E+00 0. -1.
        -13    1    3    3    0    0 -0.95914376242E+02 -0.50800406480E+02  0.57867048479E+03  0.58876122396E+03  0.00000000000E+00 0.  1.
         13    1    3    3    0    0  0.20189586742E+00 -0.69419290217E+02  0.30016936802E+03  0.30809207733E+03  0.00000000000E+00 0. -1.
          2    1    1    2  501    0  0.91578329547E+02 -0.19699494570E+02  0.13602962804E+03  0.16516270836E+03  0.00000000000E+00 0. -1.
<scales pt_clust_5="13000.00000" pt_clust_6="13000.00000" pt_clust_7="13000.00000" pt_clust_8="13000.00000" pt_clust_9="13000.00000"></scales>
<clustering>
<clus scale="   91.502">  7  8 -1 -1</clus>
<clus scale="   91.976">  5  6 -1 -1</clus>
<clus scale="   93.673">  5  9 -1 -1</clus>
<clus scale="  178.847">  1  7  2 -1</clus>
<clus scale="  275.042">  2  5  1 -1</clus>
</clustering>
</event>
<event>
 9    1  0.3303741E-006  0.2028977E+03  0.7546771E-02  0.1160288E+00
          3   -1    0    0  502    0 -0.00000000000E+00  0.00000000000E+00  0.25371563027E+03  0.25371563027E+03  0.00000000000E+00 0. -1.
         21   -1    0    0  501  502  0.00000000000E+00 -0.00000000000E+00 -0.15373829628E+03  0.15373829628E+03  0.00000000000E+00 0. -1.
         23    2    1    2    0    0 -0.11916584382E+03  0.51619144749E+01  0.13512868592E+03  0.20153378091E+03  0.90160741989E+02 0.  0.
         23    2    1    2    0    0  0.73412700271E+02  0.55472351209E+02 -0.23366506102E+02  0.12905177171E+03  0.87417160017E+02 0.  0.
        -11    1    3    3    0    0 -0.11862896680E+03 -0.20862749303E+02  0.93687632577E+02  0.15259573575E+03  0.00000000000E+00 0. -1.
         11    1    3    3    0    0 -0.53687701878E+00  0.26024663778E+02  0.41441053343E+02  0.48938045158E+02  0.00000000000E+00 0.  1.
        -11    1    4    4    0    0  0.90243365626E+02  0.37175735998E+02 -0.32034747865E+02  0.10272353896E+03  0.00000000000E+00 0.  1.
         11    1    4    4    0    0 -0.16830665355E+02  0.18296615210E+02  0.86682417627E+01  0.26328232750E+02  0.00000000000E+00 0. -1.
          3    1    1    2  501    0  0.45753143547E+02 -0.60634265684E+02 -0.11784845831E+02  0.76868373930E+02  0.00000000000E+00 0. -1.
<scales pt_clust_5="13000.00000" pt_clust_6="13000.00000" pt_clust_7="13000.00000" pt_clust_8="13000.00000" pt_clust_9="13000.00000"></scales>
<clustering>
<clus scale="   87.417">  7  8 -1 -1</clus>
<clus scale="   75.960">  7  9 -1 -1</clus>
<clus scale="   90.161">  5  6 -1 -1</clus>
<clus scale="  149.520">  1  5  2 -1</clus>
<clus scale="  202.898">  2  5  1 -1</clus>
</clustering>
</event>
<event>
 9    1  0.3303741E-006  0.2830939E+03  0.7546771E-02  0.1108110E+00
          1   -1    0    0  502    0 -0.00000000000E+00  0.00000000000E+00  0.11472022872E+04  0.11472022872E+04  0.00000000000E+00 0. -1.
         21   -1    0    0  501  502  0.00000000000E+00 -0.00000000000E+00 -0.63791095392E+02  0.63791095392E+02  0.00000000000E+00 0. -1.
         23    2    1    2    0    0 -0.10670466774E+03  0.13799219989E+03  0.74150193565E+03  0.76709688190E+03  0.90469731430E+02 0.  0.
         23    2    1    2    0    0  0.94703160787E+02  0.27262043866E+01  0.22462870119E+03  0.26031972099E+03  0.91280791435E+02 0.  0.
        -11    1    4    4    0    0  0.49274176360E+02 -0.40206289471E+02  0.15030960368E+03  0.16320988673E+03  0.00000000000E+00 0. -1.
         11    1    4    4    0    0  0.45428984427E+02  0.42932493858E+02  0.74319097513E+02  0.97109834260E+02  0.00000000000E+00 0.  1.
        -13    1    3    3    0    0 -0.12509393613E+02  0.33653331222E+02  0.50619482533E+02  0.62059355804E+02  0.00000000000E+00 0.  1.
         13    1    3    3    0    0 -0.94195274125E+02  0.10433886866E+03  0.69088245311E+03  0.70503752610E+03  0.00000000000E+00 0. -1.
          1    1    1    2  501    0  0.12001506950E+02 -0.14071840427E+03  0.11728055496E+03  0.18357677969E+03  0.00000000000E+00 0. -1.
<scales pt_clust_5="13000.00000" pt_clust_6="13000.00000" pt_clust_7="13000.00000" pt_clust_8="13000.00000" pt_clust_9="13000.00000"></scales>
<clustering>
<clus scale="   90.470">  7  8 -1 -1</clus>
<clus scale="   91.281">  5  6 -1 -1</clus>
<clus scale="  141.229">  5  9 -1 -1</clus>
<clus scale="  196.501">  1  7  2 -1</clus>
<clus scale="  283.094">  2  5  1 -1</clus>
</clustering>
</event>
<event>
 9    1  0.3303741E-006  0.1389889E+03  0.7546771E-02  0.1231938E+00
          1   -1    0    0  502    0 -0.00000000000E+00  0.00000000000E+00  0.51903876473E+02  0.51903876473E+02  0.00000000000E+00 0. -1.
         21   -1    0    0  501  502  0.00000000000E+00 -0.00000000000E+00 -0.34706466813E+03  0.34706466813E+03  0.00000000000E+00 0. -1.
         23    2    1    2    0    0 -0.82112389580E+01 -0.32173848409E+02 -0.33329948543E+02  0.10253423206E+03  0.91103250802E+02 0.  0.
         23    2    1    2    0    0  0.34493125098E+02  0.34454443158E+02 -0.15471529071E+03  0.18611803896E+03  0.91248117321E+02 0.  0.
        -13    1    4    4    0    0  0.44943267798E+02 -0.17867496722E+02 -0.90643948398E+02  0.10273981770E+03  0.00000000000E+00 0.  1.
         13    1    4    4    0    0 -0.10450142700E+02  0.52321939880E+02 -0.64071342314E+02  0.83378221264E+02  0.00000000000E+00 0. -1.
        -13    1    3    3    0    0 -0.30986385798E+02  0.19699838898E+01 -0.49491000414E+02  0.58424276318E+02  0.00000000000E+00 0. -1.
         13    1    3    3    0    0  0.22775146840E+02 -0.34143832298E+02  0.16161051871E+02  0.44109955737E+02  0.00000000000E+00 0.  1.
          1    1    1    2  501    0 -0.26281886140E+02 -0.22805947494E+01 -0.10711555240E+03  0.11031627358E+03  0.00000000000E+00 0. -1.
<scales pt_clust_5="13000.00000" pt_clust_6="13000.00000" pt_clust_7="13000.00000" pt_clust_8="13000.00000" pt_clust_9="13000.00000"></scales>
<clustering>
<clus scale="   91.103">  7  8 -1 -1</clus>
<clus scale="   91.248">  5  6 -1 -1</clus>
<clus scale="   26.381">  5  9 -1 -1</clus>
<clus scale="   96.966">  1  7  2 -1</clus>
<clus scale="  138.989">  2  5  1 -1</clus>
</clustering>
</event>
<event>
 9    1  0.3303741E-006  0.2071681E+03  0.7546771E-02  0.1167120E+00
          1   -1    0    0  502    0 -0.00000000000E+00  0.00000000000E+00  0.25331550450E+03  0.25331550450E+03  0.00000000000E+00 0. -1.
         21   -1    0    0  501  502  0.00000000000E+00 -0.00000000000E+00 -0.12405212530E+03  0.12405212530E+03  0.00000000000E+00 0.  1.
         23    2    1    2    0    0 -0.12417894853E+02  0.78982158892E+02 -0.20582884875E+02  0.12168715769E+03  0.89396440981E+02 0.  0.
         23    2    1    2    0    0 -0.29183747659E+02 -0.85266089071E+01  0.14964708914E+03  0.17385919826E+03  0.83116636996E+02 0.  0.
        -11    1    3    3    0    0 -0.40804442256E+01  0.22037582439E+02 -0.51637505429E+02  0.56291536058E+02  0.00000000000E+00 0.  1.
         11    1    3    3    0    0 -0.83374506275E+01  0.56944576452E+02  0.31054620554E+02  0.65395621628E+02  0.00000000000E+00 0. -1.
        -13    1    4    4    0    0  0.26773970220E+02  0.80912900202E+01  0.67673127112E+02  0.73225450416E+02  0.00000000000E+00 0.  1.
         13    1    4    4    0    0 -0.55957717879E+02 -0.16617898927E+02  0.81973962029E+02  0.10063374785E+03  0.00000000000E+00 0. -1.
          1    1    1    2  501    0  0.41601642512E+02 -0.70455549985E+02  0.19917493200E+00  0.81821273847E+02  0.00000000000E+00 0. -1.
<scales pt_clust_5="13000.00000" pt_clust_6="13000.00000" pt_clust_7="13000.00000" pt_clust_8="13000.00000" pt_clust_9="13000.00000"></scales>
<clustering>
<clus scale="   83.117">  7  8 -1 -1</clus>
<clus scale="   81.821">  7  9 -1 -1</clus>
<clus scale="   89.396">  5  6 -1 -1</clus>
<clus scale="  119.934">  1  5  2 -1</clus>
<clus scale="  207.168">  2  5  1 -1</clus>
</clustering>
</event>
<event>
 9    1  0.3303741E-006  0.1970907E+03  0.7546771E-02  0.1169865E+00
         21   -1    0    0  501  502  0.00000000000E+00  0.00000000000E+00  0.36004390428E+03  0.36004390428E+03  0.00000000000E+00 0. -1.
          2   -1    0    0  502    0 -0.00000000000E+00 -0.00000000000E+00 -0.38792890333E+03  0.38792890333E+03  0.00000000000E+00 0. -1.
         23    2    1    2    0    0 -0.29828724502E+01 -0.90847506008E+02 -0.34815889382E+03  0.37191417805E+03  0.94039213180E+02 0.  0.
         23    2    1    2    0    0 -0.43238954763E+02  0.29313673027E+02  0.10000848350E+03  0.14273541744E+03  0.87423131864E+02 0.  0.
        -11    1    4    4    0    0  0.95908246136E+01 -0.20956794740E+02  0.61076092238E+01  0.23842693912E+02  0.00000000000E+00 0. -1.
         11    1    4    4    0    0 -0.52829779377E+02  0.50270467767E+02  0.93900874277E+02  0.11889272353E+03  0.00000000000E+00 0.  1.
        -11    1    3    3    0    0  0.43475246434E+01 -0.37731384271E+02 -0.27721715491E+02  0.47021823011E+02  0.00000000000E+00 0.  1.
         11    1    3    3    0    0 -0.73303970935E+01 -0.53116121738E+02 -0.32043717833E+03  0.32489235504E+03  0.00000000000E+00 0. -1.
          2    1    1    2  501    0  0.46221827213E+02  0.61533832982E+02  0.22026541127E+03  0.23332321212E+03  0.00000000000E+00 0. -1.
<scales pt_clust_5="13000.00000" pt_clust_6="13000.00000" pt_clust_7="13000.00000" pt_clust_8="13000.00000" pt_clust_9="13000.00000"></scales>
<clustering>
<clus scale="   87.423">  5  6 -1 -1</clus>
<clus scale="   76.960">  5  9 -1 -1</clus>
<clus scale="   94.039">  7  8 -1 -1</clus>
<clus scale="  130.788">  2  7  1 -1</clus>
<clus scale="  197.091">  1  5  2 -1</clus>
</clustering>
</event>
<event>
 9    1  0.3303741E-006  0.2332383E+03  0.7546771E-02  0.1159527E+00
         21   -1    0    0  501  502  0.00000000000E+00  0.00000000000E+00  0.67241413297E+02  0.67241413297E+02  0.00000000000E+00 0.  1.
         -1   -1    0    0    0  501 -0.00000000000E+00 -0.00000000000E+00 -0.53863685126E+03  0.53863685126E+03  0.00000000000E+00 0.  1.
         23    2    1    2    0    0 -0.48943812277E+02 -0.19792502479E+02 -0.30041790742E+03  0.31668379594E+03  0.85149677611E+02 0.  0.
         23    2    1    2    0    0  0.10475504496E+03  0.51286112846E+02 -0.16897595812E+03  0.22507935745E+03  0.92216906867E+02 0.  0.
        -13    1    3    3    0    0 -0.73458065982E+02 -0.17769002615E+02 -0.22891753528E+03  0.24107065950E+03  0.00000000000E+00 0. -1.
         13    1    3    3    0    0  0.24514253705E+02 -0.20234998648E+01 -0.71500372139E+02  0.75613136441E+02  0.00000000000E+00 0.  1.
        -13    1    4    4    0    0  0.26449296218E+02  0.52539380576E+02 -0.31158375952E+02  0.66564225930E+02  0.00000000000E+00 0.  1.
         13    1    4    4    0    0  0.78305748746E+02 -0.12532677298E+01 -0.13781758217E+03  0.15851513152E+03  0.00000000000E+00 0. -1.
         -1    1    1    2    0  502 -0.55811232687E+02 -0.31493610367E+02 -0.20015724250E+01  0.64115111169E+02  0.00000000000E+00 0.  1.
<scales pt_clust_5="13000.00000" pt_clust_6="13000.00000" pt_clust_7="13000.00000" pt_clust_8="13000.00000" pt_clust_9="13000.00000"></scales>
<clustering>
<clus scale="   85.150">  5  6 -1 -1</clus>
<clus scale="   92.217">  7  8 -1 -1</clus>
<clus scale="   64.084">  7  9 -1 -1</clus>
<clus scale="  100.188">  2  5  1 -1</clus>
<clus scale="  233.238">  1  5  2 -1</clus>
</clustering>
</event>
<event>
 9    1  0.3303741E-006  0.2197522E+03  0.7546771E-02  0.1143251E+00
         -1   -1    0    0    0  501 -0.00000000000E+00  0.00000000000E+00  0.15269743217E+03  0.15269743217E+03  0.00000000000E+00 0.  1.
         21   -1    0    0  501  502  0.00000000000E+00 -0.00000000000E+00 -0.49193812570E+03  0.49193812570E+03  0.00000000000E+00 0.  1.
         23    2    1    2    0    0  0.15023419527E+03  0.85212455085E+01  0.62463171454E+02  0.18675237420E+03  0.91279112765E+02 0.  0.
         23    2    1    2    0    0 -0.11644987304E+03  0.22438876401E+02 -0.37045831408E+03  0.40241973599E+03  0.10314167604E+03 0.  0.
        -13    1    4    4    0    0 -0.10245859752E+03  0.58639793817E+02 -0.28928289353E+03  0.31244356629E+03  0.00000000000E+00 0.  1.
         13    1    4    4    0    0 -0.13991275517E+02 -0.36200917415E+02 -0.81175420552E+02  0.89976169701E+02  0.00000000000E+00 0. -1.
        -13    1    3    3    0    0  0.10685289950E+03 -0.54180508481E+01  0.84312808639E+02  0.13621874726E+03  0.00000000000E+00 0.  1.
         13    1    3    3    0    0  0.43381295775E+02  0.13939296357E+02 -0.21849637185E+02  0.50533626934E+02  0.00000000000E+00 0. -1.
         -1    1    1    2    0  502 -0.33784322232E+02 -0.30960121910E+02 -0.31245550898E+02  0.55463447677E+02  0.00000000000E+00 0.  1.
<scales pt_clust_5="13000.00000" pt_clust_6="13000.00000" pt_clust_7="13000.00000" pt_clust_8="13000.00000" pt_clust_9="13000.00000"></scales>
<clustering>
<clus scale="   91.279">  7  8 -1 -1</clus>
<clus scale="  103.142">  5  6 -1 -1</clus>
<clus scale="   45.825">  5  9 -1 -1</clus>
<clus scale="  175.997">  1  7  2 -1</clus>
<clus scale="  219.752">  2  5  1 -1</clus>
</clustering>
</event>
<event>
 9    1  0.3303741E-006  0.2435727E+03  0.7546771E-02  0.1149372E+00
         21   -1    0    0  501  502  0.00000000000E+00  0.00000000000E+00  0.63950879360E+02  0.63950879360E+02  0.00000000000E+00 0.  1.
          2   -1    0    0  502    0 -0.00000000000E+00 -0.00000000000E+00 -0.65037214576E+03  0.65037214576E+03  0.00000000000E+00 0. -1.
         23    2    1    2    0    0  0.39700493573E+02  0.45381146838E+02 -0.37668131525E+03  0.39289102591E+03  0.94015782214E+02 0.  0.
         23    2    1    2    0    0 -0.90317421365E+02 -0.61186286464E+02 -0.46710151449E+02  0.14999515542E+03  0.91737179745E+02 0.  0.
        -11    1    3    3    0    0  0.29250492733E+02  0.74868304013E+02 -0.27491460240E+03  0.28642432314E+03  0.00000000000E+00 0. -1.
         11    1    3    3    0    0  0.10450000840E+02 -0.29487157174E+02 -0.10176671285E+03  0.10646670277E+03  0.00000000000E+00 0.  1.
        -13    1    4    4    0    0 -0.56662195399E+02 -0.41337338318E+02  0.19780391504E+02  0.72874164247E+02  0.00000000000E+00 0.  1.
         13    1    4    4    0    0 -0.33655225966E+02 -0.19848948146E+02 -0.66490542952E+02  0.77120991172E+02  0.00000000000E+00 0. -1.
          2    1    1    2  501    0  0.50616927792E+02  0.15805139626E+02 -0.16302979970E+03  0.17143684379E+03  0.00000000000E+00 0. -1.
<scales pt_clust_5="13000.00000" pt_clust_6="13000.00000" pt_clust_7="13000.00000" pt_clust_8="13000.00000" pt_clust_9="13000.00000"></scales>
<clustering>
<clus scale="   91.737">  7  8 -1 -1</clus>
<clus scale="   53.027">  7  9 -1 -1</clus>
<clus scale="   94.016">  5  6 -1 -1</clus>
<clus scale="  111.690">  2  5  1 -1</clus>
<clus scale="  243.573">  1  5  2 -1</clus>
</clustering>
</event>
<event>
 9    1  0.3303741E-006  0.2658110E+03  0.7546771E-02  0.1135645E+00
         -4   -1    0    0    0  501 -0.00000000000E+00  0.00000000000E+00  0.86540136011E+02  0.86540136011E+02  0.00000000000E+00 0.  1.
         21   -1    0    0  501  502  0.00000000000E+00 -0.00000000000E+00 -0.56165482023E+03  0.56165482023E+03  0.00000000000E+00 0.  1.
         23    2    1    2    0    0  0.20373174994E+02  0.73198021008E+02 -0.20018291605E+02  0.12115774256E+03  0.92224996851E+02 0.  0.
         23    2    1    2    0    0 -0.43282616857E+02 -0.11999096182E+03 -0.14758511460E+03  0.21514362936E+03  0.90742489291E+02 0.  0.
        -11    1    3    3    0    0 -0.23598887199E+02  0.65465974371E+02  0.53716159279E+01  0.69796529535E+02  0.00000000000E+00 0. -1.
         11    1    3    3    0    0  0.43972062193E+02  0.77320466370E+01 -0.25389907533E+02  0.51361213023E+02  0.00000000000E+00 0.  1.
        -13    1    4    4    0    0 -0.11611013717E+02 -0.86393510668E+02 -0.35868177600E+02  0.94261235348E+02  0.00000000000E+00 0.  1.
         13    1    4    4    0    0 -0.31671603139E+02 -0.33597451149E+02 -0.11171693700E+03  0.12088239401E+03  0.00000000000E+00 0. -1.
         -4    1    1    2    0  502  0.22909441863E+02  0.46792940808E+02 -0.30751127802E+03  0.31189358433E+03  0.00000000000E+00 0.  1.
<scales pt_clust_5="13000.00000" pt_clust_6="13000.00000" pt_clust_7="13000.00000" pt_clust_8="13000.00000" pt_clust_9="13000.00000"></scales>
<clustering>
<clus scale="   90.742">  7  8 -1 -1</clus>
<clus scale="   52.100">  7  9 -1 -1</clus>
<clus scale="   92.225">  5  6 -1 -1</clus>
<clus scale="  119.493">  1  5  2 -1</clus>
<clus scale="  265.811">  2  5  1 -1</clus>
</clustering>
</event>
<event>
 9    1  0.3303741E-006  0.3753587E+03  0.7546771E-02  0.1086633E+00
         21   -1    0    0  501  502  0.00000000000E+00  0.00000000000E+00  0.35943150939E+03  0.35943150939E+03  0.00000000000E+00 0.  1.
         -2   -1    0    0    0  501 -0.00000000000E+00 -0.00000000000E+00 -0.19061052049E+03  0.19061052049E+03  0.00000000000E+00 0.  1.
         23    2    1    2    0    0 -0.28042026536E+02  0.11479383593E+03  0.59068564697E+02  0.15896693604E+03  0.88416126346E+02 0.  0.
         23    2    1    2    0    0  0.39202572636E+02  0.30529972966E+02 -0.94012812937E+02  0.14054797137E+03  0.91904310617E+02 0.  0.
        -11    1    3    3    0    0 -0.42034783723E+02  0.12974299441E+02  0.25496839558E+02  0.50846281241E+02  0.00000000000E+00 0. -1.
         11    1    3    3    0    0  0.13992757187E+02  0.10181953649E+03  0.33571725139E+02  0.10812065480E+03  0.00000000000E+00 0.  1.
        -11    1    4    4    0    0 -0.25647802459E+02 -0.36515037332E+01 -0.71283749245E+01  0.26869257146E+02  0.00000000000E+00 0. -1.
         11    1    4    4    0    0  0.64850375096E+02  0.34181476700E+02 -0.86884438012E+02  0.11367871423E+03  0.00000000000E+00 0.  1.
         -2    1    1    2    0  502 -0.11160546100E+02 -0.14532380890E+03  0.20376523714E+03  0.25052712246E+03  0.00000000000E+00 0.  1.
<scales pt_clust_5="13000.00000" pt_clust_6="13000.00000" pt_clust_7="13000.00000" pt_clust_8="13000.00000" pt_clust_9="13000.00000"></scales>
<clustering>
<clus scale="   88.416">  5  6 -1 -1</clus>
<clus scale="   91.904">  7  8 -1 -1</clus>
<clus scale="  145.752">  7  9 -1 -1</clus>
<clus scale="  147.585">  2  5  1 -1</clus>
<clus scale="  375.359">  1  5  2 -1</clus>
</clustering>
</event>
<event>
 9    1  0.3303741E-006  0.2167611E+03  0.7546771E-02  0.1169899E+00
         21   -1    0    0  501  502  0.00000000000E+00  0.00000000000E+00  0.24284356309E+03  0.24284356309E+03  0.00000000000E+00 0. -1.
         -1   -1    0    0    0  501 -0.00000000000E+00 -0.00000000000E+00 -0.23923862868E+03  0.23923862868E+03  0.00000000000E+00 0.  1.
         23    2    1    2    0    0 -0.85021057875E+01  0.38164708499E+02 -0.17535064193E+03  0.20099418079E+03  0.90122041198E+02 0.  0.
         23    2    1    2    0    0 -0.71673466859E+02 -0.14790334060E+02  0.15239355935E+03  0.19345226156E+03  0.94043291823E+02 0.  0.
        -11    1    3    3    0    0  0.26109829532E+02  0.48748013620E+02 -0.13945279780E+03  0.15001724849E+03  0.00000000000E+00 0.  1.
         11    1    3    3    0    0 -0.34611935319E+02 -0.10583305121E+02 -0.35897844127E+02  0.50976932300E+02  0.00000000000E+00 0. -1.
        -11    1    4    4    0    0 -0.50094836101E+02  0.33794481818E+01  0.13875225944E+02  0.52090643776E+02  0.00000000000E+00 0.  1.
         11    1    4    4    0    0 -0.21578630759E+02 -0.18169782241E+02  0.13851833341E+03  0.14136161778E+03  0.00000000000E+00 0. -1.
         -1    1    1    2    0  502  0.80175572647E+02 -0.23374374440E+02  0.26562016995E+02  0.87635749421E+02  0.00000000000E+00 0.  1.
<scales pt_clust_5="13000.00000" pt_clust_6="13000.00000" pt_clust_7="13000.00000" pt_clust_8="13000.00000" pt_clust_9="13000.00000"></scales>
<clustering>
<clus scale="   90.122">  5  6 -1 -1</clus>
<clus scale="   94.043">  7  8 -1 -1</clus>
<clus scale="   83.513">  7  9 -1 -1</clus>
<clus scale="   98.239">  2  5  1 -1</clus>
<clus scale="  216.761">  1  5  2 -1</clus>
</clustering>
</event>
<event>
 9    1  0.3303741E-006  0.1759490E+03  0.7546771E-02  0.1182559E+00
         -1   -1    0    0    0  501 -0.00000000000E+00  0.00000000000E+00  0.23036676154E+03  0.23036676154E+03  0.00000000000E+00 0.  1.
         21   -1    0    0  501  502  0.00000000000E+00 -0.00000000000E+00 -0.10945981683E+03  0.10945981683E+03  0.00000000000E+00 0.  1.
         23    2    1    2    0    0  0.27864719527E+02  0.98229969607E+02  0.79019355555E+02  0.15896024084E+03  0.92729337818E+02 0.  0.
         23    2    1    2    0    0 -0.33926514517E+02 -0.28476562982E+02  0.57346858962E+02  0.10916367289E+03  0.81646323980E+02 0.  0.
        -11    1    4    4    0    0 -0.51855066774E+02  0.58716525273E+01  0.43757509927E+02  0.68103920067E+02  0.00000000000E+00 0.  1.
         11    1    4    4    0    0  0.17928552256E+02 -0.34348215509E+02  0.13589349035E+02  0.41059752823E+02  0.00000000000E+00 0. -1.
        -13    1    3    3    0    0  0.60321489051E+02  0.59117194828E+02  0.33943192245E+02  0.91025628619E+02  0.00000000000E+00 0. -1.
         13    1    3    3    0    0 -0.32456769524E+02  0.39112774778E+02  0.45076163310E+02  0.67934612220E+02  0.00000000000E+00 0.  1.
         -1    1    1    2    0  502  0.60617949903E+01 -0.69753406625E+02 -0.15459269808E+02  0.71702664645E+02  0.00000000000E+00 0.  1.
<scales pt_clust_5="13000.00000" pt_clust_6="13000.00000" pt_clust_7="13000.00000" pt_clust_8="13000.00000" pt_clust_9="13000.00000"></scales>
<clustering>
<clus scale="   81.646">  5  6 -1 -1</clus>
<clus scale="   70.016">  5  9 -1 -1</clus>
<clus scale="   92.729">  7  8 -1 -1</clus>
<clus scale="  137.929">  1  7  2 -1</clus>
<clus scale="  175.949">  2  5  1 -1</clus>
</clustering>
</event>
<event>
 9    1  0.3303741E-006  0.2024005E+03  0.7546771E-02  0.1174462E+00
         21   -1    0    0  501  502  0.00000000000E+00  0.00000000000E+00  0.32365557064E+02  0.32365557064E+02  0.00000000000E+00 0. -1.
          1   -1    0    0  502    0 -0.00000000000E+00 -0.00000000000E+00 -0.80125882177E+03  0.80125882177E+03  0.00000000000E+00 0. -1.
         23    2    1    2    0    0 -0.28387099094E+02  0.44240719927E+02 -0.37943482864E+03  0.39471227266E+03  0.95204623366E+02 0.  0.
         23    2    1    2    0    0 -0.44514709530E+02 -0.27607927377E+02 -0.32131998090E+03  0.33774801887E+03  0.89907936814E+02 0.  0.
        -11    1    3    3    0    0  0.29963239658E+02  0.39039618655E+02 -0.19955250741E+03  0.20553124038E+03  0.00000000000E+00 0.  1.
         11    1    3    3    0    0 -0.58350338751E+02  0.52011012715E+01 -0.17988232122E+03  0.18918103228E+03  0.00000000000E+00 0. -1.
        -11    1    4    4    0    0 -0.46334865425E+02 -0.57577855659E+02 -0.23575898988E+03  0.24707171130E+03  0.00000000000E+00 0. -1.
         11    1    4    4    0    0  0.18201558954E+01  0.29969928283E+02 -0.85560991021E+02  0.90676307562E+02  0.00000000000E+00 0.  1.
          1    1    1    2  501    0  0.72901808624E+02 -0.16632792550E+02 -0.68138455167E+02  0.10116408731E+03  0.00000000000E+00 0. -1.
<scales pt_clust_5="13000.00000" pt_clust_6="13000.00000" pt_clust_7="13000.00000" pt_clust_8="13000.00000" pt_clust_9="13000.00000"></scales>
<clustering>
<clus scale="   89.908">  7  8 -1 -1</clus>
<clus scale="   74.775">  7  9 -1 -1</clus>
<clus scale="   95.205">  5  6 -1 -1</clus>
<clus scale="  108.752">  2  5  1 -1</clus>
<clus scale="  202.401">  1  5  2 -1</clus>
</clustering>
</event>
<event>
 9    1  0.3303741E-006  0.2533550E+03  0.7546771E-02  0.1141071E+00
         -1   -1    0    0    0  501 -0.00000000000E+00  0.00000000000E+00  0.14393853478E+03  0.14393853478E+03  0.00000000000E+00 0.  1.
         21   -1    0    0  501  502  0.00000000000E+00 -0.00000000000E+00 -0.28220718234E+03  0.28220718234E+03  0.00000000000E+00 0.  1.
         23    2    1    2    0    0  0.17691529199E+02 -0.76991056736E+02  0.26548306915E+02  0.12389848053E+03  0.91681011417E+02 0.  0.
         23    2    1    2    0    0  0.20512781005E+02 -0.54067229399E+02 -0.57642503009E+02  0.12868973394E+03  0.99470347280E+02 0.  0.
        -11    1    3    3    0    0 -0.32436975620E+02 -0.13440795880E+02  0.24712643124E+02  0.42936314600E+02  0.00000000000E+00 0.  1.
         11    1    3    3    0    0  0.50128504819E+02 -0.63550260856E+02  0.18356637905E+01  0.80962165929E+02  0.00000000000E+00 0. -1.
        -11    1    4    4    0    0 -0.31211823634E+02 -0.54779160672E+02 -0.36126638969E+02  0.72664079308E+02  0.00000000000E+00 0.  1.
         11    1    4    4    0    0  0.51724604639E+02  0.71193127239E+00 -0.21515864040E+02  0.56025654629E+02  0.00000000000E+00 0. -1.
         -1    1    1    2    0  502 -0.38204310205E+02  0.13105828614E+03 -0.10717445146E+03  0.17355750266E+03  0.00000000000E+00 0.  1.
<scales pt_clust_5="13000.00000" pt_clust_6="13000.00000" pt_clust_7="13000.00000" pt_clust_8="13000.00000" pt_clust_9="13000.00000"></scales>
<clustering>
<clus scale="   91.681">  5  6 -1 -1</clus>
<clus scale="   99.470">  7  8 -1 -1</clus>
<clus scale="  121.021">  1  5  2 -1</clus>
<clus scale="   98.443">  7  9 -1 -1</clus>
<clus scale="  253.355">  2  5  1 -1</clus>
</clustering>
</event>
<event>
 9    1  0.3303741E-006  0.4494221E+03  0.7546771E-02  0.1063041E+00
          1   -1    0    0  502    0 -0.00000000000E+00  0.00000000000E+00  0.10050203365E+04  0.10050203365E+04  0.00000000000E+00 0. -1.
         21   -1    0    0  501  502  0.00000000000E+00 -0.00000000000E+00 -0.11105345334E+03  0.11105345334E+03  0.00000000000E+00 0.  1.
         23    2    1    2    0    0  0.12281641594E+03 -0.58527345009E+02  0.70458322763E+02  0.17791252588E+03  0.90438760940E+02 0.  0.
         23    2    1    2    0    0 -0.10346569879E+03 -0.15591323675E+03  0.24905922996E+03  0.32468653213E+03  0.91524619073E+02 0.  0.
        -11    1    3    3    0    0  0.96275941690E+02 -0.73239194300E+02  0.81232618652E+02  0.14571127226E+03  0.00000000000E+00 0.  1.
         11    1    3    3    0    0  0.26540474246E+02  0.14711849291E+02 -0.10774295888E+02  0.32201253619E+02  0.00000000000E+00 0. -1.
        -13    1    4    4    0    0 -0.11021612049E+03 -0.11704760527E+03  0.23065405143E+03  0.28115658725E+03  0.00000000000E+00 0. -1.
         13    1    4    4    0    0  0.67504217038E+01 -0.38865631488E+02  0.18405178530E+02  0.43529944876E+02  0.00000000000E+00 0.  1.
          1    1    1    2  501    0 -0.19350717147E+02  0.21444058176E+03  0.57444933045E+03  0.61347473185E+03  0.00000000000E+00 0. -1.
<scales pt_clust_5="13000.00000" pt_clust_6="13000.00000" pt_clust_7="13000.00000" pt_clust_8="13000.00000" pt_clust_9="13000.00000"></scales>
<clustering>
<clus scale="   90.439">  5  6 -1 -1</clus>
<clus scale="   91.525">  7  8 -1 -1</clus>
<clus scale="  163.366">  1  5  2 -1</clus>
<clus scale="  186.129">  7  9 -1 -1</clus>
<clus scale="  449.422">  2  5  1 -1</clus>
</clustering>
</event>
<event>
 9    1  0.3303741E-006  0.1603468E+03  0.7546771E-02  0.1205666E+00
         21   -1    0    0  501  502  0.00000000000E+00  0.00000000000E+00  0.33229008768E+02  0.33229008768E+02  0.00000000000E+00 0.  1.
         -2   -1    0    0    0  501 -0.00000000000E+00 -0.00000000000E+00 -0.55705368101E+03  0.55705368101E+03  0.00000000000E+00 0.  1.
         23    2    1    2    0    0  0.39651919272E+02 -0.47117407479E+02 -0.24863073371E+03  0.27178184917E+03  0.90861471518E+02 0.  0.
         23    2    1    2    0    0 -0.38400255444E+02 -0.12996179888E+02 -0.20897421070E+03  0.22905665464E+03  0.84576888018E+02 0.  0.
        -13    1    4    4    0    0 -0.59489595067E+02 -0.16784688087E+02 -0.96783021337E+02  0.11483767193E+03  0.00000000000E+00 0. -1.
         13    1    4    4    0    0  0.21089339623E+02  0.37885081988E+01 -0.11219118937E+03  0.11421898271E+03  0.00000000000E+00 0.  1.
        -13    1    3    3    0    0 -0.20172370904E+02  0.26029889721E+01 -0.14263494464E+02  0.24842451042E+02  0.00000000000E+00 0. -1.
         13    1    3    3    0    0  0.59824290176E+02 -0.49720396451E+02 -0.23436723924E+03  0.24693939813E+03  0.00000000000E+00 0.  1.
         -2    1    1    2    0  502 -0.12516638278E+01  0.60113587366E+02 -0.66219727830E+02  0.89444185961E+02  0.00000000000E+00 0.  1.
<scales pt_clust_5="13000.00000" pt_clust_6="13000.00000" pt_clust_7="13000.00000" pt_clust_8="13000.00000" pt_clust_9="13000.00000"></scales>
<clustering>
<clus scale="   84.577">  5  6 -1 -1</clus>
<clus scale="   60.127">  5  9 -1 -1</clus>
<clus scale="   90.861">  7  8 -1 -1</clus>
<clus scale="  109.764">  2  7  1 -1</clus>
<clus scale="  160.347">  1  5  2 -1</clus>
</clustering>
</event>
<event>
 9    1  0.3303741E-006  0.1245403E+03  0.7546771E-02  0.1250513E+00
         21   -1    0    0  501  502  0.00000000000E+00  0.00000000000E+00  0.10136070195E+03  0.10136070195E+03  0.00000000000E+00 0. -1.
         -1   -1    0    0    0  501 -0.00000000000E+00 -0.00000000000E+00 -0.22245868642E+03  0.22245868642E+03  0.00000000000E+00 0.  1.
         23    2    1    2    0    0  0.15253359954E+02 -0.94173664607E+01 -0.16715194818E+03  0.19103665343E+03  0.90740715199E+02 0.  0.
         23    2    1    2    0    0 -0.18810044754E+01 -0.88517082364E+01  0.56155038631E+02  0.10799139177E+03  0.91797937979E+02 0.  0.
        -13    1    3    3    0    0  0.58277152724E+01 -0.43822447981E+02 -0.13818430176E+03  0.14508366712E+03  0.00000000000E+00 0. -1.
         13    1    3    3    0    0  0.94256446820E+01  0.34405081521E+02 -0.28967646416E+02  0.45952986312E+02  0.00000000000E+00 0.  1.
        -13    1    4    4    0    0 -0.38591888722E+02  0.46699237124E+01  0.56842175284E+02  0.68863451508E+02  0.00000000000E+00 0.  1.
         13    1    4    4    0    0  0.36710884246E+02 -0.13521631949E+02 -0.68713665305E+00  0.39127940266E+02  0.00000000000E+00 0. -1.
         -1    1    1    2    0  502 -0.13372355479E+02  0.18269074697E+02 -0.10101074924E+02  0.24791343166E+02  0.00000000000E+00 0.  1.
<scales pt_clust_5="13000.00000" pt_clust_6="13000.00000" pt_clust_7="13000.00000" pt_clust_8="13000.00000" pt_clust_9="13000.00000"></scales>
<clustering>
<clus scale="   90.741">  5  6 -1 -1</clus>
<clus scale="   91.798">  7  8 -1 -1</clus>
<clus scale="   22.640">  7  9 -1 -1</clus>
<clus scale="   92.494">  2  5  1 -1</clus>
<clus scale="  124.540">  1  5  2 -1</clus>
</clustering>
</event>
<event>
 9    1  0.3303741E-006  0.2276925E+03  0.7546771E-02  0.1159459E+00
         -2   -1    0    0    0  501 -0.00000000000E+00  0.00000000000E+00  0.53311428112E+03  0.53311428112E+03  0.00000000000E+00 0.  1.
         21   -1    0    0  501  502  0.00000000000E+00 -0.00000000000E+00 -0.55334991503E+02  0.55334991503E+02  0.00000000000E+00 0. -1.
         23    2    1    2    0    0 -0.19104294432E+02 -0.42885922755E+02  0.21649080308E+03  0.24187239994E+03  0.97107227318E+02 0.  0.
         23    2    1    2    0    0  0.82375589949E+02  0.76752892161E+02  0.21859997880E+03  0.26307515326E+03  0.93519202629E+02 0.  0.
        -11    1    3    3    0    0 -0.40546410346E+02  0.13051699095E+02  0.54576952988E+02  0.69231510446E+02  0.00000000000E+00 0. -1.
         11    1    3    3    0    0  0.21442115913E+02 -0.55937621850E+02  0.16191385009E+03  0.17264088949E+03  0.00000000000E+00 0.  1.
        -13    1    4    4    0    0 -0.16583170987E+02  0.35308458212E+02  0.61904313372E+02  0.73169889950E+02  0.00000000000E+00 0.  1.
         13    1    4    4    0    0  0.98958760936E+02  0.41444433949E+02  0.15669566543E+03  0.18990526331E+03  0.00000000000E+00 0. -1.
         -2    1    1    2    0  502 -0.63271295517E+02 -0.33866969407E+02  0.42688507741E+02  0.83501719421E+02  0.00000000000E+00 0.  1.
<scales pt_clust_5="13000.00000" pt_clust_6="13000.00000" pt_clust_7="13000.00000" pt_clust_8="13000.00000" pt_clust_9="13000.00000"></scales>
<clustering>
<clus scale="   93.519">  7  8 -1 -1</clus>
<clus scale="   71.765">  7  9 -1 -1</clus>
<clus scale="   97.107">  5  6 -1 -1</clus>
<clus scale="  107.861">  1  5  2 -1</clus>
<clus scale="  227.692">  2  5  1 -1</clus>
</clustering>
</event>
<event>
 9    1  0.3303741E-006  0.8135073E+03  0.7546771E-02  0.9831655E-01
          2   -1    0    0  502    0 -0.00000000000E+00  0.00000000000E+00  0.20844191591E+04  0.20844191591E+04  0.00000000000E+00 0. -1.
         21   -1    0    0  501  502  0.00000000000E+00 -0.00000000000E+00 -0.15529019574E+03  0.15529019574E+03  0.00000000000E+00 0. -1.
         23    2    1    2    0    0 -0.21514148501E+03 -0.19763342074E+03  0.36014123431E+03  0.47236202188E+03  0.89885168426E+02 0.  0.
         23    2    1    2    0    0  0.19298748327E+03 -0.26060633867E+03  0.85140051373E+03  0.91563970206E+03  0.91396918759E+02 0.  0.
        -11    1    4    4    0    0  0.12890192135E+03 -0.22916670429E+03  0.71258613312E+03  0.75954728675E+03  0.00000000000E+00 0. -1.
         11    1    4    4    0    0  0.64085561913E+02 -0.31439634382E+02  0.13881438060E+03  0.15609241531E+03  0.00000000000E+00 0.  1.
        -13    1    3    3    0    0 -0.26023824092E+02 -0.24687820228E+02  0.78513850873E+01  0.36720187033E+02  0.00000000000E+00 0.  1.
         13    1    3    3    0    0 -0.18911766092E+03 -0.17294560051E+03  0.35228984922E+03  0.43564183485E+03  0.00000000000E+00 0. -1.
          2    1    1    2  501    0  0.22154001749E+02  0.45823975941E+03  0.71758721529E+03  0.85170763085E+03  0.00000000000E+00 0. -1.
<scales pt_clust_5="13000.00000" pt_clust_6="13000.00000" pt_clust_7="13000.00000" pt_clust_8="13000.00000" pt_clust_9="13000.00000"></scales>
<clustering>
<clus scale="   89.885">  7  8 -1 -1</clus>
<clus scale="   91.397">  5  6 -1 -1</clus>
<clus scale="  305.654">  1  7  2 -1</clus>
<clus scale="  373.734">  5  9 -1 -1</clus>
<clus scale="  813.507">  2  5  1 -1</clus>
</clustering>
</event>
<event>
 9    1  0.3303741E-006  0.2804806E+03  0.7546771E-02  0.1121646E+00
         -2   -1    0    0    0  501 -0.00000000000E+00  0.00000000000E+00  0.46177773432E+03  0.46177773432E+03  0.00000000000E+00 0.  1.
         21   -1    0    0  501  502  0.00000000000E+00 -0.00000000000E+00 -0.22847101730E+03  0.22847101730E+03  0.00000000000E+00 0. -1.
         23    2    1    2    0    0 -0.71964043021E+02 -0.67042807269E+02 -0.15497970611E+03  0.21125429146E+03  0.10457583305E+03 0.  0.
         23    2    1    2    0    0 -0.75061950500E+02  0.20509454045E+00  0.13640448821E+03  0.17978143947E+03  0.89893509753E+02 0.  0.
        -11    1    3    3    0    0  0.11874348156E+02 -0.54134237033E+02 -0.39900960893E+02  0.68290573606E+02  0.00000000000E+00 0.  1.
         11    1    3    3    0    0 -0.83838391176E+02 -0.12908570236E+02 -0.11507874522E+03  0.14296371785E+03  0.00000000000E+00 0. -1.
        -11    1    4    4    0    0 -0.61589421024E+02 -0.37909132662E+02  0.10947970833E+03  0.13121038700E+03  0.00000000000E+00 0. -1.
         11    1    4    4    0    0 -0.13472529476E+02  0.38114227203E+02  0.26924779880E+02  0.48571052463E+02  0.00000000000E+00 0.  1.
         -2    1    1    2    0  502  0.14702599352E+03  0.66837712729E+02  0.25188193492E+03  0.29921302069E+03  0.00000000000E+00 0.  1.
<scales pt_clust_5="13000.00000" pt_clust_6="13000.00000" pt_clust_7="13000.00000" pt_clust_8="13000.00000" pt_clust_9="13000.00000"></scales>
<clustering>
<clus scale="   89.894">  7  8 -1 -1</clus>
<clus scale="  104.576">  5  6 -1 -1</clus>
<clus scale="  143.561">  1  5  2 -1</clus>
<clus scale="  104.157">  7  9 -1 -1</clus>
<clus scale="  280.481">  2  5  1 -1</clus>
</clustering>
</event>
<event>
 9    1  0.3303741E-006  0.2016229E+03  0.7546771E-02  0.1171489E+00
         21   -1    0    0  501  502  0.00000000000E+00  0.00000000000E+00  0.62152119021E+03  0.62152119021E+03  0.00000000000E+00 0.  1.
         -3   -1    0    0    0  501 -0.00000000000E+00 -0.00000000000E+00 -0.41743912056E+02  0.41743912056E+02  0.00000000000E+00 0.  1.
         23    2    1    2    0    0 -0.50894566585E+02  0.50603924000E+02  0.25723818943E+03  0.28289259674E+03  0.93304454121E+02 0.  0.
         23    2    1    2    0    0  0.16861703397E+02  0.40947335041E+02  0.16243170098E+03  0.19282452654E+03  0.94001272679E+02 0.  0.
        -11    1    4    4    0    0 -0.17193038793E+02 -0.11735134207E+02  0.24209158996E+01  0.20956497598E+02  0.00000000000E+00 0. -1.
         11    1    4    4    0    0  0.34054742189E+02  0.52682469248E+02  0.16001078508E+03  0.17186802894E+03  0.00000000000E+00 0.  1.
        -11    1    3    3    0    0 -0.86062437709E+01  0.27591513059E+02  0.93572366056E+01  0.30379547423E+02  0.00000000000E+00 0. -1.
         11    1    3    3    0    0 -0.42288322814E+02  0.23012410941E+02  0.24788095282E+03  0.25251304932E+03  0.00000000000E+00 0.  1.
         -3    1    1    2    0  502  0.34032863189E+02 -0.91551259041E+02  0.16010738774E+03  0.18754797898E+03  0.00000000000E+00 0.  1.
<scales pt_clust_5="13000.00000" pt_clust_6="13000.00000" pt_clust_7="13000.00000" pt_clust_8="13000.00000" pt_clust_9="13000.00000"></scales>
<clustering>
<clus scale="   93.304">  7  8 -1 -1</clus>
<clus scale="   94.001">  5  6 -1 -1</clus>
<clus scale="   97.672">  5  9 -1 -1</clus>
<clus scale="  117.715">  2  7  1 -1</clus>
<clus scale="  201.623">  1  5  2 -1</clus>
</clustering>
</event>
<event>
 9    1  0.3303741E-006  0.2755893E+03  0.7546771E-02  0.1131464E+00
         21   -1    0    0  501  502  0.00000000000E+00  0.00000000000E+00  0.29606522847E+03  0.29606522847E+03  0.00000000000E+00 0.  1.
         -2   -1    0    0    0  501 -0.00000000000E+00 -0.00000000000E+00 -0.13854969832E+03  0.13854969832E+03  0.00000000000E+00 0.  1.
         23    2    1    2    0    0  0.58199740785E+02  0.47379493221E+02  0.32369960063E+01  0.11878059000E+03  0.92012630725E+02 0.  0.
         23    2    1    2    0    0  0.78207358917E+02 -0.27077213228E+02  0.23461567161E+02  0.12574972860E+03  0.91722312680E+02 0.  0.
        -11    1    3    3    0    0  0.50972385566E+02  0.66967508233E+02 -0.21050599766E+02  0.86752285271E+02  0.00000000000E+00 0.  1.
         11    1    3    3    0    0  0.72273552192E+01 -0.19588015012E+02  0.24287595772E+02  0.32028304732E+02  0.00000000000E+00 0. -1.
        -13    1    4    4    0    0  0.93522517183E+01 -0.37869588412E+02 -0.19773482465E+02  0.43732836033E+02  0.00000000000E+00 0. -1.
         13    1    4    4    0    0  0.68855107199E+02  0.10792375184E+02  0.43235049627E+02  0.82016892563E+02  0.00000000000E+00 0.  1.
         -2    1    1    2    0  502 -0.13640709970E+03 -0.20302279993E+02  0.13081696698E+03  0.19008460819E+03  0.00000000000E+00 0.  1.
<scales pt_clust_5="13000.00000" pt_clust_6="13000.00000" pt_clust_7="13000.00000" pt_clust_8="13000.00000" pt_clust_9="13000.00000"></scales>
<clustering>
<clus scale="   91.722">  7  8 -1 -1</clus>
<clus scale="   92.013">  5  6 -1 -1</clus>
<clus scale="  118.736">  2  5  1 -1</clus>
<clus scale="  115.093">  7  9 -1 -1</clus>
<clus scale="  275.589">  1  5  2 -1</clus>
</clustering>
</event>
<event>
 9    1  0.3303741E-006  0.3380382E+03  0.7546771E-02  0.1114394E+00
         21   -1    0    0  501  502  0.00000000000E+00  0.00000000000E+00  0.23761342543E+03  0.23761342543E+03  0.00000000000E+00 0. -1.
          1   -1    0    0  502    0 -0.00000000000E+00 -0.00000000000E+00 -0.37075482902E+03  0.37075482902E+03  0.00000000000E+00 0. -1.
         23    2    1    2    0    0 -0.36220549315E+01 -0.39853619024E+02  0.14183570027E+03  0.17261344476E+03  0.89869934948E+02 0.  0.
         23    2    1    2    0    0  0.81903615098E+02 -0.66757081446E+02 -0.26951980851E+03  0.30337797566E+03  0.90733449445E+02 0.  0.
        -11    1    4    4    0    0  0.77481081345E+02 -0.13855627957E+02 -0.11002356230E+03  0.13527926912E+03  0.00000000000E+00 0.  1.
         11    1    4    4    0    0  0.44225337540E+01 -0.52901453488E+02 -0.15949624621E+03  0.16809870655E+03  0.00000000000E+00 0. -1.
        -13    1    3    3    0    0  0.33334971748E+02  0.31071376068E+01  0.22019812178E+02  0.40071770287E+02  0.00000000000E+00 0.  1.
         13    1    3    3    0    0 -0.36957026680E+02 -0.42960756631E+02  0.11981588810E+03  0.13254167447E+03  0.00000000000E+00 0. -1.
          1    1    1    2  501    0 -0.78281560167E+02  0.10661070047E+03 -0.54572953512E+01  0.13237683404E+03  0.00000000000E+00 0. -1.
<scales pt_clust_5="13000.00000" pt_clust_6="13000.00000" pt_clust_7="13000.00000" pt_clust_8="13000.00000" pt_clust_9="13000.00000"></scales>
<clustering>
<clus scale="   89.870">  7  8 -1 -1</clus>
<clus scale="   90.733">  5  6 -1 -1</clus>
<clus scale="   98.377">  2  7  1 -1</clus>
<clus scale="  126.555">  5  9 -1 -1</clus>
<clus scale="  338.038">  1  5  2 -1</clus>
</clustering>
</event>
<event>
 9    1  0.3303741E-006  0.3125711E+03  0.7546771E-02  0.1102139E+00
         -3   -1    0    0    0  501 -0.00000000000E+00  0.00000000000E+00  0.91163699077E+03  0.91163699077E+03  0.00000000000E+00 0.  1.
         21   -1    0    0  501  502  0.00000000000E+00 -0.00000000000E+00 -0.11541584857E+03  0.11541584857E+03  0.00000000000E+00 0. -1.
         23    2    1    2    0    0 -0.12985643116E+03 -0.55198637611E+02  0.66776817746E+03  0.68911669133E+03  0.95172964323E+02 0.  0.
         23    2    1    2    0    0  0.17616908589E+03 -0.26337024055E+02  0.30131809121E+02  0.20206865463E+03  0.90524193470E+02 0.  0.
        -13    1    3    3    0    0  0.71433268186E+01 -0.29948611241E+02  0.11192154017E+03  0.11607918671E+03  0.00000000000E+00 0. -1.
         13    1    3    3    0    0 -0.13699975797E+03 -0.25250026370E+02  0.55584663729E+03  0.57303750462E+03  0.00000000000E+00 0.  1.
        -13    1    4    4    0    0  0.11696927133E+03 -0.42053417587E+02  0.55049179891E+02  0.13594378461E+03  0.00000000000E+00 0.  1.
         13    1    4    4    0    0  0.59199814558E+02  0.15716393532E+02 -0.24917370770E+02  0.66124870022E+02  0.00000000000E+00 0. -1.
         -3    1    1    2    0  502 -0.46312654738E+02  0.81535661666E+02  0.98321155628E+02  0.13586749338E+03  0.00000000000E+00 0.  1.
<scales pt_clust_5="13000.00000" pt_clust_6="13000.00000" pt_clust_7="13000.00000" pt_clust_8="13000.00000" pt_clust_9="13000.00000"></scales>
<clustering>
<clus scale="   90.524">  7  8 -1 -1</clus>
<clus scale="   93.771">  7  9 -1 -1</clus>
<clus scale="   95.173">  5  6 -1 -1</clus>
<clus scale="  170.198">  1  5  2 -1</clus>
<clus scale="  312.571">  2  5  1 -1</clus>
</clustering>
</event>
<event>
 9    1  0.3303741E-006  0.2403033E+03  0.7546771E-02  0.1170188E+00
          1   -1    0    0  502    0 -0.00000000000E+00  0.00000000000E+00  0.13008527400E+03  0.13008527400E+03  0.00000000000E+00 0. -1.
         21   -1    0    0  501  502  0.00000000000E+00 -0.00000000000E+00 -0.25544683768E+03  0.25544683768E+03  0.00000000000E+00 0.  1.
         23    2    1    2    0    0  0.98013897573E+00  0.30309929012E+02  0.50596125224E+02  0.87695251938E+02  0.64890961279E+02 0.  0.
         23    2    1    2    0    0 -0.29311149364E+02  0.49651839787E+02 -0.40969440249E+01  0.10617923205E+03  0.89066243308E+02 0.  0.
        -11    1    4    4    0    0 -0.44388390962E+02  0.46106654794E+01  0.24326192730E+02  0.50826677455E+02  0.00000000000E+00 0. -1.
         11    1    4    4    0    0  0.15077241598E+02  0.45041174307E+02 -0.28423136755E+02  0.55352554595E+02  0.00000000000E+00 0.  1.
        -13    1    3    3    0    0  0.27150211848E+02 -0.15734076157E+01  0.78799820768E+01  0.28314373248E+02  0.00000000000E+00 0. -1.
         13    1    3    3    0    0 -0.26170072872E+02  0.31883336628E+02  0.42716143147E+02  0.59380878690E+02  0.00000000000E+00 0.  1.
          1    1    1    2  501    0  0.28331010388E+02 -0.79961768799E+02 -0.17186074488E+03  0.19165762769E+03  0.00000000000E+00 0. -1.
<scales pt_clust_5="13000.00000" pt_clust_6="13000.00000" pt_clust_7="13000.00000" pt_clust_8="13000.00000" pt_clust_9="13000.00000"></scales>
<clustering>
<clus scale="   64.891">  7  8 -1 -1</clus>
<clus scale="   71.627">  1  7  2 -1</clus>
<clus scale="   89.066">  5  6 -1 -1</clus>
<clus scale="   80.265">  5  9 -1 -1</clus>
<clus scale="  240.303">  2  5  1 -1</clus>
</clustering>
</event>
<event>
 9    1  0.3303741E-006  0.2623154E+03  0.7546771E-02  0.1142009E+00
         21   -1    0    0  501  502  0.00000000000E+00  0.00000000000E+00  0.10396454146E+04  0.10396454146E+04  0.00000000000E+00 0. -1.
          4   -1    0    0  502    0 -0.00000000000E+00 -0.00000000000E+00 -0.33143457574E+02  0.33143457574E+02  0.00000000000E+00 0. -1.
         23    2    1    2    0    0  0.46706941031E+02  0.15469230567E+02  0.34800465157E+03  0.36396727895E+03  0.94573290087E+02 0.  0.
         23    2    1    2    0    0 -0.73885482597E+02 -0.10633564191E+03  0.33807502034E+03  0.37465723452E+03  0.96472745995E+02 0.  0.
        -11    1    3    3    0    0  0.55224669997E+02 -0.88887153942E+01  0.32377247248E+03  0.32856869506E+03  0.00000000000E+00 0. -1.
         11    1    3    3    0    0 -0.85177289657E+01  0.24357945961E+02  0.24232179097E+02  0.35398583898E+02  0.00000000000E+00 0.  1.
        -13    1    4    4    0    0 -0.52563569644E+02 -0.15458525988E+02  0.59614881281E+02  0.80968073644E+02  0.00000000000E+00 0.  1.
         13    1    4    4    0    0 -0.21321912952E+02 -0.90877115921E+02  0.27846013906E+03  0.29368916087E+03  0.00000000000E+00 0. -1.
          4    1    1    2  501    0  0.27178541565E+02  0.90866411342E+02  0.32042228516E+03  0.33416435875E+03  0.00000000000E+00 0. -1.
<scales pt_clust_5="13000.00000" pt_clust_6="13000.00000" pt_clust_7="13000.00000" pt_clust_8="13000.00000" pt_clust_9="13000.00000"></scales>
<clustering>
<clus scale="   94.573">  5  6 -1 -1</clus>
<clus scale="   96.473">  7  8 -1 -1</clus>
<clus scale="   94.844">  7  9 -1 -1</clus>
<clus scale="  106.607">  2  5  1 -1</clus>
<clus scale="  262.315">  1  5  2 -1</clus>
</clustering>
</event>
<event>
 9    1  0.3303741E-006  0.3715322E+03  0.7546771E-02  0.1095664E+00
         21   -1    0    0  501  502  0.00000000000E+00  0.00000000000E+00  0.73667924214E+02  0.73667924214E+02  0.00000000000E+00 0. -1.
          1   -1    0    0  502    0 -0.00000000000E+00 -0.00000000000E+00 -0.85601173942E+03  0.85601173942E+03  0.00000000000E+00 0. -1.
         23    2    1    2    0    0 -0.13808778803E+02  0.39876404560E+01 -0.28230368492E+03  0.30672196250E+03  0.11906472237E+03 0.  0.
         23    2    1    2    0    0  0.11110950498E+02  0.14949841955E+03 -0.11948294263E+03  0.21260538669E+03  0.91932835283E+02 0.  0.
        -11    1    4    4    0    0 -0.40106394270E+02  0.79719249861E+02 -0.57948677116E+02  0.10640362230E+03  0.00000000000E+00 0. -1.
         11    1    4    4    0    0  0.51217344767E+02  0.69779169684E+02 -0.61534265514E+02  0.10620176439E+03  0.00000000000E+00 0.  1.
        -13    1    3    3    0    0 -0.41802159853E+01  0.50537224070E+02 -0.56287874462E+02  0.75761533999E+02  0.00000000000E+00 0.  1.
         13    1    3    3    0    0 -0.96285628179E+01 -0.46549583614E+02 -0.22601581046E+03  0.23096042850E+03  0.00000000000E+00 0. -1.
          1    1    1    2  501    0  0.26978283056E+01 -0.15348606000E+03 -0.38055718766E+03  0.41035231445E+03  0.00000000000E+00 0. -1.
<scales pt_clust_5="13000.00000" pt_clust_6="13000.00000" pt_clust_7="13000.00000" pt_clust_8="13000.00000" pt_clust_9="13000.00000"></scales>
<clustering>
<clus scale="   91.933">  5  6 -1 -1</clus>
<clus scale="  119.065">  7  8 -1 -1</clus>
<clus scale="  119.929">  2  7  1 -1</clus>
<clus scale="  150.841">  5  9 -1 -1</clus>
<clus scale="  371.532">  1  5  2 -1</clus>
</clustering>
</event>
<event>
 9    1  0.3303741E-006  0.2361010E+03  0.7546771E-02  0.1152745E+00
          1   -1    0    0  502    0 -0.00000000000E+00  0.00000000000E+00  0.78297252130E+03  0.78297252130E+03  0.00000000000E+00 0. -1.
         21   -1    0    0  501  502  0.00000000000E+00 -0.00000000000E+00 -0.39764981931E+02  0.39764981931E+02  0.00000000000E+00 0. -1.
         23    2    1    2    0    0 -0.62432352833E+02 -0.19968841924E+02  0.29824639528E+03  0.31901722176E+03  0.92328338843E+02 0.  0.
         23    2    1    2    0    0  0.26327447030E+02 -0.53072686890E+02  0.39100451854E+03  0.40599645328E+03  0.91862625697E+02 0.  0.
        -11    1    4    4    0    0  0.54952978854E+02 -0.47741679298E+02  0.33562483284E+03  0.34342848782E+03  0.00000000000E+00 0.  1.
         11    1    4    4    0    0 -0.28625531824E+02 -0.53310075926E+01  0.55379685699E+02  0.62567965464E+02  0.00000000000E+00 0. -1.
        -13    1    3    3    0    0 -0.75844576075E+02  0.11299330754E+02  0.23508176463E+03  0.24727213886E+03  0.00000000000E+00 0. -1.
         13    1    3    3    0    0  0.13412223242E+02 -0.31268172678E+02  0.63164630655E+02  0.71745082903E+02  0.00000000000E+00 0.  1.
          1    1    1    2  501    0  0.36104905803E+02  0.73041528815E+02  0.53956625547E+02  0.97723828184E+02  0.00000000000E+00 0. -1.
<scales pt_clust_5="13000.00000" pt_clust_6="13000.00000" pt_clust_7="13000.00000" pt_clust_8="13000.00000" pt_clust_9="13000.00000"></scales>
<clustering>
<clus scale="   91.863">  5  6 -1 -1</clus>
<clus scale="   81.478">  5  9 -1 -1</clus>
<clus scale="   92.328">  7  8 -1 -1</clus>
<clus scale="  113.230">  1  7  2 -1</clus>
<clus scale="  236.101">  2  5  1 -1</clus>
</clustering>
</event>
<event>
 9    1  0.3303741E-006  0.4353630E+03  0.7546771E-02  0.1086857E+00
          2   -1    0    0  502    0 -0.00000000000E+00  0.00000000000E+00  0.14465948835E+04  0.14465948835E+04  0.00000000000E+00 0. -1.
         21   -1    0    0  501  502  0.00000000000E+00 -0.00000000000E+00 -0.49362918850E+02  0.49362918850E+02  0.00000000000E+00 0. -1.
         23    2    1    2    0    0  0.46455903864E+01 -0.13181674964E+02  0.33565271047E+03  0.34857318749E+03  0.92979497357E+02 0.  0.
         23    2    1    2    0    0  0.13579728496E+03  0.13490190926E+03  0.78624092833E+03  0.81519308823E+03  0.98618182903E+02 0.  0.
        -11    1    3    3    0    0 -0.40829681683E+02 -0.64449819184E+01  0.95527663127E+02  0.10408715156E+03  0.00000000000E+00 0.  1.
         11    1    3    3    0    0  0.45475272070E+02 -0.67366930451E+01  0.24012504734E+03  0.24448603593E+03  0.00000000000E+00 0. -1.
        -13    1    4    4    0    0  0.61078222876E+02  0.11050907472E+03  0.59829908964E+03  0.61147739580E+03  0.00000000000E+00 0. -1.
         13    1    4    4    0    0  0.74719062083E+02  0.24392834544E+02  0.18794183869E+03  0.20371569244E+03  0.00000000000E+00 0.  1.
          2    1    1    2  501    0 -0.14044287535E+03 -0.12172023430E+03  0.27533832580E+03  0.33219152657E+03  0.00000000000E+00 0. -1.
<scales pt_clust_5="13000.00000" pt_clust_6="13000.00000" pt_clust_7="13000.00000" pt_clust_8="13000.00000" pt_clust_9="13000.00000"></scales>
<clustering>
<clus scale="   92.979">  5  6 -1 -1</clus>
<clus scale="   94.024">  1  5  2 -1</clus>
<clus scale="   98.618">  7  8 -1 -1</clus>
<clus scale="  187.293">  7  9 -1 -1</clus>
<clus scale="  435.363">  2  5  1 -1</clus>
</clustering>
</event>
<event>
 9    1  0.3303741E-006  0.3930611E+03  0.7546771E-02  0.1063143E+00
         21   -1    0    0  501  502  0.00000000000E+00  0.00000000000E+00  0.13755412804E+03  0.13755412804E+03  0.00000000000E+00 0. -1.
          1   -1    0    0  502    0 -0.00000000000E+00 -0.00000000000E+00 -0.99681911619E+03  0.99681911619E+03  0.00000000000E+00 0. -1.
         23    2    1    2    0    0  0.12306598558E+03 -0.18924862016E+03 -0.63894914044E+03  0.68377792670E+03  0.91301543927E+02 0.  0.
         23    2    1    2    0    0 -0.56903861199E+02  0.25277336874E+03 -0.22991191438E+03  0.35837327634E+03  0.91866704837E+02 0.  0.
        -13    1    4    4    0    0 -0.15327598810E+02  0.21981093688E+03 -0.19936760668E+03  0.29715185655E+03  0.00000000000E+00 0. -1.
         13    1    4    4    0    0 -0.41576262389E+02  0.32962431864E+02 -0.30544307693E+02  0.61221419790E+02  0.00000000000E+00 0.  1.
        -13    1    3    3    0    0  0.65091138944E+02 -0.13823429233E+03 -0.30644431667E+03  0.34242326901E+03  0.00000000000E+00 0.  1.
         13    1    3    3    0    0  0.57974846640E+02 -0.51014327832E+02 -0.33250482378E+03  0.34135465768E+03  0.00000000000E+00 0. -1.
          1    1    1    2  501    0 -0.66162124385E+02 -0.63524748582E+02  0.95960666673E+01  0.92222041189E+02  0.00000000000E+00 0. -1.
<scales pt_clust_5="13000.00000" pt_clust_6="13000.00000" pt_clust_7="13000.00000" pt_clust_8="13000.00000" pt_clust_9="13000.00000"></scales>
<clustering>
<clus scale="   91.302">  7  8 -1 -1</clus>
<clus scale="   91.867">  5  6 -1 -1</clus>
<clus scale="   91.721">  5  9 -1 -1</clus>
<clus scale="  243.508">  2  7  1 -1</clus>
<clus scale="  393.061">  1  5  2 -1</clus>
</clustering>
</event>
<event>
 9    1  0.3303741E-006  0.2630194E+03  0.7546771E-02  0.1142026E+00
          2   -1    0    0  502    0 -0.00000000000E+00  0.00000000000E+00  0.73519755150E+03  0.73519755150E+03  0.00000000000E+00 0. -1.
         21   -1    0    0  501  502  0.00000000000E+00 -0.00000000000E+00 -0.57306052403E+02  0.57306052403E+02  0.00000000000E+00 0. -1.
         23    2    1    2    0    0 -0.42433906873E+02  0.32832807671E+02  0.38317294070E+03  0.39748682519E+03  0.91080426030E+02 0.  0.
         23    2    1    2    0    0 -0.86290281226E+02 -0.34312898828E+02  0.17032771259E+03  0.21600507576E+03  0.94990922824E+02 0.  0.
        -11    1    3    3    0    0 -0.31626183770E+02  0.64666284027E+02  0.25281846481E+03  0.26286711460E+03  0.00000000000E+00 0. -1.
         11    1    3    3    0    0 -0.10807723102E+02 -0.31833476356E+02  0.13035447588E+03  0.13461971058E+03  0.00000000000E+00 0.  1.
        -11    1    4    4    0    0  0.83380816877E+01  0.20446980622E+02  0.41741614870E+02  0.47222505596E+02  0.00000000000E+00 0.  1.
         11    1    4    4    0    0 -0.94628362914E+02 -0.54759879450E+02  0.12858609772E+03  0.16878257017E+03  0.00000000000E+00 0. -1.
          2    1    1    2  501    0  0.12872418810E+03  0.14800911567E+01  0.12439084581E+03  0.17901170295E+03  0.00000000000E+00 0. -1.
<scales pt_clust_5="13000.00000" pt_clust_6="13000.00000" pt_clust_7="13000.00000" pt_clust_8="13000.00000" pt_clust_9="13000.00000"></scales>
<clustering>
<clus scale="   91.080">  5  6 -1 -1</clus>
<clus scale="   94.991">  7  8 -1 -1</clus>
<clus scale="  105.708">  1  5  2 -1</clus>
<clus scale="  111.204">  7  9 -1 -1</clus>
<clus scale="  263.019">  2  5  1 -1</clus>
</clustering>
</event>
<event>
 9    1  0.3303741E-006  0.4493345E+03  0.7546771E-02  0.1050635E+00
         21   -1    0    0  501  502  0.00000000000E+00  0.00000000000E+00  0.37267677626E+03  0.37267677626E+03  0.00000000000E+00 0.  1.
         -3   -1    0    0    0  501 -0.00000000000E+00 -0.00000000000E+00 -0.32470787013E+03  0.32470787013E+03  0.00000000000E+00 0.  1.
         23    2    1    2    0    0 -0.95423591071E+02 -0.19008176541E+03 -0.50838699804E+02  0.23731458022E+03  0.92178616344E+02 0.  0.
         23    2    1    2    0    0  0.68066411212E+02  0.63956366148E+01 -0.12527985842E+03  0.16903020483E+03  0.90566145526E+02 0.  0.
        -13    1    3    3    0    0 -0.35317410584E+02 -0.15357767474E+03 -0.54897588349E+02  0.16687470412E+03  0.00000000000E+00 0.  1.
         13    1    3    3    0    0 -0.60106180487E+02 -0.36504090677E+02  0.40588885450E+01  0.70439876101E+02  0.00000000000E+00 0. -1.
        -13    1    4    4    0    0  0.84816538924E+02  0.24831957363E+02 -0.10164044102E+03  0.13468945999E+03  0.00000000000E+00 0.  1.
         13    1    4    4    0    0 -0.16750127712E+02 -0.18436320748E+02 -0.23639417404E+02  0.34340744841E+02  0.00000000000E+00 0. -1.
         -3    1    1    2    0  502  0.27357179859E+02  0.18368612880E+03  0.22408746436E+03  0.29103986133E+03  0.00000000000E+00 0.  1.
<scales pt_clust_5="13000.00000" pt_clust_6="13000.00000" pt_clust_7="13000.00000" pt_clust_8="13000.00000" pt_clust_9="13000.00000"></scales>
<clustering>
<clus scale="   90.566">  7  8 -1 -1</clus>
<clus scale="   92.179">  5  6 -1 -1</clus>
<clus scale="  185.712">  7  9 -1 -1</clus>
<clus scale="  231.805">  2  5  1 -1</clus>
<clus scale="  449.335">  1  5  2 -1</clus>
</clustering>
</event>
<event>
 9    1  0.3303741E-006  0.2475279E+03  0.7546771E-02  0.1151515E+00
         21   -1    0    0  501  502  0.00000000000E+00  0.00000000000E+00  0.15473619070E+03  0.15473619070E+03  0.00000000000E+00 0. -1.
          2   -1    0    0  502    0 -0.00000000000E+00 -0.00000000000E+00 -0.54046701777E+03  0.54046701777E+03  0.00000000000E+00 0. -1.
         23    2    1    2    0    0 -0.20888057730E+02  0.31892260137E+01 -0.43174301138E+03  0.44343505628E+03  0.98924916701E+02 0.  0.
         23    2    1    2    0    0 -0.47594615773E+02 -0.15481955414E+02 -0.66101927999E+02  0.11981906373E+03  0.86499738465E+02 0.  0.
        -11    1    4    4    0    0 -0.67350165903E+01  0.31242283484E+02 -0.43028555197E+02  0.53599414998E+02  0.00000000000E+00 0.  1.
         11    1    4    4    0    0 -0.40859599183E+02 -0.46724238899E+02 -0.23073372801E+02  0.66219648734E+02  0.00000000000E+00 0. -1.
        -13    1    3    3    0    0 -0.36624466088E+02  0.43941705603E+02 -0.26062213576E+03  0.26682601570E+03  0.00000000000E+00 0.  1.
         13    1    3    3    0    0  0.15736408359E+02 -0.40752479589E+02 -0.17112087562E+03  0.17660904058E+03  0.00000000000E+00 0. -1.
          2    1    1    2  501    0  0.68482673503E+02  0.12292729401E+02  0.11211411231E+03  0.13194908846E+03  0.00000000000E+00 0. -1.
<scales pt_clust_5="13000.00000" pt_clust_6="13000.00000" pt_clust_7="13000.00000" pt_clust_8="13000.00000" pt_clust_9="13000.00000"></scales>
<clustering>
<clus scale="   86.500">  5  6 -1 -1</clus>
<clus scale="   69.577">  5  9 -1 -1</clus>
<clus scale="   98.925">  7  8 -1 -1</clus>
<clus scale="  101.156">  2  7  1 -1</clus>
<clus scale="  247.528">  1  5  2 -1</clus>
</clustering>
</event>
<event>
 9    1  0.3303741E-006  0.2533267E+03  0.7546771E-02  0.1142695E+00
         -3   -1    0    0    0  501 -0.00000000000E+00  0.00000000000E+00  0.56297643941E+03  0.56297643941E+03  0.00000000000E+00 0.  1.
         21   -1    0    0  501  502  0.00000000000E+00 -0.00000000000E+00 -0.60827718391E+02  0.60827718391E+02  0.00000000000E+00 0.  1.
         23    2    1    2    0    0  0.40456112842E+02  0.53145018202E+02  0.17094181057E+03  0.20682399568E+03  0.95362322534E+02 0.  0.
         23    2    1    2    0    0 -0.26792629652E+02 -0.11923633660E+03  0.11780324987E+03  0.19315908294E+03  0.92182843708E+02 0.  0.
        -11    1    4    4    0    0 -0.55156687484E+02 -0.96842111347E+02  0.10915818844E+03  0.15600052823E+03  0.00000000000E+00 0.  1.
         11    1    4    4    0    0  0.28364057832E+02 -0.22394225252E+02  0.86450614320E+01  0.37158554714E+02  0.00000000000E+00 0. -1.
        -13    1    3    3    0    0  0.64682937202E+01 -0.21909742050E+02  0.83970390950E+02  0.87022423413E+02  0.00000000000E+00 0. -1.
         13    1    3    3    0    0  0.33987819122E+02  0.75054760252E+02  0.86971419623E+02  0.11980157226E+03  0.00000000000E+00 0.  1.
         -3    1    1    2    0  502 -0.13663483190E+02  0.66091318397E+02  0.21340366057E+03  0.22382107918E+03  0.00000000000E+00 0.  1.
<scales pt_clust_5="13000.00000" pt_clust_6="13000.00000" pt_clust_7="13000.00000" pt_clust_8="13000.00000" pt_clust_9="13000.00000"></scales>
<clustering>
<clus scale="   92.183">  5  6 -1 -1</clus>
<clus scale="   67.489">  5  9 -1 -1</clus>
<clus scale="   95.362">  7  8 -1 -1</clus>
<clus scale="  116.426">  1  7  2 -1</clus>
<clus scale="  253.327">  2  5  1 -1</clus>
</clustering>
</event>
<event>
 9    1  0.3303741E-006  0.1389494E+03  0.7546771E-02  0.1232089E+00
         21   -1    0    0  501  502  0.00000000000E+00  0.00000000000E+00  0.48640553297E+03  0.48640553297E+03  0.00000000000E+00 0. -1.
         -3   -1    0    0    0  501 -0.00000000000E+00 -0.00000000000E+00 -0.28786925351E+02  0.28786925351E+02  0.00000000000E+00 0.  1.
         23    2    1    2    0    0  0.24789206993E+02 -0.82017114486E+01  0.16531605179E+03  0.19154491528E+03  0.93157311772E+02 0.  0.
         23    2    1    2    0    0  0.80554484887E+00  0.93290670942E+01  0.12834876520E+03  0.15770415596E+03  0.91156540547E+02 0.  0.
        -11    1    3    3    0    0 -0.91800315700E-01  0.40752947034E+02  0.84808075683E+02  0.94091555520E+02  0.00000000000E+00 0. -1.
         11    1    3    3    0    0  0.24881007309E+02 -0.48954658482E+02  0.80507976111E+02  0.97453359764E+02  0.00000000000E+00 0.  1.
        -13    1    4    4    0    0 -0.29081870720E+02 -0.11189043806E+02  0.11487915394E+03  0.11903012189E+03  0.00000000000E+00 0. -1.
         13    1    4    4    0    0  0.29887415569E+02  0.20518110900E+02  0.13469611257E+02  0.38674034076E+02  0.00000000000E+00 0.  1.
         -3    1    1    2    0  502 -0.25594751842E+02 -0.11273556456E+01  0.16395379062E+03  0.16594338707E+03  0.00000000000E+00 0.  1.
<scales pt_clust_5="13000.00000" pt_clust_6="13000.00000" pt_clust_7="13000.00000" pt_clust_8="13000.00000" pt_clust_9="13000.00000"></scales>
<clustering>
<clus scale="   91.157">  7  8 -1 -1</clus>
<clus scale="   25.620">  7  9 -1 -1</clus>
<clus scale="   93.157">  5  6 -1 -1</clus>
<clus scale="   96.747">  2  5  1 -1</clus>
<clus scale="  138.949">  1  5  2 -1</clus>
</clustering>
</event>
<event>
 9    1  0.3303741E-006  0.5390831E+03  0.7546771E-02  0.1052251E+00
         21   -1    0    0  501  502  0.00000000000E+00  0.00000000000E+00  0.11960523764E+03  0.11960523764E+03  0.00000000000E+00 0. -1.
          2   -1    0    0  502    0 -0.00000000000E+00 -0.00000000000E+00 -0.93072935899E+03  0.93072935899E+03  0.00000000000E+00 0. -1.
         23    2    1    2    0    0  0.73691284564E+02  0.51280663700E+02 -0.15403481992E+03  0.20040699972E+03  0.91521188266E+02 0.  0.
         23    2    1    2    0    0 -0.10251244049E+03 -0.15388251153E+03 -0.70405533615E+03  0.73346469885E+03  0.89932865479E+02 0.  0.
        -11    1    4    4    0    0 -0.29239256374E+02 -0.11045145650E+03 -0.31198388937E+03  0.33224750651E+03  0.00000000000E+00 0.  1.
         11    1    4    4    0    0 -0.73273184112E+02 -0.43431055031E+02 -0.39207144678E+03  0.40121719234E+03  0.00000000000E+00 0. -1.
        -13    1    3    3    0    0  0.90693444993E+02  0.35934297014E+02 -0.14704211381E+03  0.17645950782E+03  0.00000000000E+00 0.  1.
         13    1    3    3    0    0 -0.17002160429E+02  0.15346366686E+02 -0.69927061039E+01  0.23947491902E+02  0.00000000000E+00 0. -1.
          2    1    1    2  501    0  0.28821155921E+02  0.10260184783E+03  0.46966034718E+02  0.11646289806E+03  0.00000000000E+00 0. -1.
<scales pt_clust_5="13000.00000" pt_clust_6="13000.00000" pt_clust_7="13000.00000" pt_clust_8="13000.00000" pt_clust_9="13000.00000"></scales>
<clustering>
<clus scale="   89.933">  5  6 -1 -1</clus>
<clus scale="   91.521">  7  8 -1 -1</clus>
<clus scale="  106.573">  5  9 -1 -1</clus>
<clus scale="  128.204">  2  7  1 -1</clus>
<clus scale="  539.083">  1  5  2 -1</clus>
</clustering>
</event>
<event>
 9    1  0.3303741E-006  0.2489815E+03  0.7546771E-02  0.1155298E+00
         21   -1    0    0  501  502  0.00000000000E+00  0.00000000000E+00  0.18550819157E+03  0.18550819157E+03  0.00000000000E+00 0. -1.
          1   -1    0    0  502    0 -0.00000000000E+00 -0.00000000000E+00 -0.16053818305E+03  0.16053818305E+03  0.00000000000E+00 0. -1.
         23    2    1    2    0    0 -0.32061728273E+01  0.93322782575E+01 -0.19846609315E+02  0.93063566985E+02  0.90385666104E+02 0.  0.
         23    2    1    2    0    0  0.92468585018E+02 -0.59600089639E+02  0.46906604282E+00  0.14135245137E+03  0.88756327011E+02 0.  0.
        -11    1    4    4    0    0  0.10700199345E+03 -0.41952348918E+02  0.12339194023E+02  0.11559274152E+03  0.00000000000E+00 0. -1.
         11    1    4    4    0    0 -0.14533408435E+02 -0.17647740721E+02 -0.11870127980E+02  0.25759709850E+02  0.00000000000E+00 0.  1.
        -11    1    3    3    0    0 -0.44792808998E+02 -0.61960180248E+01 -0.17889039864E+02  0.48629251737E+02  0.00000000000E+00 0.  1.
         11    1    3    3    0    0  0.41586636170E+02  0.15528296282E+02 -0.19575694506E+01  0.44434315248E+02  0.00000000000E+00 0. -1.
          1    1    1    2  501    0 -0.89262412190E+02  0.50267811382E+02  0.44347551791E+02  0.11163035627E+03  0.00000000000E+00 0. -1.
<scales pt_clust_5="13000.00000" pt_clust_6="13000.00000" pt_clust_7="13000.00000" pt_clust_8="13000.00000" pt_clust_9="13000.00000"></scales>
<clustering>
<clus scale="   88.756">  5  6 -1 -1</clus>
<clus scale="   90.386">  7  8 -1 -1</clus>
<clus scale="   90.923">  2  7  1 -1</clus>
<clus scale="  104.848">  5  9 -1 -1</clus>
<clus scale="  248.981">  1  5  2 -1</clus>
</clustering>
</event>
<event>
 9    1  0.7296953E-006  0.3813334E+03  0.7546771E-02  0.1102827E+00
          1   -1    0    0  502    0 -0.00000000000E+00  0.00000000000E+00  0.52241621458E+03  0.52241621458E+03  0.00000000000E+00 0. -1.
         21   -1    0    0  501  502  0.00000000000E+00 -0.00000000000E+00 -0.13995623462E+03  0.13995623462E+03  0.00000000000E+00 0. -1.
         23    2    1    2    0    0  0.48784432992E+02  0.14466071141E+02  0.23696199364E+03  0.25422443798E+03  0.76745620828E+02 0.  0.
         23    2    1    2    0    0  0.36482500712E+02  0.23478564443E+02  0.24930960530E+03  0.26855181648E+03  0.89903186768E+02 0.  0.
        -11    1    3    3    0    0 -0.67154059887E+01  0.23716614194E+02  0.25747892300E+02  0.35644472563E+02  0.00000000000E+00 0.  1.
         11    1    3    3    0    0  0.55499838981E+02 -0.92505430532E+01  0.21121410134E+03  0.21857996541E+03  0.00000000000E+00 0. -1.
        -11    1    4    4    0    0  0.66265790092E+02  0.22153917030E+02  0.18112210098E+03  0.19413182748E+03  0.00000000000E+00 0. -1.
         11    1    4    4    0    0 -0.29783289381E+02  0.13246474133E+01  0.68187504318E+02  0.74419988996E+02  0.00000000000E+00 0.  1.
          1    1    1    2  501    0 -0.85266933704E+02 -0.37944635584E+02 -0.10381161899E+03  0.13959619475E+03  0.00000000000E+00 0. -1.
<scales pt_clust_5="13000.00000" pt_clust_6="13000.00000" pt_clust_7="13000.00000" pt_clust_8="13000.00000" pt_clust_9="13000.00000"></scales>
<clustering>
<clus scale="   76.746">  5  6 -1 -1</clus>
<clus scale="   89.903">  7  8 -1 -1</clus>
<clus scale="   92.082">  1  5  2 -1</clus>
<clus scale="   90.069">  7  9 -1 -1</clus>
<clus scale="  381.333">  2  5  1 -1</clus>
</clustering>
</event>
<event>
 9    1  0.4875865E-006  0.3623167E+03  0.7546771E-02  0.1104729E+00
          1   -1    0    0  502    0 -0.00000000000E+00  0.00000000000E+00  0.53128656913E+03  0.53128656913E+03  0.00000000000E+00 0. -1.
         21   -1    0    0  501  502  0.00000000000E+00 -0.00000000000E+00 -0.11960110950E+03  0.11960110950E+03  0.00000000000E+00 0. -1.
         23    2    1    2    0    0 -0.41851064748E+02 -0.54541347392E+01  0.21632061717E+03  0.23925581453E+03  0.93099281228E+02 0.  0.
         23    2    1    2    0    0  0.80894891554E+01 -0.22535840751E+02  0.29125709540E+03  0.30618705916E+03  0.91359266755E+02 0.  0.
        -11    1    3    3    0    0  0.91629033079E+00  0.37787461631E+02  0.53992160621E+02  0.65908157712E+02  0.00000000000E+00 0.  1.
         11    1    3    3    0    0 -0.42767355078E+02 -0.43241596370E+02  0.16232845655E+03  0.17334765682E+03  0.00000000000E+00 0. -1.
        -13    1    4    4    0    0 -0.31347731384E+02  0.19199548971E+02  0.12502227628E+03  0.13031451381E+03  0.00000000000E+00 0.  1.
         13    1    4    4    0    0  0.39437220539E+02 -0.41735389722E+02  0.16623481913E+03  0.17587254535E+03  0.00000000000E+00 0. -1.
          1    1    1    2  501    0  0.33761575592E+02  0.27989975490E+02 -0.95892252945E+02  0.10544480494E+03  0.00000000000E+00 0. -1.
<scales pt_clust_5="13000.00000" pt_clust_6="13000.00000" pt_clust_7="13000.00000" pt_clust_8="13000.00000" pt_clust_9="13000.00000"></scales>
<clustering>
<clus scale="   91.359">  7  8 -1 -1</clus>
<clus scale="   43.855">  7  9 -1 -1</clus>
<clus scale="   93.099">  5  6 -1 -1</clus>
<clus scale="  102.219">  1  5  2 -1</clus>
<clus scale="  362.317">  2  5  1 -1</clus>
</clustering>
</event>
<event>
 9    1  0.3303741E-006  0.1557167E+03  0.7546771E-02  0.1218620E+00
         21   -1    0    0  501  502  0.00000000000E+00  0.00000000000E+00  0.21453282999E+03  0.21453282999E+03  0.00000000000E+00 0. -1.
         -3   -1    0    0    0  501 -0.00000000000E+00 -0.00000000000E+00 -0.92024685545E+02  0.92024685545E+02  0.00000000000E+00 0.  1.
         23    2    1    2    0    0  0.52717758306E+01 -0.10182773385E+01 -0.22565755149E+02  0.93733332568E+02  0.90817926753E+02 0.  0.
         23    2    1    2    0    0 -0.45789142328E+02  0.25279019063E+02  0.62302870122E+02  0.11752841235E+03  0.84826916277E+02 0.  0.
        -11    1    4    4    0    0 -0.55905136445E+02 -0.15095671229E+02  0.39146822371E+02  0.69898049132E+02  0.00000000000E+00 0.  1.
         11    1    4    4    0    0  0.10115994118E+02  0.40374690292E+02  0.23156047751E+02  0.47630363222E+02  0.00000000000E+00 0. -1.
        -11    1    3    3    0    0  0.22852343205E+02  0.40144479876E+02 -0.10397081152E+02  0.47348792497E+02  0.00000000000E+00 0. -1.
         11    1    3    3    0    0 -0.17580567375E+02 -0.41162757214E+02 -0.12168673997E+02  0.46384540070E+02  0.00000000000E+00 0.  1.
         -3    1    1    2    0  502  0.40517366497E+02 -0.24260741725E+02  0.82771029475E+02  0.95295770616E+02  0.00000000000E+00 0.  1.
<scales pt_clust_5="13000.00000" pt_clust_6="13000.00000" pt_clust_7="13000.00000" pt_clust_8="13000.00000" pt_clust_9="13000.00000"></scales>
<clustering>
<clus scale="   84.827">  5  6 -1 -1</clus>
<clus scale="   47.225">  5  9 -1 -1</clus>
<clus scale="   90.818">  7  8 -1 -1</clus>
<clus scale="   90.977">  2  7  1 -1</clus>
<clus scale="  155.717">  1  5  2 -1</clus>
</clustering>
</event>
<event>
 9    1  0.3303741E-006  0.1530639E+03  0.7546771E-02  0.1211913E+00
         -1   -1    0    0    0  501 -0.00000000000E+00  0.00000000000E+00  0.10600026755E+03  0.10600026755E+03  0.00000000000E+00 0.  1.
         21   -1    0    0  501  502  0.00000000000E+00 -0.00000000000E+00 -0.17360005111E+03  0.17360005111E+03  0.00000000000E+00 0.  1.
         23    2    1    2    0    0  0.28689766988E+02 -0.54104396598E+02  0.43158877693E+01  0.11048375741E+03  0.91856656284E+02 0.  0.
         23    2    1    2    0    0 -0.25937964138E+01  0.36374817828E+02 -0.86919350504E+01  0.98458380732E+02  0.91042011454E+02 0.  0.
        -11    1    4    4    0    0  0.29416313249E+02  0.51076073165E+02  0.79949609442E+01  0.59481124196E+02  0.00000000000E+00 0. -1.
         11    1    4    4    0    0 -0.32010109663E+02 -0.14701255337E+02 -0.16686895995E+02  0.38977256536E+02  0.00000000000E+00 0.  1.
        -11    1    3    3    0    0  0.38323834783E+02 -0.75974464145E+02 -0.39817580217E+01  0.85186207285E+02  0.00000000000E+00 0.  1.
         11    1    3    3    0    0 -0.96340677946E+01  0.21870067547E+02  0.82976457910E+01  0.25297550128E+02  0.00000000000E+00 0. -1.
         -1    1    1    2    0  502 -0.26095970575E+02  0.17729578769E+02 -0.63223736282E+02  0.70658180510E+02  0.00000000000E+00 0.  1.
<scales pt_clust_5="13000.00000" pt_clust_6="13000.00000" pt_clust_7="13000.00000" pt_clust_8="13000.00000" pt_clust_9="13000.00000"></scales>
<clustering>
<clus scale="   91.042">  5  6 -1 -1</clus>
<clus scale="   31.549">  5  9 -1 -1</clus>
<clus scale="   91.857">  7  8 -1 -1</clus>
<clus scale="  110.399">  1  7  2 -1</clus>
<clus scale="  153.064">  2  5  1 -1</clus>
</clustering>
</event>
<event>
 9    1  0.3303741E-006  0.4967363E+03  0.7546771E-02  0.1067555E+00
         21   -1    0    0  501  502  0.00000000000E+00  0.00000000000E+00  0.12882123774E+03  0.12882123774E+03  0.00000000000E+00 0.  1.
         -1   -1    0    0    0  501 -0.00000000000E+00 -0.00000000000E+00 -0.70688120352E+03  0.70688120352E+03  0.00000000000E+00 0.  1.
         23    2    1    2    0    0 -0.48036370111E+02  0.28752124078E+02 -0.99399447028E+02  0.14587430362E+03  0.90911412344E+02 0.  0.
         23    2    1    2    0    0  0.13732361773E+03  0.11698463121E+03 -0.47751392939E+03  0.51891082109E+03  0.93304381249E+02 0.  0.
        -11    1    4    4    0    0  0.23827448733E+02  0.57738523206E+02 -0.81292353654E+02  0.10251795520E+03  0.00000000000E+00 0. -1.
         11    1    4    4    0    0  0.11349616900E+03  0.59246108003E+02 -0.39622157573E+03  0.41639286589E+03  0.00000000000E+00 0.  1.
        -11    1    3    3    0    0 -0.35313272587E+02  0.82784220552E+01 -0.11266553288E+03  0.11835996701E+03  0.00000000000E+00 0. -1.
         11    1    3    3    0    0 -0.12723097525E+02  0.20473702023E+02  0.13266085850E+02  0.27514336607E+02  0.00000000000E+00 0.  1.
         -1    1    1    2    0  502 -0.89287247618E+02 -0.14573675529E+03 -0.11465893604E+01  0.17091731655E+03  0.00000000000E+00 0.  1.
<scales pt_clust_5="13000.00000" pt_clust_6="13000.00000" pt_clust_7="13000.00000" pt_clust_8="13000.00000" pt_clust_9="13000.00000"></scales>
<clustering>
<clus scale="   90.911">  7  8 -1 -1</clus>
<clus scale="   93.304">  5  6 -1 -1</clus>
<clus scale="  106.766">  2  7  1 -1</clus>
<clus scale="  171.197">  5  9 -1 -1</clus>
<clus scale="  496.736">  1  5  2 -1</clus>
</clustering>
</event>
<event>
 9    1  0.3303741E-006  0.1738177E+03  0.7546771E-02  0.1183081E+00
         21   -1    0    0  501  502  0.00000000000E+00  0.00000000000E+00  0.73590550832E+03  0.73590550832E+03  0.00000000000E+00 0.  1.
          1   -1    0    0  502    0 -0.00000000000E+00 -0.00000000000E+00 -0.56753622054E+02  0.56753622054E+02  0.00000000000E+00 0. -1.
         23    2    1    2    0    0  0.35839133477E+01 -0.10844558892E+03  0.67311123291E+02  0.15660747079E+03  0.90674265355E+02 0.  0.
         23    2    1    2    0    0 -0.33897007837E+02  0.94711580516E+02  0.54044232595E+03  0.55727829166E+03  0.91443403532E+02 0.  0.
        -13    1    3    3    0    0 -0.24316738082E+02  0.13779125157E+01  0.26941887790E+02  0.36318971785E+02  0.00000000000E+00 0. -1.
         13    1    3    3    0    0  0.27900651430E+02 -0.10982350144E+03  0.40369235501E+02  0.12028849901E+03  0.00000000000E+00 0.  1.
        -13    1    4    4    0    0  0.25243758285E+02  0.29618388426E+02  0.85878514300E+02  0.94284757430E+02  0.00000000000E+00 0. -1.
         13    1    4    4    0    0 -0.59140766121E+02  0.65093192090E+02  0.45456381165E+03  0.46299353423E+03  0.00000000000E+00 0.  1.
          1    1    1    2  501    0  0.30313094489E+02  0.13734008408E+02  0.71398437030E+02  0.78773367928E+02  0.00000000000E+00 0. -1.
<scales pt_clust_5="13000.00000" pt_clust_6="13000.00000" pt_clust_7="13000.00000" pt_clust_8="13000.00000" pt_clust_9="13000.00000"></scales>
<clustering>
<clus scale="   90.674">  5  6 -1 -1</clus>
<clus scale="   91.443">  7  8 -1 -1</clus>
<clus scale="   33.279">  7  9 -1 -1</clus>
<clus scale="  141.404">  2  5  1 -1</clus>
<clus scale="  173.818">  1  5  2 -1</clus>
</clustering>
</event>
<event>
 9    1  0.3303741E-006  0.2890378E+03  0.7546771E-02  0.1137511E+00
         21   -1    0    0  501  502  0.00000000000E+00  0.00000000000E+00  0.58761081579E+02  0.58761081579E+02  0.00000000000E+00 0. -1.
          2   -1    0    0  502    0 -0.00000000000E+00 -0.00000000000E+00 -0.75522131921E+03  0.75522131921E+03  0.00000000000E+00 0. -1.
         23    2    1    2    0    0  0.15491384065E+01  0.35729656191E+01 -0.35821752059E+03  0.36906556873E+03  0.88738019209E+02 0.  0.
         23    2    1    2    0    0 -0.12515387319E+03 -0.31182327293E+02 -0.22335186489E+03  0.27391883435E+03  0.92247724921E+02 0.  0.
        -11    1    4    4    0    0 -0.77565633703E+02 -0.36345299785E+02 -0.20583448834E+03  0.22294673116E+03  0.00000000000E+00 0. -1.
         11    1    4    4    0    0 -0.47588239483E+02  0.51629724924E+01 -0.17517376557E+02  0.50972103189E+02  0.00000000000E+00 0.  1.
        -13    1    3    3    0    0 -0.20834462686E+02 -0.35891129962E+02 -0.13302548467E+03  0.13934858312E+03  0.00000000000E+00 0. -1.
         13    1    3    3    0    0  0.22383601093E+02  0.39464095581E+02 -0.22519203592E+03  0.22971698561E+03  0.00000000000E+00 0.  1.
          2    1    1    2  501    0  0.12360473478E+03  0.27609361673E+02 -0.11489085215E+03  0.17099799771E+03  0.00000000000E+00 0. -1.
<scales pt_clust_5="13000.00000" pt_clust_6="13000.00000" pt_clust_7="13000.00000" pt_clust_8="13000.00000" pt_clust_9="13000.00000"></scales>
<clustering>
<clus scale="   88.738">  7  8 -1 -1</clus>
<clus scale="   88.823">  2  7  1 -1</clus>
<clus scale="   92.248">  5  6 -1 -1</clus>
<clus scale="  127.492">  5  9 -1 -1</clus>
<clus scale="  289.038">  1  5  2 -1</clus>
</clustering>
</event>
<event>
 9    1  0.3303741E-006  0.1717292E+03  0.7546771E-02  0.1202845E+00
         21   -1    0    0  501  502  0.00000000000E+00  0.00000000000E+00  0.26102165498E+02  0.26102165498E+02  0.00000000000E+00 0.  1.
         -2   -1    0    0    0  501 -0.00000000000E+00 -0.00000000000E+00 -0.69212697347E+03  0.69212697347E+03  0.00000000000E+00 0.  1.
         23    2    1    2    0    0 -0.26604392266E+01 -0.22190768261E+02 -0.19537796272E+03  0.21723077208E+03  0.92288416886E+02 0.  0.
         23    2    1    2    0    0 -0.49685928821E+02  0.48765485288E+02 -0.31172476337E+03  0.33157999143E+03  0.89029200472E+02 0.  0.
        -11    1    4    4    0    0 -0.11792389126E+02  0.65983591660E+02 -0.23401818807E+03  0.24342844361E+03  0.00000000000E+00 0.  1.
         11    1    4    4    0    0 -0.37893539695E+02 -0.17218106372E+02 -0.77706575302E+02  0.88151547819E+02  0.00000000000E+00 0. -1.
        -11    1    3    3    0    0 -0.36324124815E+02  0.16390786547E+02 -0.11708432586E+03  0.12368039169E+03  0.00000000000E+00 0.  1.
         11    1    3    3    0    0  0.33663685589E+02 -0.38581554809E+02 -0.78293636859E+02  0.93550380392E+02  0.00000000000E+00 0. -1.
         -2    1    1    2    0  502  0.52346368047E+02 -0.26574717027E+02 -0.15892208188E+03  0.16941837546E+03  0.00000000000E+00 0.  1.
<scales pt_clust_5="13000.00000" pt_clust_6="13000.00000" pt_clust_7="13000.00000" pt_clust_8="13000.00000" pt_clust_9="13000.00000"></scales>
<clustering>
<clus scale="   89.029">  5  6 -1 -1</clus>
<clus scale="   58.706">  5  9 -1 -1</clus>
<clus scale="   92.288">  7  8 -1 -1</clus>
<clus scale="   94.956">  2  7  1 -1</clus>
<clus scale="  171.729">  1  5  2 -1</clus>
</clustering>
</event>
<event>
 9    1  0.3303741E-006  0.7045439E+03  0.7546771E-02  0.9982258E-01
          2   -1    0    0  502    0 -0.00000000000E+00  0.00000000000E+00  0.92311650466E+03  0.92311650466E+03  0.00000000000E+00 0. -1.
         21   -1    0    0  501  502  0.00000000000E+00 -0.00000000000E+00 -0.27223079833E+03  0.27223079833E+03  0.00000000000E+00 0. -1.
         23    2    1    2    0    0  0.11420217169E+03 -0.25021180588E+03  0.12333971172E+03  0.31518428805E+03  0.92088908794E+02 0.  0.
         23    2    1    2    0    0 -0.26044133760E+03  0.27670112181E+02  0.54980029750E+03  0.61294409144E+03  0.69460540388E+02 0.  0.
        -11    1    4    4    0    0 -0.11415338004E+03 -0.15701130332E+02  0.28360484785E+03  0.30611963248E+03  0.00000000000E+00 0.  1.
         11    1    4    4    0    0 -0.14628795756E+03  0.43371242513E+02  0.26619544965E+03  0.30682445896E+03  0.00000000000E+00 0. -1.
        -13    1    3    3    0    0  0.24578361202E+02 -0.11141425079E+02 -0.78904682902E+01  0.28115594996E+02  0.00000000000E+00 0.  1.
         13    1    3    3    0    0  0.89623810483E+02 -0.23907038080E+03  0.13123018001E+03  0.28706869305E+03  0.00000000000E+00 0. -1.
          2    1    1    2  501    0  0.14623916591E+03  0.22254169370E+03 -0.22254302887E+02  0.26721892351E+03  0.00000000000E+00 0. -1.
<scales pt_clust_5="13000.00000" pt_clust_6="13000.00000" pt_clust_7="13000.00000" pt_clust_8="13000.00000" pt_clust_9="13000.00000"></scales>
<clustering>
<clus scale="   69.461">  5  6 -1 -1</clus>
<clus scale="   92.089">  7  8 -1 -1</clus>
<clus scale="  266.291">  5  9 -1 -1</clus>
<clus scale="  290.049">  1  7  2 -1</clus>
<clus scale="  704.544">  2  5  1 -1</clus>
</clustering>
</event>
<event>
 9    1  0.3303741E-006  0.3794818E+03  0.7546771E-02  0.1094659E+00
         -1   -1    0    0    0  501 -0.00000000000E+00  0.00000000000E+00  0.12651448005E+04  0.12651448005E+04  0.00000000000E+00 0.  1.
         21   -1    0    0  501  502  0.00000000000E+00 -0.00000000000E+00 -0.50116641507E+02  0.50116641507E+02  0.00000000000E+00 0.  1.
         23    2    1    2    0    0  0.30864302290E+02  0.65023437315E+02  0.39745703955E+03  0.41391304318E+03  0.90395002486E+02 0.  0.
         23    2    1    2    0    0 -0.15079624582E+03  0.74143327068E+02  0.45648693747E+03  0.49621527766E+03  0.98043546476E+02 0.  0.
        -11    1    4    4    0    0 -0.13511656218E+03  0.23350773987E+02  0.37122777088E+03  0.39574209012E+03  0.00000000000E+00 0.  1.
         11    1    4    4    0    0 -0.15679683637E+02  0.50792553081E+02  0.85259166591E+02  0.10047318754E+03  0.00000000000E+00 0. -1.
        -13    1    3    3    0    0 -0.28133346532E+02  0.32537464676E+02  0.21868502856E+03  0.22287510743E+03  0.00000000000E+00 0. -1.
         13    1    3    3    0    0  0.58997648822E+02  0.32485972639E+02  0.17877201099E+03  0.19103793576E+03  0.00000000000E+00 0.  1.
         -1    1    1    2    0  502  0.11993194353E+03 -0.13916676438E+03  0.36108418196E+03  0.40513312114E+03  0.00000000000E+00 0.  1.
<scales pt_clust_5="13000.00000" pt_clust_6="13000.00000" pt_clust_7="13000.00000" pt_clust_8="13000.00000" pt_clust_9="13000.00000"></scales>
<clustering>
<clus scale="   90.395">  7  8 -1 -1</clus>
<clus scale="   98.044">  5  6 -1 -1</clus>
<clus scale="  115.550">  1  7  2 -1</clus>
<clus scale="  173.243">  5  9 -1 -1</clus>
<clus scale="  379.482">  2  5  1 -1</clus>
</clustering>
</event>
<event>
 9    1  0.3303741E-006  0.3698467E+03  0.7546771E-02  0.1081207E+00
         -3   -1    0    0    0  501 -0.00000000000E+00  0.00000000000E+00  0.42449527141E+03  0.42449527141E+03  0.00000000000E+00 0.  1.
         21   -1    0    0  501  502  0.00000000000E+00 -0.00000000000E+00 -0.23569166022E+03  0.23569166022E+03  0.00000000000E+00 0.  1.
         23    2    1    2    0    0  0.14953892214E+03  0.35827099717E+02  0.22663589942E+03  0.28841029561E+03  0.90394675713E+02 0.  0.
         23    2    1    2    0    0 -0.18050742640E+01  0.18662799783E+02  0.11822791047E+03  0.15008039209E+03  0.90524730800E+02 0.  0.
        -13    1    3    3    0    0  0.93586995679E+02  0.55790177184E+01  0.19714326880E+03  0.21830052596E+03  0.00000000000E+00 0.  1.
         13    1    3    3    0    0  0.55951926465E+02  0.30248081999E+02  0.29492630614E+02  0.70109769649E+02  0.00000000000E+00 0. -1.
        -13    1    4    4    0    0 -0.38077420367E+02 -0.11969743716E+02  0.30150823599E+02  0.50022363700E+02  0.00000000000E+00 0.  1.
         13    1    4    4    0    0  0.36272346103E+02  0.30632543499E+02  0.88077086875E+02  0.10005802839E+03  0.00000000000E+00 0. -1.
         -3    1    1    2    0  502 -0.14773384788E+03 -0.54489899500E+02 -0.15606019870E+03  0.22169624393E+03  0.00000000000E+00 0.  1.
<scales pt_clust_5="13000.00000" pt_clust_6="13000.00000" pt_clust_7="13000.00000" pt_clust_8="13000.00000" pt_clust_9="13000.00000"></scales>
<clustering>
<clus scale="   90.395">  5  6 -1 -1</clus>
<clus scale="   90.525">  7  8 -1 -1</clus>
<clus scale="  157.463">  7  9 -1 -1</clus>
<clus scale="  178.372">  1  5  2 -1</clus>
<clus scale="  369.847">  2  5  1 -1</clus>
</clustering>
</event>
<event>
 9    1  0.3303741E-006  0.2832772E+03  0.7546771E-02  0.1112640E+00
         -1   -1    0    0    0  501 -0.00000000000E+00  0.00000000000E+00  0.15827412579E+03  0.15827412579E+03  0.00000000000E+00 0.  1.
         21   -1    0    0  501  502  0.00000000000E+00 -0.00000000000E+00 -0.33729815431E+03  0.33729815431E+03  0.00000000000E+00 0.  1.
         23    2    1    2    0    0 -0.74429685302E+01 -0.15151107746E+03 -0.36781406790E+02  0.17858811059E+03  0.86774633313E+02 0.  0.
         23    2    1    2    0    0  0.10016935187E+03  0.81722142788E+02 -0.12219746370E+03  0.19921114233E+03  0.89668564271E+02 0.  0.
        -11    1    3    3    0    0  0.15961285455E+02 -0.55060853496E+02  0.24063092569E+02  0.62173086180E+02  0.00000000000E+00 0.  1.
         11    1    3    3    0    0 -0.23404253986E+02 -0.96450223962E+02 -0.60844499359E+02  0.11641502441E+03  0.00000000000E+00 0. -1.
        -13    1    4    4    0    0  0.59469781042E+02  0.61995347364E+02 -0.12742796831E+03  0.15368137513E+03  0.00000000000E+00 0.  1.
         13    1    4    4    0    0  0.40699570827E+02  0.19726795424E+02  0.52305046142E+01  0.45529767205E+02  0.00000000000E+00 0. -1.
         -1    1    1    2    0  502 -0.92726383339E+02  0.69788934671E+02 -0.20045158028E+02  0.11777302718E+03  0.00000000000E+00 0.  1.
<scales pt_clust_5="13000.00000" pt_clust_6="13000.00000" pt_clust_7="13000.00000" pt_clust_8="13000.00000" pt_clust_9="13000.00000"></scales>
<clustering>
<clus scale="   86.775">  5  6 -1 -1</clus>
<clus scale="   89.669">  7  8 -1 -1</clus>
<clus scale="  116.055">  7  9 -1 -1</clus>
<clus scale="  174.759">  1  5  2 -1</clus>
<clus scale="  283.277">  2  5  1 -1</clus>
</clustering>
</event>
<event>
 9    1  0.3303741E-006  0.3300151E+03  0.7546771E-02  0.1093995E+00
         21   -1    0    0  501  502  0.00000000000E+00  0.00000000000E+00  0.17558597871E+03  0.17558597871E+03  0.00000000000E+00 0.  1.
         -3   -1    0    0    0  501 -0.00000000000E+00 -0.00000000000E+00 -0.37776556289E+03  0.37776556289E+03  0.00000000000E+00 0.  1.
         23    2    1    2    0    0  0.14366486044E+03  0.54680004046E+02 -0.11302829814E+03  0.21150665441E+03  0.91269785316E+02 0.  0.
         23    2    1    2    0    0 -0.21221934208E+03 -0.56874715380E+02 -0.12003249331E+03  0.26662399466E+03  0.91699360278E+02 0.  0.
        -11    1    3    3    0    0  0.11589761906E+03  0.79964803062E+02 -0.83228161493E+02  0.16356513900E+03  0.00000000000E+00 0.  1.
         11    1    3    3    0    0  0.27767241384E+02 -0.25284799016E+02 -0.29800136647E+02  0.47941515407E+02  0.00000000000E+00 0. -1.
        -13    1    4    4    0    0 -0.17110621539E+03 -0.63180740454E+02 -0.56985867072E+02  0.19109299296E+03  0.00000000000E+00 0. -1.
         13    1    4    4    0    0 -0.41113126685E+02  0.63060250747E+01 -0.63046626241E+02  0.75531001704E+02  0.00000000000E+00 0.  1.
         -3    1    1    2    0  502  0.68554481639E+02  0.21947113335E+01  0.30881207276E+02  0.75220892533E+02  0.00000000000E+00 0.  1.
<scales pt_clust_5="13000.00000" pt_clust_6="13000.00000" pt_clust_7="13000.00000" pt_clust_8="13000.00000" pt_clust_9="13000.00000"></scales>
<clustering>
<clus scale="   91.270">  5  6 -1 -1</clus>
<clus scale="   91.699">  7  8 -1 -1</clus>
<clus scale="   68.590">  7  9 -1 -1</clus>
<clus scale="  178.773">  2  5  1 -1</clus>
<clus scale="  330.015">  1  5  2 -1</clus>
</clustering>
</event>
<event>
 9    1  0.3303741E-006  0.1972617E+03  0.7546771E-02  0.1178616E+00
         21   -1    0    0  501  502  0.00000000000E+00  0.00000000000E+00  0.35547571070E+02  0.35547571070E+02  0.00000000000E+00 0. -1.
          2   -1    0    0  502    0 -0.00000000000E+00 -0.00000000000E+00 -0.65643025440E+03  0.65643025440E+03  0.00000000000E+00 0. -1.
         23    2    1    2    0    0  0.23361852749E+02  0.49068625246E+02 -0.18849309327E+03  0.21671690513E+03  0.92103553738E+02 0.  0.
         23    2    1    2    0    0  0.26889201053E+02  0.15165407127E+02 -0.33560001338E+03  0.34869314610E+03  0.89479173256E+02 0.  0.
        -11    1    3    3    0    0 -0.20885470717E+02 -0.14986360517E+02 -0.26133847823E+02  0.36657494332E+02  0.00000000000E+00 0.  1.
         11    1    3    3    0    0  0.44247323466E+02  0.64054985763E+02 -0.16235924544E+03  0.18005941080E+03  0.00000000000E+00 0. -1.
        -11    1    4    4    0    0 -0.14175011997E+02  0.39123605228E+02 -0.21634963795E+03  0.22031512271E+03  0.00000000000E+00 0. -1.
         11    1    4    4    0    0  0.41064213049E+02 -0.23958198101E+02 -0.11925037543E+03  0.12837802339E+03  0.00000000000E+00 0.  1.
          2    1    1    2  501    0 -0.50251053802E+02 -0.64234032374E+02 -0.96789576676E+02  0.12656777424E+03  0.00000000000E+00 0. -1.
<scales pt_clust_5="13000.00000" pt_clust_6="13000.00000" pt_clust_7="13000.00000" pt_clust_8="13000.00000" pt_clust_9="13000.00000"></scales>
<clustering>
<clus scale="   89.479">  7  8 -1 -1</clus>
<clus scale="   81.555">  7  9 -1 -1</clus>
<clus scale="   92.104">  5  6 -1 -1</clus>
<clus scale="  106.942">  2  5  1 -1</clus>
<clus scale="  197.262">  1  5  2 -1</clus>
</clustering>
</event>
<event>
 9    1  0.3303741E-006  0.2692478E+03  0.7546771E-02  0.1128292E+00
          1   -1    0    0  502    0 -0.00000000000E+00  0.00000000000E+00  0.16663663844E+03  0.16663663844E+03  0.00000000000E+00 0. -1.
         21   -1    0    0  501  502  0.00000000000E+00 -0.00000000000E+00 -0.28787418785E+03  0.28787418785E+03  0.00000000000E+00 0. -1.
         23    2    1    2    0    0 -0.10993050480E+03 -0.20371463593E+02  0.36579130616E+02  0.14242028324E+03  0.80285689044E+02 0.  0.
         23    2    1    2    0    0  0.11031202745E+03 -0.40982657470E+02 -0.12669835697E+02  0.15450856391E+03  0.99317923725E+02 0.  0.
        -11    1    3    3    0    0 -0.17258024554E+02 -0.38349551096E+02  0.20030408282E+02  0.46580518855E+02  0.00000000000E+00 0.  1.
         11    1    3    3    0    0 -0.92672480249E+02  0.17978087504E+02  0.16548722333E+02  0.95839764382E+02  0.00000000000E+00 0. -1.
        -13    1    4    4    0    0 -0.39675842104E+00 -0.33916538861E+02  0.19344497602E+02  0.39047389324E+02  0.00000000000E+00 0.  1.
         13    1    4    4    0    0  0.11070878587E+03 -0.70661186092E+01 -0.32014333300E+02  0.11546117459E+03  0.00000000000E+00 0. -1.
          1    1    1    2  501    0 -0.38152264600E+00  0.61354121063E+02 -0.14514684433E+03  0.15758197914E+03  0.00000000000E+00 0. -1.
<scales pt_clust_5="13000.00000" pt_clust_6="13000.00000" pt_clust_7="13000.00000" pt_clust_8="13000.00000" pt_clust_9="13000.00000"></scales>
<clustering>
<clus scale="   80.286">  5  6 -1 -1</clus>
<clus scale="   99.318">  7  8 -1 -1</clus>
<clus scale="   61.355">  7  9 -1 -1</clus>
<clus scale="  137.643">  1  5  2 -1</clus>
<clus scale="  269.248">  2  5  1 -1</clus>
</clustering>
</event>
<event>
 9    1  0.3303741E-006  0.1448523E+03  0.7546771E-02  0.1215386E+00
          4   -1    0    0  502    0 -0.00000000000E+00  0.00000000000E+00  0.85898288615E+02  0.85898288615E+02  0.00000000000E+00 0. -1.
         21   -1    0    0  501  502  0.00000000000E+00 -0.00000000000E+00 -0.21077350631E+03  0.21077350631E+03  0.00000000000E+00 0.  1.
         23    2    1    2    0    0  0.76143338583E+02  0.17506136838E+02 -0.34064102983E+02  0.12570732798E+03  0.92399655616E+02 0.  0.
         23    2    1    2    0    0 -0.61900780571E+02  0.93797293188E+01 -0.85011082128E+02  0.13999124245E+03  0.91929200591E+02 0.  0.
        -11    1    4    4    0    0  0.36250652036E+01 -0.25859346455E+02 -0.52826560741E+02  0.58927857729E+02  0.00000000000E+00 0. -1.
         11    1    4    4    0    0 -0.65525845774E+02  0.35239075774E+02 -0.32184521387E+02  0.81063384723E+02  0.00000000000E+00 0.  1.
        -11    1    3    3    0    0  0.60242563140E+02 -0.52224926352E+01  0.21032685804E+02  0.64021986186E+02  0.00000000000E+00 0.  1.
         11    1    3    3    0    0  0.15900775442E+02  0.22728629473E+02 -0.55096788787E+02  0.61685341793E+02  0.00000000000E+00 0. -1.
          4    1    1    2  501    0 -0.14242558012E+02 -0.26885866157E+02 -0.58000325845E+01  0.30973224496E+02  0.00000000000E+00 0. -1.
<scales pt_clust_5="13000.00000" pt_clust_6="13000.00000" pt_clust_7="13000.00000" pt_clust_8="13000.00000" pt_clust_9="13000.00000"></scales>
<clustering>
<clus scale="   91.929">  5  6 -1 -1</clus>
<clus scale="   30.425">  5  9 -1 -1</clus>
<clus scale="   92.400">  7  8 -1 -1</clus>
<clus scale="  121.004">  1  7  2 -1</clus>
<clus scale="  144.852">  2  5  1 -1</clus>
</clustering>
</event>
<event>
 9    1  0.3303741E-006  0.6852672E+03  0.7546771E-02  0.1017466E+00
         21   -1    0    0  501  502  0.00000000000E+00  0.00000000000E+00  0.35146843263E+03  0.35146843263E+03  0.00000000000E+00 0.  1.
         -1   -1    0    0    0  501 -0.00000000000E+00 -0.00000000000E+00 -0.52701305462E+03  0.52701305462E+03  0.00000000000E+00 0.  1.
         23    2    1    2    0    0  0.73818846432E+02 -0.12780839304E+03 -0.59496023607E+02  0.18345747543E+03  0.91283410583E+02 0.  0.
         23    2    1    2    0    0 -0.23386942543E+03  0.53689543341E+02 -0.32982942113E+03  0.41787417529E+03  0.90850999539E+02 0.  0.
        -11    1    4    4    0    0 -0.49428184301E+02  0.43572412389E+02 -0.13001613341E+03  0.14575971828E+03  0.00000000000E+00 0. -1.
         11    1    4    4    0    0 -0.18444124112E+03  0.10117130952E+02 -0.19981328771E+03  0.27211445701E+03  0.00000000000E+00 0.  1.
        -11    1    3    3    0    0  0.53806144322E+02 -0.13707877795E+03 -0.64619371411E+02  0.16081466256E+03  0.00000000000E+00 0.  1.
         11    1    3    3    0    0  0.20012702110E+02  0.92703849147E+01  0.51233478038E+01  0.22642812876E+02  0.00000000000E+00 0. -1.
         -1    1    1    2    0  502  0.16005057899E+03  0.74118849697E+02  0.21378082274E+03  0.27714983653E+03  0.00000000000E+00 0.  1.
<scales pt_clust_5="13000.00000" pt_clust_6="13000.00000" pt_clust_7="13000.00000" pt_clust_8="13000.00000" pt_clust_9="13000.00000"></scales>
<clustering>
<clus scale="   90.851">  5  6 -1 -1</clus>
<clus scale="   91.283">  7  8 -1 -1</clus>
<clus scale="  173.542">  2  7  1 -1</clus>
<clus scale="  177.788">  5  9 -1 -1</clus>
<clus scale="  685.267">  1  5  2 -1</clus>
</clustering>
</event>
<event>
 9    1  0.3303741E-006  0.1659768E+03  0.7546771E-02  0.1202673E+00
          2   -1    0    0  502    0 -0.00000000000E+00  0.00000000000E+00  0.38466729870E+02  0.38466729870E+02  0.00000000000E+00 0. -1.
         21   -1    0    0  501  502  0.00000000000E+00 -0.00000000000E+00 -0.59430571729E+03  0.59430571729E+03  0.00000000000E+00 0. -1.
         23    2    1    2    0    0  0.51385622226E+02  0.21395016918E+01 -0.91644804933E+02  0.13979726262E+03  0.92192433125E+02 0.  0.
         23    2    1    2    0    0 -0.69978123657E+01 -0.52412034878E+02 -0.23782512873E+03  0.25688080986E+03  0.81430754883E+02 0.  0.
        -11    1    4    4    0    0 -0.42544406781E+02 -0.21948498563E+02 -0.91763133688E+02  0.10349993160E+03  0.00000000000E+00 0.  1.
         11    1    4    4    0    0  0.35546594415E+02 -0.30463536315E+02 -0.14606199504E+03  0.15338087825E+03  0.00000000000E+00 0. -1.
        -11    1    3    3    0    0  0.29302663129E+02 -0.42704852150E+02 -0.28020650636E+02  0.58885544284E+02  0.00000000000E+00 0. -1.
         11    1    3    3    0    0  0.22082959097E+02  0.44844353841E+02 -0.63624154297E+02  0.80911718335E+02  0.00000000000E+00 0.  1.
          2    1    1    2  501    0 -0.44387809861E+02  0.50272533186E+02 -0.22636905376E+03  0.23609437468E+03  0.00000000000E+00 0. -1.
<scales pt_clust_5="13000.00000" pt_clust_6="13000.00000" pt_clust_7="13000.00000" pt_clust_8="13000.00000" pt_clust_9="13000.00000"></scales>
<clustering>
<clus scale="   81.431">  5  6 -1 -1</clus>
<clus scale="   67.064">  5  9 -1 -1</clus>
<clus scale="   92.192">  7  8 -1 -1</clus>
<clus scale="  105.568">  1  7  2 -1</clus>
<clus scale="  165.977">  2  5  1 -1</clus>
</clustering>
</event>
<event>
 9    1  0.3303741E-006  0.1642454E+03  0.7546771E-02  0.1207613E+00
         -2   -1    0    0    0  501 -0.00000000000E+00  0.00000000000E+00  0.18847307886E+03  0.18847307886E+03  0.00000000000E+00 0.  1.
         21   -1    0    0  501  502  0.00000000000E+00 -0.00000000000E+00 -0.17269275637E+03  0.17269275637E+03  0.00000000000E+00 0. -1.
         23    2    1    2    0    0 -0.23099427677E+02  0.23570927142E+02 -0.11511081979E+03  0.15114429008E+03  0.92222141729E+02 0.  0.
         23    2    1    2    0    0  0.15223761719E+02  0.10301252556E+01  0.15130404471E+03  0.17709853680E+03  0.90764275520E+02 0.  0.
        -11    1    4    4    0    0  0.47954575746E+02 -0.12595484403E+02  0.52902518038E+02  0.72504923813E+02  0.00000000000E+00 0.  1.
         11    1    4    4    0    0 -0.32730814027E+02  0.13625609659E+02  0.98401526672E+02  0.10459361298E+03  0.00000000000E+00 0. -1.
        -13    1    3    3    0    0 -0.10169906100E+00  0.20008512961E+02  0.11048481145E+02  0.22856506059E+02  0.00000000000E+00 0.  1.
         13    1    3    3    0    0 -0.22997728616E+02  0.35624141810E+01 -0.12615930093E+03  0.12828778402E+03  0.00000000000E+00 0. -1.
         -2    1    1    2    0  502  0.78756659579E+01 -0.24601052398E+02 -0.20412902438E+02  0.32923008357E+02  0.00000000000E+00 0.  1.
<scales pt_clust_5="13000.00000" pt_clust_6="13000.00000" pt_clust_7="13000.00000" pt_clust_8="13000.00000" pt_clust_9="13000.00000"></scales>
<clustering>
<clus scale="   90.764">  5  6 -1 -1</clus>
<clus scale="   25.831">  5  9 -1 -1</clus>
<clus scale="   92.222">  7  8 -1 -1</clus>
<clus scale="   97.950">  1  7  2 -1</clus>
<clus scale="  164.245">  2  5  1 -1</clus>
</clustering>
</event>
<event>
 9    1  0.3303741E-006  0.1531798E+03  0.7546771E-02  0.1219811E+00
         21   -1    0    0  501  502  0.00000000000E+00  0.00000000000E+00  0.15488823789E+03  0.15488823789E+03  0.00000000000E+00 0.  1.
          1   -1    0    0  502    0 -0.00000000000E+00 -0.00000000000E+00 -0.34436120034E+03  0.34436120034E+03  0.00000000000E+00 0. -1.
         23    2    1    2    0    0  0.39169543916E+01  0.17463252597E+02 -0.29753238473E+03  0.31179042034E+03  0.91473704064E+02 0.  0.
         23    2    1    2    0    0  0.37758560985E+02  0.10845833469E+02  0.72901509364E+02  0.12602342742E+03  0.94994384891E+02 0.  0.
        -11    1    4    4    0    0 -0.66711099316E+01  0.43053469662E+02  0.14575675142E+02  0.45940779962E+02  0.00000000000E+00 0. -1.
         11    1    4    4    0    0  0.44429670917E+02 -0.32207636193E+02  0.58325834221E+02  0.80082647462E+02  0.00000000000E+00 0.  1.
        -13    1    3    3    0    0  0.13966469171E+02 -0.27321989360E+02 -0.41145272201E+02  0.51327251906E+02  0.00000000000E+00 0.  1.
         13    1    3    3    0    0 -0.10049514780E+02  0.44785241957E+02 -0.25638711252E+03  0.26046316844E+03  0.00000000000E+00 0. -1.
          1    1    1    2  501    0 -0.41675515377E+02 -0.28309086066E+02  0.35157912904E+02  0.61435590463E+02  0.00000000000E+00 0. -1.
<scales pt_clust_5="13000.00000" pt_clust_6="13000.00000" pt_clust_7="13000.00000" pt_clust_8="13000.00000" pt_clust_9="13000.00000"></scales>
<clustering>
<clus scale="   91.474">  7  8 -1 -1</clus>
<clus scale="   93.208">  2  7  1 -1</clus>
<clus scale="   94.994">  5  6 -1 -1</clus>
<clus scale="   46.239">  5  9 -1 -1</clus>
<clus scale="  153.180">  1  5  2 -1</clus>
</clustering>
</event>
<event>
 9    1  0.3303741E-006  0.1535332E+03  0.7546771E-02  0.1214842E+00
         21   -1    0    0  501  502  0.00000000000E+00  0.00000000000E+00  0.19694350624E+03  0.19694350624E+03  0.00000000000E+00 0.  1.
         -1   -1    0    0    0  501 -0.00000000000E+00 -0.00000000000E+00 -0.18284893751E+03  0.18284893751E+03  0.00000000000E+00 0.  1.
         23    2    1    2    0    0  0.36007669140E+02 -0.23380037538E+02 -0.13237439713E+03  0.16760005785E+03  0.93400321105E+02 0.  0.
         23    2    1    2    0    0  0.18938455482E+02  0.21361180610E+02  0.74647457681E+02  0.12174084401E+03  0.91834770257E+02 0.  0.
        -13    1    3    3    0    0  0.48588665548E+02 -0.47832317335E+02 -0.11870043411E+03  0.13688894060E+03  0.00000000000E+00 0.  1.
         13    1    3    3    0    0 -0.12580996408E+02  0.24452279796E+02 -0.13673963025E+02  0.30711117249E+02  0.00000000000E+00 0. -1.
        -13    1    4    4    0    0  0.54689445770E+02  0.22309793395E+02  0.56069250926E+02  0.81439690934E+02  0.00000000000E+00 0.  1.
         13    1    4    4    0    0 -0.35750990288E+02 -0.94861278476E+00  0.18578206755E+02  0.40301153073E+02  0.00000000000E+00 0. -1.
         -1    1    1    2    0  502 -0.54946124622E+02  0.20188569283E+01  0.71821508175E+02  0.90451541893E+02  0.00000000000E+00 0.  1.
<scales pt_clust_5="13000.00000" pt_clust_6="13000.00000" pt_clust_7="13000.00000" pt_clust_8="13000.00000" pt_clust_9="13000.00000"></scales>
<clustering>
<clus scale="   91.835">  7  8 -1 -1</clus>
<clus scale="   54.983">  7  9 -1 -1</clus>
<clus scale="   93.400">  5  6 -1 -1</clus>
<clus scale="  102.795">  2  5  1 -1</clus>
<clus scale="  153.533">  1  5  2 -1</clus>
</clustering>
</event>
<event>
 9    1  0.3303741E-006  0.2945223E+03  0.7546771E-02  0.1096114E+00
         21   -1    0    0  501  502  0.00000000000E+00  0.00000000000E+00  0.41149934630E+02  0.41149934630E+02  0.00000000000E+00 0. -1.
          2   -1    0    0  502    0 -0.00000000000E+00 -0.00000000000E+00 -0.18001644680E+04  0.18001644680E+04  0.00000000000E+00 0. -1.
         23    2    1    2    0    0 -0.21377701870E+03  0.50260801410E+02 -0.98040156421E+03  0.10088592760E+04  0.91558996363E+02 0.  0.
         23    2    1    2    0    0  0.13105948228E+03 -0.11066740188E+03 -0.53078924893E+03  0.56429893235E+03  0.85277174813E+02 0.  0.
        -11    1    4    4    0    0 -0.34781243956E+01 -0.27563505542E+02 -0.40300259762E+02  0.48948494603E+02  0.00000000000E+00 0. -1.
         11    1    4    4    0    0  0.13453760668E+03 -0.83103896342E+02 -0.49048898916E+03  0.51535043775E+03  0.00000000000E+00 0.  1.
        -11    1    3    3    0    0 -0.10144299373E+03  0.50825454425E+02 -0.65140771143E+03  0.66121548251E+03  0.00000000000E+00 0. -1.
         11    1    3    3    0    0 -0.11233402497E+03 -0.56465301585E+00 -0.32899385278E+03  0.34764379351E+03  0.00000000000E+00 0.  1.
          2    1    1    2  501    0  0.82717536414E+02  0.60406600474E+02 -0.24782372027E+03  0.26815619430E+03  0.00000000000E+00 0. -1.
<scales pt_clust_5="13000.00000" pt_clust_6="13000.00000" pt_clust_7="13000.00000" pt_clust_8="13000.00000" pt_clust_9="13000.00000"></scales>
<clustering>
<clus scale="   85.277">  5  6 -1 -1</clus>
<clus scale="   91.559">  7  8 -1 -1</clus>
<clus scale="  102.426">  5  9 -1 -1</clus>
<clus scale="  237.928">  2  7  1 -1</clus>
<clus scale="  294.522">  1  5  2 -1</clus>
</clustering>
</event>
<event>
 9    1  0.3303741E-006  0.1480953E+03  0.7546771E-02  0.1212820E+00
         -1   -1    0    0    0  501 -0.00000000000E+00  0.00000000000E+00  0.90780597481E+02  0.90780597481E+02  0.00000000000E+00 0.  1.
         21   -1    0    0  501  502  0.00000000000E+00 -0.00000000000E+00 -0.19794178730E+03  0.19794178730E+03  0.00000000000E+00 0. -1.
         23    2    1    2    0    0  0.55526280355E+02  0.51425030281E+02 -0.56141360456E+02  0.13208506670E+03  0.92557608777E+02 0.  0.
         23    2    1    2    0    0 -0.31168089568E+02 -0.59442033055E+02 -0.18841064165E+02  0.11549042607E+03  0.92077400675E+02 0.  0.
        -11    1    4    4    0    0  0.15911474745E+02 -0.15842736370E+02 -0.41710342849E+02  0.47370032984E+02  0.00000000000E+00 0. -1.
         11    1    4    4    0    0 -0.47079564313E+02 -0.43599296685E+02  0.22869278684E+02  0.68120393091E+02  0.00000000000E+00 0.  1.
        -13    1    3    3    0    0  0.80234605965E+02  0.29966441528E+02 -0.32050762637E+02  0.91448515558E+02  0.00000000000E+00 0. -1.
         13    1    3    3    0    0 -0.24708325609E+02  0.21458588753E+02 -0.24090597819E+02  0.40636551145E+02  0.00000000000E+00 0.  1.
         -1    1    1    2    0  502 -0.24358190787E+02  0.80170027737E+01 -0.32178765199E+02  0.41146892004E+02  0.00000000000E+00 0.  1.
<scales pt_clust_5="13000.00000" pt_clust_6="13000.00000" pt_clust_7="13000.00000" pt_clust_8="13000.00000" pt_clust_9="13000.00000"></scales>
<clustering>
<clus scale="   92.077">  5  6 -1 -1</clus>
<clus scale="   25.644">  5  9 -1 -1</clus>
<clus scale="   92.558">  7  8 -1 -1</clus>
<clus scale="  119.560">  1  7  2 -1</clus>
<clus scale="  148.095">  2  5  1 -1</clus>
</clustering>
</event>
<event>
 9    1  0.3303741E-006  0.1705230E+03  0.7546771E-02  0.1198098E+00
          1   -1    0    0  502    0 -0.00000000000E+00  0.00000000000E+00  0.17047541855E+03  0.17047541855E+03  0.00000000000E+00 0. -1.
         21   -1    0    0  501  502  0.00000000000E+00 -0.00000000000E+00 -0.25814335912E+03  0.25814335912E+03  0.00000000000E+00 0. -1.
         23    2    1    2    0    0 -0.46614335387E+02 -0.37614636572E+02  0.11920525381E+03  0.16052435106E+03  0.89277195287E+02 0.  0.
         23    2    1    2    0    0  0.16249968065E+02  0.29417941039E+02 -0.55687031609E+02  0.11367151240E+03  0.93223873147E+02 0.  0.
        -11    1    4    4    0    0 -0.23748139044E+02  0.49056711338E+02 -0.29136596511E+02  0.61801911715E+02  0.00000000000E+00 0.  1.
         11    1    4    4    0    0  0.39998107109E+02 -0.19638770299E+02 -0.26550435098E+02  0.51869600684E+02  0.00000000000E+00 0. -1.
        -11    1    3    3    0    0 -0.56143075245E+02 -0.34261333041E+01  0.11048271486E+03  0.12397666543E+03  0.00000000000E+00 0. -1.
         11    1    3    3    0    0  0.95287398581E+01 -0.34188503268E+02  0.87225389452E+01  0.36547685626E+02  0.00000000000E+00 0.  1.
          1    1    1    2  501    0  0.30364367322E+02  0.81966955332E+01 -0.15118616277E+03  0.15442291421E+03  0.00000000000E+00 0. -1.
<scales pt_clust_5="13000.00000" pt_clust_6="13000.00000" pt_clust_7="13000.00000" pt_clust_8="13000.00000" pt_clust_9="13000.00000"></scales>
<clustering>
<clus scale="   89.277">  7  8 -1 -1</clus>
<clus scale="   93.224">  5  6 -1 -1</clus>
<clus scale="   31.451">  5  9 -1 -1</clus>
<clus scale="  107.509">  1  7  2 -1</clus>
<clus scale="  170.523">  2  5  1 -1</clus>
</clustering>
</event>
<event>
 9    1  0.3303741E-006  0.1000274E+04  0.7546771E-02  0.9488582E-01
          2   -1    0    0  502    0 -0.00000000000E+00  0.00000000000E+00  0.10576521925E+04  0.10576521925E+04  0.00000000000E+00 0. -1.
         21   -1    0    0  501  502  0.00000000000E+00 -0.00000000000E+00 -0.55457849902E+03  0.55457849902E+03  0.00000000000E+00 0. -1.
         23    2    1    2    0    0  0.29707237433E+03  0.42256241722E+03  0.24518471107E+03  0.57924765659E+03  0.92743264324E+02 0.  0.
         23    2    1    2    0    0 -0.38036112699E+03  0.14450178061E+03  0.34449076946E+02  0.41782109519E+03  0.88500718421E+02 0.  0.
        -11    1    4    4    0    0 -0.14243048576E+02  0.15134490020E+02  0.20615136709E+02  0.29272872808E+02  0.00000000000E+00 0.  1.
         11    1    4    4    0    0 -0.36611807841E+03  0.12936729059E+03  0.13833940237E+02  0.38854822238E+03  0.00000000000E+00 0. -1.
        -11    1    3    3    0    0  0.22356366655E+02  0.31869659807E+01  0.41040215108E+01  0.22952273847E+02  0.00000000000E+00 0.  1.
         11    1    3    3    0    0  0.27471600768E+03  0.41937545124E+03  0.24108068956E+03  0.55629538274E+03  0.00000000000E+00 0. -1.
          2    1    1    2  501    0  0.83288752652E+02 -0.56706419783E+03  0.22343990550E+03  0.61516193978E+03  0.00000000000E+00 0. -1.
<scales pt_clust_5="13000.00000" pt_clust_6="13000.00000" pt_clust_7="13000.00000" pt_clust_8="13000.00000" pt_clust_9="13000.00000"></scales>
<clustering>
<clus scale="   88.501">  5  6 -1 -1</clus>
<clus scale="   92.743">  7  8 -1 -1</clus>
<clus scale="  524.797">  1  7  2 -1</clus>
<clus scale="  402.388">  5  9 -1 -1</clus>
<clus scale=" 1000.274">  2  5  1 -1</clus>
</clustering>
</event>
<event>
 9    1  0.3303741E-006  0.2246783E+03  0.7546771E-02  0.1154355E+00
          1   -1    0    0  502    0 -0.00000000000E+00  0.00000000000E+00  0.55945309551E+03  0.55945309551E+03  0.00000000000E+00 0. -1.
         21   -1    0    0  501  502  0.00000000000E+00 -0.00000000000E+00 -0.80107008262E+02  0.80107008262E+02  0.00000000000E+00 0. -1.
         23    2    1    2    0    0  0.26600106146E+02  0.84741601644E+02  0.19819461412E+02  0.12804757416E+03  0.90081438156E+02 0.  0.
         23    2    1    2    0    0 -0.16815409001E+02  0.19328683692E+02  0.34564748629E+03  0.35693302576E+03  0.85279798951E+02 0.  0.
        -11    1    3    3    0    0 -0.58229374227E+01  0.87697134714E+02  0.31638209174E+02  0.93411296518E+02  0.00000000000E+00 0. -1.
         11    1    3    3    0    0  0.32423043568E+02 -0.29555330700E+01 -0.11818747762E+02  0.34636277638E+02  0.00000000000E+00 0.  1.
        -13    1    4    4    0    0 -0.47226138152E+02 -0.69381653503E+01  0.15907767496E+03  0.16608477634E+03  0.00000000000E+00 0.  1.
         13    1    4    4    0    0  0.30410729151E+02  0.26266849042E+02  0.18656981133E+03  0.19084824942E+03  0.00000000000E+00 0. -1.
          1    1    1    2  501    0 -0.97846971441E+01 -0.10407028534E+03  0.11387913955E+03  0.15457950386E+03  0.00000000000E+00 0. -1.
<scales pt_clust_5="13000.00000" pt_clust_6="13000.00000" pt_clust_7="13000.00000" pt_clust_8="13000.00000" pt_clust_9="13000.00000"></scales>
<clustering>
<clus scale="   85.280">  7  8 -1 -1</clus>
<clus scale="   90.081">  5  6 -1 -1</clus>
<clus scale="  104.529">  7  9 -1 -1</clus>
<clus scale="  126.504">  1  5  2 -1</clus>
<clus scale="  224.678">  2  5  1 -1</clus>
</clustering>
</event>
<event>
 9    1  0.3303741E-006  0.2571061E+03  0.7546771E-02  0.1146478E+00
         21   -1    0    0  501  502  0.00000000000E+00  0.00000000000E+00  0.30312704089E+02  0.30312704089E+02  0.00000000000E+00 0.  1.
         -4   -1    0    0    0  501 -0.00000000000E+00 -0.00000000000E+00 -0.10981944261E+04  0.10981944261E+04  0.00000000000E+00 0.  1.
         23    2    1    2    0    0  0.41554519449E+02 -0.90558079477E+01 -0.40310862918E+03  0.41574712090E+03  0.92413829440E+02 0.  0.
         23    2    1    2    0    0 -0.12161506337E+03  0.34445937903E+02 -0.53902493550E+03  0.56154179456E+03  0.93832615163E+02 0.  0.
        -11    1    4    4    0    0 -0.55922666470E+02 -0.23699280820E+02 -0.13396593819E+03  0.14709137681E+03  0.00000000000E+00 0. -1.
         11    1    4    4    0    0 -0.65692396902E+02  0.58145218723E+02 -0.40505899731E+03  0.41445041775E+03  0.00000000000E+00 0.  1.
        -11    1    3    3    0    0  0.22418933389E+02  0.41687874870E+02 -0.19971385554E+03  0.20524646545E+03  0.00000000000E+00 0.  1.
         11    1    3    3    0    0  0.19135586060E+02 -0.50743682818E+02 -0.20339477364E+03  0.21050065545E+03  0.00000000000E+00 0. -1.
         -4    1    1    2    0  502  0.80060543923E+02 -0.25390129956E+02 -0.12574815728E+03  0.15121821468E+03  0.00000000000E+00 0.  1.
<scales pt_clust_5="13000.00000" pt_clust_6="13000.00000" pt_clust_7="13000.00000" pt_clust_8="13000.00000" pt_clust_9="13000.00000"></scales>
<clustering>
<clus scale="   92.414">  7  8 -1 -1</clus>
<clus scale="   93.833">  5  6 -1 -1</clus>
<clus scale="   83.990">  5  9 -1 -1</clus>
<clus scale="  101.731">  2  7  1 -1</clus>
<clus scale="  257.106">  1  5  2 -1</clus>
</clustering>
</event>
<event>
 9    1  0.3303741E-006  0.3885682E+03  0.7546771E-02  0.1088214E+00
          3   -1    0    0  502    0 -0.00000000000E+00  0.00000000000E+00  0.78195399870E+03  0.78195399870E+03  0.00000000000E+00 0. -1.
         21   -1    0    0  501  502  0.00000000000E+00 -0.00000000000E+00 -0.17271161926E+03  0.17271161926E+03  0.00000000000E+00 0. -1.
         23    2    1    2    0    0  0.62341210093E+00 -0.86556813970E+02  0.54634411167E+03  0.56103955560E+03  0.93707117725E+02 0.  0.
         23    2    1    2    0    0 -0.82910502761E+02 -0.66688547568E+02  0.14527621024E+03  0.20116455574E+03  0.89668764808E+02 0.  0.
        -11    1    4    4    0    0 -0.19641618991E+02 -0.68584523830E+02  0.51347742499E+02  0.87898923573E+02  0.00000000000E+00 0.  1.
         11    1    4    4    0    0 -0.63268883770E+02  0.18959762626E+01  0.93928467737E+02  0.11326563217E+03  0.00000000000E+00 0. -1.
        -13    1    3    3    0    0  0.40304367962E+02 -0.20296405056E+02  0.13044552654E+03  0.13803050941E+03  0.00000000000E+00 0.  1.
         13    1    3    3    0    0 -0.39680955861E+02 -0.66260408914E+02  0.41589858513E+03  0.42300904619E+03  0.00000000000E+00 0. -1.
          3    1    1    2  501    0  0.82287090660E+02  0.15324536154E+03 -0.82377942468E+02  0.19246150661E+03  0.00000000000E+00 0. -1.
<scales pt_clust_5="13000.00000" pt_clust_6="13000.00000" pt_clust_7="13000.00000" pt_clust_8="13000.00000" pt_clust_9="13000.00000"></scales>
<clustering>
<clus scale="   89.669">  5  6 -1 -1</clus>
<clus scale="   93.707">  7  8 -1 -1</clus>
<clus scale="  127.568">  1  7  2 -1</clus>
<clus scale="  155.945">  5  9 -1 -1</clus>
<clus scale="  388.568">  2  5  1 -1</clus>
</clustering>
</event>
<event>
 9    1  0.3303741E-006  0.1847483E+03  0.7546771E-02  0.1174378E+00
         -1   -1    0    0    0  501 -0.00000000000E+00  0.00000000000E+00  0.56047514701E+03  0.56047514701E+03  0.00000000000E+00 0.  1.
         21   -1    0    0  501  502  0.00000000000E+00 -0.00000000000E+00 -0.57006114617E+02  0.57006114617E+02  0.00000000000E+00 0.  1.
         23    2    1    2    0    0  0.84299050510E+02  0.71606543396E+02  0.34686674598E+03  0.37529085647E+03  0.91065144308E+02 0.  0.
         23    2    1    2    0    0 -0.69285786258E+02 -0.76294597255E+01  0.66231725129E+02  0.13045274953E+03  0.88162064480E+02 0.  0.
        -11    1    4    4    0    0 -0.56211018983E+02  0.35172756152E+02  0.29587589593E+02  0.72610101834E+02  0.00000000000E+00 0.  1.
         11    1    4    4    0    0 -0.13074767274E+02 -0.42802215877E+02  0.36644135536E+02  0.57842647696E+02  0.00000000000E+00 0. -1.
        -13    1    3    3    0    0  0.40937023246E+02  0.52608252078E+02  0.30465857111E+03  0.31186585740E+03  0.00000000000E+00 0. -1.
         13    1    3    3    0    0  0.43362027264E+02  0.18998291318E+02  0.42208174873E+02  0.63424999074E+02  0.00000000000E+00 0.  1.
         -1    1    1    2    0  502 -0.15013264253E+02 -0.63977083670E+02  0.90370561280E+02  0.11173765563E+03  0.00000000000E+00 0.  1.
<scales pt_clust_5="13000.00000" pt_clust_6="13000.00000" pt_clust_7="13000.00000" pt_clust_8="13000.00000" pt_clust_9="13000.00000"></scales>
<clustering>
<clus scale="   88.162">  5  6 -1 -1</clus>
<clus scale="   65.715">  5  9 -1 -1</clus>
<clus scale="   91.065">  7  8 -1 -1</clus>
<clus scale="  143.271">  1  7  2 -1</clus>
<clus scale="  184.748">  2  5  1 -1</clus>
</clustering>
</event>
<event>
 9    1  0.3303741E-006  0.1870969E+03  0.7546771E-02  0.1190229E+00
          2   -1    0    0  502    0 -0.00000000000E+00  0.00000000000E+00  0.17104100714E+03  0.17104100714E+03  0.00000000000E+00 0. -1.
         21   -1    0    0  501  502  0.00000000000E+00 -0.00000000000E+00 -0.11789328052E+03  0.11789328052E+03  0.00000000000E+00 0. -1.
         23    2    1    2    0    0  0.33699253100E+02  0.42965240757E+02  0.22949967583E+02  0.99416057997E+02  0.79844849570E+02 0.  0.
         23    2    1    2    0    0  0.21176437144E+02  0.27326133501E+02  0.10274555935E+02  0.98144531601E+02  0.91277727410E+02 0.  0.
        -11    1    3    3    0    0 -0.17055350897E+02  0.42223090111E+02  0.15550370435E+02  0.48119521541E+02  0.00000000000E+00 0.  1.
         11    1    3    3    0    0  0.50754603997E+02  0.74215064658E+00  0.73995971482E+01  0.51296536456E+02  0.00000000000E+00 0. -1.
        -11    1    4    4    0    0 -0.31929205434E+02 -0.68187895744E+01  0.12524430509E+02  0.34969006427E+02  0.00000000000E+00 0.  1.
         11    1    4    4    0    0  0.53105642578E+02  0.34144923076E+02 -0.22498745740E+01  0.63175525174E+02  0.00000000000E+00 0. -1.
          2    1    1    2  501    0 -0.54875690244E+02 -0.70291374258E+02  0.19923203101E+02  0.91373698057E+02  0.00000000000E+00 0. -1.
<scales pt_clust_5="13000.00000" pt_clust_6="13000.00000" pt_clust_7="13000.00000" pt_clust_8="13000.00000" pt_clust_9="13000.00000"></scales>
<clustering>
<clus scale="   79.845">  5  6 -1 -1</clus>
<clus scale="   91.278">  7  8 -1 -1</clus>
<clus scale="   89.175">  7  9 -1 -1</clus>
<clus scale="   96.731">  1  5  2 -1</clus>
<clus scale="  187.097">  2  5  1 -1</clus>
</clustering>
</event>
<event>
 9    1  0.3303741E-006  0.1707939E+03  0.7546771E-02  0.1198426E+00
         21   -1    0    0  501  502  0.00000000000E+00  0.00000000000E+00  0.24637322737E+03  0.24637322737E+03  0.00000000000E+00 0. -1.
          3   -1    0    0  502    0 -0.00000000000E+00 -0.00000000000E+00 -0.21390576610E+03  0.21390576610E+03  0.00000000000E+00 0. -1.
         23    2    1    2    0    0 -0.26349377820E+02  0.33527980461E+02 -0.16684637052E+03  0.19779747932E+03  0.97302190535E+02 0.  0.
         23    2    1    2    0    0  0.32252236734E+01  0.15462697079E+02  0.48919280450E+02  0.10262741173E+03  0.88824504328E+02 0.  0.
        -13    1    3    3    0    0 -0.48135595084E+02  0.45453641151E+02 -0.15820751405E+03  0.17150127262E+03  0.00000000000E+00 0. -1.
         13    1    3    3    0    0  0.21786217264E+02 -0.11925660690E+02 -0.86388564697E+01  0.26296206697E+02  0.00000000000E+00 0.  1.
        -13    1    4    4    0    0  0.24682672609E+02 -0.23344867448E+02  0.47321321134E+02  0.58253966364E+02  0.00000000000E+00 0.  1.
         13    1    4    4    0    0 -0.21457448935E+02  0.38807564527E+02  0.15979593156E+01  0.44373445362E+02  0.00000000000E+00 0. -1.
          3    1    1    2  501    0  0.23124154147E+02 -0.48990677540E+02  0.15039455134E+03  0.15985410243E+03  0.00000000000E+00 0. -1.
<scales pt_clust_5="13000.00000" pt_clust_6="13000.00000" pt_clust_7="13000.00000" pt_clust_8="13000.00000" pt_clust_9="13000.00000"></scales>
<clustering>
<clus scale="   88.825">  7  8 -1 -1</clus>
<clus scale="   54.174">  7  9 -1 -1</clus>
<clus scale="   97.302">  5  6 -1 -1</clus>
<clus scale="  106.236">  2  5  1 -1</clus>
<clus scale="  170.794">  1  5  2 -1</clus>
</clustering>
</event>
<event>
 9    1  0.3303741E-006  0.2736444E+03  0.7546771E-02  0.1139151E+00
         21   -1    0    0  501  502  0.00000000000E+00  0.00000000000E+00  0.54615229667E+03  0.54615229667E+03  0.00000000000E+00 0.  1.
         -1   -1    0    0    0  501 -0.00000000000E+00 -0.00000000000E+00 -0.13645594438E+03  0.13645594438E+03  0.00000000000E+00 0.  1.
         23    2    1    2    0    0  0.19370046219E+02 -0.39683427371E+02 -0.75353352160E+02  0.12569307928E+03  0.90391644518E+02 0.  0.
         23    2    1    2    0    0  0.89138739105E+02 -0.17578396487E+02  0.12785946630E+03  0.17924077928E+03  0.86743870114E+02 0.  0.
        -11    1    3    3    0    0 -0.77768542160E+01 -0.63795463040E+02 -0.46811012241E+02  0.79508562011E+02  0.00000000000E+00 0.  1.
         11    1    3    3    0    0  0.27146900435E+02  0.24112035669E+02 -0.28542339919E+02  0.46184517269E+02  0.00000000000E+00 0. -1.
        -13    1    4    4    0    0  0.63312164473E+02 -0.49640657009E+02  0.10457698187E+03  0.13194305642E+03  0.00000000000E+00 0. -1.
         13    1    4    4    0    0  0.25826574632E+02  0.32062260522E+02  0.23282484421E+02  0.47297722861E+02  0.00000000000E+00 0.  1.
         -1    1    1    2    0  502 -0.10850878532E+03  0.57261823858E+02  0.35719023815E+03  0.37767438249E+03  0.00000000000E+00 0.  1.
<scales pt_clust_5="13000.00000" pt_clust_6="13000.00000" pt_clust_7="13000.00000" pt_clust_8="13000.00000" pt_clust_9="13000.00000"></scales>
<clustering>
<clus scale="   86.744">  7  8 -1 -1</clus>
<clus scale="   90.392">  5  6 -1 -1</clus>
<clus scale="  100.601">  2  5  1 -1</clus>
<clus scale="  112.774">  7  9 -1 -1</clus>
<clus scale="  273.644">  1  5  2 -1</clus>
</clustering>
</event>
<event>
 9    1  0.3303741E-006  0.3488438E+03  0.7546771E-02  0.1111187E+00
         21   -1    0    0  501  502  0.00000000000E+00  0.00000000000E+00  0.40178866866E+03  0.40178866866E+03  0.00000000000E+00 0. -1.
          3   -1    0    0  502    0 -0.00000000000E+00 -0.00000000000E+00 -0.14832493292E+03  0.14832493292E+03  0.00000000000E+00 0. -1.
         23    2    1    2    0    0  0.25517410795E+02  0.17713307057E+02 -0.28909970177E+02  0.10130748917E+03  0.91991964248E+02 0.  0.
         23    2    1    2    0    0 -0.79678631111E+02 -0.56504622802E+02 -0.23761918259E+02  0.13550557880E+03  0.90860753203E+02 0.  0.
        -11    1    4    4    0    0 -0.26668521270E+02 -0.58088740596E+02  0.19757008056E+02  0.66901802503E+02  0.00000000000E+00 0.  1.
         11    1    4    4    0    0 -0.53010109841E+02  0.15841177945E+01 -0.43518926315E+02  0.68603776297E+02  0.00000000000E+00 0. -1.
        -13    1    3    3    0    0  0.47881987906E+02 -0.66024260936E+01 -0.43653712249E+02  0.65130049818E+02  0.00000000000E+00 0.  1.
         13    1    3    3    0    0 -0.22364577111E+02  0.24315733150E+02  0.14743742072E+02  0.36177439355E+02  0.00000000000E+00 0. -1.
          3    1    1    2  501    0  0.54161220316E+02  0.38791315745E+02  0.30613562418E+03  0.31330053361E+03  0.00000000000E+00 0. -1.
<scales pt_clust_5="13000.00000" pt_clust_6="13000.00000" pt_clust_7="13000.00000" pt_clust_8="13000.00000" pt_clust_9="13000.00000"></scales>
<clustering>
<clus scale="   90.861">  5  6 -1 -1</clus>
<clus scale="   66.620">  5  9 -1 -1</clus>
<clus scale="   91.992">  7  8 -1 -1</clus>
<clus scale="   97.095">  2  7  1 -1</clus>
<clus scale="  348.844">  1  5  2 -1</clus>
</clustering>
</event>
<event>
 9    1  0.3303741E-006  0.1509807E+03  0.7546771E-02  0.1219642E+00
         21   -1    0    0  501  502  0.00000000000E+00  0.00000000000E+00  0.20018189545E+02  0.20018189545E+02  0.00000000000E+00 0.  1.
         -1   -1    0    0    0  501 -0.00000000000E+00 -0.00000000000E+00 -0.82268099690E+03  0.82268099690E+03  0.00000000000E+00 0.  1.
         23    2    1    2    0    0 -0.29126114981E+02  0.75287965422E+00 -0.42264771409E+03  0.43379010142E+03  0.93240894810E+02 0.  0.
         23    2    1    2    0    0 -0.19094294032E+01 -0.16414545628E+02 -0.35284228301E+03  0.36478591182E+03  0.91093367238E+02 0.  0.
        -11    1    4    4    0    0  0.39932618102E+02 -0.26560754548E+02 -0.21897057140E+03  0.22416110012E+03  0.00000000000E+00 0. -1.
         11    1    4    4    0    0 -0.41842047505E+02  0.10146208920E+02 -0.13387171161E+03  0.14062481170E+03  0.00000000000E+00 0.  1.
        -13    1    3    3    0    0  0.29390757552E+02  0.20572430547E+02 -0.15015722699E+03  0.15438340049E+03  0.00000000000E+00 0. -1.
         13    1    3    3    0    0 -0.58516872533E+02 -0.19819550893E+02 -0.27249048709E+03  0.27940670093E+03  0.00000000000E+00 0.  1.
         -1    1    1    2    0  502  0.31035544384E+02  0.15661665974E+02 -0.27172810257E+02  0.44123173204E+02  0.00000000000E+00 0.  1.
<scales pt_clust_5="13000.00000" pt_clust_6="13000.00000" pt_clust_7="13000.00000" pt_clust_8="13000.00000" pt_clust_9="13000.00000"></scales>
<clustering>
<clus scale="   91.093">  5  6 -1 -1</clus>
<clus scale="   34.763">  5  9 -1 -1</clus>
<clus scale="   93.241">  7  8 -1 -1</clus>
<clus scale="   97.687">  2  7  1 -1</clus>
<clus scale="  150.981">  1  5  2 -1</clus>
</clustering>
</event>
<event>
 9    1  0.3303741E-006  0.1499463E+03  0.7546771E-02  0.1221651E+00
         21   -1    0    0  501  502  0.00000000000E+00  0.00000000000E+00  0.35312351807E+02  0.35312351807E+02  0.00000000000E+00 0.  1.
          1   -1    0    0  502    0 -0.00000000000E+00 -0.00000000000E+00 -0.43100450849E+03  0.43100450849E+03  0.00000000000E+00 0. -1.
         23    2    1    2    0    0  0.38269200180E+01 -0.20815629639E+02 -0.13224955726E+03  0.16319000114E+03  0.93236770228E+02 0.  0.
         23    2    1    2    0    0  0.38997049689E+02  0.26950977009E+02 -0.21599088308E+03  0.23891470881E+03  0.90449165083E+02 0.  0.
        -11    1    3    3    0    0  0.42987061278E+02 -0.24879441488E+02 -0.43203632878E+02  0.65828777445E+02  0.00000000000E+00 0.  1.
         11    1    3    3    0    0 -0.39160141260E+02  0.40638118490E+01 -0.89045924384E+02  0.97361223696E+02  0.00000000000E+00 0. -1.
        -13    1    4    4    0    0  0.46131367849E+02  0.49435551328E+02 -0.10110059004E+03  0.12162773591E+03  0.00000000000E+00 0.  1.
         13    1    4    4    0    0 -0.71343181607E+01 -0.22484574319E+02 -0.11489029304E+03  0.11728697290E+03  0.00000000000E+00 0. -1.
          1    1    1    2  501    0 -0.42823969707E+02 -0.61353473703E+01 -0.47451716345E+02  0.64212150353E+02  0.00000000000E+00 0. -1.
<scales pt_clust_5="13000.00000" pt_clust_6="13000.00000" pt_clust_7="13000.00000" pt_clust_8="13000.00000" pt_clust_9="13000.00000"></scales>
<clustering>
<clus scale="   90.449">  7  8 -1 -1</clus>
<clus scale="   43.261">  7  9 -1 -1</clus>
<clus scale="   93.237">  5  6 -1 -1</clus>
<clus scale="   95.609">  2  5  1 -1</clus>
<clus scale="  149.946">  1  5  2 -1</clus>
</clustering>
</event>
<event>
 9    1  0.3303741E-006  0.2099265E+03  0.7546771E-02  0.1171706E+00
         21   -1    0    0  501  502  0.00000000000E+00  0.00000000000E+00  0.40432285513E+02  0.40432285513E+02  0.00000000000E+00 0.  1.
          1   -1    0    0  502    0 -0.00000000000E+00 -0.00000000000E+00 -0.61474419416E+03  0.61474419416E+03  0.00000000000E+00 0. -1.
         23    2    1    2    0    0  0.32798216457E+02  0.34578893849E+02 -0.15984781385E+03  0.19058027239E+03  0.92185105784E+02 0.  0.
         23    2    1    2    0    0  0.14245157969E+02 -0.74375819342E+02 -0.36650222861E+03  0.38651154193E+03  0.96605390315E+02 0.  0.
        -11    1    4    4    0    0 -0.13398361223E+02 -0.88456643691E+02 -0.30135532549E+03  0.31435509555E+03  0.00000000000E+00 0.  1.
         11    1    4    4    0    0  0.27643519192E+02  0.14080824350E+02 -0.65146903122E+02  0.72156446379E+02  0.00000000000E+00 0. -1.
        -11    1    3    3    0    0 -0.11964377463E+02  0.53317528591E+02 -0.74339852075E+02  0.92262228402E+02  0.00000000000E+00 0.  1.
         11    1    3    3    0    0  0.44762593920E+02 -0.18738634742E+02 -0.85507961774E+02  0.98318043986E+02  0.00000000000E+00 0. -1.
          1    1    1    2  501    0 -0.47043374426E+02  0.39796925493E+02 -0.47961866188E+02  0.78084665359E+02  0.00000000000E+00 0. -1.
<scales pt_clust_5="13000.00000" pt_clust_6="13000.00000" pt_clust_7="13000.00000" pt_clust_8="13000.00000" pt_clust_9="13000.00000"></scales>
<clustering>
<clus scale="   92.185">  7  8 -1 -1</clus>
<clus scale="   96.605">  5  6 -1 -1</clus>
<clus scale="   61.619">  5  9 -1 -1</clus>
<clus scale="  103.776">  2  7  1 -1</clus>
<clus scale="  209.927">  1  5  2 -1</clus>
</clustering>
</event>
<event>
 9    1  0.3303741E-006  0.2068740E+03  0.7546771E-02  0.1152430E+00
          1   -1    0    0  502    0 -0.00000000000E+00  0.00000000000E+00  0.27450691957E+03  0.27450691957E+03  0.00000000000E+00 0. -1.
         21   -1    0    0  501  502  0.00000000000E+00 -0.00000000000E+00 -0.26711570458E+03  0.26711570458E+03  0.00000000000E+00 0.  1.
         23    2    1    2    0    0 -0.71787531914E+02 -0.11079990477E+03  0.19774383808E+03  0.26049814004E+03  0.10642643859E+03 0.  0.
         23    2    1    2    0    0  0.64642496435E+02  0.53545905218E+02 -0.59329428608E+02  0.13795972068E+03  0.92016776298E+02 0.  0.
        -11    1    4    4    0    0 -0.11759297799E+02 -0.16832721952E+02 -0.12271925735E+02  0.23921157461E+02  0.00000000000E+00 0. -1.
         11    1    4    4    0    0  0.76401794234E+02  0.70378627169E+02 -0.47057502873E+02  0.11403856322E+03  0.00000000000E+00 0.  1.
        -13    1    3    3    0    0 -0.32395595026E+02  0.76738899068E+01  0.88664919345E+02  0.94709192193E+02  0.00000000000E+00 0.  1.
         13    1    3    3    0    0 -0.39391936888E+02 -0.11847379468E+03  0.10907891874E+03  0.16578894785E+03  0.00000000000E+00 0. -1.
          1    1    1    2  501    0  0.71450354797E+01  0.57253999553E+02 -0.13102319447E+03  0.14316476343E+03  0.00000000000E+00 0. -1.
<scales pt_clust_5="13000.00000" pt_clust_6="13000.00000" pt_clust_7="13000.00000" pt_clust_8="13000.00000" pt_clust_9="13000.00000"></scales>
<clustering>
<clus scale="   92.017">  5  6 -1 -1</clus>
<clus scale="   57.698">  5  9 -1 -1</clus>
<clus scale="  106.426">  7  8 -1 -1</clus>
<clus scale="  169.578">  1  7  2 -1</clus>
<clus scale="  206.874">  2  5  1 -1</clus>
</clustering>
</event>
<event>
 9    1  0.3303741E-006  0.3177381E+03  0.7546771E-02  0.1120857E+00
          1   -1    0    0  502    0 -0.00000000000E+00  0.00000000000E+00  0.75040764572E+03  0.75040764572E+03  0.00000000000E+00 0. -1.
         21   -1    0    0  501  502  0.00000000000E+00 -0.00000000000E+00 -0.86676671031E+02  0.86676671031E+02  0.00000000000E+00 0. -1.
         23    2    1    2    0    0  0.35469423017E+01  0.38963038768E+02  0.43261222157E+03  0.44418050970E+03  0.92802433958E+02 0.  0.
         23    2    1    2    0    0  0.17490301113E+02  0.12216198219E+03  0.13728742243E+03  0.20526544049E+03  0.89758588312E+02 0.  0.
        -11    1    3    3    0    0 -0.42181115142E+02  0.34783160698E+01  0.16107166447E+03  0.16653956363E+03  0.00000000000E+00 0.  1.
         11    1    3    3    0    0  0.45728057444E+02  0.35484722698E+02  0.27154055710E+03  0.27764094607E+03  0.00000000000E+00 0. -1.
        -11    1    4    4    0    0 -0.34203153447E+02  0.36280156836E+02  0.63808855731E+02  0.80979476137E+02  0.00000000000E+00 0.  1.
         11    1    4    4    0    0  0.51693454561E+02  0.85881825355E+02  0.73478566701E+02  0.12428596435E+03  0.00000000000E+00 0. -1.
          1    1    1    2  501    0 -0.21037243415E+02 -0.16112502096E+03  0.93831330683E+02  0.18763836657E+03  0.00000000000E+00 0. -1.
<scales pt_clust_5="13000.00000" pt_clust_6="13000.00000" pt_clust_7="13000.00000" pt_clust_8="13000.00000" pt_clust_9="13000.00000"></scales>
<clustering>
<clus scale="   89.759">  7  8 -1 -1</clus>
<clus scale="   92.802">  5  6 -1 -1</clus>
<clus scale="  100.712">  1  5  2 -1</clus>
<clus scale="  144.861">  7  9 -1 -1</clus>
<clus scale="  317.738">  2  5  1 -1</clus>
</clustering>
</event>
<event>
 9    1  0.3303741E-006  0.1734335E+03  0.7546771E-02  0.1189824E+00
          1   -1    0    0  502    0 -0.00000000000E+00  0.00000000000E+00  0.52155050515E+03  0.52155050515E+03  0.00000000000E+00 0. -1.
         21   -1    0    0  501  502  0.00000000000E+00 -0.00000000000E+00 -0.50518289597E+02  0.50518289597E+02  0.00000000000E+00 0.  1.
         23    2    1    2    0    0  0.58681339386E+02  0.56793177586E+02  0.31793317884E+03  0.34072813257E+03  0.91352008777E+02 0.  0.
         23    2    1    2    0    0 -0.44915212373E+02 -0.25501522579E+02  0.15750354707E+03  0.19687221810E+03  0.10622428612E+03 0.  0.
        -11    1    3    3    0    0  0.22517719301E+02  0.74500917193E+02  0.16269429582E+03  0.18035206746E+03  0.00000000000E+00 0.  1.
         11    1    3    3    0    0  0.36163620086E+02 -0.17707739608E+02  0.15523888302E+03  0.16037606511E+03  0.00000000000E+00 0. -1.
        -13    1    4    4    0    0 -0.41324404899E+02 -0.63835396179E+02  0.12579906782E+03  0.14699683571E+03  0.00000000000E+00 0. -1.
         13    1    4    4    0    0 -0.35908074748E+01  0.38333873599E+02  0.31704479251E+02  0.49875382385E+02  0.00000000000E+00 0.  1.
          1    1    1    2  501    0 -0.13766127013E+02 -0.31291655007E+02 -0.44045103501E+01  0.34468444082E+02  0.00000000000E+00 0. -1.
<scales pt_clust_5="13000.00000" pt_clust_6="13000.00000" pt_clust_7="13000.00000" pt_clust_8="13000.00000" pt_clust_9="13000.00000"></scales>
<clustering>
<clus scale="   91.352">  5  6 -1 -1</clus>
<clus scale="  106.224">  7  8 -1 -1</clus>
<clus scale="   34.186">  7  9 -1 -1</clus>
<clus scale="  122.532">  1  5  2 -1</clus>
<clus scale="  173.434">  2  5  1 -1</clus>
</clustering>
</event>
<event>
 9    1  0.3303741E-006  0.1284659E+03  0.7546771E-02  0.1240652E+00
          1   -1    0    0  502    0 -0.00000000000E+00  0.00000000000E+00  0.25314682077E+03  0.25314682077E+03  0.00000000000E+00 0. -1.
         21   -1    0    0  501  502  0.00000000000E+00 -0.00000000000E+00 -0.55119793959E+02  0.55119793959E+02  0.00000000000E+00 0.  1.
         23    2    1    2    0    0 -0.44022727101E+02 -0.22105079009E+01  0.11987361423E+03  0.15789560184E+03  0.92835611954E+02 0.  0.
         23    2    1    2    0    0 -0.17784895228E+01  0.28581340400E+02  0.47588695114E+02  0.89318787662E+02  0.69950738972E+02 0.  0.
        -11    1    4    4    0    0  0.30766814815E+02  0.19366421762E+02  0.79569309161E+01  0.37215157334E+02  0.00000000000E+00 0.  1.
         11    1    4    4    0    0 -0.32545304338E+02  0.92149186373E+01  0.39631764198E+02  0.52103630328E+02  0.00000000000E+00 0. -1.
        -11    1    3    3    0    0 -0.55910705600E+01  0.32109152553E+02  0.63206225098E+01  0.33199518319E+02  0.00000000000E+00 0.  1.
         11    1    3    3    0    0 -0.38431656541E+02 -0.34319660454E+02  0.11355299172E+03  0.12469608353E+03  0.00000000000E+00 0. -1.
          1    1    1    2  501    0  0.45801216624E+02 -0.26370832499E+02  0.30564717470E+02  0.61052225225E+02  0.00000000000E+00 0. -1.
<scales pt_clust_5="13000.00000" pt_clust_6="13000.00000" pt_clust_7="13000.00000" pt_clust_8="13000.00000" pt_clust_9="13000.00000"></scales>
<clustering>
<clus scale="   69.951">  5  6 -1 -1</clus>
<clus scale="   52.850">  5  9 -1 -1</clus>
<clus scale="   92.836">  7  8 -1 -1</clus>
<clus scale="  102.768">  1  7  2 -1</clus>
<clus scale="  128.466">  2  5  1 -1</clus>
</clustering>
</event>
<event>
 9    1  0.3303741E-006  0.1983638E+03  0.7546771E-02  0.1183188E+00
         -1   -1    0    0    0  501 -0.00000000000E+00  0.00000000000E+00  0.47099124676E+03  0.47099124676E+03  0.00000000000E+00 0.  1.
         21   -1    0    0  501  502  0.00000000000E+00 -0.00000000000E+00 -0.58434886926E+02  0.58434886926E+02  0.00000000000E+00 0. -1.
         23    2    1    2    0    0  0.17060339891E+02 -0.12649168000E+01  0.26705760110E+03  0.28342190932E+03  0.93357169857E+02 0.  0.
         23    2    1    2    0    0 -0.25486100616E+02  0.72178216864E+02  0.13189251690E+03  0.17330746112E+03  0.82344421494E+02 0.  0.
        -11    1    3    3    0    0  0.48875240115E+02  0.90705290656E+01  0.86282057801E+02  0.99577392476E+02  0.00000000000E+00 0.  1.
         11    1    3    3    0    0 -0.31814900224E+02 -0.10335445866E+02  0.18077554330E+03  0.18384451684E+03  0.00000000000E+00 0. -1.
        -13    1    4    4    0    0 -0.45887161544E+02  0.24078882180E+02  0.98502899532E+02  0.11130249493E+03  0.00000000000E+00 0.  1.
         13    1    4    4    0    0  0.20401060928E+02  0.48099334684E+02  0.33389617367E+02  0.62004966188E+02  0.00000000000E+00 0. -1.
         -1    1    1    2    0  502  0.84257607250E+01 -0.70913300064E+02  0.13606241831E+02  0.72696763247E+02  0.00000000000E+00 0.  1.
<scales pt_clust_5="13000.00000" pt_clust_6="13000.00000" pt_clust_7="13000.00000" pt_clust_8="13000.00000" pt_clust_9="13000.00000"></scales>
<clustering>
<clus scale="   82.344">  7  8 -1 -1</clus>
<clus scale="   71.412">  7  9 -1 -1</clus>
<clus scale="   93.357">  5  6 -1 -1</clus>
<clus scale="   94.912">  1  5  2 -1</clus>
<clus scale="  198.364">  2  5  1 -1</clus>
</clustering>
</event>
<event>
 9    1  0.3303741E-006  0.2018675E+03  0.7546771E-02  0.1161232E+00
          2   -1    0    0  502    0 -0.00000000000E+00  0.00000000000E+00  0.13926044791E+03  0.13926044791E+03  0.00000000000E+00 0. -1.
         21   -1    0    0  501  502  0.00000000000E+00 -0.00000000000E+00 -0.26876538876E+03  0.26876538876E+03  0.00000000000E+00 0. -1.
         23    2    1    2    0    0 -0.11553595457E+03  0.20778914473E+02  0.29044225841E+02  0.15133863001E+03  0.90991723760E+02 0.  0.
         23    2    1    2    0    0 -0.31204028245E+01  0.25247487573E+02 -0.81949623344E+02  0.10814343912E+03  0.65818615266E+02 0.  0.
        -11    1    4    4    0    0  0.26978180574E+02 -0.46989760301E+01 -0.24778428512E+02  0.36930652883E+02  0.00000000000E+00 0.  1.
         11    1    4    4    0    0 -0.30098583398E+02  0.29946463604E+02 -0.57171194832E+02  0.71212786236E+02  0.00000000000E+00 0. -1.
        -11    1    3    3    0    0 -0.85637837980E+02  0.28657342475E+02 -0.20812680418E+02  0.92672812830E+02  0.00000000000E+00 0. -1.
         11    1    3    3    0    0 -0.29898116591E+02 -0.78784280028E+01  0.49856906259E+02  0.58665817178E+02  0.00000000000E+00 0.  1.
          2    1    1    2  501    0  0.11865635739E+03 -0.46026402046E+02 -0.76599543341E+02  0.14854376754E+03  0.00000000000E+00 0. -1.
<scales pt_clust_5="13000.00000" pt_clust_6="13000.00000" pt_clust_7="13000.00000" pt_clust_8="13000.00000" pt_clust_9="13000.00000"></scales>
<clustering>
<clus scale="   65.819">  5  6 -1 -1</clus>
<clus scale="   90.992">  7  8 -1 -1</clus>
<clus scale="  127.270">  5  9 -1 -1</clus>
<clus scale="  148.525">  1  7  2 -1</clus>
<clus scale="  201.867">  2  5  1 -1</clus>
</clustering>
</event>
<event>
 9    1  0.3303741E-006  0.2045593E+03  0.7546771E-02  0.1163055E+00
         21   -1    0    0  501  502  0.00000000000E+00  0.00000000000E+00  0.65587703754E+03  0.65587703754E+03  0.00000000000E+00 0. -1.
          1   -1    0    0  502    0 -0.00000000000E+00 -0.00000000000E+00 -0.91232369273E+02  0.91232369273E+02  0.00000000000E+00 0. -1.
         23    2    1    2    0    0  0.52889492028E+02  0.85747437847E+02 -0.99498367750E+01  0.13718862565E+03  0.92584006677E+02 0.  0.
         23    2    1    2    0    0  0.26542012105E+02 -0.45713317250E+02  0.40016015681E+03  0.41411619361E+03  0.92573673012E+02 0.  0.
        -11    1    3    3    0    0 -0.83772500803E+01  0.58952239143E+02  0.21480400123E+02  0.63300492954E+02  0.00000000000E+00 0.  1.
         11    1    3    3    0    0  0.61266742109E+02  0.26795198704E+02 -0.31430236898E+02  0.73888132698E+02  0.00000000000E+00 0. -1.
        -13    1    4    4    0    0 -0.30024357637E+02 -0.56971115539E+01  0.64426865268E+02  0.71307363574E+02  0.00000000000E+00 0.  1.
         13    1    4    4    0    0  0.56566369743E+02 -0.40016205696E+02  0.33573329154E+03  0.34280883004E+03  0.00000000000E+00 0. -1.
          1    1    1    2  501    0 -0.79431504134E+02 -0.40034120597E+02  0.17443434823E+03  0.19580458754E+03  0.00000000000E+00 0. -1.
<scales pt_clust_5="13000.00000" pt_clust_6="13000.00000" pt_clust_7="13000.00000" pt_clust_8="13000.00000" pt_clust_9="13000.00000"></scales>
<clustering>
<clus scale="   92.574">  7  8 -1 -1</clus>
<clus scale="   88.950">  7  9 -1 -1</clus>
<clus scale="   92.584">  5  6 -1 -1</clus>
<clus scale="  136.827">  2  5  1 -1</clus>
<clus scale="  204.559">  1  5  2 -1</clus>
</clustering>
</event>
<event>
 9    1  0.3303741E-006  0.8017907E+03  0.7546771E-02  0.1021681E+00
          1   -1    0    0  502    0 -0.00000000000E+00  0.00000000000E+00  0.84494260921E+03  0.84494260921E+03  0.00000000000E+00 0. -1.
         21   -1    0    0  501  502  0.00000000000E+00 -0.00000000000E+00 -0.28741117855E+03  0.28741117855E+03  0.00000000000E+00 0.  1.
         23    2    1    2    0    0  0.16962226752E+02  0.13371649588E+02  0.26034602690E+03  0.27725875722E+03  0.92875435831E+02 0.  0.
         23    2    1    2    0    0  0.10850994423E+03 -0.81193549226E+02 -0.24507363286E+03  0.29439195533E+03  0.90767490928E+02 0.  0.
        -13    1    4    4    0    0  0.24290435374E+02 -0.29979947937E+02 -0.15873439593E+03  0.16335675982E+03  0.00000000000E+00 0.  1.
         13    1    4    4    0    0  0.84219508855E+02 -0.51213601289E+02 -0.86339236933E+02  0.13103519551E+03  0.00000000000E+00 0. -1.
        -13    1    3    3    0    0 -0.30729586002E+02  0.31149843213E+02  0.13721349678E+03  0.14402140079E+03  0.00000000000E+00 0. -1.
         13    1    3    3    0    0  0.47691812754E+02 -0.17778193625E+02  0.12313253013E+03  0.13323735643E+03  0.00000000000E+00 0.  1.
          1    1    1    2  501    0 -0.12547217098E+03  0.67821899639E+02  0.54225903661E+03  0.56070307521E+03  0.00000000000E+00 0. -1.
<scales pt_clust_5="13000.00000" pt_clust_6="13000.00000" pt_clust_7="13000.00000" pt_clust_8="13000.00000" pt_clust_9="13000.00000"></scales>
<clustering>
<clus scale="   90.767">  5  6 -1 -1</clus>
<clus scale="   92.875">  7  8 -1 -1</clus>
<clus scale="   95.354">  1  7  2 -1</clus>
<clus scale="  135.766">  5  9 -1 -1</clus>
<clus scale="  801.791">  2  5  1 -1</clus>
</clustering>
</event>
<event>
 9    1  0.3303741E-006  0.2621800E+03  0.7546771E-02  0.1122724E+00
          2   -1    0    0  502    0 -0.00000000000E+00  0.00000000000E+00  0.44137738836E+03  0.44137738836E+03  0.00000000000E+00 0. -1.
         21   -1    0    0  501  502  0.00000000000E+00 -0.00000000000E+00 -0.11367470475E+03  0.11367470475E+03  0.00000000000E+00 0. -1.
         23    2    1    2    0    0  0.65783641851E+02 -0.12990564683E+03  0.20066817811E+03  0.26371700480E+03  0.89866435910E+02 0.  0.
         23    2    1    2    0    0  0.16240985251E+02  0.14758717569E+03  0.48554257545E+02  0.17644459596E+03  0.82033136516E+02 0.  0.
        -11    1    4    4    0    0 -0.12222335573E+02  0.13780609796E+03  0.31634782135E+02  0.14191781270E+03  0.00000000000E+00 0. -1.
         11    1    4    4    0    0  0.28463320824E+02  0.97810777349E+01  0.16919475410E+02  0.34526783258E+02  0.00000000000E+00 0.  1.
        -13    1    3    3    0    0 -0.13608417570E+02 -0.57365212997E+02  0.43457462621E+02  0.73242799977E+02  0.00000000000E+00 0.  1.
         13    1    3    3    0    0  0.79392059421E+02 -0.72540433830E+02  0.15721071549E+03  0.19047420483E+03  0.00000000000E+00 0. -1.
          2    1    1    2  501    0 -0.82024627102E+02 -0.17681528867E+02  0.78480247948E+02  0.11489049235E+03  0.00000000000E+00 0. -1.
<scales pt_clust_5="13000.00000" pt_clust_6="13000.00000" pt_clust_7="13000.00000" pt_clust_8="13000.00000" pt_clust_9="13000.00000"></scales>
<clustering>
<clus scale="   82.033">  5  6 -1 -1</clus>
<clus scale="   83.909">  5  9 -1 -1</clus>
<clus scale="   89.866">  7  8 -1 -1</clus>
<clus scale="  171.111">  1  7  2 -1</clus>
<clus scale="  262.180">  2  5  1 -1</clus>
</clustering>
</event>
<event>
 9    1  0.3303741E-006  0.3673688E+03  0.7546771E-02  0.1103677E+00
          1   -1    0    0  502    0 -0.00000000000E+00  0.00000000000E+00  0.43508253259E+03  0.43508253259E+03  0.00000000000E+00 0. -1.
         21   -1    0    0  501  502  0.00000000000E+00 -0.00000000000E+00 -0.15075347907E+03  0.15075347907E+03  0.00000000000E+00 0. -1.
         23    2    1    2    0    0  0.31634593436E+02 -0.30458490234E+02  0.17605168626E+03  0.20284278671E+03  0.90678182364E+02 0.  0.
         23    2    1    2    0    0 -0.89970861091E+02  0.16388430121E+03  0.11241169851E+03  0.23731323368E+03  0.93425697168E+02 0.  0.
        -11    1    4    4    0    0 -0.10284788039E+02  0.81040030135E+02  0.87482292571E+02  0.11969300256E+03  0.00000000000E+00 0. -1.
         11    1    4    4    0    0 -0.79686073052E+02  0.82844271074E+02  0.24929405941E+02  0.11762023112E+03  0.00000000000E+00 0.  1.
        -13    1    3    3    0    0 -0.25302412064E+02  0.10182501205E+02  0.76127779727E+02  0.80866150108E+02  0.00000000000E+00 0.  1.
         13    1    3    3    0    0  0.56937005500E+02 -0.40640991440E+02  0.99923906529E+02  0.12197663660E+03  0.00000000000E+00 0. -1.
          1    1    1    2  501    0  0.58336267655E+02 -0.13342581097E+03 -0.41343312483E+01  0.14567999126E+03  0.00000000000E+00 0. -1.
<scales pt_clust_5="13000.00000" pt_clust_6="13000.00000" pt_clust_7="13000.00000" pt_clust_8="13000.00000" pt_clust_9="13000.00000"></scales>
<clustering>
<clus scale="   90.678">  7  8 -1 -1</clus>
<clus scale="   93.426">  5  6 -1 -1</clus>
<clus scale="  100.752">  1  7  2 -1</clus>
<clus scale="  157.388">  5  9 -1 -1</clus>
<clus scale="  367.369">  2  5  1 -1</clus>
</clustering>
</event>
<event>
 9    1  0.3303741E-006  0.2001920E+03  0.7546771E-02  0.1175267E+00
         -3   -1    0    0    0  501 -0.00000000000E+00  0.00000000000E+00  0.81428155796E+02  0.81428155796E+02  0.00000000000E+00 0.  1.
         21   -1    0    0  501  502  0.00000000000E+00 -0.00000000000E+00 -0.36280762219E+03  0.36280762219E+03  0.00000000000E+00 0.  1.
         23    2    1    2    0    0  0.58735137074E+02  0.24538490253E+02 -0.15534969662E+02  0.11144432850E+03  0.90147375123E+02 0.  0.
         23    2    1    2    0    0  0.74246676350E+01 -0.10955649395E+02 -0.44632577199E+02  0.10149872010E+03  0.90192966969E+02 0.  0.
        -11    1    4    4    0    0  0.46421625073E+02 -0.14562562624E+02 -0.11010169733E+02  0.49882455254E+02  0.00000000000E+00 0. -1.
         11    1    4    4    0    0 -0.38996957438E+02  0.36069132286E+01 -0.33622407467E+02  0.51616264843E+02  0.00000000000E+00 0.  1.
        -13    1    3    3    0    0  0.64847202124E+02 -0.59541136651E+01  0.16102406072E+02  0.67081283337E+02  0.00000000000E+00 0.  1.
         13    1    3    3    0    0 -0.61120650497E+01  0.30492603918E+02 -0.31637375734E+02  0.44363045164E+02  0.00000000000E+00 0. -1.
         -3    1    1    2    0  502 -0.66159804709E+02 -0.13582840858E+02 -0.22121191953E+03  0.23129272939E+03  0.00000000000E+00 0.  1.
<scales pt_clust_5="13000.00000" pt_clust_6="13000.00000" pt_clust_7="13000.00000" pt_clust_8="13000.00000" pt_clust_9="13000.00000"></scales>
<clustering>
<clus scale="   90.147">  7  8 -1 -1</clus>
<clus scale="   90.193">  5  6 -1 -1</clus>
<clus scale="   67.540">  5  9 -1 -1</clus>
<clus scale="  110.356">  1  7  2 -1</clus>
<clus scale="  200.192">  2  5  1 -1</clus>
</clustering>
</event>
<event>
 9    1  0.3303741E-006  0.1343443E+03  0.7546771E-02  0.1239088E+00
         -1   -1    0    0    0  501 -0.00000000000E+00  0.00000000000E+00  0.20522724720E+02  0.20522724720E+02  0.00000000000E+00 0.  1.
         21   -1    0    0  501  502  0.00000000000E+00 -0.00000000000E+00 -0.65502021280E+03  0.65502021280E+03  0.00000000000E+00 0. -1.
         23    2    1    2    0    0 -0.41289305971E+01  0.12213748992E+02 -0.19440538166E+03  0.21540224898E+03  0.91861051128E+02 0.  0.
         23    2    1    2    0    0  0.56612161960E+01 -0.45288303998E+02 -0.33580795126E+03  0.35072652535E+03  0.90327380185E+02 0.  0.
        -11    1    4    4    0    0 -0.87211357495E+01  0.25408806198E+02 -0.61926728733E+02  0.67502484197E+02  0.00000000000E+00 0.  1.
         11    1    4    4    0    0  0.14382351946E+02 -0.70697110197E+02 -0.27388122252E+03  0.28322404115E+03  0.00000000000E+00 0. -1.
        -13    1    3    3    0    0  0.30384141740E+02 -0.26902511608E+02 -0.86884790782E+02  0.95895297430E+02  0.00000000000E+00 0. -1.
         13    1    3    3    0    0 -0.34513072338E+02  0.39116260600E+02 -0.10752059088E+03  0.11950695155E+03  0.00000000000E+00 0.  1.
         -1    1    1    2    0  502 -0.15322855989E+01  0.33074555007E+02 -0.10428415516E+03  0.10941416319E+03  0.00000000000E+00 0.  1.
<scales pt_clust_5="13000.00000" pt_clust_6="13000.00000" pt_clust_7="13000.00000" pt_clust_8="13000.00000" pt_clust_9="13000.00000"></scales>
<clustering>
<clus scale="   90.327">  5  6 -1 -1</clus>
<clus scale="   33.110">  5  9 -1 -1</clus>
<clus scale="   91.861">  7  8 -1 -1</clus>
<clus scale="   92.761">  1  7  2 -1</clus>
<clus scale="  134.344">  2  5  1 -1</clus>
</clustering>
</event>
<event>
 9    1  0.3303741E-006  0.3899730E+03  0.7546771E-02  0.1074132E+00
          2   -1    0    0  502    0 -0.00000000000E+00  0.00000000000E+00  0.87408449308E+03  0.87408449308E+03  0.00000000000E+00 0. -1.
         21   -1    0    0  501  502  0.00000000000E+00 -0.00000000000E+00 -0.10342487283E+03  0.10342487283E+03  0.00000000000E+00 0. -1.
         23    2    1    2    0    0  0.15948806920E+03 -0.84398073812E+01  0.39579985627E+03  0.43658533211E+03  0.91877915878E+02 0.  0.
         23    2    1    2    0    0  0.48658791720E+02 -0.74408057922E+02  0.25562313593E+03  0.28714015337E+03  0.95927279534E+02 0.  0.
        -11    1    4    4    0    0  0.17543070899E+02  0.17656788249E+02  0.10483318656E+03  0.10774747567E+03  0.00000000000E+00 0. -1.
         11    1    4    4    0    0  0.31115720821E+02 -0.92064846171E+02  0.15078994937E+03  0.17939267770E+03  0.00000000000E+00 0.  1.
        -11    1    3    3    0    0  0.85658361050E+02 -0.17834696827E+02  0.10632916308E+03  0.13770011674E+03  0.00000000000E+00 0.  1.
         11    1    3    3    0    0  0.73829708155E+02  0.93948894459E+01  0.28947069318E+03  0.29888521537E+03  0.00000000000E+00 0. -1.
          2    1    1    2  501    0 -0.20814686092E+03  0.82847865303E+02  0.11923662805E+03  0.25378388043E+03  0.00000000000E+00 0. -1.
<scales pt_clust_5="13000.00000" pt_clust_6="13000.00000" pt_clust_7="13000.00000" pt_clust_8="13000.00000" pt_clust_9="13000.00000"></scales>
<clustering>
<clus scale="   91.878">  7  8 -1 -1</clus>
<clus scale="   95.927">  5  6 -1 -1</clus>
<clus scale="  184.253">  1  7  2 -1</clus>
<clus scale="  163.730">  5  9 -1 -1</clus>
<clus scale="  389.973">  2  5  1 -1</clus>
</clustering>
</event>
<event>
 9    1  0.3303741E-006  0.4953772E+03  0.7546771E-02  0.1059366E+00
          1   -1    0    0  502    0 -0.00000000000E+00  0.00000000000E+00  0.68525604738E+03  0.68525604738E+03  0.00000000000E+00 0. -1.
         21   -1    0    0  501  502  0.00000000000E+00 -0.00000000000E+00 -0.14505773001E+03  0.14505773001E+03  0.00000000000E+00 0. -1.
         23    2    1    2    0    0 -0.95453547753E+02 -0.34179904052E+02  0.11799979468E+03  0.17942961387E+03  0.89394570133E+02 0.  0.
         23    2    1    2    0    0  0.25043172367E+03 -0.19778772054E+02  0.40548163490E+03  0.48593196415E+03  0.92775371205E+02 0.  0.
        -13    1    4    4    0    0  0.16489669513E+03  0.25221999108E+02  0.29699953697E+03  0.34064027105E+03  0.00000000000E+00 0.  1.
         13    1    4    4    0    0  0.85535028543E+02 -0.45000771161E+02  0.10848209792E+03  0.14529169310E+03  0.00000000000E+00 0. -1.
        -13    1    3    3    0    0 -0.46626635196E+02  0.21177471317E+02  0.83495797312E+02  0.97949357169E+02  0.00000000000E+00 0. -1.
         13    1    3    3    0    0 -0.48826912558E+02 -0.55357375369E+02  0.34503997368E+02  0.81480256701E+02  0.00000000000E+00 0.  1.
          1    1    1    2  501    0 -0.15497817592E+03  0.53958676106E+02  0.16716887792E+02  0.16495219936E+03  0.00000000000E+00 0. -1.
<scales pt_clust_5="13000.00000" pt_clust_6="13000.00000" pt_clust_7="13000.00000" pt_clust_8="13000.00000" pt_clust_9="13000.00000"></scales>
<clustering>
<clus scale="   89.395">  7  8 -1 -1</clus>
<clus scale="   92.775">  5  6 -1 -1</clus>
<clus scale="  135.170">  1  7  2 -1</clus>
<clus scale="  177.789">  5  9 -1 -1</clus>
<clus scale="  495.377">  2  5  1 -1</clus>
</clustering>
</event>
<event>
 9    1  0.3303741E-006  0.2805912E+03  0.7546771E-02  0.1129017E+00
          1   -1    0    0  502    0 -0.00000000000E+00  0.00000000000E+00  0.12415669601E+04  0.12415669601E+04  0.00000000000E+00 0. -1.
         21   -1    0    0  501  502  0.00000000000E+00 -0.00000000000E+00 -0.36134064743E+02  0.36134064743E+02  0.00000000000E+00 0. -1.
         23    2    1    2    0    0  0.59214779683E+02 -0.48780108225E+02  0.58052391547E+03  0.59268815686E+03  0.91571533599E+02 0.  0.
         23    2    1    2    0    0 -0.15412258085E+03  0.20874225507E+02  0.45425786662E+03  0.48776167920E+03  0.85858855665E+02 0.  0.
        -13    1    4    4    0    0 -0.47938065321E+02 -0.22741425920E+02  0.22747133987E+03  0.23357748398E+03  0.00000000000E+00 0.  1.
         13    1    4    4    0    0 -0.10618451552E+03  0.43615651427E+02  0.22678652675E+03  0.25418419522E+03  0.00000000000E+00 0. -1.
        -13    1    3    3    0    0  0.48156803731E+02 -0.76037322101E+02  0.43055481764E+03  0.43986157264E+03  0.00000000000E+00 0. -1.
         13    1    3    3    0    0  0.11057975951E+02  0.27257213876E+02  0.14996909783E+03  0.15282658422E+03  0.00000000000E+00 0.  1.
          1    1    1    2  501    0  0.94907801163E+02  0.27905882718E+02  0.17065111324E+03  0.19725118875E+03  0.00000000000E+00 0. -1.
<scales pt_clust_5="13000.00000" pt_clust_6="13000.00000" pt_clust_7="13000.00000" pt_clust_8="13000.00000" pt_clust_9="13000.00000"></scales>
<clustering>
<clus scale="   85.859">  5  6 -1 -1</clus>
<clus scale="   91.572">  7  8 -1 -1</clus>
<clus scale="   98.925">  5  9 -1 -1</clus>
<clus scale="  119.462">  1  7  2 -1</clus>
<clus scale="  280.591">  2  5  1 -1</clus>
</clustering>
</event>
<event>
 9    1  0.3303741E-006  0.1989252E+03  0.7546771E-02  0.1159517E+00
         21   -1    0    0  501  502  0.00000000000E+00  0.00000000000E+00  0.12435486690E+03  0.12435486690E+03  0.00000000000E+00 0. -1.
          3   -1    0    0  502    0 -0.00000000000E+00 -0.00000000000E+00 -0.26603529434E+03  0.26603529434E+03  0.00000000000E+00 0. -1.
         23    2    1    2    0    0 -0.44762463608E+02 -0.12562813588E+03 -0.89795487784E+02  0.18480981738E+03  0.91133595893E+02 0.  0.
         23    2    1    2    0    0  0.61103477469E+02  0.53883428220E+02 -0.33087547611E+02  0.12963514152E+03  0.95254529105E+02 0.  0.
        -11    1    3    3    0    0  0.23064215097E+02 -0.23559307111E+02 -0.41702117037E+02  0.53160751829E+02  0.00000000000E+00 0.  1.
         11    1    3    3    0    0 -0.67826678706E+02 -0.10206882877E+03 -0.48093370746E+02  0.13164906555E+03  0.00000000000E+00 0. -1.
        -13    1    4    4    0    0  0.71962954342E+02  0.39740036564E+01 -0.73688010331E+01  0.72448317657E+02  0.00000000000E+00 0. -1.
         13    1    4    4    0    0 -0.10859476873E+02  0.49909424564E+02 -0.25718746578E+02  0.57186823865E+02  0.00000000000E+00 0.  1.
          3    1    1    2  501    0 -0.16341013861E+02  0.71744707659E+02 -0.18797392036E+02  0.75945202340E+02  0.00000000000E+00 0. -1.
<scales pt_clust_5="13000.00000" pt_clust_6="13000.00000" pt_clust_7="13000.00000" pt_clust_8="13000.00000" pt_clust_9="13000.00000"></scales>
<clustering>
<clus scale="   91.134">  5  6 -1 -1</clus>
<clus scale="   95.255">  7  8 -1 -1</clus>
<clus scale="   73.582">  7  9 -1 -1</clus>
<clus scale="  161.528">  2  5  1 -1</clus>
<clus scale="  198.925">  1  5  2 -1</clus>
</clustering>
</event>
<event>
 9    1  0.3303741E-006  0.2063333E+03  0.7546771E-02  0.1170031E+00
         21   -1    0    0  501  502  0.00000000000E+00  0.00000000000E+00  0.92441735745E+02  0.92441735745E+02  0.00000000000E+00 0.  1.
          2   -1    0    0  502    0 -0.00000000000E+00 -0.00000000000E+00 -0.38227046815E+03  0.38227046815E+03  0.00000000000E+00 0. -1.
         23    2    1    2    0    0 -0.53576981068E+02 -0.41807690819E+02 -0.23534193841E+03  0.26130596224E+03  0.90975832057E+02 0.  0.
         23    2    1    2    0    0  0.47758103895E+02  0.83516335684E+02  0.13771488523E+02  0.13320235446E+03  0.91090057216E+02 0.  0.
        -11    1    4    4    0    0 -0.22330887397E+02 -0.13009988622E+01  0.41782863505E+01  0.22755641209E+02  0.00000000000E+00 0. -1.
         11    1    4    4    0    0  0.70088991293E+02  0.84817334547E+02  0.95932021728E+01  0.11044671325E+03  0.00000000000E+00 0.  1.
        -13    1    3    3    0    0 -0.22779341955E+01  0.23036916297E+02 -0.10050900354E+03  0.10314042995E+03  0.00000000000E+00 0.  1.
         13    1    3    3    0    0 -0.51299046872E+02 -0.64844607116E+02 -0.13483293486E+03  0.15816553229E+03  0.00000000000E+00 0. -1.
          2    1    1    2  501    0  0.58188771723E+01 -0.41708644866E+02 -0.68258282527E+02  0.80203887197E+02  0.00000000000E+00 0. -1.
<scales pt_clust_5="13000.00000" pt_clust_6="13000.00000" pt_clust_7="13000.00000" pt_clust_8="13000.00000" pt_clust_9="13000.00000"></scales>
<clustering>
<clus scale="   90.976">  7  8 -1 -1</clus>
<clus scale="   91.090">  5  6 -1 -1</clus>
<clus scale="   42.113">  5  9 -1 -1</clus>
<clus scale="  113.556">  2  7  1 -1</clus>
<clus scale="  206.333">  1  5  2 -1</clus>
</clustering>
</event>
<event>
 9    1  0.3303741E-006  0.2264653E+03  0.7546771E-02  0.1154345E+00
          1   -1    0    0  502    0 -0.00000000000E+00  0.00000000000E+00  0.16575634937E+03  0.16575634937E+03  0.00000000000E+00 0. -1.
         21   -1    0    0  501  502  0.00000000000E+00 -0.00000000000E+00 -0.26196429365E+03  0.26196429365E+03  0.00000000000E+00 0.  1.
         23    2    1    2    0    0 -0.67536690900E+02  0.34943043312E+02  0.74355009664E+02  0.14421006438E+03  0.97394323816E+02 0.  0.
         23    2    1    2    0    0 -0.36041767327E+02 -0.31695283539E+02 -0.14432441613E+03  0.17661106593E+03  0.89768209990E+02 0.  0.
        -13    1    3    3    0    0 -0.86013891467E+02  0.24187699910E+01  0.54583232845E+02  0.10189980020E+03  0.00000000000E+00 0.  1.
         13    1    3    3    0    0  0.18477200566E+02  0.32524273321E+02  0.19771776818E+02  0.42310264173E+02  0.00000000000E+00 0. -1.
        -13    1    4    4    0    0  0.18469471052E+02  0.11754287920E+02 -0.75659305983E+02  0.78763032111E+02  0.00000000000E+00 0. -1.
         13    1    4    4    0    0 -0.54511238380E+02 -0.43449571459E+02 -0.68665110149E+02  0.97848033815E+02  0.00000000000E+00 0.  1.
          1    1    1    2  501    0  0.10357845823E+03 -0.32477597737E+01 -0.26238537817E+02  0.10689951272E+03  0.00000000000E+00 0. -1.
<scales pt_clust_5="13000.00000" pt_clust_6="13000.00000" pt_clust_7="13000.00000" pt_clust_8="13000.00000" pt_clust_9="13000.00000"></scales>
<clustering>
<clus scale="   89.768">  7  8 -1 -1</clus>
<clus scale="   97.394">  5  6 -1 -1</clus>
<clus scale="  103.629">  7  9 -1 -1</clus>
<clus scale="  123.563">  1  5  2 -1</clus>
<clus scale="  226.465">  2  5  1 -1</clus>
</clustering>
</event>
<event>
 9    1  0.3303741E-006  0.3489519E+03  0.7546771E-02  0.1098909E+00
         21   -1    0    0  501  502  0.00000000000E+00  0.00000000000E+00  0.30634091813E+03  0.30634091813E+03  0.00000000000E+00 0.  1.
          1   -1    0    0  502    0 -0.00000000000E+00 -0.00000000000E+00 -0.18985048293E+03  0.18985048293E+03  0.00000000000E+00 0. -1.
         23    2    1    2    0    0  0.65571618707E+00  0.69599012726E+02  0.23538822816E+02  0.13507172363E+03  0.11333949801E+03 0.  0.
         23    2    1    2    0    0  0.40181197679E+02 -0.18121474825E+03 -0.39634410674E+01  0.20776305534E+03  0.93254837232E+02 0.  0.
        -11    1    3    3    0    0  0.44133001654E+02  0.22816556397E+01  0.31896100177E+02  0.54500357742E+02  0.00000000000E+00 0.  1.
         11    1    3    3    0    0 -0.43477285467E+02  0.67317357086E+02 -0.83572773605E+01  0.80571365891E+02  0.00000000000E+00 0. -1.
        -13    1    4    4    0    0  0.31272644114E+02 -0.49321205995E+02  0.37279947655E+02  0.69284587953E+02  0.00000000000E+00 0. -1.
         13    1    4    4    0    0  0.89085535650E+01 -0.13189354226E+03 -0.41243388723E+02  0.13847846739E+03  0.00000000000E+00 0.  1.
          1    1    1    2  501    0 -0.40836913866E+02  0.11161573553E+03  0.96915053457E+02  0.15335662209E+03  0.00000000000E+00 0. -1.
<scales pt_clust_5="13000.00000" pt_clust_6="13000.00000" pt_clust_7="13000.00000" pt_clust_8="13000.00000" pt_clust_9="13000.00000"></scales>
<clustering>
<clus scale="   93.255">  7  8 -1 -1</clus>
<clus scale="  113.339">  5  6 -1 -1</clus>
<clus scale="  118.852">  7  9 -1 -1</clus>
<clus scale="  133.005">  2  5  1 -1</clus>
<clus scale="  348.952">  1  5  2 -1</clus>
</clustering>
</event>
<event>
 9    1  0.3303741E-006  0.1685076E+03  0.7546771E-02  0.1203746E+00
         21   -1    0    0  501  502  0.00000000000E+00  0.00000000000E+00  0.78498973143E+02  0.78498973143E+02  0.00000000000E+00 0. -1.
          1   -1    0    0  502    0 -0.00000000000E+00 -0.00000000000E+00 -0.35772936155E+03  0.35772936155E+03  0.00000000000E+00 0. -1.
         23    2    1    2    0    0 -0.11734494455E+02  0.33872728792E+02 -0.24526598827E+03  0.26433186475E+03  0.91819766964E+02 0.  0.
         23    2    1    2    0    0  0.42461397161E+02 -0.55794404427E+02 -0.56162624555E+02  0.12810761771E+03  0.91330912091E+02 0.  0.
        -11    1    4    4    0    0  0.67508485735E+02 -0.59044809287E+02 -0.46869996088E+02  0.10119526512E+03  0.00000000000E+00 0. -1.
         11    1    4    4    0    0 -0.25047088574E+02  0.32504048602E+01 -0.92926284680E+01  0.26912352584E+02  0.00000000000E+00 0.  1.
        -11    1    3    3    0    0  0.40167714915E+02  0.12059703872E+02 -0.94123589488E+02  0.10304431997E+03  0.00000000000E+00 0.  1.
         11    1    3    3    0    0 -0.51902209371E+02  0.21813024920E+02 -0.15114239878E+03  0.16128754478E+03  0.00000000000E+00 0. -1.
          1    1    1    2  501    0 -0.30726902706E+02  0.21921675635E+02  0.22198224419E+02  0.43788852233E+02  0.00000000000E+00 0. -1.
<scales pt_clust_5="13000.00000" pt_clust_6="13000.00000" pt_clust_7="13000.00000" pt_clust_8="13000.00000" pt_clust_9="13000.00000"></scales>
<clustering>
<clus scale="   91.331">  5  6 -1 -1</clus>
<clus scale="   37.745">  5  9 -1 -1</clus>
<clus scale="   91.820">  7  8 -1 -1</clus>
<clus scale="   98.569">  2  7  1 -1</clus>
<clus scale="  168.508">  1  5  2 -1</clus>
</clustering>
</event>
<event>
 9    1  0.3303741E-006  0.1290802E+03  0.7546771E-02  0.1237016E+00
          1   -1    0    0  502    0 -0.00000000000E+00  0.00000000000E+00  0.73625308501E+03  0.73625308501E+03  0.00000000000E+00 0. -1.
         21   -1    0    0  501  502  0.00000000000E+00 -0.00000000000E+00 -0.21835210325E+02  0.21835210325E+02  0.00000000000E+00 0.  1.
         23    2    1    2    0    0 -0.20923536665E+02 -0.53657285740E+02  0.46049585090E+03  0.47324081766E+03  0.92647418221E+02 0.  0.
         23    2    1    2    0    0  0.13144492099E+02  0.24462663353E+02  0.20401685848E+03  0.22650911092E+03  0.94404974542E+02 0.  0.
        -11    1    4    4    0    0 -0.35604365599E+02  0.20868306379E+02  0.49511325657E+02  0.64455631478E+02  0.00000000000E+00 0. -1.
         11    1    4    4    0    0  0.48748857698E+02  0.35943569740E+01  0.15450553282E+03  0.16205347945E+03  0.00000000000E+00 0.  1.
        -11    1    3    3    0    0  0.31555541831E+02 -0.92939427401E-02  0.18660507464E+03  0.18925434258E+03  0.00000000000E+00 0.  1.
         11    1    3    3    0    0 -0.52479078496E+02 -0.53647991798E+02  0.27389077626E+03  0.28398647507E+03  0.00000000000E+00 0. -1.
          1    1    1    2  501    0  0.77790445660E+01  0.29194622388E+02  0.49905165311E+02  0.58338366753E+02  0.00000000000E+00 0. -1.
<scales pt_clust_5="13000.00000" pt_clust_6="13000.00000" pt_clust_7="13000.00000" pt_clust_8="13000.00000" pt_clust_9="13000.00000"></scales>
<clustering>
<clus scale="   92.647">  7  8 -1 -1</clus>
<clus scale="   94.405">  5  6 -1 -1</clus>
<clus scale="   30.213">  5  9 -1 -1</clus>
<clus scale="  109.089">  1  7  2 -1</clus>
<clus scale="  129.080">  2  5  1 -1</clus>
</clustering>
</event>
<event>
 9    1  0.3303741E-006  0.2926512E+03  0.7546771E-02  0.1134285E+00
          2   -1    0    0  502    0 -0.00000000000E+00  0.00000000000E+00  0.10624330638E+04  0.10624330638E+04  0.00000000000E+00 0. -1.
         21   -1    0    0  501  502  0.00000000000E+00 -0.00000000000E+00 -0.34918086403E+02  0.34918086403E+02  0.00000000000E+00 0. -1.
         23    2    1    2    0    0  0.60277286579E+01 -0.11471507554E+02  0.25098536164E+03  0.26750601359E+03  0.91639983355E+02 0.  0.
         23    2    1    2    0    0  0.12036180206E+03 -0.16324186700E+01  0.55063337211E+03  0.57066346433E+03  0.89275141286E+02 0.  0.
        -11    1    3    3    0    0 -0.24811374993E+02  0.23323660113E+02  0.17608954192E+03  0.17935195629E+03  0.00000000000E+00 0.  1.
         11    1    3    3    0    0  0.30839103651E+02 -0.34795167667E+02  0.74895819716E+02  0.88154057297E+02  0.00000000000E+00 0. -1.
        -11    1    4    4    0    0  0.97998819571E+02 -0.32350647511E+02  0.47428371621E+03  0.48538168125E+03  0.00000000000E+00 0.  1.
         11    1    4    4    0    0  0.22362982484E+02  0.30718228841E+02  0.76349655909E+02  0.85281783085E+02  0.00000000000E+00 0. -1.
          2    1    1    2  501    0 -0.12638953071E+03  0.13103926224E+02  0.22589624364E+03  0.25918167228E+03  0.00000000000E+00 0. -1.
<scales pt_clust_5="13000.00000" pt_clust_6="13000.00000" pt_clust_7="13000.00000" pt_clust_8="13000.00000" pt_clust_9="13000.00000"></scales>
<clustering>
<clus scale="   89.275">  7  8 -1 -1</clus>
<clus scale="   91.640">  5  6 -1 -1</clus>
<clus scale="   92.552">  1  5  2 -1</clus>
<clus scale="  124.942">  7  9 -1 -1</clus>
<clus scale="  292.651">  2  5  1 -1</clus>
</clustering>
</event>
<event>
 9    1  0.3303741E-006  0.2600429E+03  0.7546771E-02  0.1143286E+00
         21   -1    0    0  501  502  0.00000000000E+00  0.00000000000E+00  0.17991297326E+03  0.17991297326E+03  0.00000000000E+00 0. -1.
         -4   -1    0    0    0  501 -0.00000000000E+00 -0.00000000000E+00 -0.18984661416E+03  0.18984661416E+03  0.00000000000E+00 0.  1.
         23    2    1    2    0    0  0.24899470984E+02 -0.47390687173E+02  0.20032940071E+02  0.10799577432E+03  0.91629185835E+02 0.  0.
         23    2    1    2    0    0  0.41446821176E+02 -0.40926269868E+02 -0.85019498919E+02  0.13834363987E+03  0.92292193305E+02 0.  0.
        -11    1    3    3    0    0  0.47972150599E+02 -0.20351339869E+02  0.41372166247E+02  0.66536910114E+02  0.00000000000E+00 0. -1.
         11    1    3    3    0    0 -0.23072679616E+02 -0.27039347304E+02 -0.21339226177E+02  0.41458864204E+02  0.00000000000E+00 0.  1.
        -13    1    4    4    0    0 -0.20955696029E+02 -0.63962680704E+01 -0.58133250912E+02  0.62125102036E+02  0.00000000000E+00 0.  1.
         13    1    4    4    0    0  0.62402517205E+02 -0.34530001798E+02 -0.26886248007E+02  0.76218537834E+02  0.00000000000E+00 0. -1.
         -4    1    1    2    0  502 -0.66346292160E+02  0.88316957041E+02  0.55052917947E+02  0.12342017322E+03  0.00000000000E+00 0.  1.
<scales pt_clust_5="13000.00000" pt_clust_6="13000.00000" pt_clust_7="13000.00000" pt_clust_8="13000.00000" pt_clust_9="13000.00000"></scales>
<clustering>
<clus scale="   91.629">  5  6 -1 -1</clus>
<clus scale="   92.292">  7  8 -1 -1</clus>
<clus scale="  106.122">  2  5  1 -1</clus>
<clus scale="   98.098">  7  9 -1 -1</clus>
<clus scale="  260.043">  1  5  2 -1</clus>
</clustering>
</event>
<event>
 9    1  0.3303741E-006  0.2963003E+03  0.7546771E-02  0.1117486E+00
          2   -1    0    0  502    0 -0.00000000000E+00  0.00000000000E+00  0.98506130190E+03  0.98506130190E+03  0.00000000000E+00 0.  1.
         21   -1    0    0  501  502  0.00000000000E+00 -0.00000000000E+00 -0.55941587698E+02  0.55941587698E+02  0.00000000000E+00 0.  1.
         23    2    1    2    0    0  0.43792200308E+02 -0.87634339521E+02  0.51082945077E+03  0.52840109091E+03  0.93077660211E+02 0.  0.
         23    2    1    2    0    0 -0.37653201723E+02  0.86979317938E+01  0.12192525481E+02  0.98857896574E+02  0.90170995447E+02 0.  0.
        -11    1    4    4    0    0  0.21452303700E+02  0.80256509937E+01  0.29424254375E+02  0.37288056445E+02  0.00000000000E+00 0. -1.
         11    1    4    4    0    0 -0.59105505423E+02  0.67228080009E+00 -0.17231728893E+02  0.61569840129E+02  0.00000000000E+00 0.  1.
        -13    1    3    3    0    0 -0.28809690419E+02 -0.35601793044E+02  0.16970396446E+03  0.17577520156E+03  0.00000000000E+00 0.  1.
         13    1    3    3    0    0  0.72601890727E+02 -0.52032546477E+02  0.34112548631E+03  0.35262588935E+03  0.00000000000E+00 0. -1.
          2    1    1    2  501    0 -0.61389985841E+01  0.78936407727E+02  0.40609773795E+03  0.41374390212E+03  0.00000000000E+00 0.  1.
<scales pt_clust_5="13000.00000" pt_clust_6="13000.00000" pt_clust_7="13000.00000" pt_clust_8="13000.00000" pt_clust_9="13000.00000"></scales>
<clustering>
<clus scale="   90.171">  5  6 -1 -1</clus>
<clus scale="   79.175">  5  9 -1 -1</clus>
<clus scale="   93.078">  7  8 -1 -1</clus>
<clus scale="  135.133">  1  7  2 -1</clus>
<clus scale="  296.300">  2  5  1 -1</clus>
</clustering>
</event>
<event>
 9    1  0.3303741E-006  0.4039982E+03  0.7546771E-02  0.1064458E+00
          3   -1    0    0  502    0 -0.00000000000E+00  0.00000000000E+00  0.45051849733E+03  0.45051849733E+03  0.00000000000E+00 0. -1.
         21   -1    0    0  501  502  0.00000000000E+00 -0.00000000000E+00 -0.21576637964E+03  0.21576637964E+03  0.00000000000E+00 0. -1.
         23    2    1    2    0    0 -0.26850996998E+02 -0.19308837463E+03  0.11509743221E+03  0.24493971007E+03  0.93509070205E+02 0.  0.
         23    2    1    2    0    0  0.14627386976E+03  0.60476756921E+02  0.15560573148E+03  0.23930082780E+03  0.89432988414E+02 0.  0.
        -11    1    3    3    0    0  0.33142341275E+02 -0.88067056459E+02  0.63049084483E+02  0.11326697786E+03  0.00000000000E+00 0. -1.
         11    1    3    3    0    0 -0.59993338273E+02 -0.10502131817E+03  0.52048347729E+02  0.13167273221E+03  0.00000000000E+00 0.  1.
        -13    1    4    4    0    0  0.10000180514E+03  0.77533945328E+02  0.82289671782E+02  0.15094192191E+03  0.00000000000E+00 0.  1.
         13    1    4    4    0    0  0.46272064622E+02 -0.17057188408E+02  0.73316059696E+02  0.88358905890E+02  0.00000000000E+00 0. -1.
          3    1    1    2  501    0 -0.11942287276E+03  0.13261161770E+03 -0.35951045999E+02  0.18204433910E+03  0.00000000000E+00 0. -1.
<scales pt_clust_5="13000.00000" pt_clust_6="13000.00000" pt_clust_7="13000.00000" pt_clust_8="13000.00000" pt_clust_9="13000.00000"></scales>
<clustering>
<clus scale="   89.433">  7  8 -1 -1</clus>
<clus scale="   93.509">  5  6 -1 -1</clus>
<clus scale="  178.459">  7  9 -1 -1</clus>
<clus scale="  216.213">  1  5  2 -1</clus>
<clus scale="  403.998">  2  5  1 -1</clus>
</clustering>
</event>
<event>
 9    1  0.3303741E-006  0.4871406E+03  0.7546771E-02  0.1073426E+00
          4   -1    0    0  502    0 -0.00000000000E+00  0.00000000000E+00  0.75551382355E+02  0.75551382355E+02  0.00000000000E+00 0. -1.
         21   -1    0    0  501  502  0.00000000000E+00 -0.00000000000E+00 -0.20042757221E+04  0.20042757221E+04  0.00000000000E+00 0. -1.
         23    2    1    2    0    0  0.15517566759E+02  0.27756965843E+02 -0.62194613898E+01  0.96564388777E+02  0.90965682810E+02 0.  0.
         23    2    1    2    0    0 -0.56208441442E+02  0.18629659502E+03 -0.50176529007E+03  0.54591249672E+03  0.91576402845E+02 0.  0.
        -11    1    3    3    0    0 -0.14153394632E+02 -0.29001132959E+02 -0.35193833557E+01  0.32461829149E+02  0.00000000000E+00 0.  1.
         11    1    3    3    0    0  0.29670961391E+02  0.56758098802E+02 -0.27000780341E+01  0.64102559628E+02  0.00000000000E+00 0. -1.
        -11    1    4    4    0    0 -0.50489686432E+02  0.13201420304E+03 -0.24008019345E+03  0.27859550881E+03  0.00000000000E+00 0. -1.
         11    1    4    4    0    0 -0.57187550107E+01  0.54282391978E+02 -0.26168509661E+03  0.26731698791E+03  0.00000000000E+00 0.  1.
          4    1    1    2  501    0  0.40690874684E+02 -0.21405356086E+03 -0.14207395882E+04  0.14373502189E+04  0.00000000000E+00 0. -1.
<scales pt_clust_5="13000.00000" pt_clust_6="13000.00000" pt_clust_7="13000.00000" pt_clust_8="13000.00000" pt_clust_9="13000.00000"></scales>
<clustering>
<clus scale="   90.966">  5  6 -1 -1</clus>
<clus scale="   91.576">  7  8 -1 -1</clus>
<clus scale="   96.364">  1  5  2 -1</clus>
<clus scale="  211.298">  7  9 -1 -1</clus>
<clus scale="  487.141">  2  5  1 -1</clus>
</clustering>
</event>
<event>
 9    1  0.3303741E-006  0.1515416E+03  0.7546771E-02  0.1214055E+00
         21   -1    0    0  501  502  0.00000000000E+00  0.00000000000E+00  0.22571321347E+02  0.22571321347E+02  0.00000000000E+00 0. -1.
          1   -1    0    0  502    0 -0.00000000000E+00 -0.00000000000E+00 -0.87797537985E+03  0.87797537985E+03  0.00000000000E+00 0. -1.
         23    2    1    2    0    0 -0.33244878016E+02 -0.49630628117E+02 -0.53736582228E+03  0.54824969821E+03  0.90814555397E+02 0.  0.
         23    2    1    2    0    0  0.59286337259E+02  0.47901194987E+02 -0.21262944809E+03  0.24370528529E+03  0.91496391255E+02 0.  0.
        -11    1    3    3    0    0 -0.21638462195E+02 -0.73459524729E+02 -0.46324900690E+03  0.46953611918E+03  0.00000000000E+00 0. -1.
         11    1    3    3    0    0 -0.11606415821E+02  0.23828896612E+02 -0.74116815374E+02  0.78713579026E+02  0.00000000000E+00 0.  1.
        -13    1    4    4    0    0  0.32595555278E+02  0.71441010959E+02 -0.11055594407E+03  0.13560569693E+03  0.00000000000E+00 0. -1.
         13    1    4    4    0    0  0.26690781981E+02 -0.23539815972E+02 -0.10207350403E+03  0.10809958836E+03  0.00000000000E+00 0.  1.
          1    1    1    2  501    0 -0.26041459243E+02  0.17294331301E+01 -0.10540878813E+03  0.10859171771E+03  0.00000000000E+00 0. -1.
<scales pt_clust_5="13000.00000" pt_clust_6="13000.00000" pt_clust_7="13000.00000" pt_clust_8="13000.00000" pt_clust_9="13000.00000"></scales>
<clustering>
<clus scale="   90.815">  5  6 -1 -1</clus>
<clus scale="   91.496">  7  8 -1 -1</clus>
<clus scale="   26.099">  7  9 -1 -1</clus>
<clus scale="  108.700">  2  5  1 -1</clus>
<clus scale="  151.542">  1  5  2 -1</clus>
</clustering>
</event>
<event>
 9    1  0.3303741E-006  0.2256792E+03  0.7546771E-02  0.1149350E+00
         21   -1    0    0  501  502  0.00000000000E+00  0.00000000000E+00  0.91670523402E+02  0.91670523402E+02  0.00000000000E+00 0. -1.
          2   -1    0    0  502    0 -0.00000000000E+00 -0.00000000000E+00 -0.42125061326E+03  0.42125061326E+03  0.00000000000E+00 0. -1.
         23    2    1    2    0    0  0.11814926110E+03  0.39969708025E+02 -0.22245909484E+03  0.26310916216E+03  0.64664958637E+02 0.  0.
         23    2    1    2    0    0 -0.73795348014E+02 -0.52878828237E+02 -0.14220071647E+03  0.19180764838E+03  0.91253527855E+02 0.  0.
        -11    1    4    4    0    0 -0.16008543105E+02  0.26194830598E+02 -0.36926832525E+02  0.48021178273E+02  0.00000000000E+00 0. -1.
         11    1    4    4    0    0 -0.57786804910E+02 -0.79073658835E+02 -0.10527388395E+03  0.14378647010E+03  0.00000000000E+00 0.  1.
        -13    1    3    3    0    0  0.18955104345E+01  0.19974718875E+02 -0.17476686676E+02  0.26608587544E+02  0.00000000000E+00 0.  1.
         13    1    3    3    0    0  0.11625375067E+03  0.19994989150E+02 -0.20498240817E+03  0.23650057462E+03  0.00000000000E+00 0. -1.
          2    1    1    2  501    0 -0.44353913091E+02  0.12909120212E+02  0.35079721460E+02  0.58004326122E+02  0.00000000000E+00 0. -1.
<scales pt_clust_5="13000.00000" pt_clust_6="13000.00000" pt_clust_7="13000.00000" pt_clust_8="13000.00000" pt_clust_9="13000.00000"></scales>
<clustering>
<clus scale="   64.665">  7  8 -1 -1</clus>
<clus scale="   91.254">  5  6 -1 -1</clus>
<clus scale="   46.194">  5  9 -1 -1</clus>
<clus scale="  140.493">  2  7  1 -1</clus>
<clus scale="  225.679">  1  5  2 -1</clus>
</clustering>
</event>
<event>
 9    1  0.3303741E-006  0.3838662E+03  0.7546771E-02  0.1067338E+00
         21   -1    0    0  501  502  0.00000000000E+00  0.00000000000E+00  0.18561083472E+03  0.18561083472E+03  0.00000000000E+00 0.  1.
          1   -1    0    0  502    0 -0.00000000000E+00 -0.00000000000E+00 -0.52643725572E+03  0.52643725572E+03  0.00000000000E+00 0. -1.
         23    2    1    2    0    0 -0.19355513940E+03  0.99103722743E+02 -0.72784877785E+02  0.24386056416E+03  0.82977083993E+02 0.  0.
         23    2    1    2    0    0 -0.59678317174E+01 -0.78059288152E+02 -0.23625961581E+03  0.26505610295E+03  0.91144194372E+02 0.  0.
        -13    1    4    4    0    0  0.29336930353E+02 -0.64941818066E+02 -0.94370631607E+02  0.11825358906E+03  0.00000000000E+00 0. -1.
         13    1    4    4    0    0 -0.35304762071E+02 -0.13117470085E+02 -0.14188898420E+03  0.14680251389E+03  0.00000000000E+00 0.  1.
        -13    1    3    3    0    0 -0.42683384253E+02  0.15308287613E+02 -0.53613946831E+02  0.70218731516E+02  0.00000000000E+00 0. -1.
         13    1    3    3    0    0 -0.15087175515E+03  0.83795435130E+02 -0.19170930954E+02  0.17364183265E+03  0.00000000000E+00 0.  1.
          1    1    1    2  501    0  0.19952297112E+03 -0.21044434591E+02 -0.31781927406E+02  0.20313142333E+03  0.00000000000E+00 0. -1.
<scales pt_clust_5="13000.00000" pt_clust_6="13000.00000" pt_clust_7="13000.00000" pt_clust_8="13000.00000" pt_clust_9="13000.00000"></scales>
<clustering>
<clus scale="   82.977">  7  8 -1 -1</clus>
<clus scale="   91.144">  5  6 -1 -1</clus>
<clus scale="  200.630">  5  9 -1 -1</clus>
<clus scale="  232.745">  2  7  1 -1</clus>
<clus scale="  383.866">  1  5  2 -1</clus>
</clustering>
</event>
<event>
 9    1  0.3303741E-006  0.2586441E+03  0.7546771E-02  0.1135661E+00
          2   -1    0    0  502    0 -0.00000000000E+00  0.00000000000E+00  0.15673547178E+03  0.15673547178E+03  0.00000000000E+00 0.  1.
         21   -1    0    0  501  502  0.00000000000E+00 -0.00000000000E+00 -0.24140916522E+03  0.24140916522E+03  0.00000000000E+00 0.  1.
         23    2    1    2    0    0  0.56014142966E+02 -0.74312340446E+02 -0.16744632921E+02  0.13072902272E+03  0.90276167924E+02 0.  0.
         23    2    1    2    0    0 -0.90349288950E+01 -0.64086418199E+02 -0.17143033152E+02  0.11268848827E+03  0.90642776129E+02 0.  0.
        -11    1    4    4    0    0 -0.47894725444E+02 -0.20655648777E+02 -0.15398350330E+02  0.54384462346E+02  0.00000000000E+00 0.  1.
         11    1    4    4    0    0  0.38859796549E+02 -0.43430769422E+02 -0.17446828222E+01  0.58304025921E+02  0.00000000000E+00 0. -1.
        -13    1    3    3    0    0  0.16302523040E+02 -0.34358784612E+02  0.36864532295E+02  0.52965008060E+02  0.00000000000E+00 0. -1.
         13    1    3    3    0    0  0.39711619926E+02 -0.39953555834E+02 -0.53609165216E+02  0.77764014661E+02  0.00000000000E+00 0.  1.
          2    1    1    2  501    0 -0.46979214071E+02  0.13839875865E+03 -0.50786027358E+02  0.15472712601E+03  0.00000000000E+00 0.  1.
<scales pt_clust_5="13000.00000" pt_clust_6="13000.00000" pt_clust_7="13000.00000" pt_clust_8="13000.00000" pt_clust_9="13000.00000"></scales>
<clustering>
<clus scale="   90.276">  7  8 -1 -1</clus>
<clus scale="   90.643">  5  6 -1 -1</clus>
<clus scale="  129.652">  1  7  2 -1</clus>
<clus scale="  101.255">  5  9 -1 -1</clus>
<clus scale="  258.644">  2  5  1 -1</clus>
</clustering>
</event>
<event>
 9    1  0.3303741E-006  0.2325507E+03  0.7546771E-02  0.1150334E+00
          1   -1    0    0  502    0 -0.00000000000E+00  0.00000000000E+00  0.31799741378E+03  0.31799741378E+03  0.00000000000E+00 0. -1.
         21   -1    0    0  501  502  0.00000000000E+00 -0.00000000000E+00 -0.10206579392E+03  0.10206579392E+03  0.00000000000E+00 0. -1.
         23    2    1    2    0    0  0.68664875746E+02 -0.51579589328E+02  0.53353634049E+02  0.13631787198E+03  0.91436495772E+02 0.  0.
         23    2    1    2    0    0 -0.11559867412E+03  0.84227752022E+02  0.89267750629E+02  0.19077719850E+03  0.89273963152E+02 0.  0.
        -13    1    4    4    0    0  0.14777692132E+02  0.14638830219E+02  0.10126264426E+02  0.23134752347E+02  0.00000000000E+00 0.  1.
         13    1    4    4    0    0 -0.13037636625E+03  0.69588921803E+02  0.79141486203E+02  0.16764244615E+03  0.00000000000E+00 0. -1.
        -13    1    3    3    0    0  0.29401689476E+02 -0.66835376546E+02  0.64881791951E+01  0.73304320278E+02  0.00000000000E+00 0.  1.
         13    1    3    3    0    0  0.39263186270E+02  0.15255787218E+02  0.46865454854E+02  0.63013551704E+02  0.00000000000E+00 0. -1.
          1    1    1    2  501    0  0.46933798370E+02 -0.32648162694E+02  0.73310235175E+02  0.92968137220E+02  0.00000000000E+00 0. -1.
<scales pt_clust_5="13000.00000" pt_clust_6="13000.00000" pt_clust_7="13000.00000" pt_clust_8="13000.00000" pt_clust_9="13000.00000"></scales>
<clustering>
<clus scale="   89.274">  5  6 -1 -1</clus>
<clus scale="   57.172">  5  9 -1 -1</clus>
<clus scale="   91.436">  7  8 -1 -1</clus>
<clus scale="  125.443">  1  7  2 -1</clus>
<clus scale="  232.551">  2  5  1 -1</clus>
</clustering>
</event>
<event>
 9    1  0.3303741E-006  0.2254652E+03  0.7546771E-02  0.1143174E+00
         21   -1    0    0  501  502  0.00000000000E+00  0.00000000000E+00  0.17628161122E+03  0.17628161122E+03  0.00000000000E+00 0. -1.
          3   -1    0    0  502    0 -0.00000000000E+00 -0.00000000000E+00 -0.34329484077E+03  0.34329484077E+03  0.00000000000E+00 0. -1.
         23    2    1    2    0    0  0.13469424011E+03  0.11939308148E+02 -0.23313917732E+03  0.28461429388E+03  0.91467671215E+02 0.  0.
         23    2    1    2    0    0 -0.80473613708E+02 -0.73172716873E+02  0.28226065702E+02  0.14481889584E+03  0.91353997227E+02 0.  0.
        -11    1    3    3    0    0  0.11673643553E+03  0.43821122016E+02 -0.19727668693E+03  0.23337904216E+03  0.00000000000E+00 0. -1.
         11    1    3    3    0    0  0.17957804579E+02 -0.31881813867E+02 -0.35862490392E+02  0.51235251711E+02  0.00000000000E+00 0.  1.
        -11    1    4    4    0    0 -0.72359427883E+02 -0.24675087246E+02 -0.16655306561E+02  0.78244143364E+02  0.00000000000E+00 0.  1.
         11    1    4    4    0    0 -0.81141858255E+01 -0.48497629627E+02  0.44881372263E+02  0.66574752476E+02  0.00000000000E+00 0. -1.
          3    1    1    2  501    0 -0.54220626406E+02  0.61233408725E+02  0.37899882073E+02  0.90143262272E+02  0.00000000000E+00 0. -1.
<scales pt_clust_5="13000.00000" pt_clust_6="13000.00000" pt_clust_7="13000.00000" pt_clust_8="13000.00000" pt_clust_9="13000.00000"></scales>
<clustering>
<clus scale="   91.354">  7  8 -1 -1</clus>
<clus scale="   81.789">  7  9 -1 -1</clus>
<clus scale="   91.468">  5  6 -1 -1</clus>
<clus scale="  163.253">  2  5  1 -1</clus>
<clus scale="  225.465">  1  5  2 -1</clus>
</clustering>
</event>
<event>
 9    1  0.3303741E-006  0.3290417E+03  0.7546771E-02  0.1115567E+00
         21   -1    0    0  501  502  0.00000000000E+00  0.00000000000E+00  0.27672803148E+03  0.27672803148E+03  0.00000000000E+00 0.  1.
         -1   -1    0    0    0  501 -0.00000000000E+00 -0.00000000000E+00 -0.27931411943E+03  0.27931411943E+03  0.00000000000E+00 0.  1.
         23    2    1    2    0    0 -0.31361004433E+01 -0.50231838756E+02 -0.16054700037E+03  0.19104887808E+03  0.90505589519E+02 0.  0.
         23    2    1    2    0    0  0.64476837507E+02  0.48621351817E+02 -0.65957377826E+02  0.13281945777E+03  0.82275963953E+02 0.  0.
        -11    1    4    4    0    0  0.28656918869E+02  0.24384566964E+01 -0.68526388146E+02  0.74317097242E+02  0.00000000000E+00 0.  1.
         11    1    4    4    0    0  0.35819918638E+02  0.46182895120E+02  0.25690103200E+01  0.58502360525E+02  0.00000000000E+00 0. -1.
        -13    1    3    3    0    0  0.28102903491E+02  0.14511035407E+02 -0.46495068057E+02  0.56232861272E+02  0.00000000000E+00 0.  1.
         13    1    3    3    0    0 -0.31239003934E+02 -0.64742874163E+02 -0.11405193232E+03  0.13481601680E+03  0.00000000000E+00 0. -1.
         -1    1    1    2    0  502 -0.61340737064E+02  0.16104869391E+01  0.22391829025E+03  0.23217381507E+03  0.00000000000E+00 0.  1.
<scales pt_clust_5="13000.00000" pt_clust_6="13000.00000" pt_clust_7="13000.00000" pt_clust_8="13000.00000" pt_clust_9="13000.00000"></scales>
<clustering>
<clus scale="   82.276">  5  6 -1 -1</clus>
<clus scale="   61.362">  5  9 -1 -1</clus>
<clus scale="   90.506">  7  8 -1 -1</clus>
<clus scale="  103.558">  2  7  1 -1</clus>
<clus scale="  329.042">  1  5  2 -1</clus>
</clustering>
</event>
<event>
 9    1  0.3303741E-006  0.1693506E+03  0.7546771E-02  0.1202187E+00
         21   -1    0    0  501  502  0.00000000000E+00  0.00000000000E+00  0.63808737036E+02  0.63808737036E+02  0.00000000000E+00 0. -1.
          2   -1    0    0  502    0 -0.00000000000E+00 -0.00000000000E+00 -0.34531503850E+03  0.34531503850E+03  0.00000000000E+00 0. -1.
         23    2    1    2    0    0 -0.40129898927E+02  0.13905161668E+02 -0.19410815353E+03  0.21855074956E+03  0.91009299292E+02 0.  0.
         23    2    1    2    0    0 -0.29676335721E+02  0.82367716455E+01 -0.59896651197E+02  0.11234574219E+03  0.89919006076E+02 0.  0.
        -13    1    3    3    0    0 -0.57025332044E+01 -0.26918755654E+02 -0.13943609660E+03  0.14212516782E+03  0.00000000000E+00 0. -1.
         13    1    3    3    0    0 -0.34427365722E+02  0.40823917323E+02 -0.54672056924E+02  0.76425581741E+02  0.00000000000E+00 0.  1.
        -13    1    4    4    0    0 -0.21380231928E+02 -0.40399120563E+02 -0.29055499980E+02  0.54161105404E+02  0.00000000000E+00 0.  1.
         13    1    4    4    0    0 -0.82961037926E+01  0.48635892208E+02 -0.30841151217E+02  0.58184636782E+02  0.00000000000E+00 0. -1.
          2    1    1    2  501    0  0.69806234647E+02 -0.22141933314E+02 -0.27501496739E+02  0.78227283792E+02  0.00000000000E+00 0. -1.
<scales pt_clust_5="13000.00000" pt_clust_6="13000.00000" pt_clust_7="13000.00000" pt_clust_8="13000.00000" pt_clust_9="13000.00000"></scales>
<clustering>
<clus scale="   89.919">  7  8 -1 -1</clus>
<clus scale="   73.234">  7  9 -1 -1</clus>
<clus scale="   91.009">  5  6 -1 -1</clus>
<clus scale="  100.431">  2  5  1 -1</clus>
<clus scale="  169.351">  1  5  2 -1</clus>
</clustering>
</event>
<event>
 9    1  0.3303741E-006  0.4687492E+03  0.7546771E-02  0.1054477E+00
         21   -1    0    0  501  502  0.00000000000E+00  0.00000000000E+00  0.13674803123E+03  0.13674803123E+03  0.00000000000E+00 0. -1.
          4   -1    0    0  502    0 -0.00000000000E+00 -0.00000000000E+00 -0.11553043143E+04  0.11553043143E+04  0.00000000000E+00 0. -1.
         23    2    1    2    0    0 -0.45494609324E+02  0.15196470757E+03 -0.70430761022E+03  0.72771373631E+03  0.91405909976E+02 0.  0.
         23    2    1    2    0    0  0.81342043253E+02 -0.60530900195E+02 -0.40702378368E+03  0.42923716271E+03  0.91080532997E+02 0.  0.
        -11    1    4    4    0    0  0.26645863711E+02  0.22309763730E+02 -0.14317105142E+03  0.14732846831E+03  0.00000000000E+00 0. -1.
         11    1    4    4    0    0  0.54696179541E+02 -0.82840663924E+02 -0.26385273227E+03  0.28190869441E+03  0.00000000000E+00 0.  1.
        -13    1    3    3    0    0  0.26107495023E+02  0.66335252996E+02 -0.25933478735E+03  0.26895445528E+03  0.00000000000E+00 0.  1.
         13    1    3    3    0    0 -0.71602104347E+02  0.85629454572E+02 -0.44497282287E+03  0.45875928103E+03  0.00000000000E+00 0. -1.
          4    1    1    2  501    0 -0.35847433929E+02 -0.91433807373E+02  0.92775110847E+02  0.13510144649E+03  0.00000000000E+00 0. -1.
<scales pt_clust_5="13000.00000" pt_clust_6="13000.00000" pt_clust_7="13000.00000" pt_clust_8="13000.00000" pt_clust_9="13000.00000"></scales>
<clustering>
<clus scale="   91.081">  5  6 -1 -1</clus>
<clus scale="   91.406">  7  8 -1 -1</clus>
<clus scale="   98.210">  5  9 -1 -1</clus>
<clus scale="  183.079">  2  7  1 -1</clus>
<clus scale="  468.749">  1  5  2 -1</clus>
</clustering>
</event>
<event>
 9    1  0.3303741E-006  0.1939099E+03  0.7546771E-02  0.1183157E+00
          1   -1    0    0  502    0 -0.00000000000E+00  0.00000000000E+00  0.84284822977E+02  0.84284822977E+02  0.00000000000E+00 0. -1.
         21   -1    0    0  501  502  0.00000000000E+00 -0.00000000000E+00 -0.28481695206E+03  0.28481695206E+03  0.00000000000E+00 0. -1.
         23    2    1    2    0    0  0.37138325877E+02 -0.19249687332E+02 -0.18907628625E+02  0.10341681105E+03  0.92670020379E+02 0.  0.
         23    2    1    2    0    0  0.38345884126E+02 -0.52227552905E+01 -0.39749400738E+02  0.10312632740E+03  0.86932965791E+02 0.  0.
        -13    1    4    4    0    0  0.22237436043E+01  0.36297328399E+02 -0.30199589956E+02  0.47270036155E+02  0.00000000000E+00 0.  1.
         13    1    4    4    0    0  0.36122140522E+02 -0.41520083690E+02 -0.95498107820E+01  0.55856291243E+02  0.00000000000E+00 0. -1.
        -13    1    3    3    0    0 -0.28596002524E+02 -0.14876794484E+01 -0.20648060048E+02  0.35302789327E+02  0.00000000000E+00 0.  1.
         13    1    3    3    0    0  0.65734328401E+02 -0.17762007883E+02  0.17404314225E+01  0.68114021727E+02  0.00000000000E+00 0. -1.
          1    1    1    2  501    0 -0.75484210003E+02  0.24472442622E+02 -0.14187509972E+03  0.16255863658E+03  0.00000000000E+00 0. -1.
<scales pt_clust_5="13000.00000" pt_clust_6="13000.00000" pt_clust_7="13000.00000" pt_clust_8="13000.00000" pt_clust_9="13000.00000"></scales>
<clustering>
<clus scale="   86.933">  5  6 -1 -1</clus>
<clus scale="   79.352">  5  9 -1 -1</clus>
<clus scale="   92.670">  7  8 -1 -1</clus>
<clus scale="  101.674">  1  7  2 -1</clus>
<clus scale="  193.910">  2  5  1 -1</clus>
</clustering>
</event>
<event>
 9    1  0.3303741E-006  0.1675720E+03  0.7546771E-02  0.1207601E+00
         21   -1    0    0  501  502  0.00000000000E+00  0.00000000000E+00  0.53997208677E+02  0.53997208677E+02  0.00000000000E+00 0.  1.
          1   -1    0    0  502    0 -0.00000000000E+00 -0.00000000000E+00 -0.31273082781E+03  0.31273082781E+03  0.00000000000E+00 0. -1.
         23    2    1    2    0    0  0.55335663908E+00  0.14586231071E+02 -0.87777415615E+02  0.12734050278E+03  0.91091517807E+02 0.  0.
         23    2    1    2    0    0 -0.45299646178E+02 -0.15890432392E+02 -0.16625739151E+03  0.19437631063E+03  0.88521557353E+02 0.  0.
        -11    1    4    4    0    0 -0.53674650877E+02 -0.34663724814E+02 -0.65347470012E+02  0.91393838970E+02  0.00000000000E+00 0.  1.
         11    1    4    4    0    0  0.83750046990E+01  0.18773292422E+02 -0.10090992150E+03  0.10298247166E+03  0.00000000000E+00 0. -1.
        -11    1    3    3    0    0  0.68585138965E+01  0.48236025448E+02 -0.22576100441E+02  0.53697613309E+02  0.00000000000E+00 0.  1.
         11    1    3    3    0    0 -0.63051572574E+01 -0.33649794377E+02 -0.65201315174E+02  0.73642889474E+02  0.00000000000E+00 0. -1.
          1    1    1    2  501    0  0.44746289539E+02  0.13042013205E+01 -0.46988120090E+01  0.45011223077E+02  0.00000000000E+00 0. -1.
<scales pt_clust_5="13000.00000" pt_clust_6="13000.00000" pt_clust_7="13000.00000" pt_clust_8="13000.00000" pt_clust_9="13000.00000"></scales>
<clustering>
<clus scale="   88.522">  5  6 -1 -1</clus>
<clus scale="   44.765">  5  9 -1 -1</clus>
<clus scale="   91.092">  7  8 -1 -1</clus>
<clus scale="   92.254">  2  7  1 -1</clus>
<clus scale="  167.572">  1  5  2 -1</clus>
</clustering>
</event>
<event>
 9    1  0.3303741E-006  0.1537050E+03  0.7546771E-02  0.1216415E+00
         21   -1    0    0  501  502  0.00000000000E+00  0.00000000000E+00  0.11004711469E+03  0.11004711469E+03  0.00000000000E+00 0. -1.
          2   -1    0    0  502    0 -0.00000000000E+00 -0.00000000000E+00 -0.27924004220E+03  0.27924004220E+03  0.00000000000E+00 0. -1.
         23    2    1    2    0    0  0.58846165112E+01 -0.42325642441E+02 -0.20831203747E+03  0.23068219805E+03  0.89410753395E+02 0.  0.
         23    2    1    2    0    0 -0.99118661199E+00 -0.17615233117E+02  0.24111195792E+02  0.96620350207E+02  0.91885055493E+02 0.  0.
        -11    1    4    4    0    0 -0.30368866110E+02  0.20338770736E+02 -0.98146295454E+01  0.37845218680E+02  0.00000000000E+00 0.  1.
         11    1    4    4    0    0  0.29377679498E+02 -0.37954003853E+02  0.33925825337E+02  0.58775131527E+02  0.00000000000E+00 0. -1.
        -11    1    3    3    0    0  0.22602763963E+02 -0.57914371310E+02 -0.85224533341E+02  0.10549019114E+03  0.00000000000E+00 0. -1.
         11    1    3    3    0    0 -0.16718147451E+02  0.15588728869E+02 -0.12308750413E+03  0.12519200691E+03  0.00000000000E+00 0.  1.
          2    1    1    2  501    0 -0.48934298992E+01  0.59940875558E+02  0.15007914172E+02  0.61984608627E+02  0.00000000000E+00 0. -1.
<scales pt_clust_5="13000.00000" pt_clust_6="13000.00000" pt_clust_7="13000.00000" pt_clust_8="13000.00000" pt_clust_9="13000.00000"></scales>
<clustering>
<clus scale="   89.411">  7  8 -1 -1</clus>
<clus scale="   91.885">  5  6 -1 -1</clus>
<clus scale="   60.140">  5  9 -1 -1</clus>
<clus scale="   99.098">  2  7  1 -1</clus>
<clus scale="  153.705">  1  5  2 -1</clus>
</clustering>
</event>
<event>
 9    1  0.3303741E-006  0.3657230E+03  0.7546771E-02  0.1102021E+00
          2   -1    0    0  502    0 -0.00000000000E+00  0.00000000000E+00  0.51830204552E+03  0.51830204552E+03  0.00000000000E+00 0. -1.
         21   -1    0    0  501  502  0.00000000000E+00 -0.00000000000E+00 -0.11294586583E+03  0.11294586583E+03  0.00000000000E+00 0. -1.
         23    2    1    2    0    0  0.14252726705E+02 -0.54586719674E+02  0.15474960449E+03  0.18790045824E+03  0.90422850717E+02 0.  0.
         23    2    1    2    0    0 -0.21686437187E+02 -0.55182973855E+02  0.30534216223E+03  0.32046283180E+03  0.77117626831E+02 0.  0.
        -13    1    4    4    0    0 -0.32101271627E+02  0.78399271100E+01  0.91512943669E+02  0.97296325502E+02  0.00000000000E+00 0.  1.
         13    1    4    4    0    0  0.10414834441E+02 -0.63022900965E+02  0.21382921856E+03  0.22316650630E+03  0.00000000000E+00 0. -1.
        -13    1    3    3    0    0  0.38262311265E+02 -0.11855955806E+02  0.20530509524E+02  0.45011887016E+02  0.00000000000E+00 0.  1.
         13    1    3    3    0    0 -0.24009584560E+02 -0.42730763868E+02  0.13421909497E+03  0.14288857122E+03  0.00000000000E+00 0. -1.
          2    1    1    2  501    0  0.74337104821E+01  0.10976969353E+03 -0.54735587033E+02  0.12288462132E+03  0.00000000000E+00 0. -1.
<scales pt_clust_5="13000.00000" pt_clust_6="13000.00000" pt_clust_7="13000.00000" pt_clust_8="13000.00000" pt_clust_9="13000.00000"></scales>
<clustering>
<clus scale="   77.118">  5  6 -1 -1</clus>
<clus scale="   90.423">  7  8 -1 -1</clus>
<clus scale="  106.579">  1  7  2 -1</clus>
<clus scale="  104.782">  5  9 -1 -1</clus>
<clus scale="  365.723">  2  5  1 -1</clus>
</clustering>
</event>
<event>
 9    1  0.3303741E-006  0.2826502E+03  0.7546771E-02  0.1115366E+00
         -2   -1    0    0    0  501 -0.00000000000E+00  0.00000000000E+00  0.14958322640E+03  0.14958322640E+03  0.00000000000E+00 0.  1.
         21   -1    0    0  501  502  0.00000000000E+00 -0.00000000000E+00 -0.61694722364E+03  0.61694722364E+03  0.00000000000E+00 0. -1.
         23    2    1    2    0    0  0.11784590150E+03  0.69607890720E+02  0.54518573663E+02  0.17302178205E+03  0.90726772454E+02 0.  0.
         23    2    1    2    0    0 -0.17502859067E+03 -0.85374040360E+02 -0.34009300634E+03  0.40228660545E+03  0.90815888742E+02 0.  0.
        -11    1    3    3    0    0  0.92347809714E+02  0.68045143321E+02  0.77681979080E+02  0.13853789865E+03  0.00000000000E+00 0.  1.
         11    1    3    3    0    0  0.25498091783E+02  0.15627473993E+01 -0.23163405416E+02  0.34483883402E+02  0.00000000000E+00 0. -1.
        -13    1    4    4    0    0 -0.15260977711E+01 -0.29110796824E+02 -0.25933096551E+02  0.39016572926E+02  0.00000000000E+00 0.  1.
         13    1    4    4    0    0 -0.17350249290E+03 -0.56263243536E+02 -0.31415990979E+03  0.36327003253E+03  0.00000000000E+00 0. -1.
         -2    1    1    2    0  502  0.57182689171E+02  0.15766149640E+02 -0.18178956456E+03  0.19122206253E+03  0.00000000000E+00 0.  1.
<scales pt_clust_5="13000.00000" pt_clust_6="13000.00000" pt_clust_7="13000.00000" pt_clust_8="13000.00000" pt_clust_9="13000.00000"></scales>
<clustering>
<clus scale="   90.727">  5  6 -1 -1</clus>
<clus scale="   90.816">  7  8 -1 -1</clus>
<clus scale="   59.316">  7  9 -1 -1</clus>
<clus scale="  164.208">  1  5  2 -1</clus>
<clus scale="  282.650">  2  5  1 -1</clus>
</clustering>
</event>
<event>
 9    1  0.4295935E-006  0.3017604E+03  0.7546771E-02  0.1109021E+00
         21   -1    0    0  501  502  0.00000000000E+00  0.00000000000E+00  0.22996283930E+03  0.22996283930E+03  0.00000000000E+00 0. -1.
          1   -1    0    0  502    0 -0.00000000000E+00 -0.00000000000E+00 -0.32667867776E+03  0.32667867776E+03  0.00000000000E+00 0. -1.
         23    2    1    2    0    0 -0.96268167299E+01 -0.11827811799E+03  0.10816668851E+03  0.19190027536E+03  0.10508708000E+03 0.  0.
         23    2    1    2    0    0  0.35016320427E+02  0.46531779531E+02 -0.25201014718E+03  0.27522489368E+03  0.94065289123E+02 0.  0.
        -11    1    3    3    0    0  0.22906887620E+02 -0.17355431613E-01  0.52351075734E+02  0.57143336725E+02  0.00000000000E+00 0.  1.
         11    1    3    3    0    0 -0.32533704350E+02 -0.11826076256E+03  0.55815612781E+02  0.13475693863E+03  0.00000000000E+00 0. -1.
        -13    1    4    4    0    0  0.32712530703E+02 -0.22097668760E+02 -0.65513810874E+02  0.76488404643E+02  0.00000000000E+00 0.  1.
         13    1    4    4    0    0  0.23037897240E+01  0.68629448291E+02 -0.18649633630E+03  0.19873648903E+03  0.00000000000E+00 0. -1.
          1    1    1    2  501    0 -0.25389503697E+02  0.71746338455E+02  0.47127620201E+02  0.89516348035E+02  0.00000000000E+00 0. -1.
<scales pt_clust_5="13000.00000" pt_clust_6="13000.00000" pt_clust_7="13000.00000" pt_clust_8="13000.00000" pt_clust_9="13000.00000"></scales>
<clustering>
<clus scale="   94.065">  7  8 -1 -1</clus>
<clus scale="   76.106">  7  9 -1 -1</clus>
<clus scale="  105.087">  5  6 -1 -1</clus>
<clus scale="  158.511">  2  5  1 -1</clus>
<clus scale="  301.760">  1  5  2 -1</clus>
</clustering>
</event>
<event>
 9    1  0.3303741E-006  0.1745338E+03  0.7546771E-02  0.1195132E+00
         21   -1    0    0  501  502  0.00000000000E+00  0.00000000000E+00  0.27634779447E+02  0.27634779447E+02  0.00000000000E+00 0.  1.
          1   -1    0    0  502    0 -0.00000000000E+00 -0.00000000000E+00 -0.73099862547E+03  0.73099862547E+03  0.00000000000E+00 0. -1.
         23    2    1    2    0    0  0.31794460731E+02 -0.38650901650E+02 -0.32002860668E+03  0.33743517305E+03  0.94548437234E+02 0.  0.
         23    2    1    2    0    0  0.76631812076E+01  0.67839065190E+02 -0.16845955000E+03  0.20078857630E+03  0.85302809299E+02 0.  0.
        -11    1    4    4    0    0  0.44467450677E+02  0.28700483097E+02 -0.10543296501E+03  0.11797110667E+03  0.00000000000E+00 0.  1.
         11    1    4    4    0    0 -0.36804269470E+02  0.39138582092E+02 -0.63026584996E+02  0.82817469628E+02  0.00000000000E+00 0. -1.
        -13    1    3    3    0    0 -0.75623617834E+00  0.26905201949E+02 -0.14886897338E+03  0.15128262630E+03  0.00000000000E+00 0.  1.
         13    1    3    3    0    0  0.32550696909E+02 -0.65556103599E+02 -0.17115963330E+03  0.18615254674E+03  0.00000000000E+00 0. -1.
          1    1    1    2  501    0 -0.39457641939E+02 -0.29188163539E+02 -0.21487568934E+03  0.22040965557E+03  0.00000000000E+00 0. -1.
<scales pt_clust_5="13000.00000" pt_clust_6="13000.00000" pt_clust_7="13000.00000" pt_clust_8="13000.00000" pt_clust_9="13000.00000"></scales>
<clustering>
<clus scale="   85.303">  5  6 -1 -1</clus>
<clus scale="   49.080">  5  9 -1 -1</clus>
<clus scale="   94.548">  7  8 -1 -1</clus>
<clus scale="  106.978">  2  7  1 -1</clus>
<clus scale="  174.534">  1  5  2 -1</clus>
</clustering>
</event>
<event>
 9    1  0.3303741E-006  0.2645198E+03  0.7546771E-02  0.1144465E+00
         -2   -1    0    0    0  501 -0.00000000000E+00  0.00000000000E+00  0.74495185767E+03  0.74495185767E+03  0.00000000000E+00 0.  1.
         21   -1    0    0  501  502  0.00000000000E+00 -0.00000000000E+00 -0.48013902976E+02  0.48013902976E+02  0.00000000000E+00 0.  1.
         23    2    1    2    0    0 -0.43393619523E+01 -0.50914617178E+02  0.30299145697E+03  0.31845065033E+03  0.83641290015E+02 0.  0.
         23    2    1    2    0    0  0.32237194988E+02 -0.79867465738E+02  0.13962097331E+03  0.18717608639E+03  0.90126701398E+02 0.  0.
        -11    1    4    4    0    0 -0.41798886662E+01 -0.85853478910E+02  0.82304158109E+02  0.11900531817E+03  0.00000000000E+00 0.  1.
         11    1    4    4    0    0  0.36417083654E+02  0.59860131720E+01  0.57316815196E+02  0.68170768220E+02  0.00000000000E+00 0. -1.
        -13    1    3    3    0    0  0.27746229028E+02  0.87548869490E+01  0.69909172337E+02  0.75721817514E+02  0.00000000000E+00 0.  1.
         13    1    3    3    0    0 -0.32085590980E+02 -0.59669504127E+02  0.23308228463E+03  0.24272883282E+03  0.00000000000E+00 0. -1.
         -2    1    1    2    0  502 -0.27897833035E+02  0.13078208292E+03  0.25432552442E+03  0.28733902393E+03  0.00000000000E+00 0.  1.
<scales pt_clust_5="13000.00000" pt_clust_6="13000.00000" pt_clust_7="13000.00000" pt_clust_8="13000.00000" pt_clust_9="13000.00000"></scales>
<clustering>
<clus scale="   83.641">  7  8 -1 -1</clus>
<clus scale="   90.127">  5  6 -1 -1</clus>
<clus scale="   98.015">  1  7  2 -1</clus>
<clus scale="  103.648">  5  9 -1 -1</clus>
<clus scale="  264.520">  2  5  1 -1</clus>
</clustering>
</event>
<event>
 9    1  0.3303741E-006  0.2708269E+03  0.7546771E-02  0.1114963E+00
         21   -1    0    0  501  502  0.00000000000E+00  0.00000000000E+00  0.16483706619E+03  0.16483706619E+03  0.00000000000E+00 0.  1.
          2   -1    0    0  502    0 -0.00000000000E+00 -0.00000000000E+00 -0.35431615184E+03  0.35431615184E+03  0.00000000000E+00 0. -1.
         23    2    1    2    0    0 -0.37412327939E+02  0.16094680047E+03 -0.15892285812E+03  0.24660797127E+03  0.90859571880E+02 0.  0.
         23    2    1    2    0    0 -0.19281950465E+02 -0.54437669437E+02 -0.88029726237E+02  0.13889780290E+03  0.90598639513E+02 0.  0.
        -11    1    4    4    0    0 -0.48562730588E+02 -0.60239398936E+02 -0.67371140092E+02  0.10259626944E+03  0.00000000000E+00 0. -1.
         11    1    4    4    0    0  0.29280780123E+02  0.58017294990E+01 -0.20658586145E+02  0.36301533457E+02  0.00000000000E+00 0.  1.
        -11    1    3    3    0    0  0.20472377730E+02  0.78013287746E+02 -0.38569127216E+02  0.89402286823E+02  0.00000000000E+00 0.  1.
         11    1    3    3    0    0 -0.57884705669E+02  0.82933512719E+02 -0.12035373090E+03  0.15720568445E+03  0.00000000000E+00 0. -1.
          2    1    1    2  501    0  0.56694278404E+02 -0.10650913103E+03  0.57473498696E+02  0.13364744385E+03  0.00000000000E+00 0. -1.
<scales pt_clust_5="13000.00000" pt_clust_6="13000.00000" pt_clust_7="13000.00000" pt_clust_8="13000.00000" pt_clust_9="13000.00000"></scales>
<clustering>
<clus scale="   90.599">  5  6 -1 -1</clus>
<clus scale="   90.860">  7  8 -1 -1</clus>
<clus scale="  120.658">  5  9 -1 -1</clus>
<clus scale="  188.571">  2  7  1 -1</clus>
<clus scale="  270.827">  1  5  2 -1</clus>
</clustering>
</event>
<event>
 9    1  0.3303741E-006  0.8483614E+03  0.7546771E-02  0.1016385E+00
          1   -1    0    0  502    0 -0.00000000000E+00  0.00000000000E+00  0.57357324171E+03  0.57357324171E+03  0.00000000000E+00 0. -1.
         21   -1    0    0  501  502  0.00000000000E+00 -0.00000000000E+00 -0.41365795789E+03  0.41365795789E+03  0.00000000000E+00 0. -1.
         23    2    1    2    0    0 -0.11846111621E+01 -0.38162708813E+02  0.98705223815E+02  0.13666449030E+03  0.86467716822E+02 0.  0.
         23    2    1    2    0    0  0.40540780747E+02  0.22411731119E+03  0.39613179716E+03  0.46546855006E+03  0.88704263130E+02 0.  0.
        -13    1    3    3    0    0  0.35326974083E+02 -0.36772861897E+02  0.81829923843E+02  0.96417710542E+02  0.00000000000E+00 0.  1.
         13    1    3    3    0    0 -0.36511585245E+02 -0.13898469161E+01  0.16875299972E+02  0.40246779756E+02  0.00000000000E+00 0. -1.
        -13    1    4    4    0    0 -0.11004489687E+02  0.63058980880E+02  0.17999500151E+03  0.19103856792E+03  0.00000000000E+00 0.  1.
         13    1    4    4    0    0  0.51545270435E+02  0.16105833031E+03  0.21613679564E+03  0.27442998214E+03  0.00000000000E+00 0. -1.
          1    1    1    2  501    0 -0.39356169585E+02 -0.18595460238E+03 -0.33492173715E+03  0.38509815924E+03  0.00000000000E+00 0. -1.
<scales pt_clust_5="13000.00000" pt_clust_6="13000.00000" pt_clust_7="13000.00000" pt_clust_8="13000.00000" pt_clust_9="13000.00000"></scales>
<clustering>
<clus scale="   86.468">  5  6 -1 -1</clus>
<clus scale="   88.704">  7  8 -1 -1</clus>
<clus scale="   94.522">  1  5  2 -1</clus>
<clus scale="  192.142">  7  9 -1 -1</clus>
<clus scale="  848.361">  2  5  1 -1</clus>
</clustering>
</event>
<event>
 9    1  0.3303741E-006  0.3803253E+03  0.7546771E-02  0.1093802E+00
         21   -1    0    0  501  502  0.00000000000E+00  0.00000000000E+00  0.14271792216E+03  0.14271792216E+03  0.00000000000E+00 0. -1.
          1   -1    0    0  502    0 -0.00000000000E+00 -0.00000000000E+00 -0.54671210004E+03  0.54671210004E+03  0.00000000000E+00 0. -1.
         23    2    1    2    0    0 -0.77459321299E+02  0.18227459877E+02 -0.25543765748E+03  0.28112084252E+03  0.86303791871E+02 0.  0.
         23    2    1    2    0    0  0.60646373514E+02 -0.47786020978E+01 -0.26631751914E+03  0.28859619036E+03  0.93069449493E+02 0.  0.
        -11    1    4    4    0    0 -0.18206087904E+02 -0.91773506478E+01 -0.15420609203E+02  0.25563266417E+02  0.00000000000E+00 0.  1.
         11    1    4    4    0    0  0.78852461418E+02  0.43987485500E+01 -0.25089690994E+03  0.26303292394E+03  0.00000000000E+00 0. -1.
        -13    1    3    3    0    0 -0.95684457836E+02  0.70763270937E+01 -0.20482924049E+03  0.22618710758E+03  0.00000000000E+00 0.  1.
         13    1    3    3    0    0  0.18225136537E+02  0.11151132783E+02 -0.50608416993E+02  0.54933734942E+02  0.00000000000E+00 0. -1.
          1    1    1    2  501    0  0.16812947785E+02 -0.13448857779E+02  0.11776099874E+03  0.11971298932E+03  0.00000000000E+00 0. -1.
<scales pt_clust_5="13000.00000" pt_clust_6="13000.00000" pt_clust_7="13000.00000" pt_clust_8="13000.00000" pt_clust_9="13000.00000"></scales>
<clustering>
<clus scale="   86.304">  7  8 -1 -1</clus>
<clus scale="   93.069">  5  6 -1 -1</clus>
<clus scale="   21.530">  5  9 -1 -1</clus>
<clus scale="  117.391">  2  7  1 -1</clus>
<clus scale="  380.325">  1  5  2 -1</clus>
</clustering>
</event>
<event>
 9    1  0.3303741E-006  0.1809903E+03  0.7546771E-02  0.1175443E+00
         -2   -1    0    0    0  501 -0.00000000000E+00  0.00000000000E+00  0.19284139911E+03  0.19284139911E+03  0.00000000000E+00 0.  1.
         21   -1    0    0  501  502  0.00000000000E+00 -0.00000000000E+00 -0.14098978108E+03  0.14098978108E+03  0.00000000000E+00 0.  1.
         23    2    1    2    0    0 -0.11061109626E+03 -0.41580378549E+02  0.26114342381E+02  0.15102006215E+03  0.90340233550E+02 0.  0.
         23    2    1    2    0    0  0.37630419005E+02  0.29411434750E+01  0.17944837040E+02  0.99866004616E+02  0.90700071345E+02 0.  0.
        -11    1    3    3    0    0 -0.87171816302E+02 -0.26414912400E+02  0.58506451974E+02  0.10825746199E+03  0.00000000000E+00 0.  1.
         11    1    3    3    0    0 -0.23439279961E+02 -0.15165466149E+02 -0.32392109593E+02  0.42762600160E+02  0.00000000000E+00 0. -1.
        -13    1    4    4    0    0  0.63260524535E+02  0.19605340845E+02  0.20119768932E+02  0.69217544423E+02  0.00000000000E+00 0.  1.
         13    1    4    4    0    0 -0.25630105530E+02 -0.16664197370E+02 -0.21749318923E+01  0.30648460193E+02  0.00000000000E+00 0. -1.
         -2    1    1    2    0  502  0.72980677258E+02  0.38639235074E+02  0.77924386086E+01  0.82945113416E+02  0.00000000000E+00 0.  1.
<scales pt_clust_5="13000.00000" pt_clust_6="13000.00000" pt_clust_7="13000.00000" pt_clust_8="13000.00000" pt_clust_9="13000.00000"></scales>
<clustering>
<clus scale="   90.340">  5  6 -1 -1</clus>
<clus scale="   90.700">  7  8 -1 -1</clus>
<clus scale="   82.578">  7  9 -1 -1</clus>
<clus scale="  148.745">  1  5  2 -1</clus>
<clus scale="  180.990">  2  5  1 -1</clus>
</clustering>
</event>
<event>
 9    1  0.3303741E-006  0.1856550E+03  0.7546771E-02  0.1189043E+00
         21   -1    0    0  501  502  0.00000000000E+00  0.00000000000E+00  0.39765495602E+02  0.39765495602E+02  0.00000000000E+00 0. -1.
          1   -1    0    0  502    0 -0.00000000000E+00 -0.00000000000E+00 -0.72246230919E+03  0.72246230919E+03  0.00000000000E+00 0. -1.
         23    2    1    2    0    0 -0.21965339904E+02  0.43008596311E+02 -0.46564453330E+03  0.47660660309E+03  0.89424869023E+02 0.  0.
         23    2    1    2    0    0  0.83884677894E+01  0.25817798957E+02 -0.14067523594E+03  0.18191557483E+03  0.11210186985E+03 0.  0.
        -11    1    4    4    0    0  0.31881451931E+02  0.61652550789E+02 -0.65766561389E+02  0.95617491041E+02  0.00000000000E+00 0. -1.
         11    1    4    4    0    0 -0.23492984142E+02 -0.35834751832E+02 -0.74908674555E+02  0.86298083793E+02  0.00000000000E+00 0.  1.
        -11    1    3    3    0    0  0.33579030850E+02  0.28671565146E+02 -0.19147590081E+03  0.19650096832E+03  0.00000000000E+00 0.  1.
         11    1    3    3    0    0 -0.55544370753E+02  0.14337031165E+02 -0.27416863249E+03  0.28010563477E+03  0.00000000000E+00 0. -1.
          1    1    1    2  501    0  0.13576872114E+02 -0.68826395268E+02 -0.76377044344E+02  0.10370562687E+03  0.00000000000E+00 0. -1.
<scales pt_clust_5="13000.00000" pt_clust_6="13000.00000" pt_clust_7="13000.00000" pt_clust_8="13000.00000" pt_clust_9="13000.00000"></scales>
<clustering>
<clus scale="   89.425">  7  8 -1 -1</clus>
<clus scale="  101.632">  2  7  1 -1</clus>
<clus scale="  112.102">  5  6 -1 -1</clus>
<clus scale="   53.723">  5  9 -1 -1</clus>
<clus scale="  185.655">  1  5  2 -1</clus>
</clustering>
</event>
<event>
 9    1  0.3303741E-006  0.2432092E+03  0.7546771E-02  0.1129843E+00
         21   -1    0    0  501  502  0.00000000000E+00  0.00000000000E+00  0.47148337275E+02  0.47148337275E+02  0.00000000000E+00 0. -1.
          4   -1    0    0  502    0 -0.00000000000E+00 -0.00000000000E+00 -0.98294157557E+03  0.98294157557E+03  0.00000000000E+00 0. -1.
         23    2    1    2    0    0  0.12139129676E+03 -0.98631001181E+02 -0.49535043428E+03  0.52695912277E+03  0.88599904122E+02 0.  0.
         23    2    1    2    0    0 -0.80251936008E+02  0.12880490191E+03 -0.40585649226E+03  0.44149375373E+03  0.84653211917E+02 0.  0.
        -11    1    4    4    0    0 -0.98196547492E+02  0.10282867798E+03 -0.33452121067E+03  0.36348416656E+03  0.00000000000E+00 0. -1.
         11    1    4    4    0    0  0.17944611484E+02  0.25976223930E+02 -0.71335281590E+02  0.78009587170E+02  0.00000000000E+00 0.  1.
        -13    1    3    3    0    0  0.43859767264E+02 -0.34290950025E+02 -0.67954178714E+02  0.87848271712E+02  0.00000000000E+00 0. -1.
         13    1    3    3    0    0  0.77531529495E+02 -0.64340051155E+02 -0.42739625556E+03  0.43911085106E+03  0.00000000000E+00 0.  1.
          4    1    1    2  501    0 -0.41139360751E+02 -0.30173900728E+02 -0.34586311767E+02  0.61637036348E+02  0.00000000000E+00 0. -1.
<scales pt_clust_5="13000.00000" pt_clust_6="13000.00000" pt_clust_7="13000.00000" pt_clust_8="13000.00000" pt_clust_9="13000.00000"></scales>
<clustering>
<clus scale="   84.653">  5  6 -1 -1</clus>
<clus scale="   51.019">  5  9 -1 -1</clus>
<clus scale="   88.600">  7  8 -1 -1</clus>
<clus scale="  179.761">  2  7  1 -1</clus>
<clus scale="  243.209">  1  5  2 -1</clus>
</clustering>
</event>
<event>
 9    1  0.3303741E-006  0.1532660E+03  0.7546771E-02  0.1211063E+00
         21   -1    0    0  501  502  0.00000000000E+00  0.00000000000E+00  0.12603038016E+03  0.12603038016E+03  0.00000000000E+00 0. -1.
          3   -1    0    0  502    0 -0.00000000000E+00 -0.00000000000E+00 -0.22773744701E+03  0.22773744701E+03  0.00000000000E+00 0. -1.
         23    2    1    2    0    0  0.23193374865E+02  0.28408169669E+02 -0.15525203079E+03  0.19141783616E+03  0.10579526547E+03 0.  0.
         23    2    1    2    0    0  0.14391045530E+02 -0.49000511505E+02  0.20285590893E+02  0.10810223443E+03  0.93093692439E+02 0.  0.
        -11    1    3    3    0    0 -0.38930393179E+02  0.25399018928E+02 -0.44244814804E+02  0.64173898998E+02  0.00000000000E+00 0. -1.
         11    1    3    3    0    0  0.62123768044E+02  0.30091507418E+01 -0.11100721598E+03  0.12724393716E+03  0.00000000000E+00 0.  1.
        -13    1    4    4    0    0 -0.12117788407E+02 -0.65845436713E+02 -0.58994324496E+01  0.67210606567E+02  0.00000000000E+00 0. -1.
         13    1    4    4    0    0  0.26508833937E+02  0.16844925208E+02  0.26185023342E+02  0.40891627865E+02  0.00000000000E+00 0.  1.
          3    1    1    2  501    0 -0.37584420396E+02  0.20592341836E+02  0.33259373044E+02  0.54247756581E+02  0.00000000000E+00 0. -1.
<scales pt_clust_5="13000.00000" pt_clust_6="13000.00000" pt_clust_7="13000.00000" pt_clust_8="13000.00000" pt_clust_9="13000.00000"></scales>
<clustering>
<clus scale="   93.094">  7  8 -1 -1</clus>
<clus scale="   42.856">  7  9 -1 -1</clus>
<clus scale="  105.795">  5  6 -1 -1</clus>
<clus scale="  111.971">  2  5  1 -1</clus>
<clus scale="  153.266">  1  5  2 -1</clus>
</clustering>
</event>
<event>
 9    1  0.3303741E-006  0.3158335E+03  0.7546771E-02  0.1117030E+00
         21   -1    0    0  501  502  0.00000000000E+00  0.00000000000E+00  0.77216608980E+02  0.77216608980E+02  0.00000000000E+00 0. -1.
          1   -1    0    0  502    0 -0.00000000000E+00 -0.00000000000E+00 -0.68540700941E+03  0.68540700941E+03  0.00000000000E+00 0. -1.
         23    2    1    2    0    0 -0.52860768066E+02 -0.36726870414E+02 -0.30337075060E+03  0.32368647778E+03  0.92714614640E+02 0.  0.
         23    2    1    2    0    0 -0.38960570207E+01  0.76693530759E+02 -0.34061833159E+03  0.36083325627E+03  0.91009417620E+02 0.  0.
        -13    1    4    4    0    0  0.41531409973E+02  0.41081730927E+02 -0.21111757995E+03  0.21905067723E+03  0.00000000000E+00 0.  1.
         13    1    4    4    0    0 -0.45427466994E+02  0.35611799831E+02 -0.12950075165E+03  0.14178257905E+03  0.00000000000E+00 0. -1.
        -13    1    3    3    0    0  0.20832465544E+02 -0.29454704331E+02 -0.68516400007E+02  0.77434283737E+02  0.00000000000E+00 0.  1.
         13    1    3    3    0    0 -0.73693233610E+02 -0.72721660827E+01 -0.23485435059E+03  0.24625219405E+03  0.00000000000E+00 0. -1.
          1    1    1    2  501    0  0.56756825087E+02 -0.39966660345E+02  0.35798681760E+02  0.78103884339E+02  0.00000000000E+00 0. -1.
<scales pt_clust_5="13000.00000" pt_clust_6="13000.00000" pt_clust_7="13000.00000" pt_clust_8="13000.00000" pt_clust_9="13000.00000"></scales>
<clustering>
<clus scale="   91.009">  5  6 -1 -1</clus>
<clus scale="   69.417">  5  9 -1 -1</clus>
<clus scale="   92.715">  7  8 -1 -1</clus>
<clus scale="  112.868">  2  7  1 -1</clus>
<clus scale="  315.833">  1  5  2 -1</clus>
</clustering>
</event>
<event>
 9    1  0.3303741E-006  0.4522296E+03  0.7546771E-02  0.1084326E+00
         21   -1    0    0  501  502  0.00000000000E+00  0.00000000000E+00  0.13657440949E+03  0.13657440949E+03  0.00000000000E+00 0. -1.
          2   -1    0    0  502    0 -0.00000000000E+00 -0.00000000000E+00 -0.57778590548E+03  0.57778590548E+03  0.00000000000E+00 0. -1.
         23    2    1    2    0    0  0.24349490295E+01  0.26319539082E+02 -0.11406668370E+02  0.90466238059E+02  0.85763518065E+02 0.  0.
         23    2    1    2    0    0 -0.12608738304E+03 -0.41394001781E+02 -0.46624633736E+03  0.49410521955E+03  0.95618143385E+02 0.  0.
        -11    1    3    3    0    0 -0.33092041350E+01 -0.22830853384E+02  0.21096688115E+02  0.31261301119E+02  0.00000000000E+00 0. -1.
         11    1    3    3    0    0  0.57441531644E+01  0.49150392466E+02 -0.32503356485E+02  0.59204936939E+02  0.00000000000E+00 0.  1.
        -11    1    4    4    0    0 -0.24125832380E+02 -0.36559683484E+02 -0.26346539943E+03  0.26708179073E+03  0.00000000000E+00 0. -1.
         11    1    4    4    0    0 -0.10196155066E+03 -0.48343182970E+01 -0.20278093793E+03  0.22702342882E+03  0.00000000000E+00 0.  1.
          2    1    1    2  501    0  0.12365243401E+03  0.15074462699E+02  0.36441509737E+02  0.12978885736E+03  0.00000000000E+00 0. -1.
<scales pt_clust_5="13000.00000" pt_clust_6="13000.00000" pt_clust_7="13000.00000" pt_clust_8="13000.00000" pt_clust_9="13000.00000"></scales>
<clustering>
<clus scale="   85.764">  5  6 -1 -1</clus>
<clus scale="   89.744">  2  5  1 -1</clus>
<clus scale="   95.618">  7  8 -1 -1</clus>
<clus scale="  125.085">  7  9 -1 -1</clus>
<clus scale="  452.230">  1  5  2 -1</clus>
</clustering>
</event>
<event>
 9    1  0.3303741E-006  0.2184550E+03  0.7546771E-02  0.1159894E+00
          2   -1    0    0  502    0 -0.00000000000E+00  0.00000000000E+00  0.91787634728E+02  0.91787634728E+02  0.00000000000E+00 0. -1.
         21   -1    0    0  501  502  0.00000000000E+00 -0.00000000000E+00 -0.32332431499E+03  0.32332431499E+03  0.00000000000E+00 0. -1.
         23    2    1    2    0    0  0.29687389522E+02  0.73859951374E+02 -0.49072243783E+02  0.13047911199E+03  0.90994945139E+02 0.  0.
         23    2    1    2    0    0 -0.32491054268E+02 -0.10112181249E+03 -0.56826953707E+02  0.15604105462E+03  0.99187794060E+02 0.  0.
        -11    1    3    3    0    0 -0.40654814609E+00  0.87752560992E+02 -0.35509129287E+02  0.94665598317E+02  0.00000000000E+00 0.  1.
         11    1    3    3    0    0  0.30093937669E+02 -0.13892609618E+02 -0.13563114497E+02  0.35813513668E+02  0.00000000000E+00 0. -1.
        -11    1    4    4    0    0 -0.57506347970E+02 -0.86643207100E+02 -0.68871199750E+02  0.12472877594E+03  0.00000000000E+00 0.  1.
         11    1    4    4    0    0  0.25015293703E+02 -0.14478605388E+02  0.12044246043E+02  0.31312278674E+02  0.00000000000E+00 0. -1.
          2    1    1    2  501    0  0.28036647451E+01  0.27261861113E+02 -0.12563748278E+03  0.12859178312E+03  0.00000000000E+00 0. -1.
<scales pt_clust_5="13000.00000" pt_clust_6="13000.00000" pt_clust_7="13000.00000" pt_clust_8="13000.00000" pt_clust_9="13000.00000"></scales>
<clustering>
<clus scale="   90.995">  5  6 -1 -1</clus>
<clus scale="   99.188">  7  8 -1 -1</clus>
<clus scale="   27.406">  7  9 -1 -1</clus>
<clus scale="  120.900">  1  5  2 -1</clus>
<clus scale="  218.455">  2  5  1 -1</clus>
</clustering>
</event>
<event>
 9    1  0.3303741E-006  0.3475799E+03  0.7546771E-02  0.1078342E+00
         21   -1    0    0  501  502  0.00000000000E+00  0.00000000000E+00  0.13602922744E+04  0.13602922744E+04  0.00000000000E+00 0.  1.
          1   -1    0    0  502    0 -0.00000000000E+00 -0.00000000000E+00 -0.18245298936E+03  0.18245298936E+03  0.00000000000E+00 0. -1.
         23    2    1    2    0    0  0.17208491613E+03 -0.12663073239E+03 -0.73918060549E+02  0.24362700361E+03  0.90783679527E+02 0.  0.
         23    2    1    2    0    0 -0.49521291037E+02  0.14941518499E+03  0.42046428495E+03  0.45852970078E+03  0.93177335292E+02 0.  0.
        -13    1    4    4    0    0 -0.70638665590E+02  0.12321716194E+03  0.27841774817E+03  0.31255196779E+03  0.00000000000E+00 0.  1.
         13    1    4    4    0    0  0.21117374552E+02  0.26198023051E+02  0.14204653677E+03  0.14597773299E+03  0.00000000000E+00 0. -1.
        -13    1    3    3    0    0  0.25885112544E+02 -0.77277899106E+01  0.19479590099E+02  0.33304837768E+02  0.00000000000E+00 0.  1.
         13    1    3    3    0    0  0.14619980359E+03 -0.11890294248E+03 -0.93397650648E+02  0.21032216585E+03  0.00000000000E+00 0. -1.
          1    1    1    2  501    0 -0.12256362509E+03 -0.22784452600E+02  0.83129306065E+03  0.84058855938E+03  0.00000000000E+00 0. -1.
<scales pt_clust_5="13000.00000" pt_clust_6="13000.00000" pt_clust_7="13000.00000" pt_clust_8="13000.00000" pt_clust_9="13000.00000"></scales>
<clustering>
<clus scale="   90.784">  7  8 -1 -1</clus>
<clus scale="   93.177">  5  6 -1 -1</clus>
<clus scale="  124.664">  5  9 -1 -1</clus>
<clus scale="  232.143">  2  7  1 -1</clus>
<clus scale="  347.580">  1  5  2 -1</clus>
</clustering>
</event>
<event>
 9    1  0.3303741E-006  0.3249527E+03  0.7546771E-02  0.1107343E+00
         21   -1    0    0  501  502  0.00000000000E+00  0.00000000000E+00  0.49229074048E+02  0.49229074048E+02  0.00000000000E+00 0. -1.
          1   -1    0    0  502    0 -0.00000000000E+00 -0.00000000000E+00 -0.11157666016E+04  0.11157666016E+04  0.00000000000E+00 0. -1.
         23    2    1    2    0    0 -0.14425260234E+02 -0.95157845133E+02 -0.20375621516E+03  0.24304890795E+03  0.91066309993E+02 0.  0.
         23    2    1    2    0    0 -0.79621226973E+02 -0.65020095110E+02 -0.46701689890E+03  0.48476124039E+03  0.79508010752E+02 0.  0.
        -13    1    4    4    0    0 -0.93934294792E+02 -0.42896785709E+02 -0.38549700831E+03  0.39908862347E+03  0.00000000000E+00 0. -1.
         13    1    4    4    0    0  0.14313067819E+02 -0.22123309401E+02 -0.81519890593E+02  0.85672616930E+02  0.00000000000E+00 0.  1.
        -13    1    3    3    0    0  0.94633966193E+01 -0.69009521151E+02 -0.19427435545E+03  0.20638409598E+03  0.00000000000E+00 0. -1.
         13    1    3    3    0    0 -0.23888656853E+02 -0.26148323982E+02 -0.94818597019E+01  0.36664811969E+02  0.00000000000E+00 0.  1.
          1    1    1    2  501    0  0.94046487206E+02  0.16017794024E+03 -0.39576441345E+03  0.43718552726E+03  0.00000000000E+00 0. -1.
<scales pt_clust_5="13000.00000" pt_clust_6="13000.00000" pt_clust_7="13000.00000" pt_clust_8="13000.00000" pt_clust_9="13000.00000"></scales>
<clustering>
<clus scale="   79.508">  5  6 -1 -1</clus>
<clus scale="   91.066">  7  8 -1 -1</clus>
<clus scale="  132.500">  2  7  1 -1</clus>
<clus scale="  145.003">  5  9 -1 -1</clus>
<clus scale="  324.953">  1  5  2 -1</clus>
</clustering>
</event>
<event>
 9    1  0.3303741E-006  0.1797631E+03  0.7546771E-02  0.1190474E+00
          2   -1    0    0  502    0 -0.00000000000E+00  0.00000000000E+00  0.10559688342E+04  0.10559688342E+04  0.00000000000E+00 0. -1.
         21   -1    0    0  501  502  0.00000000000E+00 -0.00000000000E+00 -0.20768873376E+02  0.20768873376E+02  0.00000000000E+00 0. -1.
         23    2    1    2    0    0 -0.45818130842E+02 -0.37245878281E+02  0.51661279064E+03  0.52787759266E+03  0.90991322734E+02 0.  0.
         23    2    1    2    0    0 -0.20550304871E+02 -0.14561529655E+02  0.31938047079E+03  0.33259156460E+03  0.89324747655E+02 0.  0.
        -11    1    4    4    0    0 -0.41201573189E+02  0.23780036673E+02  0.13495526252E+03  0.14309431386E+03  0.00000000000E+00 0.  1.
         11    1    4    4    0    0  0.20651268318E+02 -0.38341566327E+02  0.18442520828E+03  0.18949725074E+03  0.00000000000E+00 0. -1.
        -11    1    3    3    0    0 -0.63699276555E+01 -0.61704987180E+02  0.30081724594E+03  0.30714670254E+03  0.00000000000E+00 0. -1.
         11    1    3    3    0    0 -0.39448203186E+02  0.24459108899E+02  0.21579554470E+03  0.22073089012E+03  0.00000000000E+00 0.  1.
          2    1    1    2  501    0  0.66368435713E+02  0.51807407935E+02  0.19920669942E+03  0.21626855035E+03  0.00000000000E+00 0. -1.
<scales pt_clust_5="13000.00000" pt_clust_6="13000.00000" pt_clust_7="13000.00000" pt_clust_8="13000.00000" pt_clust_9="13000.00000"></scales>
<clustering>
<clus scale="   89.325">  5  6 -1 -1</clus>
<clus scale="   84.195">  5  9 -1 -1</clus>
<clus scale="   90.991">  7  8 -1 -1</clus>
<clus scale="  108.471">  1  7  2 -1</clus>
<clus scale="  179.763">  2  5  1 -1</clus>
</clustering>
</event>
<event>
 9    1  0.3303741E-006  0.2138847E+03  0.7546771E-02  0.1191425E+00
         -1   -1    0    0    0  501 -0.00000000000E+00  0.00000000000E+00  0.34887830567E+03  0.34887830567E+03  0.00000000000E+00 0.  1.
         21   -1    0    0  501  502  0.00000000000E+00 -0.00000000000E+00 -0.81571720918E+02  0.81571720918E+02  0.00000000000E+00 0. -1.
         23    2    1    2    0    0 -0.11023011271E+02 -0.10944861223E+02 -0.25350215497E+02  0.67966021224E+02  0.61118326634E+02 0.  0.
         23    2    1    2    0    0  0.21680723220E+02  0.92125367165E+02  0.19491191198E+03  0.23497743867E+03  0.90920878875E+02 0.  0.
        -11    1    3    3    0    0 -0.28098745996E+02  0.43343619679E+01  0.60762333234E+01  0.29073129030E+02  0.00000000000E+00 0.  1.
         11    1    3    3    0    0  0.17075734725E+02 -0.15279223191E+02 -0.31426448820E+02  0.38892892193E+02  0.00000000000E+00 0. -1.
        -13    1    4    4    0    0 -0.77031465049E+01  0.20343468070E+02 -0.34181905886E+01  0.22019972436E+02  0.00000000000E+00 0.  1.
         13    1    4    4    0    0  0.29383869724E+02  0.71781899095E+02  0.19833010257E+03  0.21295746623E+03  0.00000000000E+00 0. -1.
         -1    1    1    2    0  502 -0.10657711949E+02 -0.81180505942E+02  0.97744888265E+02  0.12750656670E+03  0.00000000000E+00 0.  1.
<scales pt_clust_5="13000.00000" pt_clust_6="13000.00000" pt_clust_7="13000.00000" pt_clust_8="13000.00000" pt_clust_9="13000.00000"></scales>
<clustering>
<clus scale="   61.118">  5  6 -1 -1</clus>
<clus scale="   63.061">  1  5  2 -1</clus>
<clus scale="   90.921">  7  8 -1 -1</clus>
<clus scale="   86.164">  7  9 -1 -1</clus>
<clus scale="  213.885">  2  5  1 -1</clus>
</clustering>
</event>
<event>
 9    1  0.3303741E-006  0.1640359E+03  0.7546771E-02  0.1210405E+00
          3   -1    0    0  502    0 -0.00000000000E+00  0.00000000000E+00  0.78819709029E+02  0.78819709029E+02  0.00000000000E+00 0. -1.
         21   -1    0    0  501  502  0.00000000000E+00 -0.00000000000E+00 -0.24093679173E+03  0.24093679173E+03  0.00000000000E+00 0.  1.
         23    2    1    2    0    0  0.11523021666E+02  0.88041356247E+01 -0.52277366643E+01  0.92771822378E+02  0.91482178397E+02 0.  0.
         23    2    1    2    0    0 -0.41624869811E+02 -0.41771577095E+02 -0.79581776106E+02  0.13771299291E+03  0.95677138793E+02 0.  0.
        -11    1    3    3    0    0 -0.20586004665E+02 -0.29890452008E+02 -0.18543959385E+02  0.40756608531E+02  0.00000000000E+00 0. -1.
         11    1    3    3    0    0  0.32109026330E+02  0.38694587632E+02  0.13316222721E+02  0.52015213846E+02  0.00000000000E+00 0.  1.
        -13    1    4    4    0    0 -0.61528766561E+02  0.30851588530E+01 -0.32269073040E+02  0.69545671285E+02  0.00000000000E+00 0.  1.
         13    1    4    4    0    0  0.19903896750E+02 -0.44856735948E+02 -0.47312703066E+02  0.68167321623E+02  0.00000000000E+00 0. -1.
          3    1    1    2  501    0  0.30101848145E+02  0.32967441471E+02 -0.77307569933E+02  0.89271685477E+02  0.00000000000E+00 0. -1.
<scales pt_clust_5="13000.00000" pt_clust_6="13000.00000" pt_clust_7="13000.00000" pt_clust_8="13000.00000" pt_clust_9="13000.00000"></scales>
<clustering>
<clus scale="   91.482">  5  6 -1 -1</clus>
<clus scale="   92.624">  1  5  2 -1</clus>
<clus scale="   95.677">  7  8 -1 -1</clus>
<clus scale="   47.081">  7  9 -1 -1</clus>
<clus scale="  164.036">  2  5  1 -1</clus>
</clustering>
</event>
<event>
 9    1  0.3303741E-006  0.3249169E+03  0.7546771E-02  0.1100239E+00
         21   -1    0    0  501  502  0.00000000000E+00  0.00000000000E+00  0.52626998249E+03  0.52626998249E+03  0.00000000000E+00 0. -1.
          1   -1    0    0  502    0 -0.00000000000E+00 -0.00000000000E+00 -0.11132921453E+03  0.11132921453E+03  0.00000000000E+00 0. -1.
         23    2    1    2    0    0 -0.35976910730E+02 -0.12558610869E+03  0.13347872080E+03  0.20772497804E+03  0.90922432832E+02 0.  0.
         23    2    1    2    0    0  0.64735414468E+02  0.31287095578E+02 -0.12309851709E+02  0.12000120633E+03  0.95284840536E+02 0.  0.
        -11    1    4    4    0    0 -0.16184171066E+02 -0.17403115528E+02  0.41892396448E+01  0.24131836896E+02  0.00000000000E+00 0.  1.
         11    1    4    4    0    0  0.80919585534E+02  0.48690211106E+02 -0.16499091354E+02  0.95869369436E+02  0.00000000000E+00 0. -1.
        -13    1    3    3    0    0 -0.39786355992E+02 -0.93682499601E+01  0.50006781929E+02  0.64586348940E+02  0.00000000000E+00 0.  1.
         13    1    3    3    0    0  0.38094452623E+01 -0.11621785873E+03  0.83471938874E+02  0.14313862910E+03  0.00000000000E+00 0. -1.
          1    1    1    2  501    0 -0.28758503739E+02  0.94299013108E+02  0.29377189886E+03  0.30987301266E+03  0.00000000000E+00 0. -1.
<scales pt_clust_5="13000.00000" pt_clust_6="13000.00000" pt_clust_7="13000.00000" pt_clust_8="13000.00000" pt_clust_9="13000.00000"></scales>
<clustering>
<clus scale="   90.922">  7  8 -1 -1</clus>
<clus scale="   95.285">  5  6 -1 -1</clus>
<clus scale="   98.587">  5  9 -1 -1</clus>
<clus scale="  159.164">  2  7  1 -1</clus>
<clus scale="  324.917">  1  5  2 -1</clus>
</clustering>
</event>
<event>
 9    1  0.3303741E-006  0.1535347E+03  0.7546771E-02  0.1225058E+00
          1   -1    0    0  502    0 -0.00000000000E+00  0.00000000000E+00  0.28501145419E+03  0.28501145419E+03  0.00000000000E+00 0. -1.
         21   -1    0    0  501  502  0.00000000000E+00 -0.00000000000E+00 -0.54723325376E+02  0.54723325376E+02  0.00000000000E+00 0.  1.
         23    2    1    2    0    0  0.55172705326E+01  0.10423228509E+02  0.31884884018E+02  0.88862795905E+02  0.82102781321E+02 0.  0.
         23    2    1    2    0    0 -0.42816607888E+02 -0.21635134662E+02  0.14606818600E+03  0.18563468002E+03  0.10403354509E+03 0.  0.
        -11    1    3    3    0    0 -0.67403659446E+01  0.43861615625E+02  0.29254220228E+02  0.53151512297E+02  0.00000000000E+00 0. -1.
         11    1    3    3    0    0  0.12257636477E+02 -0.33438387117E+02  0.26306637899E+01  0.35711283608E+02  0.00000000000E+00 0.  1.
        -13    1    4    4    0    0 -0.53133059682E+02 -0.56880414057E+02  0.98892214199E+02  0.12584980558E+03  0.00000000000E+00 0.  1.
         13    1    4    4    0    0  0.10316451794E+02  0.35245279395E+02  0.47175971798E+02  0.59784874444E+02  0.00000000000E+00 0. -1.
          1    1    1    2  501    0  0.37299337356E+02  0.11211906153E+02  0.52335058803E+02  0.65237303644E+02  0.00000000000E+00 0. -1.
<scales pt_clust_5="13000.00000" pt_clust_6="13000.00000" pt_clust_7="13000.00000" pt_clust_8="13000.00000" pt_clust_9="13000.00000"></scales>
<clustering>
<clus scale="   82.103">  5  6 -1 -1</clus>
<clus scale="   82.946">  1  5  2 -1</clus>
<clus scale="  104.034">  7  8 -1 -1</clus>
<clus scale="   41.175">  7  9 -1 -1</clus>
<clus scale="  153.535">  2  5  1 -1</clus>
</clustering>
</event>
<event>
 9    1  0.3303741E-006  0.7496363E+03  0.7546771E-02  0.1017242E+00
          2   -1    0    0  502    0 -0.00000000000E+00  0.00000000000E+00  0.26240916711E+03  0.26240916711E+03  0.00000000000E+00 0. -1.
         21   -1    0    0  501  502  0.00000000000E+00 -0.00000000000E+00 -0.10379456785E+04  0.10379456785E+04  0.00000000000E+00 0. -1.
         23    2    1    2    0    0 -0.81952021493E+02  0.54139248140E+02  0.85660272863E+02  0.15859545449E+03  0.90375017692E+02 0.  0.
         23    2    1    2    0    0  0.35257172118E+03 -0.20444611817E+03 -0.35385970234E+03  0.54743785211E+03  0.91468460007E+02 0.  0.
        -13    1    4    4    0    0  0.23482545925E+03 -0.16447181419E+03 -0.19975840723E+03  0.34942437699E+03  0.00000000000E+00 0.  1.
         13    1    4    4    0    0  0.11774626194E+03 -0.39974303980E+02 -0.15410129510E+03  0.19801347513E+03  0.00000000000E+00 0. -1.
        -13    1    3    3    0    0 -0.84847828047E+02  0.65238946385E+01  0.47148340283E+02  0.97286592689E+02  0.00000000000E+00 0.  1.
         13    1    3    3    0    0  0.28958065536E+01  0.47615353502E+02  0.38511932580E+02  0.61308861804E+02  0.00000000000E+00 0. -1.
          2    1    1    2  501    0 -0.27061969969E+03  0.15030687003E+03 -0.50733708196E+03  0.59432153904E+03  0.00000000000E+00 0. -1.
<scales pt_clust_5="13000.00000" pt_clust_6="13000.00000" pt_clust_7="13000.00000" pt_clust_8="13000.00000" pt_clust_9="13000.00000"></scales>
<clustering>
<clus scale="   90.375">  7  8 -1 -1</clus>
<clus scale="   91.468">  5  6 -1 -1</clus>
<clus scale="  133.472">  1  7  2 -1</clus>
<clus scale="  339.930">  5  9 -1 -1</clus>
<clus scale="  749.636">  2  5  1 -1</clus>
</clustering>
</event>
<event>
 9    1  0.3303741E-006  0.1856972E+03  0.7546771E-02  0.1186612E+00
          1   -1    0    0  502    0 -0.00000000000E+00  0.00000000000E+00  0.73655112883E+03  0.73655112883E+03  0.00000000000E+00 0. -1.
         21   -1    0    0  501  502  0.00000000000E+00 -0.00000000000E+00 -0.29120492227E+02  0.29120492227E+02  0.00000000000E+00 0. -1.
         23    2    1    2    0    0  0.25039062938E+02  0.39882392541E+02  0.25452825820E+03  0.27617800882E+03  0.96291736019E+02 0.  0.
         23    2    1    2    0    0 -0.45445112636E+02 -0.78003372653E+02  0.23570563431E+03  0.26803471846E+03  0.90198003559E+02 0.  0.
        -11    1    3    3    0    0  0.45325395720E+02  0.48963170279E+02  0.24120825112E+03  0.25026626610E+03  0.00000000000E+00 0.  1.
         11    1    3    3    0    0 -0.20286332782E+02 -0.90807777380E+01  0.13320007084E+02  0.25911742720E+02  0.00000000000E+00 0. -1.
        -13    1    4    4    0    0  0.23642552300E+02 -0.39248571796E+02  0.61757853409E+02  0.76898979999E+02  0.00000000000E+00 0.  1.
         13    1    4    4    0    0 -0.69087664936E+02 -0.38754800858E+02  0.17394778091E+03  0.19113573846E+03  0.00000000000E+00 0. -1.
          1    1    1    2  501    0  0.20406049698E+02  0.38120980112E+02  0.21719674409E+03  0.22145889377E+03  0.00000000000E+00 0. -1.
<scales pt_clust_5="13000.00000" pt_clust_6="13000.00000" pt_clust_7="13000.00000" pt_clust_8="13000.00000" pt_clust_9="13000.00000"></scales>
<clustering>
<clus scale="   90.198">  7  8 -1 -1</clus>
<clus scale="   43.239">  7  9 -1 -1</clus>
<clus scale="   96.292">  5  6 -1 -1</clus>
<clus scale="  107.190">  1  5  2 -1</clus>
<clus scale="  185.697">  2  5  1 -1</clus>
</clustering>
</event>
<event>
 9    1  0.3303741E-006  0.1255655E+03  0.7546771E-02  0.1255664E+00
         -4   -1    0    0    0  501 -0.00000000000E+00  0.00000000000E+00  0.29530909356E+02  0.29530909356E+02  0.00000000000E+00 0.  1.
         21   -1    0    0  501  502  0.00000000000E+00 -0.00000000000E+00 -0.36377131943E+03  0.36377131943E+03  0.00000000000E+00 0.  1.
         23    2    1    2    0    0 -0.20652020364E+02  0.20122841803E+02 -0.12194657525E+03  0.14665398041E+03  0.76190472169E+02 0.  0.
         23    2    1    2    0    0 -0.10064242969E+02 -0.24980487896E+02 -0.18336073995E+03  0.20417226060E+03  0.85672850303E+02 0.  0.
        -11    1    4    4    0    0  0.35291502999E+02 -0.47085584674E+01 -0.10962506216E+03  0.11526194064E+03  0.00000000000E+00 0. -1.
         11    1    4    4    0    0 -0.45355745968E+02 -0.20271929428E+02 -0.73735677795E+02  0.88910319957E+02  0.00000000000E+00 0.  1.
        -13    1    3    3    0    0 -0.47608719891E+02  0.24705390851E+02 -0.72985196877E+02  0.90574750952E+02  0.00000000000E+00 0.  1.
         13    1    3    3    0    0  0.26956699527E+02 -0.45825490477E+01 -0.48961378370E+02  0.56079229462E+02  0.00000000000E+00 0. -1.
         -4    1    1    2    0  502  0.30716263333E+02  0.48576460920E+01 -0.28933094875E+02  0.42475987778E+02  0.00000000000E+00 0.  1.
<scales pt_clust_5="13000.00000" pt_clust_6="13000.00000" pt_clust_7="13000.00000" pt_clust_8="13000.00000" pt_clust_9="13000.00000"></scales>
<clustering>
<clus scale="   76.190">  7  8 -1 -1</clus>
<clus scale="   81.464">  1  7  2 -1</clus>
<clus scale="   85.673">  5  6 -1 -1</clus>
<clus scale="   25.947">  5  9 -1 -1</clus>
<clus scale="  125.565">  2  5  1 -1</clus>
</clustering>
</event>
<event>
 9    1  0.3303741E-006  0.3514032E+03  0.7546771E-02  0.1065357E+00
          3   -1    0    0  502    0 -0.00000000000E+00  0.00000000000E+00  0.30567678669E+03  0.30567678669E+03  0.00000000000E+00 0. -1.
         21   -1    0    0  501  502  0.00000000000E+00 -0.00000000000E+00 -0.37015093172E+03  0.37015093172E+03  0.00000000000E+00 0. -1.
         23    2    1    2    0    0 -0.18135904609E+03 -0.24820292370E+03 -0.13520384356E+02  0.32074958305E+03  0.90563233729E+02 0.  0.
         23    2    1    2    0    0  0.99149938669E+02  0.65842422938E+02 -0.45051845783E+02  0.15495686668E+03  0.88408295568E+02 0.  0.
        -11    1    4    4    0    0 -0.21181956319E+01  0.44740889823E+02 -0.15020902200E+02  0.47242581193E+02  0.00000000000E+00 0. -1.
         11    1    4    4    0    0  0.10126813430E+03  0.21101533115E+02 -0.30030943582E+02  0.10771428548E+03  0.00000000000E+00 0.  1.
        -11    1    3    3    0    0 -0.94229259434E+02 -0.76710420608E+02 -0.36879504836E+02  0.12697928902E+03  0.00000000000E+00 0.  1.
         11    1    3    3    0    0 -0.87129786655E+02 -0.17149250309E+03  0.23359120479E+02  0.19377029403E+03  0.00000000000E+00 0. -1.
          3    1    1    2  501    0  0.82209107420E+02  0.18236050076E+03 -0.59019148891E+01  0.20012126869E+03  0.00000000000E+00 0. -1.
<scales pt_clust_5="13000.00000" pt_clust_6="13000.00000" pt_clust_7="13000.00000" pt_clust_8="13000.00000" pt_clust_9="13000.00000"></scales>
<clustering>
<clus scale="   88.408">  5  6 -1 -1</clus>
<clus scale="   90.563">  7  8 -1 -1</clus>
<clus scale="  200.034">  5  9 -1 -1</clus>
<clus scale="  320.464">  1  7  2 -1</clus>
<clus scale="  351.403">  2  5  1 -1</clus>
</clustering>
</event>
<event>
 9    1  0.3303741E-006  0.1685516E+03  0.7546771E-02  0.1194854E+00
         21   -1    0    0  501  502  0.00000000000E+00  0.00000000000E+00  0.43339581181E+02  0.43339581181E+02  0.00000000000E+00 0.  1.
          2   -1    0    0  502    0 -0.00000000000E+00 -0.00000000000E+00 -0.48076213169E+03  0.48076213169E+03  0.00000000000E+00 0. -1.
         23    2    1    2    0    0 -0.41960771157E+02 -0.64142948822E+02 -0.19880713347E+03  0.23195967342E+03  0.91684183876E+02 0.  0.
         23    2    1    2    0    0  0.74498303473E+01  0.59926955200E+01 -0.18506356332E+03  0.20588510912E+03  0.89714788724E+02 0.  0.
        -11    1    3    3    0    0 -0.47507844754E+02  0.30790886188E+01 -0.52608778738E+02  0.70951812523E+02  0.00000000000E+00 0. -1.
         11    1    3    3    0    0  0.55470735967E+01 -0.67222037441E+02 -0.14619835473E+03  0.16100786089E+03  0.00000000000E+00 0.  1.
        -11    1    4    4    0    0 -0.28037355101E+01  0.32942223717E+02 -0.17032191527E+03  0.17350102553E+03  0.00000000000E+00 0. -1.
         11    1    4    4    0    0  0.10253565857E+02 -0.26949528197E+02 -0.14741648043E+02  0.32384083588E+02  0.00000000000E+00 0.  1.
          2    1    1    2  501    0  0.34510940810E+02  0.58150253302E+02 -0.53551853724E+02  0.86256930342E+02  0.00000000000E+00 0. -1.
<scales pt_clust_5="13000.00000" pt_clust_6="13000.00000" pt_clust_7="13000.00000" pt_clust_8="13000.00000" pt_clust_9="13000.00000"></scales>
<clustering>
<clus scale="   89.715">  7  8 -1 -1</clus>
<clus scale="   67.620">  7  9 -1 -1</clus>
<clus scale="   91.684">  5  6 -1 -1</clus>
<clus scale="  119.503">  2  5  1 -1</clus>
<clus scale="  168.552">  1  5  2 -1</clus>
</clustering>
</event>
<event>
 9    1  0.3303741E-006  0.2875251E+03  0.7546771E-02  0.1136518E+00
         21   -1    0    0  501  502  0.00000000000E+00  0.00000000000E+00  0.71129418131E+02  0.71129418131E+02  0.00000000000E+00 0.  1.
         -1   -1    0    0    0  501 -0.00000000000E+00 -0.00000000000E+00 -0.68534246210E+03  0.68534246210E+03  0.00000000000E+00 0.  1.
         23    2    1    2    0    0  0.12658754422E+02 -0.54516736890E+01 -0.36325331799E+03  0.37482873758E+03  0.91398275028E+02 0.  0.
         23    2    1    2    0    0  0.94049437433E+02  0.80184686111E+02 -0.15936826849E+03  0.22239284771E+03  0.93730748106E+02 0.  0.
        -11    1    4    4    0    0  0.24959675285E+02  0.80985067599E+02 -0.73499894820E+02  0.11217754277E+03  0.00000000000E+00 0. -1.
         11    1    4    4    0    0  0.69089762148E+02 -0.80038148758E+00 -0.85868373675E+02  0.11021530493E+03  0.00000000000E+00 0.  1.
        -13    1    3    3    0    0  0.50436066037E+02  0.10210520865E+02 -0.19476527039E+03  0.20144865858E+03  0.00000000000E+00 0. -1.
         13    1    3    3    0    0 -0.37777311616E+02 -0.15662194554E+02 -0.16848804760E+03  0.17338007900E+03  0.00000000000E+00 0.  1.
         -1    1    1    2    0  502 -0.10670819185E+03 -0.74733012422E+02 -0.91591457488E+02  0.15925029494E+03  0.00000000000E+00 0.  1.
<scales pt_clust_5="13000.00000" pt_clust_6="13000.00000" pt_clust_7="13000.00000" pt_clust_8="13000.00000" pt_clust_9="13000.00000"></scales>
<clustering>
<clus scale="   91.398">  7  8 -1 -1</clus>
<clus scale="   92.432">  2  7  1 -1</clus>
<clus scale="   93.731">  5  6 -1 -1</clus>
<clus scale="  127.489">  5  9 -1 -1</clus>
<clus scale="  287.525">  1  5  2 -1</clus>
</clustering>
</event>
<event>
 9    1  0.3400792E-006  0.6991681E+03  0.7546771E-02  0.1029471E+00
          1   -1    0    0  502    0 -0.00000000000E+00  0.00000000000E+00  0.70142970532E+03  0.70142970532E+03  0.00000000000E+00 0. -1.
         21   -1    0    0  501  502  0.00000000000E+00 -0.00000000000E+00 -0.26243743795E+03  0.26243743795E+03  0.00000000000E+00 0. -1.
         23    2    1    2    0    0  0.50587309921E+02  0.52140663532E+02  0.19031384561E+03  0.22179098144E+03  0.87716332008E+02 0.  0.
         23    2    1    2    0    0 -0.92592930819E+02  0.56852670604E+01  0.48135333896E+03  0.49867129842E+03  0.91467228245E+02 0.  0.
        -11    1    4    4    0    0 -0.22981805495E+02 -0.39730221840E+02  0.20576937563E+03  0.21082620771E+03  0.00000000000E+00 0.  1.
         11    1    4    4    0    0 -0.69611125325E+02  0.45415488901E+02  0.27558396333E+03  0.28784509071E+03  0.00000000000E+00 0. -1.
        -13    1    3    3    0    0 -0.22170695734E+02 -0.31436575154E+01  0.33483850728E+02  0.40281392620E+02  0.00000000000E+00 0.  1.
         13    1    3    3    0    0  0.72758005654E+02  0.55284321048E+02  0.15682999488E+03  0.18150958882E+03  0.00000000000E+00 0. -1.
          1    1    1    2  501    0  0.42005620899E+02 -0.57825930592E+02 -0.23267491720E+03  0.24340486340E+03  0.00000000000E+00 0. -1.
<scales pt_clust_5="13000.00000" pt_clust_6="13000.00000" pt_clust_7="13000.00000" pt_clust_8="13000.00000" pt_clust_9="13000.00000"></scales>
<clustering>
<clus scale="   87.716">  7  8 -1 -1</clus>
<clus scale="   91.467">  5  6 -1 -1</clus>
<clus scale="   71.472">  5  9 -1 -1</clus>
<clus scale="  113.894">  1  7  2 -1</clus>
<clus scale="  699.168">  2  5  1 -1</clus>
</clustering>
</event>
<event>
 9    1  0.3303741E-006  0.3174761E+03  0.7546771E-02  0.1097131E+00
         21   -1    0    0  501  502  0.00000000000E+00  0.00000000000E+00  0.23453128198E+03  0.23453128198E+03  0.00000000000E+00 0.  1.
         -1   -1    0    0    0  501 -0.00000000000E+00 -0.00000000000E+00 -0.31884282322E+03  0.31884282322E+03  0.00000000000E+00 0.  1.
         23    2    1    2    0    0 -0.24136704797E+01 -0.16051662347E+03 -0.13878419543E+03  0.23125872582E+03  0.91913726679E+02 0.  0.
         23    2    1    2    0    0  0.12191982418E+03  0.94640567122E+02  0.15574473735E+02  0.18021948791E+03  0.91734503433E+02 0.  0.
        -13    1    4    4    0    0  0.94312946757E+02  0.10780517019E+03 -0.50568862760E+01  0.14332640631E+03  0.00000000000E+00 0.  1.
         13    1    4    4    0    0  0.27606877418E+02 -0.13164603068E+02  0.20631360011E+02  0.36893081609E+02  0.00000000000E+00 0. -1.
        -13    1    3    3    0    0 -0.92503774224E+01 -0.67052521281E+02 -0.49395645132E+01  0.67867587184E+02  0.00000000000E+00 0. -1.
         13    1    3    3    0    0  0.68367069427E+01 -0.93464102190E+02 -0.13384463092E+03  0.16339113864E+03  0.00000000000E+00 0.  1.
         -1    1    1    2    0  502 -0.11950615370E+03  0.65876056349E+02  0.38898180463E+02  0.14189589146E+03  0.00000000000E+00 0.  1.
<scales pt_clust_5="13000.00000" pt_clust_6="13000.00000" pt_clust_7="13000.00000" pt_clust_8="13000.00000" pt_clust_9="13000.00000"></scales>
<clustering>
<clus scale="   91.735">  5  6 -1 -1</clus>
<clus scale="   91.914">  7  8 -1 -1</clus>
<clus scale="  136.460">  5  9 -1 -1</clus>
<clus scale="  184.985">  2  7  1 -1</clus>
<clus scale="  317.476">  1  5  2 -1</clus>
</clustering>
</event>
<event>
 9    1  0.3303741E-006  0.4010025E+03  0.7546771E-02  0.1054048E+00
         21   -1    0    0  501  502  0.00000000000E+00  0.00000000000E+00  0.11393941485E+04  0.11393941485E+04  0.00000000000E+00 0. -1.
          2   -1    0    0  502    0 -0.00000000000E+00 -0.00000000000E+00 -0.14003105862E+03  0.14003105862E+03  0.00000000000E+00 0. -1.
         23    2    1    2    0    0 -0.27410044047E+03  0.59101714844E+02  0.13249117192E+03  0.32429698148E+03  0.94818549862E+02 0.  0.
         23    2    1    2    0    0  0.73499680720E+02 -0.14176289370E+03  0.39274150545E+03  0.43371362730E+03  0.91447795531E+02 0.  0.
        -11    1    3    3    0    0 -0.49637667673E+02  0.10555538534E+02  0.69696060588E+02  0.86214026163E+02  0.00000000000E+00 0.  1.
         11    1    3    3    0    0 -0.22446277280E+03  0.48546176310E+02  0.62795111332E+02  0.23808295532E+03  0.00000000000E+00 0. -1.
        -13    1    4    4    0    0  0.24849843033E+02 -0.59036450424E+02  0.61308576715E+02  0.88665431574E+02  0.00000000000E+00 0.  1.
         13    1    4    4    0    0  0.48649837687E+02 -0.82726443271E+02  0.33143292874E+03  0.34504819573E+03  0.00000000000E+00 0. -1.
          2    1    1    2  501    0  0.20060075975E+03  0.82661178852E+02  0.47413041246E+03  0.52141459830E+03  0.00000000000E+00 0. -1.
<scales pt_clust_5="13000.00000" pt_clust_6="13000.00000" pt_clust_7="13000.00000" pt_clust_8="13000.00000" pt_clust_9="13000.00000"></scales>
<clustering>
<clus scale="   91.448">  7  8 -1 -1</clus>
<clus scale="   94.819">  5  6 -1 -1</clus>
<clus scale="  216.964">  7  9 -1 -1</clus>
<clus scale="  295.998">  2  5  1 -1</clus>
<clus scale="  401.003">  1  5  2 -1</clus>
</clustering>
</event>
<event>
 9    1  0.3303741E-006  0.1664511E+03  0.7546771E-02  0.1208003E+00
          1   -1    0    0  502    0 -0.00000000000E+00  0.00000000000E+00  0.12765063532E+03  0.12765063532E+03  0.00000000000E+00 0. -1.
         21   -1    0    0  501  502  0.00000000000E+00 -0.00000000000E+00 -0.13314470200E+03  0.13314470200E+03  0.00000000000E+00 0. -1.
         23    2    1    2    0    0  0.18402936049E+02  0.40297583733E+01  0.87678745637E+01  0.93734380114E+02  0.91402141021E+02 0.  0.
         23    2    1    2    0    0 -0.32379132380E+02 -0.42137856892E+02  0.26526542193E+02  0.10951739442E+03  0.92013015615E+02 0.  0.
        -11    1    3    3    0    0  0.52733589093E+02 -0.10848327382E+02  0.14800567279E+02  0.55835243507E+02  0.00000000000E+00 0.  1.
         11    1    3    3    0    0 -0.34330653044E+02  0.14878085756E+02 -0.60326927153E+01  0.37899136608E+02  0.00000000000E+00 0. -1.
        -13    1    4    4    0    0 -0.53432498842E+02 -0.57404949351E+02  0.28485739391E+02  0.83437386651E+02  0.00000000000E+00 0. -1.
         13    1    4    4    0    0  0.21053366462E+02  0.15267092459E+02 -0.19591971979E+01  0.26080007768E+02  0.00000000000E+00 0.  1.
          1    1    1    2  501    0  0.13976196330E+02  0.38108098519E+02 -0.40788483438E+02  0.57543562783E+02  0.00000000000E+00 0. -1.
<scales pt_clust_5="13000.00000" pt_clust_6="13000.00000" pt_clust_7="13000.00000" pt_clust_8="13000.00000" pt_clust_9="13000.00000"></scales>
<clustering>
<clus scale="   91.402">  5  6 -1 -1</clus>
<clus scale="   92.013">  7  8 -1 -1</clus>
<clus scale="   40.590">  7  9 -1 -1</clus>
<clus scale="   93.323">  1  5  2 -1</clus>
<clus scale="  166.451">  2  5  1 -1</clus>
</clustering>
</event>
<event>
 9    1  0.3303741E-006  0.2977447E+03  0.7546771E-02  0.1120996E+00
          1   -1    0    0  502    0 -0.00000000000E+00  0.00000000000E+00  0.32114160342E+03  0.32114160342E+03  0.00000000000E+00 0. -1.
         21   -1    0    0  501  502  0.00000000000E+00 -0.00000000000E+00 -0.19913514149E+03  0.19913514149E+03  0.00000000000E+00 0. -1.
         23    2    1    2    0    0 -0.81633163558E+02  0.49480851996E+01  0.17951353312E+03  0.21702933871E+03  0.90488498415E+02 0.  0.
         23    2    1    2    0    0 -0.68640760060E+02 -0.64994933016E+02 -0.12369972300E+00  0.13154787978E+03  0.91481878609E+02 0.  0.
        -11    1    4    4    0    0 -0.53620352674E+02  0.35586315655E+01  0.21846835231E+02  0.58009398282E+02  0.00000000000E+00 0.  1.
         11    1    4    4    0    0 -0.15020407386E+02 -0.68553564582E+02 -0.21970534954E+02  0.73538481499E+02  0.00000000000E+00 0. -1.
        -13    1    3    3    0    0  0.44367967326E+01  0.31208224481E+02  0.38624084782E+02  0.49854371581E+02  0.00000000000E+00 0.  1.
         13    1    3    3    0    0 -0.86069960291E+02 -0.26260139282E+02  0.14088944834E+03  0.16717496713E+03  0.00000000000E+00 0. -1.
          1    1    1    2  501    0  0.15027392362E+03  0.60046847817E+02 -0.57383371474E+02  0.17169952642E+03  0.00000000000E+00 0. -1.
<scales pt_clust_5="13000.00000" pt_clust_6="13000.00000" pt_clust_7="13000.00000" pt_clust_8="13000.00000" pt_clust_9="13000.00000"></scales>
<clustering>
<clus scale="   90.488">  7  8 -1 -1</clus>
<clus scale="   91.482">  5  6 -1 -1</clus>
<clus scale="  121.970">  1  7  2 -1</clus>
<clus scale="  128.446">  5  9 -1 -1</clus>
<clus scale="  297.745">  2  5  1 -1</clus>
</clustering>
</event>
<event>
 9    1  0.3303741E-006  0.2536597E+03  0.7546771E-02  0.1135183E+00
         21   -1    0    0  501  502  0.00000000000E+00  0.00000000000E+00  0.21637390786E+03  0.21637390786E+03  0.00000000000E+00 0.  1.
         -1   -1    0    0    0  501 -0.00000000000E+00 -0.00000000000E+00 -0.24636010418E+03  0.24636010418E+03  0.00000000000E+00 0.  1.
         23    2    1    2    0    0 -0.22293604877E+02 -0.10473082313E+03 -0.12972597485E+03  0.19016974096E+03  0.88713875440E+02 0.  0.
         23    2    1    2    0    0  0.64275380840E+02  0.65006427828E+02 -0.28274978250E+02  0.13210689302E+03  0.91080165504E+02 0.  0.
        -11    1    4    4    0    0 -0.14357755113E+02  0.45451850308E+02 -0.15200827368E+02  0.50030800323E+02  0.00000000000E+00 0.  1.
         11    1    4    4    0    0  0.78633135953E+02  0.19554577520E+02 -0.13074150882E+02  0.82076092701E+02  0.00000000000E+00 0. -1.
        -11    1    3    3    0    0 -0.46624622624E+02 -0.80876368576E+02 -0.12463125454E+03  0.15571702552E+03  0.00000000000E+00 0.  1.
         11    1    3    3    0    0  0.24331017746E+02 -0.23854454550E+02 -0.50947203155E+01  0.34452715445E+02  0.00000000000E+00 0. -1.
         -1    1    1    2    0  502 -0.41981775963E+02  0.39724395298E+02  0.12801475678E+03  0.14045737805E+03  0.00000000000E+00 0.  1.
<scales pt_clust_5="13000.00000" pt_clust_6="13000.00000" pt_clust_7="13000.00000" pt_clust_8="13000.00000" pt_clust_9="13000.00000"></scales>
<clustering>
<clus scale="   88.714">  7  8 -1 -1</clus>
<clus scale="   91.080">  5  6 -1 -1</clus>
<clus scale="   57.797">  5  9 -1 -1</clus>
<clus scale="  139.053">  2  7  1 -1</clus>
<clus scale="  253.660">  1  5  2 -1</clus>
</clustering>
</event>
<event>
 9    1  0.3303741E-006  0.1364953E+03  0.7546771E-02  0.1236054E+00
         21   -1    0    0  501  502  0.00000000000E+00  0.00000000000E+00  0.25039462124E+03  0.25039462124E+03  0.00000000000E+00 0. -1.
         -1   -1    0    0    0  501 -0.00000000000E+00 -0.00000000000E+00 -0.56941748561E+02  0.56941748561E+02  0.00000000000E+00 0.  1.
         23    2    1    2    0    0 -0.10646933187E+02 -0.25344529082E+01  0.11949852414E+03  0.15209393596E+03  0.93449919466E+02 0.  0.
         23    2    1    2    0    0  0.24490491467E+01 -0.25777910687E+02  0.26270796952E+02  0.99184282536E+02  0.92069911527E+02 0.  0.
        -11    1    4    4    0    0  0.79895504141E+00 -0.57818509016E+02  0.32748796272E+02  0.66453758143E+02  0.00000000000E+00 0. -1.
         11    1    4    4    0    0  0.16500941053E+01  0.32040598330E+02 -0.64779993197E+01  0.32730524393E+02  0.00000000000E+00 0.  1.
        -11    1    3    3    0    0 -0.42319675850E+02 -0.19165002009E+02  0.28960031897E+02  0.54744275623E+02  0.00000000000E+00 0.  1.
         11    1    3    3    0    0  0.31672742663E+02  0.16630549101E+02  0.90538492240E+02  0.97349660340E+02  0.00000000000E+00 0. -1.
         -1    1    1    2    0  502  0.81978840402E+01  0.28312363595E+02  0.47683551592E+02  0.56058151302E+02  0.00000000000E+00 0.  1.
<scales pt_clust_5="13000.00000" pt_clust_6="13000.00000" pt_clust_7="13000.00000" pt_clust_8="13000.00000" pt_clust_9="13000.00000"></scales>
<clustering>
<clus scale="   92.070">  5  6 -1 -1</clus>
<clus scale="   29.475">  5  9 -1 -1</clus>
<clus scale="   93.450">  7  8 -1 -1</clus>
<clus scale="   94.089">  2  7  1 -1</clus>
<clus scale="  136.495">  1  5  2 -1</clus>
</clustering>
</event>
<event>
 9    1  0.3303741E-006  0.4181305E+03  0.7546771E-02  0.1086399E+00
         21   -1    0    0  501  502  0.00000000000E+00  0.00000000000E+00  0.13895814836E+03  0.13895814836E+03  0.00000000000E+00 0.  1.
         -3   -1    0    0    0  501 -0.00000000000E+00 -0.00000000000E+00 -0.52701766120E+03  0.52701766120E+03  0.00000000000E+00 0.  1.
         23    2    1    2    0    0 -0.55413667930E+02  0.23545899623E+02 -0.15100181897E+03  0.18532056654E+03  0.88977969572E+02 0.  0.
         23    2    1    2    0    0 -0.36711161363E+01 -0.16944912137E+03 -0.25784757605E+03  0.32187558115E+03  0.91608053353E+02 0.  0.
        -11    1    4    4    0    0  0.26882993862E+02 -0.27630003401E+02 -0.20393678191E+02  0.43612091868E+02  0.00000000000E+00 0. -1.
         11    1    4    4    0    0 -0.30554109998E+02 -0.14181911797E+03 -0.23745389786E+03  0.27826348928E+03  0.00000000000E+00 0.  1.
        -13    1    3    3    0    0 -0.43017605825E+02  0.55806241551E+02 -0.11856944160E+03  0.13792593479E+03  0.00000000000E+00 0.  1.
         13    1    3    3    0    0 -0.12396062105E+02 -0.32260341927E+02 -0.32432377369E+02  0.47394631750E+02  0.00000000000E+00 0. -1.
         -3    1    1    2    0  502  0.59084784066E+02  0.14590322174E+03  0.20789882182E+02  0.15877966187E+03  0.00000000000E+00 0.  1.
<scales pt_clust_5="13000.00000" pt_clust_6="13000.00000" pt_clust_7="13000.00000" pt_clust_8="13000.00000" pt_clust_9="13000.00000"></scales>
<clustering>
<clus scale="   88.978">  7  8 -1 -1</clus>
<clus scale="   91.608">  5  6 -1 -1</clus>
<clus scale="  107.434">  2  7  1 -1</clus>
<clus scale="  158.034">  5  9 -1 -1</clus>
<clus scale="  418.130">  1  5  2 -1</clus>
</clustering>
</event>
<event>
 9    1  0.3303741E-006  0.1898479E+03  0.7546771E-02  0.1168289E+00
          2   -1    0    0  502    0 -0.00000000000E+00  0.00000000000E+00  0.13636799593E+03  0.13636799593E+03  0.00000000000E+00 0. -1.
         21   -1    0    0  501  502  0.00000000000E+00 -0.00000000000E+00 -0.21450255533E+03  0.21450255533E+03  0.00000000000E+00 0.  1.
         23    2    1    2    0    0  0.95382392000E+02  0.75134806048E+02 -0.44105125924E+02  0.15799692603E+03  0.90965524896E+02 0.  0.
         23    2    1    2    0    0 -0.67148876573E+02 -0.69705420764E+02  0.16497330999E+02  0.13473961154E+03  0.92275585502E+02 0.  0.
        -11    1    4    4    0    0  0.18146737736E+02 -0.35996624607E+02  0.15000430696E+02  0.43012486496E+02  0.00000000000E+00 0. -1.
         11    1    4    4    0    0 -0.85295614309E+02 -0.33708796158E+02  0.14969003033E+01  0.91727125047E+02  0.00000000000E+00 0.  1.
        -13    1    3    3    0    0  0.39602358419E+02 -0.12634402467E+02  0.69499057848E+01  0.42145890766E+02  0.00000000000E+00 0.  1.
         13    1    3    3    0    0  0.55780033582E+02  0.87769208515E+02 -0.51055031709E+02  0.11585103527E+03  0.00000000000E+00 0. -1.
          2    1    1    2  501    0 -0.28233515427E+02 -0.54293852835E+01 -0.50526764475E+02  0.58134013677E+02  0.00000000000E+00 0. -1.
<scales pt_clust_5="13000.00000" pt_clust_6="13000.00000" pt_clust_7="13000.00000" pt_clust_8="13000.00000" pt_clust_9="13000.00000"></scales>
<clustering>
<clus scale="   90.966">  7  8 -1 -1</clus>
<clus scale="   92.276">  5  6 -1 -1</clus>
<clus scale="   28.751">  5  9 -1 -1</clus>
<clus scale="  151.716">  1  7  2 -1</clus>
<clus scale="  189.848">  2  5  1 -1</clus>
</clustering>
</event>
<event>
 9    1  0.3303741E-006  0.3677624E+03  0.7546771E-02  0.1079395E+00
         -1   -1    0    0    0  501 -0.00000000000E+00  0.00000000000E+00  0.52401559370E+03  0.52401559370E+03  0.00000000000E+00 0.  1.
         21   -1    0    0  501  502  0.00000000000E+00 -0.00000000000E+00 -0.15930940512E+03  0.15930940512E+03  0.00000000000E+00 0.  1.
         23    2    1    2    0    0 -0.16364866001E+03 -0.31145452261E+02  0.21230512516E+03  0.28523546534E+03  0.92384421835E+02 0.  0.
         23    2    1    2    0    0 -0.10546199757E+02  0.78000175968E+02  0.17932199711E+03  0.21570545803E+03  0.90427961365E+02 0.  0.
        -11    1    3    3    0    0 -0.57852940721E+02  0.31321184707E+02  0.93520946152E+02  0.11434223511E+03  0.00000000000E+00 0. -1.
         11    1    3    3    0    0 -0.10579571929E+03 -0.62466636968E+02  0.11878417901E+03  0.17089323023E+03  0.00000000000E+00 0.  1.
        -11    1    4    4    0    0 -0.42306574390E+02  0.75802302095E+02  0.14409743424E+03  0.16822575842E+03  0.00000000000E+00 0.  1.
         11    1    4    4    0    0  0.31760374632E+02  0.21978738731E+01  0.35224562873E+02  0.47479699619E+02  0.00000000000E+00 0. -1.
         -1    1    1    2    0  502  0.17419485977E+03 -0.46854723708E+02 -0.26920933695E+02  0.18238407544E+03  0.00000000000E+00 0.  1.
<scales pt_clust_5="13000.00000" pt_clust_6="13000.00000" pt_clust_7="13000.00000" pt_clust_8="13000.00000" pt_clust_9="13000.00000"></scales>
<clustering>
<clus scale="   90.428">  7  8 -1 -1</clus>
<clus scale="   92.384">  5  6 -1 -1</clus>
<clus scale="  180.386">  7  9 -1 -1</clus>
<clus scale="  190.488">  1  5  2 -1</clus>
<clus scale="  367.762">  2  5  1 -1</clus>
</clustering>
</event>
<event>
 9    1  0.3303741E-006  0.2163680E+03  0.7546771E-02  0.1170219E+00
         21   -1    0    0  501  502  0.00000000000E+00  0.00000000000E+00  0.13669572476E+03  0.13669572476E+03  0.00000000000E+00 0.  1.
         -4   -1    0    0    0  501 -0.00000000000E+00 -0.00000000000E+00 -0.18160296280E+03  0.18160296280E+03  0.00000000000E+00 0.  1.
         23    2    1    2    0    0 -0.25930185636E+02 -0.23738448590E+02 -0.42738371265E+01  0.98148301999E+02  0.91536522945E+02 0.  0.
         23    2    1    2    0    0  0.24777283212E+02  0.48737973917E+02 -0.10631580682E+03  0.14986180970E+03  0.90367070116E+02 0.  0.
        -11    1    4    4    0    0  0.32027303183E+02  0.72231002573E+02 -0.67526765989E+02  0.10393714450E+03  0.00000000000E+00 0. -1.
         11    1    4    4    0    0 -0.72500199711E+01 -0.23493028656E+02 -0.38789040832E+02  0.45924665200E+02  0.00000000000E+00 0.  1.
        -13    1    3    3    0    0 -0.36046114233E+02 -0.54402926677E+02 -0.75326419117E+01  0.65694303227E+02  0.00000000000E+00 0. -1.
         13    1    3    3    0    0  0.10115928597E+02  0.30664478086E+02  0.32588047852E+01  0.32453998772E+02  0.00000000000E+00 0.  1.
         -4    1    1    2    0  502  0.11529024239E+01 -0.24999525326E+02  0.65682405911E+02  0.70288575863E+02  0.00000000000E+00 0.  1.
<scales pt_clust_5="13000.00000" pt_clust_6="13000.00000" pt_clust_7="13000.00000" pt_clust_8="13000.00000" pt_clust_9="13000.00000"></scales>
<clustering>
<clus scale="   90.367">  5  6 -1 -1</clus>
<clus scale="   25.026">  5  9 -1 -1</clus>
<clus scale="   91.537">  7  8 -1 -1</clus>
<clus scale="   98.055">  2  7  1 -1</clus>
<clus scale="  216.368">  1  5  2 -1</clus>
</clustering>
</event>
<event>
 9    1  0.3303741E-006  0.4840889E+03  0.7546771E-02  0.1065955E+00
          2   -1    0    0  502    0 -0.00000000000E+00  0.00000000000E+00  0.89755848587E+03  0.89755848587E+03  0.00000000000E+00 0. -1.
         21   -1    0    0  501  502  0.00000000000E+00 -0.00000000000E+00 -0.10248942304E+03  0.10248942304E+03  0.00000000000E+00 0. -1.
         23    2    1    2    0    0  0.74133694775E+01 -0.78297041735E+02  0.12808469349E+03  0.17590580488E+03  0.91388066476E+02 0.  0.
         23    2    1    2    0    0 -0.95730665560E+02 -0.10447329752E+03  0.57848616878E+03  0.60269939540E+03  0.92310798554E+02 0.  0.
        -11    1    4    4    0    0 -0.13759574397E+02 -0.73623474454E+02  0.18505728949E+03  0.19963953083E+03  0.00000000000E+00 0.  1.
         11    1    4    4    0    0 -0.81971091163E+02 -0.30849823070E+02  0.39342887929E+03  0.40305986457E+03  0.00000000000E+00 0. -1.
        -13    1    3    3    0    0  0.12166983010E+02  0.17237496927E+02  0.42954493401E+02  0.47856611656E+02  0.00000000000E+00 0.  1.
         13    1    3    3    0    0 -0.47536135330E+01 -0.95534538662E+02  0.85130200084E+02  0.12804919322E+03  0.00000000000E+00 0. -1.
          2    1    1    2  501    0  0.88317296083E+02  0.18277033926E+03  0.88498200572E+02  0.22144270863E+03  0.00000000000E+00 0. -1.
<scales pt_clust_5="13000.00000" pt_clust_6="13000.00000" pt_clust_7="13000.00000" pt_clust_8="13000.00000" pt_clust_9="13000.00000"></scales>
<clustering>
<clus scale="   91.388">  7  8 -1 -1</clus>
<clus scale="   92.311">  5  6 -1 -1</clus>
<clus scale="  120.570">  1  7  2 -1</clus>
<clus scale="  189.197">  5  9 -1 -1</clus>
<clus scale="  484.089">  2  5  1 -1</clus>
</clustering>
</event>
<event>
 9    1  0.3303741E-006  0.1727670E+03  0.7546771E-02  0.1189634E+00
         21   -1    0    0  501  502  0.00000000000E+00  0.00000000000E+00  0.51906523805E+02  0.51906523805E+02  0.00000000000E+00 0.  1.
          1   -1    0    0  502    0 -0.00000000000E+00 -0.00000000000E+00 -0.43513623867E+03  0.43513623867E+03  0.00000000000E+00 0. -1.
         23    2    1    2    0    0  0.57319797035E+02 -0.71755665847E+02 -0.19684944506E+03  0.23290489532E+03  0.84027088085E+02 0.  0.
         23    2    1    2    0    0 -0.16000399155E+02  0.64344516460E+02 -0.75371124756E+02  0.13545657941E+03  0.90947506209E+02 0.  0.
        -13    1    4    4    0    0  0.35646965536E+02  0.43024047089E+02 -0.29609107923E+02  0.63233488373E+02  0.00000000000E+00 0.  1.
         13    1    4    4    0    0 -0.51647364691E+02  0.21320469371E+02 -0.45762016832E+02  0.72223091032E+02  0.00000000000E+00 0. -1.
        -13    1    3    3    0    0  0.79320153585E+02 -0.60378104668E+02 -0.15951787876E+03  0.18810410929E+03  0.00000000000E+00 0. -1.
         13    1    3    3    0    0 -0.22000356550E+02 -0.11377561179E+02 -0.37331566300E+02  0.44800786033E+02  0.00000000000E+00 0.  1.
          1    1    1    2  501    0 -0.41319397880E+02  0.74111493867E+01 -0.11100914505E+03  0.11868128774E+03  0.00000000000E+00 0. -1.
<scales pt_clust_5="13000.00000" pt_clust_6="13000.00000" pt_clust_7="13000.00000" pt_clust_8="13000.00000" pt_clust_9="13000.00000"></scales>
<clustering>
<clus scale="   84.027">  7  8 -1 -1</clus>
<clus scale="   90.948">  5  6 -1 -1</clus>
<clus scale="   41.979">  5  9 -1 -1</clus>
<clus scale="  124.479">  2  7  1 -1</clus>
<clus scale="  172.767">  1  5  2 -1</clus>
</clustering>
</event>
<event>
 9    1  0.3303741E-006  0.4425369E+03  0.7546771E-02  0.1085584E+00
         21   -1    0    0  501  502  0.00000000000E+00  0.00000000000E+00  0.50834112775E+03  0.50834112775E+03  0.00000000000E+00 0. -1.
          1   -1    0    0  502    0 -0.00000000000E+00 -0.00000000000E+00 -0.14648131558E+03  0.14648131558E+03  0.00000000000E+00 0. -1.
         23    2    1    2    0    0 -0.45370842702E+01  0.20844986138E+02  0.11647470325E+03  0.14880585614E+03  0.90120628842E+02 0.  0.
         23    2    1    2    0    0  0.39668660483E+02 -0.20267680414E+03  0.49269234920E+02  0.23627880022E+03  0.10367605492E+03 0.  0.
        -11    1    3    3    0    0 -0.35227280045E+02  0.25758468513E+02  0.10815967932E+03  0.11663179751E+03  0.00000000000E+00 0.  1.
         11    1    3    3    0    0  0.30690195775E+02 -0.49134823749E+01  0.83150239303E+01  0.32174058629E+02  0.00000000000E+00 0. -1.
        -13    1    4    4    0    0  0.68284684778E+02 -0.16502401793E+03  0.58821214318E+02  0.18803100788E+03  0.00000000000E+00 0. -1.
         13    1    4    4    0    0 -0.28616024296E+02 -0.37652786211E+02 -0.95519793980E+01  0.48247792347E+02  0.00000000000E+00 0.  1.
          1    1    1    2  501    0 -0.35131576212E+02  0.18183181801E+03  0.19611587400E+03  0.26973778697E+03  0.00000000000E+00 0. -1.
<scales pt_clust_5="13000.00000" pt_clust_6="13000.00000" pt_clust_7="13000.00000" pt_clust_8="13000.00000" pt_clust_9="13000.00000"></scales>
<clustering>
<clus scale="   90.121">  5  6 -1 -1</clus>
<clus scale="   92.611">  2  5  1 -1</clus>
<clus scale="  103.676">  7  8 -1 -1</clus>
<clus scale="  191.219">  7  9 -1 -1</clus>
<clus scale="  442.537">  1  5  2 -1</clus>
</clustering>
</event>
<event>
 9    1  0.3303741E-006  0.2405493E+03  0.7546771E-02  0.1159065E+00
         21   -1    0    0  501  502  0.00000000000E+00  0.00000000000E+00  0.80414613430E+02  0.80414613430E+02  0.00000000000E+00 0.  1.
         -2   -1    0    0    0  501 -0.00000000000E+00 -0.00000000000E+00 -0.55057594900E+03  0.55057594900E+03  0.00000000000E+00 0.  1.
         23    2    1    2    0    0 -0.18577345726E+02 -0.60522138935E+01 -0.35024680156E+03  0.36220911746E+03  0.90226801486E+02 0.  0.
         23    2    1    2    0    0  0.11002675960E+03  0.68377110215E+01 -0.42725326281E+02  0.14910777997E+03  0.90857219977E+02 0.  0.
        -13    1    4    4    0    0  0.53302017185E+02  0.11226222308E+02 -0.67767836190E+02  0.86946033407E+02  0.00000000000E+00 0.  1.
         13    1    4    4    0    0  0.56724742414E+02 -0.43885112869E+01  0.25042509909E+02  0.62161746563E+02  0.00000000000E+00 0. -1.
        -13    1    3    3    0    0  0.21362420050E+02 -0.29475705036E+02 -0.78295802284E+02  0.86344674607E+02  0.00000000000E+00 0. -1.
         13    1    3    3    0    0 -0.39939765776E+02  0.23423491142E+02 -0.27195099927E+03  0.27586444286E+03  0.00000000000E+00 0.  1.
         -2    1    1    2    0  502 -0.91449413873E+02 -0.78549712800E+00 -0.77189207736E+02  0.11967366500E+03  0.00000000000E+00 0.  1.
<scales pt_clust_5="13000.00000" pt_clust_6="13000.00000" pt_clust_7="13000.00000" pt_clust_8="13000.00000" pt_clust_9="13000.00000"></scales>
<clustering>
<clus scale="   90.227">  7  8 -1 -1</clus>
<clus scale="   90.857">  5  6 -1 -1</clus>
<clus scale="   91.453">  5  9 -1 -1</clus>
<clus scale="   92.318">  2  7  1 -1</clus>
<clus scale="  240.549">  1  5  2 -1</clus>
</clustering>
</event>
<event>
 9    1  0.3303741E-006  0.2229003E+03  0.7546771E-02  0.1164793E+00
          1   -1    0    0  502    0 -0.00000000000E+00  0.00000000000E+00  0.70053282514E+03  0.70053282514E+03  0.00000000000E+00 0. -1.
         21   -1    0    0  501  502  0.00000000000E+00 -0.00000000000E+00 -0.37762199214E+02  0.37762199214E+02  0.00000000000E+00 0. -1.
         23    2    1    2    0    0  0.13844495297E+02 -0.45595891756E+02  0.18409377886E+03  0.21026467830E+03  0.89722127307E+02 0.  0.
         23    2    1    2    0    0 -0.18029912205E+02 -0.83995855100E+01  0.46182289872E+03  0.47131099438E+03  0.91967564216E+02 0.  0.
        -11    1    3    3    0    0 -0.37819691562E+02 -0.12865578957E+02  0.82938802017E+02  0.92058117903E+02  0.00000000000E+00 0.  1.
         11    1    3    3    0    0  0.51664186859E+02 -0.32730312799E+02  0.10115497685E+03  0.11820656039E+03  0.00000000000E+00 0. -1.
        -13    1    4    4    0    0 -0.55621364260E+02 -0.83708053982E+01  0.25958692592E+03  0.26561095357E+03  0.00000000000E+00 0. -1.
         13    1    4    4    0    0  0.37591452054E+02 -0.28780111795E-01  0.20223597280E+03  0.20570004081E+03  0.00000000000E+00 0.  1.
          1    1    1    2  501    0  0.41854169084E+01  0.53995477266E+02  0.16853948342E+02  0.56719351676E+02  0.00000000000E+00 0. -1.
<scales pt_clust_5="13000.00000" pt_clust_6="13000.00000" pt_clust_7="13000.00000" pt_clust_8="13000.00000" pt_clust_9="13000.00000"></scales>
<clustering>
<clus scale="   89.722">  5  6 -1 -1</clus>
<clus scale="   91.968">  7  8 -1 -1</clus>
<clus scale="   54.157">  7  9 -1 -1</clus>
<clus scale="  101.591">  1  5  2 -1</clus>
<clus scale="  222.900">  2  5  1 -1</clus>
</clustering>
</event>
<event>
 9    1  0.3303741E-006  0.2127903E+03  0.7546771E-02  0.1167606E+00
         21   -1    0    0  501  502  0.00000000000E+00  0.00000000000E+00  0.38687151503E+03  0.38687151503E+03  0.00000000000E+00 0.  1.
         -3   -1    0    0    0  501 -0.00000000000E+00 -0.00000000000E+00 -0.71001356875E+02  0.71001356875E+02  0.00000000000E+00 0.  1.
         23    2    1    2    0    0  0.57943498180E+02 -0.28835557403E+01  0.59078651395E+02  0.12437383591E+03  0.92805172984E+02 0.  0.
         23    2    1    2    0    0 -0.12709634098E+01  0.14782198724E+02  0.24643389001E+02  0.94237458471E+02  0.89740031259E+02 0.  0.
        -11    1    4    4    0    0 -0.34383132813E+02 -0.13514654665E+02  0.33407203196E+02  0.49808502669E+02  0.00000000000E+00 0. -1.
         11    1    4    4    0    0  0.33112169403E+02  0.28296853390E+02 -0.87638141950E+01  0.44428955801E+02  0.00000000000E+00 0.  1.
        -13    1    3    3    0    0  0.78309532499E+02 -0.20277548557E+02  0.34220889470E+02  0.87832972919E+02  0.00000000000E+00 0.  1.
         13    1    3    3    0    0 -0.20366034319E+02  0.17393992817E+02  0.24857761925E+02  0.36540862988E+02  0.00000000000E+00 0. -1.
         -3    1    1    2    0  502 -0.56672534770E+02 -0.11898642984E+02  0.23214811776E+03  0.23926157753E+03  0.00000000000E+00 0.  1.
<scales pt_clust_5="13000.00000" pt_clust_6="13000.00000" pt_clust_7="13000.00000" pt_clust_8="13000.00000" pt_clust_9="13000.00000"></scales>
<clustering>
<clus scale="   89.740">  5  6 -1 -1</clus>
<clus scale="   57.908">  5  9 -1 -1</clus>
<clus scale="   92.805">  7  8 -1 -1</clus>
<clus scale="  109.447">  2  7  1 -1</clus>
<clus scale="  212.790">  1  5  2 -1</clus>
</clustering>
</event>
<event>
 9    1  0.3303741E-006  0.3610802E+03  0.7546771E-02  0.1087234E+00
         -3   -1    0    0    0  501 -0.00000000000E+00  0.00000000000E+00  0.97842647701E+02  0.97842647701E+02  0.00000000000E+00 0.  1.
         21   -1    0    0  501  502  0.00000000000E+00 -0.00000000000E+00 -0.83728442309E+03  0.83728442309E+03  0.00000000000E+00 0.  1.
         23    2    1    2    0    0  0.94060290565E+02  0.10144623169E+03 -0.76453117721E+02  0.18018809108E+03  0.86510073246E+02 0.  0.
         23    2    1    2    0    0  0.58160497822E+02  0.58136279807E+02 -0.12954768338E+03  0.17770677388E+03  0.89636067951E+02 0.  0.
        -11    1    4    4    0    0 -0.16161654365E+02  0.30885601121E+02 -0.13826421207E+02  0.37500524687E+02  0.00000000000E+00 0. -1.
         11    1    4    4    0    0  0.74322152187E+02  0.27250678687E+02 -0.11572126217E+03  0.14020624919E+03  0.00000000000E+00 0.  1.
        -11    1    3    3    0    0  0.96441812786E+01  0.19601643638E+02 -0.56959357469E+02  0.61004942989E+02  0.00000000000E+00 0. -1.
         11    1    3    3    0    0  0.84416109286E+02  0.81844588052E+02 -0.19493760252E+02  0.11918314809E+03  0.00000000000E+00 0.  1.
         -3    1    1    2    0  502 -0.15222078839E+03 -0.15958251150E+03 -0.53344097429E+03  0.57723220583E+03  0.00000000000E+00 0.  1.
<scales pt_clust_5="13000.00000" pt_clust_6="13000.00000" pt_clust_7="13000.00000" pt_clust_8="13000.00000" pt_clust_9="13000.00000"></scales>
<clustering>
<clus scale="   86.510">  7  8 -1 -1</clus>
<clus scale="   89.636">  5  6 -1 -1</clus>
<clus scale="  163.165">  1  7  2 -1</clus>
<clus scale="  154.664">  5  9 -1 -1</clus>
<clus scale="  361.080">  2  5  1 -1</clus>
</clustering>
</event>
<event>
 9    1  0.3303741E-006  0.1647912E+03  0.7546771E-02  0.1205349E+00
          3   -1    0    0  502    0 -0.00000000000E+00  0.00000000000E+00  0.44341743233E+02  0.44341743233E+02  0.00000000000E+00 0. -1.
         21   -1    0    0  501  502  0.00000000000E+00 -0.00000000000E+00 -0.44038829124E+03  0.44038829124E+03  0.00000000000E+00 0. -1.
         23    2    1    2    0    0 -0.42851642061E+02  0.27494288548E+02 -0.84601931983E+02  0.13237526026E+03  0.88167587601E+02 0.  0.
         23    2    1    2    0    0 -0.11819676816E+02 -0.23308831206E+02 -0.11518389087E+03  0.14857856510E+03  0.90140195918E+02 0.  0.
        -11    1    3    3    0    0 -0.68882641107E+02  0.30802329437E+02 -0.59962149635E+02  0.96379775542E+02  0.00000000000E+00 0.  1.
         11    1    3    3    0    0  0.26030999046E+02 -0.33080408895E+01 -0.24639782349E+02  0.35995484718E+02  0.00000000000E+00 0. -1.
        -13    1    4    4    0    0 -0.40782466734E+01  0.21859199774E+02  0.24140246384E+01  0.22367034351E+02  0.00000000000E+00 0. -1.
         13    1    4    4    0    0 -0.77414301430E+01 -0.45168030980E+02 -0.11759791551E+03  0.12621153075E+03  0.00000000000E+00 0.  1.
          3    1    1    2  501    0  0.54671318877E+02 -0.41854573417E+01 -0.19626072515E+03  0.20377620911E+03  0.00000000000E+00 0. -1.
<scales pt_clust_5="13000.00000" pt_clust_6="13000.00000" pt_clust_7="13000.00000" pt_clust_8="13000.00000" pt_clust_9="13000.00000"></scales>
<clustering>
<clus scale="   88.168">  5  6 -1 -1</clus>
<clus scale="   90.140">  7  8 -1 -1</clus>
<clus scale="   54.831">  7  9 -1 -1</clus>
<clus scale="  101.812">  1  5  2 -1</clus>
<clus scale="  164.791">  2  5  1 -1</clus>
</clustering>
</event>
<event>
 9    1  0.3303741E-006  0.1945669E+03  0.7546771E-02  0.1180131E+00
          3   -1    0    0  502    0 -0.00000000000E+00  0.00000000000E+00  0.59634949349E+02  0.59634949349E+02  0.00000000000E+00 0. -1.
         21   -1    0    0  501  502  0.00000000000E+00 -0.00000000000E+00 -0.40292385033E+03  0.40292385033E+03  0.00000000000E+00 0. -1.
         23    2    1    2    0    0  0.34291784160E+02 -0.46209543710E+02 -0.75444890883E+02  0.13150487978E+03  0.91051378098E+02 0.  0.
         23    2    1    2    0    0 -0.47361744528E+02  0.10805723993E+02 -0.59265095488E+02  0.11908831436E+03  0.91157975831E+02 0.  0.
        -11    1    3    3    0    0  0.59351902553E+02 -0.51130507510E+01 -0.41131188323E+02  0.72391755591E+02  0.00000000000E+00 0.  1.
         11    1    3    3    0    0 -0.25060118393E+02 -0.41096492959E+02 -0.34313702560E+02  0.59113124184E+02  0.00000000000E+00 0. -1.
        -13    1    4    4    0    0 -0.69987628181E+02 -0.93410561241E+01 -0.29204125327E+02  0.76409452059E+02  0.00000000000E+00 0. -1.
         13    1    4    4    0    0  0.22625883652E+02  0.20146780117E+02 -0.30060970160E+02  0.42678862299E+02  0.00000000000E+00 0.  1.
          3    1    1    2  501    0  0.13069960369E+02  0.35403819717E+02 -0.20857891461E+03  0.21196560555E+03  0.00000000000E+00 0. -1.
<scales pt_clust_5="13000.00000" pt_clust_6="13000.00000" pt_clust_7="13000.00000" pt_clust_8="13000.00000" pt_clust_9="13000.00000"></scales>
<clustering>
<clus scale="   91.051">  5  6 -1 -1</clus>
<clus scale="   91.158">  7  8 -1 -1</clus>
<clus scale="   37.739">  7  9 -1 -1</clus>
<clus scale="  107.711">  1  5  2 -1</clus>
<clus scale="  194.567">  2  5  1 -1</clus>
</clustering>
</event>
<event>
 9    1  0.3303741E-006  0.3523710E+03  0.7546771E-02  0.1097745E+00
         21   -1    0    0  501  502  0.00000000000E+00  0.00000000000E+00  0.26208442778E+03  0.26208442778E+03  0.00000000000E+00 0. -1.
          1   -1    0    0  502    0 -0.00000000000E+00 -0.00000000000E+00 -0.22730129064E+03  0.22730129064E+03  0.00000000000E+00 0. -1.
         23    2    1    2    0    0 -0.62434864169E+02  0.73128347962E+02 -0.13061788166E+02  0.13378137238E+03  0.92092224137E+02 0.  0.
         23    2    1    2    0    0 -0.91907161125E+02 -0.87093528903E+02 -0.58834984749E+02  0.16746320151E+03  0.92467071915E+02 0.  0.
        -11    1    3    3    0    0 -0.33266265853E+02 -0.13035410280E+02 -0.22660763353E+02  0.42309296387E+02  0.00000000000E+00 0. -1.
         11    1    3    3    0    0 -0.29168598316E+02  0.86163758242E+02  0.95989751872E+01  0.91472075995E+02  0.00000000000E+00 0.  1.
        -13    1    4    4    0    0 -0.75415026774E+02 -0.11301793915E+02 -0.12969985950E+02  0.77352293725E+02  0.00000000000E+00 0.  1.
         13    1    4    4    0    0 -0.16492134351E+02 -0.75791734987E+02 -0.45864998799E+02  0.90110907790E+02  0.00000000000E+00 0. -1.
          1    1    1    2  501    0  0.15434202529E+03  0.13965180940E+02  0.10667991006E+03  0.18814114452E+03  0.00000000000E+00 0. -1.
<scales pt_clust_5="13000.00000" pt_clust_6="13000.00000" pt_clust_7="13000.00000" pt_clust_8="13000.00000" pt_clust_9="13000.00000"></scales>
<clustering>
<clus scale="   92.092">  5  6 -1 -1</clus>
<clus scale="   92.467">  7  8 -1 -1</clus>
<clus scale="  133.142">  2  5  1 -1</clus>
<clus scale="  141.787">  7  9 -1 -1</clus>
<clus scale="  352.371">  1  5  2 -1</clus>
</clustering>
</event>
<event>
 9    1  0.3303741E-006  0.1782163E+03  0.7546771E-02  0.1180385E+00
         21   -1    0    0  501  502  0.00000000000E+00  0.00000000000E+00  0.10407450504E+03  0.10407450504E+03  0.00000000000E+00 0. -1.
         -3   -1    0    0    0  501 -0.00000000000E+00 -0.00000000000E+00 -0.24891233726E+03  0.24891233726E+03  0.00000000000E+00 0.  1.
         23    2    1    2    0    0  0.55475065291E+02 -0.88306307068E+02 -0.92419904595E+02  0.16722165874E+03  0.92445430659E+02 0.  0.
         23    2    1    2    0    0 -0.21202664153E+02  0.24585895892E+02 -0.11635443225E+01  0.97097827169E+02  0.91501994303E+02 0.  0.
        -11    1    3    3    0    0  0.26409435753E+02 -0.81910764245E+02 -0.10425963256E+03  0.13519209510E+03  0.00000000000E+00 0.  1.
         11    1    3    3    0    0  0.29065629538E+02 -0.63955428231E+01  0.11839727969E+02  0.32029563638E+02  0.00000000000E+00 0. -1.
        -11    1    4    4    0    0 -0.40341618021E+02 -0.18711757903E+02  0.15222241442E+02  0.47003113332E+02  0.00000000000E+00 0.  1.
         11    1    4    4    0    0  0.19138953868E+02  0.43297653795E+02 -0.16385785765E+02  0.50094713837E+02  0.00000000000E+00 0. -1.
         -3    1    1    2    0  502 -0.34272401138E+02  0.63720411176E+02 -0.51254383306E+02  0.88667356385E+02  0.00000000000E+00 0.  1.
<scales pt_clust_5="13000.00000" pt_clust_6="13000.00000" pt_clust_7="13000.00000" pt_clust_8="13000.00000" pt_clust_9="13000.00000"></scales>
<clustering>
<clus scale="   91.502">  7  8 -1 -1</clus>
<clus scale="   72.353">  7  9 -1 -1</clus>
<clus scale="   92.445">  5  6 -1 -1</clus>
<clus scale="  139.362">  2  5  1 -1</clus>
<clus scale="  178.216">  1  5  2 -1</clus>
</clustering>
</event>
<event>
 9    1  0.3303741E-006  0.4232047E+03  0.7546771E-02  0.1090882E+00
          1   -1    0    0  502    0 -0.00000000000E+00  0.00000000000E+00  0.49133587660E+03  0.49133587660E+03  0.00000000000E+00 0. -1.
         21   -1    0    0  501  502  0.00000000000E+00 -0.00000000000E+00 -0.17275590055E+03  0.17275590055E+03  0.00000000000E+00 0. -1.
         23    2    1    2    0    0  0.56649966009E+01  0.23131424373E+01  0.20684386093E+03  0.22638508060E+03  0.91806204041E+02 0.  0.
         23    2    1    2    0    0 -0.21089336420E+01 -0.17845431833E+03 -0.41084956010E+02  0.20448440086E+03  0.90969804054E+02 0.  0.
        -13    1    3    3    0    0  0.25230622133E+02 -0.38648722769E+02  0.11557455563E+03  0.12444993361E+03  0.00000000000E+00 0.  1.
         13    1    3    3    0    0 -0.19565625533E+02  0.40961865206E+02  0.91269305295E+02  0.10193514699E+03  0.00000000000E+00 0. -1.
        -13    1    4    4    0    0 -0.22843018330E+01 -0.15557646418E+03 -0.67443670901E+02  0.16958155262E+03  0.00000000000E+00 0. -1.
         13    1    4    4    0    0  0.17536819104E+00 -0.22877854150E+02  0.26358714891E+02  0.34902848239E+02  0.00000000000E+00 0.  1.
          1    1    1    2  501    0 -0.35560629589E+01  0.17614117590E+03  0.15282107113E+03  0.23322229570E+03  0.00000000000E+00 0. -1.
<scales pt_clust_5="13000.00000" pt_clust_6="13000.00000" pt_clust_7="13000.00000" pt_clust_8="13000.00000" pt_clust_9="13000.00000"></scales>
<clustering>
<clus scale="   90.970">  7  8 -1 -1</clus>
<clus scale="   91.806">  5  6 -1 -1</clus>
<clus scale="   92.010">  1  5  2 -1</clus>
<clus scale="  177.767">  7  9 -1 -1</clus>
<clus scale="  423.205">  2  5  1 -1</clus>
</clustering>
</event>
<event>
 9    1  0.3303741E-006  0.2043849E+03  0.7546771E-02  0.1179703E+00
          3   -1    0    0  502    0 -0.00000000000E+00  0.00000000000E+00  0.53668226788E+02  0.53668226788E+02  0.00000000000E+00 0. -1.
         21   -1    0    0  501  502  0.00000000000E+00 -0.00000000000E+00 -0.44378077945E+03  0.44378077945E+03  0.00000000000E+00 0.  1.
         23    2    1    2    0    0 -0.10960983787E+02  0.20492299348E+02 -0.67639728153E+02  0.11566122581E+03  0.90897243261E+02 0.  0.
         23    2    1    2    0    0 -0.65875646273E+02 -0.33986287674E+02 -0.24428905694E+03  0.27134025012E+03  0.91944110602E+02 0.  0.
        -11    1    3    3    0    0 -0.29532598369E+02  0.35154285943E+02 -0.20775990774E+01  0.45959923896E+02  0.00000000000E+00 0.  1.
         11    1    3    3    0    0  0.18571614582E+02 -0.14661986595E+02 -0.65562129076E+02  0.69701301911E+02  0.00000000000E+00 0. -1.
        -11    1    4    4    0    0  0.18949903453E+01 -0.48616777941E+02 -0.94817846009E+02  0.10657206955E+03  0.00000000000E+00 0. -1.
         11    1    4    4    0    0 -0.67770636618E+02  0.14630490267E+02 -0.14947121093E+03  0.16476818057E+03  0.00000000000E+00 0.  1.
          3    1    1    2  501    0  0.76836630060E+02  0.13493988327E+02 -0.78183767570E+02  0.11044753031E+03  0.00000000000E+00 0. -1.
<scales pt_clust_5="13000.00000" pt_clust_6="13000.00000" pt_clust_7="13000.00000" pt_clust_8="13000.00000" pt_clust_9="13000.00000"></scales>
<clustering>
<clus scale="   90.897">  5  6 -1 -1</clus>
<clus scale="   91.944">  7  8 -1 -1</clus>
<clus scale="   78.013">  7  9 -1 -1</clus>
<clus scale="   93.821">  1  5  2 -1</clus>
<clus scale="  204.385">  2  5  1 -1</clus>
</clustering>
</event>
<event>
 9    1  0.3303741E-006  0.3492831E+03  0.7546771E-02  0.1110552E+00
         21   -1    0    0  501  502  0.00000000000E+00  0.00000000000E+00  0.78010708558E+02  0.78010708558E+02  0.00000000000E+00 0.  1.
         -1   -1    0    0    0  501 -0.00000000000E+00 -0.00000000000E+00 -0.65404267983E+03  0.65404267983E+03  0.00000000000E+00 0.  1.
         23    2    1    2    0    0 -0.16169486611E+02 -0.23268703299E+02 -0.17076332267E+03  0.19703810855E+03  0.94132985724E+02 0.  0.
         23    2    1    2    0    0  0.12280672545E+03  0.10540028379E+03 -0.11969771574E+03  0.21931311812E+03  0.87063132192E+02 0.  0.
        -11    1    3    3    0    0 -0.54695473886E+02 -0.11909168004E+02 -0.11909463859E+03  0.13159390596E+03  0.00000000000E+00 0.  1.
         11    1    3    3    0    0  0.38525987275E+02 -0.11359535295E+02 -0.51668684085E+02  0.65444202590E+02  0.00000000000E+00 0. -1.
        -13    1    4    4    0    0  0.11408864783E+03  0.73175988972E+02 -0.12632285768E+03  0.18527927379E+03  0.00000000000E+00 0.  1.
         13    1    4    4    0    0  0.87180776162E+01  0.32224294817E+02  0.66251419359E+01  0.34033844324E+02  0.00000000000E+00 0. -1.
         -1    1    1    2    0  502 -0.10663723884E+03 -0.82131580490E+02 -0.28557093286E+03  0.31570216172E+03  0.00000000000E+00 0.  1.
<scales pt_clust_5="13000.00000" pt_clust_6="13000.00000" pt_clust_7="13000.00000" pt_clust_8="13000.00000" pt_clust_9="13000.00000"></scales>
<clustering>
<clus scale="   87.063">  7  8 -1 -1</clus>
<clus scale="   94.133">  5  6 -1 -1</clus>
<clus scale="   98.305">  2  5  1 -1</clus>
<clus scale="  151.970">  7  9 -1 -1</clus>
<clus scale="  349.283">  1  5  2 -1</clus>
</clustering>
</event>
<event>
 9    1  0.3303741E-006  0.1808895E+03  0.7546771E-02  0.1193624E+00
          2   -1    0    0  502    0 -0.00000000000E+00  0.00000000000E+00  0.15045872949E+03  0.15045872949E+03  0.00000000000E+00 0. -1.
         21   -1    0    0  501  502  0.00000000000E+00 -0.00000000000E+00 -0.15499482140E+03  0.15499482140E+03  0.00000000000E+00 0.  1.
         23    2    1    2    0    0  0.13855969359E+01 -0.36848597847E+02  0.56837313617E+02  0.11443603781E+03  0.92224657698E+02 0.  0.
         23    2    1    2    0    0 -0.67666482231E+02  0.58622593071E+02 -0.21876740658E+02  0.11084738673E+03  0.61588879902E+02 0.  0.
        -11    1    3    3    0    0 -0.40934267680E+02 -0.39135722955E+02  0.36949532992E+02  0.67620167628E+02  0.00000000000E+00 0. -1.
         11    1    3    3    0    0  0.42319864616E+02  0.22871251084E+01  0.19887780625E+02  0.46815870179E+02  0.00000000000E+00 0.  1.
        -13    1    4    4    0    0  0.84420015171E+01  0.22984721584E+02 -0.25814712052E+01  0.24621714187E+02  0.00000000000E+00 0. -1.
         13    1    4    4    0    0 -0.76108483749E+02  0.35637871487E+02 -0.19295269453E+02  0.86225672545E+02  0.00000000000E+00 0.  1.
          2    1    1    2  501    0  0.66280885295E+02 -0.21773995225E+02 -0.39496664870E+02  0.80170126353E+02  0.00000000000E+00 0. -1.
<scales pt_clust_5="13000.00000" pt_clust_6="13000.00000" pt_clust_7="13000.00000" pt_clust_8="13000.00000" pt_clust_9="13000.00000"></scales>
<clustering>
<clus scale="   61.589">  7  8 -1 -1</clus>
<clus scale="   69.766">  7  9 -1 -1</clus>
<clus scale="   92.225">  5  6 -1 -1</clus>
<clus scale="   99.323">  1  5  2 -1</clus>
<clus scale="  180.889">  2  5  1 -1</clus>
</clustering>
</event>
<event>
 9    1  0.3303741E-006  0.2794954E+03  0.7546771E-02  0.1111548E+00
          2   -1    0    0  502    0 -0.00000000000E+00  0.00000000000E+00  0.33738223566E+03  0.33738223566E+03  0.00000000000E+00 0. -1.
         21   -1    0    0  501  502  0.00000000000E+00 -0.00000000000E+00 -0.16758718511E+03  0.16758718511E+03  0.00000000000E+00 0.  1.
         23    2    1    2    0    0  0.15617031122E+03 -0.13958904710E+02  0.11669500435E+03  0.22047465223E+03  0.10201632766E+03 0.  0.
         23    2    1    2    0    0 -0.33672988455E+02  0.67469132904E+02  0.88821473183E+02  0.14612945875E+03  0.88196431724E+02 0.  0.
        -11    1    3    3    0    0  0.42639644395E+01  0.28193153401E+02  0.26075511504E+02  0.38638938800E+02  0.00000000000E+00 0. -1.
         11    1    3    3    0    0  0.15190634678E+03 -0.42152058111E+02  0.90619492847E+02  0.18183571343E+03  0.00000000000E+00 0.  1.
        -13    1    4    4    0    0  0.46591922361E+01  0.66380637812E+02  0.23857014656E+02  0.70691260400E+02  0.00000000000E+00 0.  1.
         13    1    4    4    0    0 -0.38332180691E+02  0.10884950917E+01  0.64964458527E+02  0.75438198347E+02  0.00000000000E+00 0. -1.
          2    1    1    2  501    0 -0.12249732277E+03 -0.53510228193E+02 -0.35721426981E+02  0.13836530978E+03  0.00000000000E+00 0. -1.
<scales pt_clust_5="13000.00000" pt_clust_6="13000.00000" pt_clust_7="13000.00000" pt_clust_8="13000.00000" pt_clust_9="13000.00000"></scales>
<clustering>
<clus scale="   88.196">  7  8 -1 -1</clus>
<clus scale="  102.016">  5  6 -1 -1</clus>
<clus scale="  133.675">  7  9 -1 -1</clus>
<clus scale="  187.060">  1  5  2 -1</clus>
<clus scale="  279.495">  2  5  1 -1</clus>
</clustering>
</event>
<event>
 9    1  0.3303741E-006  0.2838436E+03  0.7546771E-02  0.1133599E+00
         21   -1    0    0  501  502  0.00000000000E+00  0.00000000000E+00  0.48733823846E+03  0.48733823846E+03  0.00000000000E+00 0. -1.
          2   -1    0    0  502    0 -0.00000000000E+00 -0.00000000000E+00 -0.10585149457E+03  0.10585149457E+03  0.00000000000E+00 0. -1.
         23    2    1    2    0    0  0.53582347148E+02  0.33451563380E+01 -0.16390584746E+02  0.10444282990E+03  0.88076077644E+02 0.  0.
         23    2    1    2    0    0  0.45428650797E+02  0.12501097217E+02  0.30022444864E+02  0.10747076044E+03  0.91807284071E+02 0.  0.
        -11    1    3    3    0    0  0.13519714357E+02 -0.19676461392E+02 -0.44399089477E+02  0.50410563929E+02  0.00000000000E+00 0.  1.
         11    1    3    3    0    0  0.40062632791E+02  0.23021617730E+02  0.28008504731E+02  0.54032265975E+02  0.00000000000E+00 0. -1.
        -13    1    4    4    0    0  0.52345146169E+02 -0.29671890651E+02  0.21478608406E+02  0.63888700420E+02  0.00000000000E+00 0.  1.
         13    1    4    4    0    0 -0.69164953724E+01  0.42172987868E+02  0.85438364580E+01  0.43582060017E+02  0.00000000000E+00 0. -1.
          2    1    1    2  501    0 -0.99010997944E+02 -0.15846253555E+02  0.36785488377E+03  0.38127614268E+03  0.00000000000E+00 0. -1.
<scales pt_clust_5="13000.00000" pt_clust_6="13000.00000" pt_clust_7="13000.00000" pt_clust_8="13000.00000" pt_clust_9="13000.00000"></scales>
<clustering>
<clus scale="   88.076">  5  6 -1 -1</clus>
<clus scale="   91.807">  7  8 -1 -1</clus>
<clus scale="  100.271">  7  9 -1 -1</clus>
<clus scale="  103.149">  2  5  1 -1</clus>
<clus scale="  283.844">  1  5  2 -1</clus>
</clustering>
</event>
<event>
 9    1  0.3303741E-006  0.1961399E+03  0.7546771E-02  0.1168381E+00
         -1   -1    0    0    0  501 -0.00000000000E+00  0.00000000000E+00  0.69918573621E+02  0.69918573621E+02  0.00000000000E+00 0.  1.
         21   -1    0    0  501  502  0.00000000000E+00 -0.00000000000E+00 -0.40748420208E+03  0.40748420208E+03  0.00000000000E+00 0.  1.
         23    2    1    2    0    0  0.10200796924E+03  0.17734712950E+02 -0.17649526267E+03  0.22360263153E+03  0.90152167202E+02 0.  0.
         23    2    1    2    0    0 -0.38023047027E+02  0.27577481035E+02 -0.43068256067E+02  0.11212529427E+03  0.92254741718E+02 0.  0.
        -11    1    4    4    0    0  0.21427247168E+02 -0.93607357690E+01  0.88275647280E+01  0.24993523049E+02  0.00000000000E+00 0.  1.
         11    1    4    4    0    0 -0.59450294195E+02  0.36938216804E+02 -0.51895820795E+02  0.87131771223E+02  0.00000000000E+00 0. -1.
        -11    1    3    3    0    0  0.11036906325E+03  0.36391526359E+02 -0.14187429209E+03  0.18339571442E+03  0.00000000000E+00 0.  1.
         11    1    3    3    0    0 -0.83610940050E+01 -0.18656813410E+02 -0.34620970582E+02  0.40206917111E+02  0.00000000000E+00 0. -1.
         -1    1    1    2    0  502 -0.63984922214E+02 -0.45312193985E+02 -0.11800210973E+03  0.14167484990E+03  0.00000000000E+00 0.  1.
<scales pt_clust_5="13000.00000" pt_clust_6="13000.00000" pt_clust_7="13000.00000" pt_clust_8="13000.00000" pt_clust_9="13000.00000"></scales>
<clustering>
<clus scale="   90.152">  7  8 -1 -1</clus>
<clus scale="   92.255">  5  6 -1 -1</clus>
<clus scale="   78.405">  5  9 -1 -1</clus>
<clus scale="  137.286">  1  7  2 -1</clus>
<clus scale="  196.140">  2  5  1 -1</clus>
</clustering>
</event>
<event>
 9    1  0.3303741E-006  0.1343377E+03  0.7546771E-02  0.1239031E+00
          3   -1    0    0  502    0 -0.00000000000E+00  0.00000000000E+00  0.23430316994E+03  0.23430316994E+03  0.00000000000E+00 0. -1.
         21   -1    0    0  501  502  0.00000000000E+00 -0.00000000000E+00 -0.56035660217E+02  0.56035660217E+02  0.00000000000E+00 0.  1.
         23    2    1    2    0    0 -0.18235613705E+02  0.59934716261E+00  0.54579603694E+02  0.10773181033E+03  0.91073118935E+02 0.  0.
         23    2    1    2    0    0 -0.11642227901E+01 -0.13433201819E+02  0.12804840728E+03  0.15894110652E+03  0.93188381306E+02 0.  0.
        -11    1    3    3    0    0  0.11495302367E+02  0.33540658072E+02 -0.23705503520E+01  0.35535014132E+02  0.00000000000E+00 0.  1.
         11    1    3    3    0    0 -0.29730916072E+02 -0.32941310909E+02  0.56950154046E+02  0.72196796194E+02  0.00000000000E+00 0. -1.
        -13    1    4    4    0    0 -0.11948912836E+02  0.38845167666E+02  0.59640581122E+02  0.72171479724E+02  0.00000000000E+00 0. -1.
         13    1    4    4    0    0  0.10784690046E+02 -0.52278369485E+02  0.68407826155E+02  0.86769626798E+02  0.00000000000E+00 0.  1.
          3    1    1    2  501    0  0.19399836495E+02  0.12833854656E+02 -0.43605012533E+01  0.23665913305E+02  0.00000000000E+00 0. -1.
<scales pt_clust_5="13000.00000" pt_clust_6="13000.00000" pt_clust_7="13000.00000" pt_clust_8="13000.00000" pt_clust_9="13000.00000"></scales>
<clustering>
<clus scale="   91.073">  5  6 -1 -1</clus>
<clus scale="   92.883">  1  5  2 -1</clus>
<clus scale="   93.188">  7  8 -1 -1</clus>
<clus scale="   22.333">  7  9 -1 -1</clus>
<clus scale="  134.338">  2  5  1 -1</clus>
</clustering>
</event>
<event>
 9    1  0.3303741E-006  0.1143573E+03  0.7546771E-02  0.1256996E+00
         -3   -1    0    0    0  501 -0.00000000000E+00  0.00000000000E+00  0.16336244518E+03  0.16336244518E+03  0.00000000000E+00 0.  1.
         21   -1    0    0  501  502  0.00000000000E+00 -0.00000000000E+00 -0.76150713132E+02  0.76150713132E+02  0.00000000000E+00 0. -1.
         23    2    1    2    0    0 -0.48024060543E+02 -0.22673027322E+01  0.63444736194E+02  0.12271222202E+03  0.93389527412E+02 0.  0.
         23    2    1    2    0    0  0.28549729151E+02 -0.32834226332E+01  0.30189980020E+02  0.95556763886E+02  0.85987163763E+02 0.  0.
        -11    1    3    3    0    0 -0.46789740101E+02  0.27507973612E+02  0.73403885108E+02  0.91291285126E+02  0.00000000000E+00 0. -1.
         11    1    3    3    0    0 -0.12343204417E+01 -0.29775276344E+02 -0.99591489145E+01  0.31420936896E+02  0.00000000000E+00 0.  1.
        -11    1    4    4    0    0  0.41135741749E+02 -0.35967816099E+02  0.25219545293E+02  0.60181878576E+02  0.00000000000E+00 0.  1.
         11    1    4    4    0    0 -0.12586012598E+02  0.32684393466E+02  0.49704347278E+01  0.35374885311E+02  0.00000000000E+00 0. -1.
         -3    1    1    2    0  502  0.19474331392E+02  0.55507253653E+01 -0.64229841710E+01  0.21244172399E+02  0.00000000000E+00 0.  1.
<scales pt_clust_5="13000.00000" pt_clust_6="13000.00000" pt_clust_7="13000.00000" pt_clust_8="13000.00000" pt_clust_9="13000.00000"></scales>
<clustering>
<clus scale="   85.987">  7  8 -1 -1</clus>
<clus scale="   20.250">  7  9 -1 -1</clus>
<clus scale="   93.390">  5  6 -1 -1</clus>
<clus scale="  105.038">  1  5  2 -1</clus>
<clus scale="  114.357">  2  5  1 -1</clus>
</clustering>
</event>
<event>
 9    1  0.3303741E-006  0.1885756E+03  0.7546771E-02  0.1171828E+00
          1   -1    0    0  502    0 -0.00000000000E+00  0.00000000000E+00  0.29584674140E+03  0.29584674140E+03  0.00000000000E+00 0. -1.
         21   -1    0    0  501  502  0.00000000000E+00 -0.00000000000E+00 -0.96625242257E+02  0.96625242257E+02  0.00000000000E+00 0. -1.
         23    2    1    2    0    0 -0.10395648088E+03 -0.30455646117E+02  0.12519594273E+03  0.18988734912E+03  0.92998306334E+02 0.  0.
         23    2    1    2    0    0  0.38502337749E+02  0.58957784258E+02  0.55719260924E+02  0.12888431442E+03  0.92455827983E+02 0.  0.
        -11    1    4    4    0    0  0.34121931513E+02 -0.98594679500E+01  0.47688364462E+02  0.59461713931E+02  0.00000000000E+00 0.  1.
         11    1    4    4    0    0  0.43804062353E+01  0.68817252208E+02  0.80308964614E+01  0.69422600486E+02  0.00000000000E+00 0. -1.
        -13    1    3    3    0    0 -0.26056420716E+02 -0.32653032657E+02 -0.74852540682E+00  0.41781789006E+02  0.00000000000E+00 0.  1.
         13    1    3    3    0    0 -0.77900060162E+02  0.21973865398E+01  0.12594446814E+03  0.14810556011E+03  0.00000000000E+00 0. -1.
          1    1    1    2  501    0  0.65454143130E+02 -0.28502138141E+02  0.18306295483E+02  0.73700320120E+02  0.00000000000E+00 0. -1.
<scales pt_clust_5="13000.00000" pt_clust_6="13000.00000" pt_clust_7="13000.00000" pt_clust_8="13000.00000" pt_clust_9="13000.00000"></scales>
<clustering>
<clus scale="   92.456">  5  6 -1 -1</clus>
<clus scale="   71.391">  5  9 -1 -1</clus>
<clus scale="   92.998">  7  8 -1 -1</clus>
<clus scale="  142.770">  1  7  2 -1</clus>
<clus scale="  188.576">  2  5  1 -1</clus>
</clustering>
</event>
<event>
 9    1  0.3303741E-006  0.2194155E+03  0.7546771E-02  0.1172588E+00
         21   -1    0    0  501  502  0.00000000000E+00  0.00000000000E+00  0.18204107579E+03  0.18204107579E+03  0.00000000000E+00 0. -1.
          3   -1    0    0  502    0 -0.00000000000E+00 -0.00000000000E+00 -0.17644908613E+03  0.17644908613E+03  0.00000000000E+00 0. -1.
         23    2    1    2    0    0 -0.41632228238E+01 -0.12464071718E+02  0.86946809927E+02  0.12447783020E+03  0.88103898587E+02 0.  0.
         23    2    1    2    0    0  0.49708713488E+02  0.23962737449E+02 -0.12922837297E+03  0.16694156253E+03  0.90135142625E+02 0.  0.
        -11    1    3    3    0    0 -0.40026449038E+02 -0.29148403914E+02  0.47446801056E+02  0.68578021288E+02  0.00000000000E+00 0.  1.
         11    1    3    3    0    0  0.35863226214E+02  0.16684332196E+02  0.39500008871E+02  0.55899808910E+02  0.00000000000E+00 0. -1.
        -13    1    4    4    0    0  0.67933800900E+02  0.38649618085E+02 -0.11652559143E+03  0.14031039783E+03  0.00000000000E+00 0. -1.
         13    1    4    4    0    0 -0.18225087412E+02 -0.14686880635E+02 -0.12702781539E+02  0.26631164691E+02  0.00000000000E+00 0.  1.
          3    1    1    2  501    0 -0.45545490664E+02 -0.11498665732E+02  0.47873552701E+02  0.67070769205E+02  0.00000000000E+00 0. -1.
<scales pt_clust_5="13000.00000" pt_clust_6="13000.00000" pt_clust_7="13000.00000" pt_clust_8="13000.00000" pt_clust_9="13000.00000"></scales>
<clustering>
<clus scale="   88.104">  5  6 -1 -1</clus>
<clus scale="   89.079">  2  5  1 -1</clus>
<clus scale="   90.135">  7  8 -1 -1</clus>
<clus scale="   47.411">  7  9 -1 -1</clus>
<clus scale="  219.416">  1  5  2 -1</clus>
</clustering>
</event>
<event>
 9    1  0.3303741E-006  0.2071825E+03  0.7546771E-02  0.1157902E+00
         21   -1    0    0  501  502  0.00000000000E+00  0.00000000000E+00  0.21451926739E+03  0.21451926739E+03  0.00000000000E+00 0.  1.
          2   -1    0    0  502    0 -0.00000000000E+00 -0.00000000000E+00 -0.33797783901E+03  0.33797783901E+03  0.00000000000E+00 0. -1.
         23    2    1    2    0    0  0.11405760841E+03  0.22024682064E+02 -0.26348433481E+03  0.30243351286E+03  0.92454369041E+02 0.  0.
         23    2    1    2    0    0 -0.30419190324E+02 -0.52586874809E+02  0.10510271179E+03  0.15441291594E+03  0.95425688585E+02 0.  0.
        -11    1    3    3    0    0 -0.50693061952E+00 -0.24711640059E+02 -0.45643342203E+02  0.51906038382E+02  0.00000000000E+00 0.  1.
         11    1    3    3    0    0  0.11456453903E+03  0.46736322124E+02 -0.21784099261E+03  0.25052747448E+03  0.00000000000E+00 0. -1.
        -11    1    4    4    0    0  0.15544364505E+02 -0.54949256110E+02  0.88819089396E+02  0.10559298583E+03  0.00000000000E+00 0.  1.
         11    1    4    4    0    0 -0.45963554829E+02  0.23623813012E+01  0.16283622391E+02  0.48819930112E+02  0.00000000000E+00 0. -1.
          2    1    1    2  501    0 -0.83638418086E+02  0.30562192745E+02  0.34923051410E+02  0.95650677598E+02  0.00000000000E+00 0. -1.
<scales pt_clust_5="13000.00000" pt_clust_6="13000.00000" pt_clust_7="13000.00000" pt_clust_8="13000.00000" pt_clust_9="13000.00000"></scales>
<clustering>
<clus scale="   92.454">  5  6 -1 -1</clus>
<clus scale="   95.426">  7  8 -1 -1</clus>
<clus scale="   89.047">  7  9 -1 -1</clus>
<clus scale="  148.466">  2  5  1 -1</clus>
<clus scale="  207.182">  1  5  2 -1</clus>
</clustering>
</event>
<event>
 9    1  0.3303741E-006  0.3302155E+03  0.7546771E-02  0.1121237E+00
          1   -1    0    0  502    0 -0.00000000000E+00  0.00000000000E+00  0.67465220895E+03  0.67465220895E+03  0.00000000000E+00 0. -1.
         21   -1    0    0  501  502  0.00000000000E+00 -0.00000000000E+00 -0.65788550538E+02  0.65788550538E+02  0.00000000000E+00 0. -1.
         23    2    1    2    0    0  0.15493947999E+02  0.15005552062E+02  0.16239228990E+03  0.18512196747E+03  0.86218663885E+02 0.  0.
         23    2    1    2    0    0 -0.37299680204E+02  0.84164415591E+02  0.43422445701E+03  0.45304387191E+03  0.90680515070E+02 0.  0.
        -11    1    3    3    0    0  0.24167841203E+02  0.48547204988E+02  0.98807563878E+02  0.11271135852E+03  0.00000000000E+00 0.  1.
         11    1    3    3    0    0 -0.86738932032E+01 -0.33541652925E+02  0.63584726027E+02  0.72410608948E+02  0.00000000000E+00 0. -1.
        -11    1    4    4    0    0 -0.22673865931E+02 -0.12496628984E+02  0.46888561059E+02  0.53561246162E+02  0.00000000000E+00 0.  1.
         11    1    4    4    0    0 -0.14625814273E+02  0.96661044575E+02  0.38733589595E+03  0.39948262575E+03  0.00000000000E+00 0. -1.
          1    1    1    2  501    0  0.21805732204E+02 -0.99169967653E+02  0.12246911493E+02  0.10227492010E+03  0.00000000000E+00 0. -1.
<scales pt_clust_5="13000.00000" pt_clust_6="13000.00000" pt_clust_7="13000.00000" pt_clust_8="13000.00000" pt_clust_9="13000.00000"></scales>
<clustering>
<clus scale="   86.219">  5  6 -1 -1</clus>
<clus scale="   88.876">  1  5  2 -1</clus>
<clus scale="   90.681">  7  8 -1 -1</clus>
<clus scale="  100.266">  7  9 -1 -1</clus>
<clus scale="  330.216">  2  5  1 -1</clus>
</clustering>
</event>
<event>
 9    1  0.3303741E-006  0.1673298E+03  0.7546771E-02  0.1201008E+00
         21   -1    0    0  501  502  0.00000000000E+00  0.00000000000E+00  0.42634888965E+03  0.42634888965E+03  0.00000000000E+00 0. -1.
          3   -1    0    0  502    0 -0.00000000000E+00 -0.00000000000E+00 -0.49036692886E+02  0.49036692886E+02  0.00000000000E+00 0. -1.
         23    2    1    2    0    0  0.24067553224E+02 -0.49516822532E+02  0.22522292425E+03  0.24926522574E+03  0.91523900267E+02 0.  0.
         23    2    1    2    0    0  0.10918733355E+02  0.29141204724E+02  0.37051820939E+02  0.10416617969E+03  0.92246013497E+02 0.  0.
        -13    1    3    3    0    0 -0.25855307152E+02  0.30444949849E+01  0.11075747629E+03  0.11377602741E+03  0.00000000000E+00 0.  1.
         13    1    3    3    0    0  0.49922860376E+02 -0.52561317517E+02  0.11446544796E+03  0.13548919833E+03  0.00000000000E+00 0. -1.
        -13    1    4    4    0    0 -0.53385828439E+01 -0.24518067393E+02  0.40880981157E+02  0.47967600689E+02  0.00000000000E+00 0.  1.
         13    1    4    4    0    0  0.16257316199E+02  0.53659272117E+02 -0.38291602185E+01  0.56198579004E+02  0.00000000000E+00 0. -1.
          3    1    1    2  501    0 -0.34986286579E+02  0.20375617808E+02  0.11503745157E+03  0.12195417711E+03  0.00000000000E+00 0. -1.
<scales pt_clust_5="13000.00000" pt_clust_6="13000.00000" pt_clust_7="13000.00000" pt_clust_8="13000.00000" pt_clust_9="13000.00000"></scales>
<clustering>
<clus scale="   91.524">  5  6 -1 -1</clus>
<clus scale="   92.246">  7  8 -1 -1</clus>
<clus scale="   40.487">  7  9 -1 -1</clus>
<clus scale="  106.807">  2  5  1 -1</clus>
<clus scale="  167.330">  1  5  2 -1</clus>
</clustering>
</event>
<event>
 9    1  0.3303741E-006  0.4408052E+03  0.7546771E-02  0.1067408E+00
          1   -1    0    0  502    0 -0.00000000000E+00  0.00000000000E+00  0.14006753863E+04  0.14006753863E+04  0.00000000000E+00 0. -1.
         21   -1    0    0  501  502  0.00000000000E+00 -0.00000000000E+00 -0.79951605109E+02  0.79951605109E+02  0.00000000000E+00 0. -1.
         23    2    1    2    0    0 -0.34947110129E+02  0.11300309625E+03  0.10093033466E+03  0.18362842452E+03  0.97680425729E+02 0.  0.
         23    2    1    2    0    0 -0.16854264446E+03 -0.61427045294E+02  0.83248091867E+03  0.85645439941E+03  0.91157848926E+02 0.  0.
        -11    1    4    4    0    0 -0.26903653328E+02 -0.51508185421E+02  0.20263227747E+03  0.21080023624E+03  0.00000000000E+00 0.  1.
         11    1    4    4    0    0 -0.14163899113E+03 -0.99188598730E+01  0.62984864121E+03  0.64565416317E+03  0.00000000000E+00 0. -1.
        -13    1    3    3    0    0 -0.55091274748E+02  0.11511602456E+03  0.10195930856E+03  0.16334763012E+03  0.00000000000E+00 0. -1.
         13    1    3    3    0    0  0.20144164619E+02 -0.21129283101E+01 -0.10289739057E+01  0.20280794401E+02  0.00000000000E+00 0.  1.
          1    1    1    2  501    0  0.20348975459E+03 -0.51576050957E+02  0.38731252782E+03  0.44054416744E+03  0.00000000000E+00 0. -1.
<scales pt_clust_5="13000.00000" pt_clust_6="13000.00000" pt_clust_7="13000.00000" pt_clust_8="13000.00000" pt_clust_9="13000.00000"></scales>
<clustering>
<clus scale="   91.158">  5  6 -1 -1</clus>
<clus scale="   97.680">  7  8 -1 -1</clus>
<clus scale="  153.403">  1  7  2 -1</clus>
<clus scale="  192.534">  5  9 -1 -1</clus>
<clus scale="  440.805">  2  5  1 -1</clus>
</clustering>
</event>
<event>
 9    1  0.3303741E-006  0.1952918E+03  0.7546771E-02  0.1181771E+00
         21   -1    0    0  501  502  0.00000000000E+00  0.00000000000E+00  0.62973556415E+02  0.62973556415E+02  0.00000000000E+00 0. -1.
         -1   -1    0    0    0  501 -0.00000000000E+00 -0.00000000000E+00 -0.35482285152E+03  0.35482285152E+03  0.00000000000E+00 0.  1.
         23    2    1    2    0    0  0.32683751669E+02  0.30683289806E+02 -0.84617223234E+02  0.13304385353E+03  0.92362874570E+02 0.  0.
         23    2    1    2    0    0 -0.19837348214E+02  0.50560419635E+02 -0.15577415457E+03  0.18772942490E+03  0.89592819593E+02 0.  0.
        -13    1    4    4    0    0  0.17968545194E+02  0.33703023447E+02 -0.13709548868E+03  0.14231632170E+03  0.00000000000E+00 0.  1.
         13    1    4    4    0    0 -0.37805893408E+02  0.16857396189E+02 -0.18678665890E+02  0.45413103198E+02  0.00000000000E+00 0. -1.
        -13    1    3    3    0    0 -0.91583063595E+01 -0.23810564572E+02 -0.49951608851E+02  0.56089043381E+02  0.00000000000E+00 0.  1.
         13    1    3    3    0    0  0.41842058029E+02  0.54493854378E+02 -0.34665614383E+02  0.76954810152E+02  0.00000000000E+00 0. -1.
         -1    1    1    2    0  502 -0.12846403456E+02 -0.81243709441E+02 -0.51457917301E+02  0.97023129502E+02  0.00000000000E+00 0.  1.
<scales pt_clust_5="13000.00000" pt_clust_6="13000.00000" pt_clust_7="13000.00000" pt_clust_8="13000.00000" pt_clust_9="13000.00000"></scales>
<clustering>
<clus scale="   89.593">  5  6 -1 -1</clus>
<clus scale="   82.253">  5  9 -1 -1</clus>
<clus scale="   92.363">  7  8 -1 -1</clus>
<clus scale="  102.667">  2  7  1 -1</clus>
<clus scale="  195.292">  1  5  2 -1</clus>
</clustering>
</event>
<event>
 9    1  0.3303741E-006  0.1580203E+03  0.7546771E-02  0.1206469E+00
         21   -1    0    0  501  502  0.00000000000E+00  0.00000000000E+00  0.30660800520E+03  0.30660800520E+03  0.00000000000E+00 0.  1.
         -3   -1    0    0    0  501 -0.00000000000E+00 -0.00000000000E+00 -0.59767649174E+02  0.59767649174E+02  0.00000000000E+00 0.  1.
         23    2    1    2    0    0 -0.41918952009E+02 -0.54124617141E+02  0.10317019029E+03  0.15280707090E+03  0.89550209573E+02 0.  0.
         23    2    1    2    0    0 -0.12533433456E+02  0.43307757631E+02  0.10695414149E+03  0.14700933792E+03  0.90221439957E+02 0.  0.
        -11    1    3    3    0    0 -0.56900421563E+02 -0.70178310056E+02  0.77561500000E+02  0.11907325249E+03  0.00000000000E+00 0.  1.
         11    1    3    3    0    0  0.14981469554E+02  0.16053692915E+02  0.25608690291E+02  0.33733818411E+02  0.00000000000E+00 0. -1.
        -11    1    4    4    0    0 -0.45089614322E+02  0.46159578565E+02  0.88346501004E+02  0.10940239601E+03  0.00000000000E+00 0.  1.
         11    1    4    4    0    0  0.32556180866E+02 -0.28518209336E+01  0.18607640486E+02  0.37606941908E+02  0.00000000000E+00 0. -1.
         -3    1    1    2    0  502  0.54452385465E+02  0.10816859510E+02  0.36716024246E+02  0.66559245555E+02  0.00000000000E+00 0.  1.
<scales pt_clust_5="13000.00000" pt_clust_6="13000.00000" pt_clust_7="13000.00000" pt_clust_8="13000.00000" pt_clust_9="13000.00000"></scales>
<clustering>
<clus scale="   89.550">  5  6 -1 -1</clus>
<clus scale="   90.221">  7  8 -1 -1</clus>
<clus scale="   55.516">  7  9 -1 -1</clus>
<clus scale="  112.721">  2  5  1 -1</clus>
<clus scale="  158.020">  1  5  2 -1</clus>
</clustering>
</event>
<event>
 9    1  0.3303741E-006  0.2103226E+03  0.7546771E-02  0.1171060E+00
          1   -1    0    0  502    0 -0.00000000000E+00  0.00000000000E+00  0.54031820961E+02  0.54031820961E+02  0.00000000000E+00 0. -1.
         21   -1    0    0  501  502  0.00000000000E+00 -0.00000000000E+00 -0.47331480405E+03  0.47331480405E+03  0.00000000000E+00 0.  1.
         23    2    1    2    0    0  0.16692293517E+02 -0.47426458766E+02 -0.98540150500E+02  0.14379535738E+03  0.91864257952E+02 0.  0.
         23    2    1    2    0    0 -0.32245218639E+02 -0.76274055495E+01 -0.64301871823E+02  0.12080654777E+03  0.96755153992E+02 0.  0.
        -13    1    3    3    0    0  0.30491393600E+02  0.10694774691E+02 -0.71017711888E+02  0.78023193290E+02  0.00000000000E+00 0. -1.
         13    1    3    3    0    0 -0.13799100083E+02 -0.58121233457E+02 -0.27522438612E+02  0.65772164088E+02  0.00000000000E+00 0.  1.
        -13    1    4    4    0    0  0.30506965517E+02 -0.19356330657E+02 -0.11365951245E+02  0.37875154511E+02  0.00000000000E+00 0.  1.
         13    1    4    4    0    0 -0.62752184157E+02  0.11728925107E+02 -0.52935920579E+02  0.82931393260E+02  0.00000000000E+00 0. -1.
          1    1    1    2  501    0  0.15552925123E+02  0.55053864316E+02 -0.25644096077E+03  0.26274471987E+03  0.00000000000E+00 0. -1.
<scales pt_clust_5="13000.00000" pt_clust_6="13000.00000" pt_clust_7="13000.00000" pt_clust_8="13000.00000" pt_clust_9="13000.00000"></scales>
<clustering>
<clus scale="   91.864">  5  6 -1 -1</clus>
<clus scale="   96.755">  7  8 -1 -1</clus>
<clus scale="   57.209">  7  9 -1 -1</clus>
<clus scale="  104.723">  1  5  2 -1</clus>
<clus scale="  210.323">  2  5  1 -1</clus>
</clustering>
</event>
<event>
 9    1  0.3303741E-006  0.2424717E+03  0.7546771E-02  0.1122169E+00
          1   -1    0    0  502    0 -0.00000000000E+00  0.00000000000E+00  0.12527067203E+03  0.12527067203E+03  0.00000000000E+00 0. -1.
         21   -1    0    0  501  502  0.00000000000E+00 -0.00000000000E+00 -0.42698424505E+03  0.42698424505E+03  0.00000000000E+00 0. -1.
         23    2    1    2    0    0  0.18726507354E+03 -0.68197968798E+02 -0.15900310866E+03  0.27090315472E+03  0.91582530847E+02 0.  0.
         23    2    1    2    0    0 -0.81040663287E+02  0.18644160230E+02 -0.42711004018E+02  0.12727678923E+03  0.86371044891E+02 0.  0.
        -11    1    4    4    0    0 -0.70734922525E+02  0.37472960020E+02 -0.64439695555E+00  0.80050404401E+02  0.00000000000E+00 0. -1.
         11    1    4    4    0    0 -0.10305740762E+02 -0.18828799790E+02 -0.42066607062E+02  0.47226384828E+02  0.00000000000E+00 0.  1.
        -13    1    3    3    0    0  0.14610007996E+03 -0.34781393013E+02 -0.15783555622E+03  0.21786932200E+03  0.00000000000E+00 0. -1.
         13    1    3    3    0    0  0.41164993586E+02 -0.33416575785E+02 -0.11675524445E+01  0.53033832718E+02  0.00000000000E+00 0.  1.
          1    1    1    2  501    0 -0.10622441026E+03  0.49553808568E+02 -0.99999460339E+02  0.15407497313E+03  0.00000000000E+00 0. -1.
<scales pt_clust_5="13000.00000" pt_clust_6="13000.00000" pt_clust_7="13000.00000" pt_clust_8="13000.00000" pt_clust_9="13000.00000"></scales>
<clustering>
<clus scale="   86.371">  5  6 -1 -1</clus>
<clus scale="   91.583">  7  8 -1 -1</clus>
<clus scale="  117.214">  5  9 -1 -1</clus>
<clus scale="  219.332">  1  7  2 -1</clus>
<clus scale="  242.472">  2  5  1 -1</clus>
</clustering>
</event>
<event>
 9    1  0.3303741E-006  0.1844557E+03  0.7546771E-02  0.1187434E+00
          1   -1    0    0  502    0 -0.00000000000E+00  0.00000000000E+00  0.26886865473E+03  0.26886865473E+03  0.00000000000E+00 0. -1.
         21   -1    0    0  501  502  0.00000000000E+00 -0.00000000000E+00 -0.10709169160E+03  0.10709169160E+03  0.00000000000E+00 0.  1.
         23    2    1    2    0    0 -0.29458838875E+02 -0.60100260291E+02  0.15852581441E+03  0.19147597830E+03  0.83980664186E+02 0.  0.
         23    2    1    2    0    0  0.36396840954E+02  0.10217436130E+03 -0.27569310612E+01  0.14142089312E+03  0.90707983135E+02 0.  0.
        -11    1    3    3    0    0 -0.14695637748E+02 -0.31431163624E+02  0.55496885903E+01  0.35137997368E+02  0.00000000000E+00 0.  1.
         11    1    3    3    0    0 -0.14763201127E+02 -0.28669096667E+02  0.15297612582E+03  0.15633798094E+03  0.00000000000E+00 0. -1.
        -13    1    4    4    0    0 -0.21037412942E+01  0.10282223849E+03 -0.35802822513E+01  0.10290605850E+03  0.00000000000E+00 0.  1.
         13    1    4    4    0    0  0.38500582248E+02 -0.64787719600E+00  0.82335119014E+00  0.38514834616E+02  0.00000000000E+00 0. -1.
          1    1    1    2  501    0 -0.69380020786E+01 -0.42074101004E+02  0.60080797797E+01  0.43063474904E+02  0.00000000000E+00 0. -1.
<scales pt_clust_5="13000.00000" pt_clust_6="13000.00000" pt_clust_7="13000.00000" pt_clust_8="13000.00000" pt_clust_9="13000.00000"></scales>
<clustering>
<clus scale="   83.981">  5  6 -1 -1</clus>
<clus scale="   90.708">  7  8 -1 -1</clus>
<clus scale="   42.642">  7  9 -1 -1</clus>
<clus scale="  107.390">  1  5  2 -1</clus>
<clus scale="  184.456">  2  5  1 -1</clus>
</clustering>
</event>
<event>
 9    1  0.3303741E-006  0.1492748E+03  0.7546771E-02  0.1213544E+00
         -3   -1    0    0    0  501 -0.00000000000E+00  0.00000000000E+00  0.36873197811E+03  0.36873197811E+03  0.00000000000E+00 0.  1.
         21   -1    0    0  501  502  0.00000000000E+00 -0.00000000000E+00 -0.85875374788E+02  0.85875374788E+02  0.00000000000E+00 0.  1.
         23    2    1    2    0    0 -0.68481293973E+02 -0.29317536026E+02  0.28286171087E+03  0.30533255246E+03  0.87567200338E+02 0.  0.
         23    2    1    2    0    0  0.16315205526E+02  0.18478142329E+02  0.26583000092E+02  0.89728845851E+02  0.82079121636E+02 0.  0.
        -11    1    4    4    0    0  0.53660476767E+01 -0.28821481162E+02 -0.76798075591E+01  0.30305967865E+02  0.00000000000E+00 0. -1.
         11    1    4    4    0    0  0.10949157850E+02  0.47299623492E+02  0.34262807651E+02  0.59422877986E+02  0.00000000000E+00 0.  1.
        -13    1    3    3    0    0 -0.64632141578E+02  0.62223605144E+01  0.24416498772E+03  0.25265108891E+03  0.00000000000E+00 0.  1.
         13    1    3    3    0    0 -0.38491523949E+01 -0.35539896541E+02  0.38696723143E+02  0.52681463555E+02  0.00000000000E+00 0. -1.
         -3    1    1    2    0  502  0.52166088446E+02  0.10839393697E+02 -0.26588107638E+02  0.59545954584E+02  0.00000000000E+00 0.  1.
<scales pt_clust_5="13000.00000" pt_clust_6="13000.00000" pt_clust_7="13000.00000" pt_clust_8="13000.00000" pt_clust_9="13000.00000"></scales>
<clustering>
<clus scale="   82.079">  5  6 -1 -1</clus>
<clus scale="   53.280">  5  9 -1 -1</clus>
<clus scale="   87.567">  7  8 -1 -1</clus>
<clus scale="  114.966">  1  7  2 -1</clus>
<clus scale="  149.275">  2  5  1 -1</clus>
</clustering>
</event>
<event>
 9    1  0.3303741E-006  0.1670184E+03  0.7546771E-02  0.1204503E+00
         21   -1    0    0  501  502  0.00000000000E+00  0.00000000000E+00  0.11530446138E+03  0.11530446138E+03  0.00000000000E+00 0.  1.
          2   -1    0    0  502    0 -0.00000000000E+00 -0.00000000000E+00 -0.16083132532E+03  0.16083132532E+03  0.00000000000E+00 0. -1.
         23    2    1    2    0    0 -0.35805305283E+02 -0.12163769937E+02 -0.44583411093E+02  0.10911469811E+03  0.92132294085E+02 0.  0.
         23    2    1    2    0    0  0.45078589848E+02 -0.33202747797E+02 -0.31600450109E+02  0.11148761923E+03  0.91084570983E+02 0.  0.
        -13    1    4    4    0    0  0.45177844450E+02  0.16347957801E+02  0.71631871012E+01  0.48575761475E+02  0.00000000000E+00 0.  1.
         13    1    4    4    0    0 -0.99254602272E-01 -0.49550705598E+02 -0.38763637210E+02  0.62911857758E+02  0.00000000000E+00 0. -1.
        -13    1    3    3    0    0  0.23289624716E+02  0.92465285649E+01 -0.38541327177E+02  0.45971064926E+02  0.00000000000E+00 0.  1.
         13    1    3    3    0    0 -0.59094929999E+02 -0.21410298502E+02 -0.60420839157E+01  0.63143633183E+02  0.00000000000E+00 0. -1.
          2    1    1    2  501    0 -0.92732845651E+01  0.45366517735E+02  0.30656997260E+02  0.55533469358E+02  0.00000000000E+00 0. -1.
<scales pt_clust_5="13000.00000" pt_clust_6="13000.00000" pt_clust_7="13000.00000" pt_clust_8="13000.00000" pt_clust_9="13000.00000"></scales>
<clustering>
<clus scale="   91.085">  5  6 -1 -1</clus>
<clus scale="   46.305">  5  9 -1 -1</clus>
<clus scale="   92.132">  7  8 -1 -1</clus>
<clus scale="   99.591">  2  7  1 -1</clus>
<clus scale="  167.018">  1  5  2 -1</clus>
</clustering>
</event>
<event>
 9    1  0.3303741E-006  0.1291351E+03  0.7546771E-02  0.1243961E+00
         21   -1    0    0  501  502  0.00000000000E+00  0.00000000000E+00  0.17421578934E+03  0.17421578934E+03  0.00000000000E+00 0. -1.
         -3   -1    0    0    0  501 -0.00000000000E+00 -0.00000000000E+00 -0.16230015354E+03  0.16230015354E+03  0.00000000000E+00 0.  1.
         23    2    1    2    0    0 -0.25123183931E+01 -0.23679649253E+02 -0.11939492996E+03  0.15234663763E+03  0.91582264468E+02 0.  0.
         23    2    1    2    0    0 -0.14116954077E+01 -0.11397911312E+02  0.93825728132E+02  0.13268196514E+03  0.93109244164E+02 0.  0.
        -13    1    4    4    0    0 -0.44983922007E+02 -0.77578024755E+00  0.66089814148E+02  0.79950100739E+02  0.00000000000E+00 0. -1.
         13    1    4    4    0    0  0.43572226599E+02 -0.10622131064E+02  0.27735913985E+02  0.52731864406E+02  0.00000000000E+00 0.  1.
        -13    1    3    3    0    0  0.11210225173E+02 -0.52215824646E+02 -0.10449600339E+03  0.11735235923E+03  0.00000000000E+00 0.  1.
         13    1    3    3    0    0 -0.13722543566E+02  0.28536175393E+02 -0.14898926566E+02  0.34994278401E+02  0.00000000000E+00 0. -1.
         -3    1    1    2    0  502  0.39240138008E+01  0.35077560565E+02  0.37484837622E+02  0.51487340105E+02  0.00000000000E+00 0.  1.
<scales pt_clust_5="13000.00000" pt_clust_6="13000.00000" pt_clust_7="13000.00000" pt_clust_8="13000.00000" pt_clust_9="13000.00000"></scales>
<clustering>
<clus scale="   91.582">  7  8 -1 -1</clus>
<clus scale="   93.109">  5  6 -1 -1</clus>
<clus scale="   35.296">  5  9 -1 -1</clus>
<clus scale="   94.627">  2  7  1 -1</clus>
<clus scale="  129.135">  1  5  2 -1</clus>
</clustering>
</event>
<event>
 9    1  0.3303741E-006  0.3358961E+03  0.7546771E-02  0.1108905E+00
         -3   -1    0    0    0  501 -0.00000000000E+00  0.00000000000E+00  0.53030844392E+03  0.53030844392E+03  0.00000000000E+00 0.  1.
         21   -1    0    0  501  502  0.00000000000E+00 -0.00000000000E+00 -0.96107863222E+02  0.96107863222E+02  0.00000000000E+00 0.  1.
         23    2    1    2    0    0 -0.61691765280E+02  0.30329846689E+02  0.12186842191E+03  0.16774693237E+03  0.92527550270E+02 0.  0.
         23    2    1    2    0    0  0.17405306611E+03  0.42573778878E+02  0.20104448422E+03  0.28452877911E+03  0.91819088640E+02 0.  0.
        -11    1    4    4    0    0  0.79089870255E+02 -0.26954031049E+02  0.87632373621E+02  0.12108327826E+03  0.00000000000E+00 0. -1.
         11    1    4    4    0    0  0.94963195851E+02  0.69527809927E+02  0.11341211059E+03  0.16344550085E+03  0.00000000000E+00 0.  1.
        -13    1    3    3    0    0 -0.58719057179E+02 -0.22046677683E+02  0.63100019446E+02  0.88969635983E+02  0.00000000000E+00 0. -1.
         13    1    3    3    0    0 -0.29727081002E+01  0.52376524372E+02  0.58768402460E+02  0.78777296389E+02  0.00000000000E+00 0.  1.
         -3    1    1    2    0  502 -0.11236130083E+03 -0.72903625567E+02  0.11128767457E+03  0.17414059566E+03  0.00000000000E+00 0.  1.
<scales pt_clust_5="13000.00000" pt_clust_6="13000.00000" pt_clust_7="13000.00000" pt_clust_8="13000.00000" pt_clust_9="13000.00000"></scales>
<clustering>
<clus scale="   91.819">  5  6 -1 -1</clus>
<clus scale="   92.528">  7  8 -1 -1</clus>
<clus scale="  115.270">  1  7  2 -1</clus>
<clus scale="  148.603">  5  9 -1 -1</clus>
<clus scale="  335.896">  2  5  1 -1</clus>
</clustering>
</event>
<event>
 9    1  0.3303741E-006  0.2341270E+03  0.7546771E-02  0.1137857E+00
         21   -1    0    0  501  502  0.00000000000E+00  0.00000000000E+00  0.55762097579E+02  0.55762097579E+02  0.00000000000E+00 0.  1.
          2   -1    0    0  502    0 -0.00000000000E+00 -0.00000000000E+00 -0.77512225199E+03  0.77512225199E+03  0.00000000000E+00 0. -1.
         23    2    1    2    0    0 -0.45978472577E+02 -0.13011456514E+03 -0.19038966557E+03  0.25241635420E+03  0.91771297843E+02 0.  0.
         23    2    1    2    0    0  0.10524362477E+02  0.39000544255E+00 -0.14388034339E+03  0.17057110223E+03  0.91005677798E+02 0.  0.
        -13    1    3    3    0    0  0.27335361228E+02 -0.23904946108E+02 -0.35159804863E+02  0.50545823764E+02  0.00000000000E+00 0. -1.
         13    1    3    3    0    0 -0.73313833805E+02 -0.10620961904E+03 -0.15522986071E+03  0.20187053044E+03  0.00000000000E+00 0.  1.
        -13    1    4    4    0    0 -0.38105769855E+02  0.11618400775E+02 -0.81213055202E+02  0.90457709833E+02  0.00000000000E+00 0.  1.
         13    1    4    4    0    0  0.48630132332E+02 -0.11228395333E+02 -0.62667288190E+02  0.80113392398E+02  0.00000000000E+00 0. -1.
          2    1    1    2  501    0  0.35454110101E+02  0.12972455970E+03 -0.38509014545E+03  0.40789689314E+03  0.00000000000E+00 0. -1.
<scales pt_clust_5="13000.00000" pt_clust_6="13000.00000" pt_clust_7="13000.00000" pt_clust_8="13000.00000" pt_clust_9="13000.00000"></scales>
<clustering>
<clus scale="   91.006">  7  8 -1 -1</clus>
<clus scale="   91.771">  5  6 -1 -1</clus>
<clus scale="  134.482">  7  9 -1 -1</clus>
<clus scale="  165.728">  2  5  1 -1</clus>
<clus scale="  234.127">  1  5  2 -1</clus>
</clustering>
</event>
<event>
 9    1  0.3303741E-006  0.1442475E+03  0.7546771E-02  0.1227786E+00
         21   -1    0    0  501  502  0.00000000000E+00  0.00000000000E+00  0.56122673205E+02  0.56122673205E+02  0.00000000000E+00 0.  1.
          1   -1    0    0  502    0 -0.00000000000E+00 -0.00000000000E+00 -0.29627501494E+03  0.29627501494E+03  0.00000000000E+00 0. -1.
         23    2    1    2    0    0 -0.56552637174E+01  0.17614742305E+02 -0.33273883360E+02  0.10019530477E+03  0.92680562312E+02 0.  0.
         23    2    1    2    0    0 -0.21788280495E+02 -0.12464791992E+02 -0.20377611118E+03  0.22410799487E+03  0.89830894869E+02 0.  0.
        -13    1    4    4    0    0 -0.41657341428E+02  0.24695714925E+02 -0.81824531039E+02  0.95081366788E+02  0.00000000000E+00 0. -1.
         13    1    4    4    0    0  0.19869060933E+02 -0.37160506917E+02 -0.12195158014E+03  0.12902662808E+03  0.00000000000E+00 0.  1.
        -13    1    3    3    0    0 -0.13317141650E+02 -0.29506881514E+02 -0.40567293370E+02  0.51900940356E+02  0.00000000000E+00 0. -1.
         13    1    3    3    0    0  0.76618779328E+01  0.47121623820E+02  0.72934100101E+01  0.48294364417E+02  0.00000000000E+00 0.  1.
          1    1    1    2  501    0  0.27443544212E+02 -0.51499503139E+01 -0.31023472001E+01  0.28094388502E+02  0.00000000000E+00 0. -1.
<scales pt_clust_5="13000.00000" pt_clust_6="13000.00000" pt_clust_7="13000.00000" pt_clust_8="13000.00000" pt_clust_9="13000.00000"></scales>
<clustering>
<clus scale="   89.831">  5  6 -1 -1</clus>
<clus scale="   27.923">  5  9 -1 -1</clus>
<clus scale="   92.681">  7  8 -1 -1</clus>
<clus scale="   94.509">  2  7  1 -1</clus>
<clus scale="  144.248">  1  5  2 -1</clus>
</clustering>
</event>
<event>
 9    1  0.3303741E-006  0.2085484E+03  0.7546771E-02  0.1174116E+00
         21   -1    0    0  501  502  0.00000000000E+00  0.00000000000E+00  0.63696103822E+03  0.63696103822E+03  0.00000000000E+00 0. -1.
          1   -1    0    0  502    0 -0.00000000000E+00 -0.00000000000E+00 -0.37415202371E+02  0.37415202371E+02  0.00000000000E+00 0. -1.
         23    2    1    2    0    0 -0.52308111978E+02  0.12278356041E+02  0.19260391700E+03  0.21710808641E+03  0.84573966054E+02 0.  0.
         23    2    1    2    0    0 -0.22432618180E+02  0.42477975762E+02  0.12989536340E+03  0.16513937008E+03  0.89947792265E+02 0.  0.
        -11    1    3    3    0    0 -0.28060579907E+02  0.48818365051E+02  0.10536554444E+03  0.11946768126E+03  0.00000000000E+00 0. -1.
         11    1    3    3    0    0 -0.24247532071E+02 -0.36540009011E+02  0.87238372558E+02  0.97640405144E+02  0.00000000000E+00 0.  1.
        -13    1    4    4    0    0  0.22013499647E+02  0.40227441509E+02  0.10397458441E+03  0.11363782565E+03  0.00000000000E+00 0.  1.
         13    1    4    4    0    0 -0.44446117827E+02  0.22505342529E+01  0.25920778996E+02  0.51501544424E+02  0.00000000000E+00 0. -1.
          1    1    1    2  501    0  0.74740730158E+02 -0.54756331802E+02  0.27704655544E+03  0.29212878410E+03  0.00000000000E+00 0. -1.
<scales pt_clust_5="13000.00000" pt_clust_6="13000.00000" pt_clust_7="13000.00000" pt_clust_8="13000.00000" pt_clust_9="13000.00000"></scales>
<clustering>
<clus scale="   84.574">  5  6 -1 -1</clus>
<clus scale="   89.948">  7  8 -1 -1</clus>
<clus scale="   92.652">  7  9 -1 -1</clus>
<clus scale="  100.198">  2  5  1 -1</clus>
<clus scale="  208.548">  1  5  2 -1</clus>
</clustering>
</event>
<event>
 9    1  0.3303741E-006  0.1675498E+03  0.7546771E-02  0.1201384E+00
         21   -1    0    0  501  502  0.00000000000E+00  0.00000000000E+00  0.44508905857E+02  0.44508905857E+02  0.00000000000E+00 0. -1.
          1   -1    0    0  502    0 -0.00000000000E+00 -0.00000000000E+00 -0.46180974042E+03  0.46180974042E+03  0.00000000000E+00 0. -1.
         23    2    1    2    0    0 -0.53133540355E+02 -0.16227621148E+02 -0.24105760199E+03  0.26314253232E+03  0.89714636713E+02 0.  0.
         23    2    1    2    0    0  0.12959583223E+02 -0.51160485175E+01 -0.17639627761E+03  0.19768410928E+03  0.88143267224E+02 0.  0.
        -13    1    3    3    0    0  0.89386042866E+01 -0.24964380403E+02 -0.19571423924E+02  0.32956935081E+02  0.00000000000E+00 0.  1.
         13    1    3    3    0    0 -0.62072144641E+02  0.87367592550E+01 -0.22148617807E+03  0.23018559724E+03  0.00000000000E+00 0. -1.
        -13    1    4    4    0    0  0.29120108696E+02 -0.40236290007E+02 -0.11293481546E+03  0.12337427733E+03  0.00000000000E+00 0.  1.
         13    1    4    4    0    0 -0.16160525472E+02  0.35120241490E+02 -0.63461462148E+02  0.74309831946E+02  0.00000000000E+00 0. -1.
          1    1    1    2  501    0  0.40173957131E+02  0.21343669666E+02  0.15304504054E+00  0.45492004673E+02  0.00000000000E+00 0. -1.
<scales pt_clust_5="13000.00000" pt_clust_6="13000.00000" pt_clust_7="13000.00000" pt_clust_8="13000.00000" pt_clust_9="13000.00000"></scales>
<clustering>
<clus scale="   88.143">  7  8 -1 -1</clus>
<clus scale="   45.492">  7  9 -1 -1</clus>
<clus scale="   89.715">  5  6 -1 -1</clus>
<clus scale="  105.524">  2  5  1 -1</clus>
<clus scale="  167.550">  1  5  2 -1</clus>
</clustering>
</event>
<event>
 9    1  0.3303741E-006  0.2077437E+03  0.7546771E-02  0.1171832E+00
         21   -1    0    0  501  502  0.00000000000E+00  0.00000000000E+00  0.14422366827E+03  0.14422366827E+03  0.00000000000E+00 0. -1.
          2   -1    0    0  502    0 -0.00000000000E+00 -0.00000000000E+00 -0.31884273714E+03  0.31884273714E+03  0.00000000000E+00 0. -1.
         23    2    1    2    0    0  0.47980049162E+02 -0.11899635093E+02 -0.22522046041E+03  0.24924884280E+03  0.94641657935E+02 0.  0.
         23    2    1    2    0    0 -0.38722219125E+02 -0.56756586281E+02 -0.20339184837E+02  0.11466137507E+03  0.89514401933E+02 0.  0.
        -11    1    3    3    0    0  0.37757504954E+02 -0.49874410862E+02 -0.99584748742E+02  0.11760190569E+03  0.00000000000E+00 0. -1.
         11    1    3    3    0    0  0.10222544208E+02  0.37974775769E+02 -0.12563571167E+03  0.13164693712E+03  0.00000000000E+00 0.  1.
        -13    1    4    4    0    0 -0.22460128462E+02  0.16146011836E+02  0.15614706395E+02  0.31764290084E+02  0.00000000000E+00 0.  1.
         13    1    4    4    0    0 -0.16262090664E+02 -0.72902598117E+02 -0.35953891232E+02  0.82897084989E+02  0.00000000000E+00 0. -1.
          2    1    1    2  501    0 -0.92578300368E+01  0.68656221374E+02  0.70940576374E+02  0.99156187535E+02  0.00000000000E+00 0. -1.
<scales pt_clust_5="13000.00000" pt_clust_6="13000.00000" pt_clust_7="13000.00000" pt_clust_8="13000.00000" pt_clust_9="13000.00000"></scales>
<clustering>
<clus scale="   89.514">  7  8 -1 -1</clus>
<clus scale="   69.278">  7  9 -1 -1</clus>
<clus scale="   94.642">  5  6 -1 -1</clus>
<clus scale="  106.774">  2  5  1 -1</clus>
<clus scale="  207.744">  1  5  2 -1</clus>
</clustering>
</event>
<event>
 9    1  0.3303741E-006  0.2135809E+03  0.7546771E-02  0.1164838E+00
          1   -1    0    0  502    0 -0.00000000000E+00  0.00000000000E+00  0.44226663678E+03  0.44226663678E+03  0.00000000000E+00 0. -1.
         21   -1    0    0  501  502  0.00000000000E+00 -0.00000000000E+00 -0.12458650469E+03  0.12458650469E+03  0.00000000000E+00 0.  1.
         23    2    1    2    0    0 -0.21511119624E+02 -0.71784855829E+02  0.33330346570E+03  0.35270161196E+03  0.87700815495E+02 0.  0.
         23    2    1    2    0    0  0.82029869752E+02  0.10541357383E+02  0.13551533317E+02  0.12324246461E+03  0.90360617979E+02 0.  0.
        -11    1    3    3    0    0 -0.53464551060E+02 -0.62111416798E+02  0.23394560794E+03  0.24788471875E+03  0.00000000000E+00 0. -1.
         11    1    3    3    0    0  0.31953431436E+02 -0.96734390312E+01  0.99357857766E+02  0.10481689321E+03  0.00000000000E+00 0.  1.
        -13    1    4    4    0    0  0.18047018906E+02  0.42311018488E+02  0.22572558555E+02  0.51239023962E+02  0.00000000000E+00 0. -1.
         13    1    4    4    0    0  0.63982850846E+02 -0.31769661105E+02 -0.90210252389E+01  0.72003440650E+02  0.00000000000E+00 0.  1.
          1    1    1    2  501    0 -0.60518750128E+02  0.61243498446E+02 -0.29174866929E+02  0.90909064891E+02  0.00000000000E+00 0. -1.
<scales pt_clust_5="13000.00000" pt_clust_6="13000.00000" pt_clust_7="13000.00000" pt_clust_8="13000.00000" pt_clust_9="13000.00000"></scales>
<clustering>
<clus scale="   87.701">  5  6 -1 -1</clus>
<clus scale="   90.361">  7  8 -1 -1</clus>
<clus scale="   86.100">  7  9 -1 -1</clus>
<clus scale="  115.357">  1  5  2 -1</clus>
<clus scale="  213.581">  2  5  1 -1</clus>
</clustering>
</event>
<event>
 9    1  0.3303741E-006  0.1471858E+03  0.7546771E-02  0.1220173E+00
         -2   -1    0    0    0  501 -0.00000000000E+00  0.00000000000E+00  0.22353324079E+03  0.22353324079E+03  0.00000000000E+00 0.  1.
         21   -1    0    0  501  502  0.00000000000E+00 -0.00000000000E+00 -0.75968675006E+02  0.75968675006E+02  0.00000000000E+00 0. -1.
         23    2    1    2    0    0  0.47777087002E+02 -0.17765184580E+02  0.23225516225E+02  0.10682638370E+03  0.90962628725E+02 0.  0.
         23    2    1    2    0    0 -0.43773082942E+02 -0.12711283122E+02  0.72483095885E+02  0.13239380134E+03  0.10097851224E+03 0.  0.
        -11    1    3    3    0    0  0.31814349524E+02  0.30044345091E+02 -0.11951162863E+02  0.45361280861E+02  0.00000000000E+00 0. -1.
         11    1    3    3    0    0  0.15962737478E+02 -0.47809529671E+02  0.35176679087E+02  0.61465102838E+02  0.00000000000E+00 0.  1.
        -13    1    4    4    0    0 -0.18397612537E+02 -0.27874142764E+02 -0.17481804657E+02  0.37696862946E+02  0.00000000000E+00 0. -1.
         13    1    4    4    0    0 -0.25375470406E+02  0.15162859642E+02  0.89964900542E+02  0.94696938390E+02  0.00000000000E+00 0.  1.
         -2    1    1    2    0  502 -0.40040040596E+01  0.30476467702E+02  0.51855953678E+02  0.60281730764E+02  0.00000000000E+00 0.  1.
<scales pt_clust_5="13000.00000" pt_clust_6="13000.00000" pt_clust_7="13000.00000" pt_clust_8="13000.00000" pt_clust_9="13000.00000"></scales>
<clustering>
<clus scale="   90.963">  5  6 -1 -1</clus>
<clus scale="  100.979">  7  8 -1 -1</clus>
<clus scale="   30.738">  7  9 -1 -1</clus>
<clus scale="  104.271">  1  5  2 -1</clus>
<clus scale="  147.186">  2  5  1 -1</clus>
</clustering>
</event>
<event>
 9    1  0.3303741E-006  0.4778602E+03  0.7546771E-02  0.1056781E+00
          2   -1    0    0  502    0 -0.00000000000E+00  0.00000000000E+00  0.15290721267E+03  0.15290721267E+03  0.00000000000E+00 0. -1.
         21   -1    0    0  501  502  0.00000000000E+00 -0.00000000000E+00 -0.80660164299E+03  0.80660164299E+03  0.00000000000E+00 0. -1.
         23    2    1    2    0    0 -0.87155862610E+02  0.10329720081E+03 -0.16109122155E+02  0.16272444140E+03  0.89181185968E+02 0.  0.
         23    2    1    2    0    0  0.24247441652E+03 -0.26791441091E+02 -0.20713577701E+03  0.33281913179E+03  0.91387747464E+02 0.  0.
        -11    1    3    3    0    0 -0.20920340466E+02  0.80182500431E+02  0.17876195902E+02  0.84772946159E+02  0.00000000000E+00 0.  1.
         11    1    3    3    0    0 -0.66235522144E+02  0.23114700379E+02 -0.33985318057E+02  0.77951495243E+02  0.00000000000E+00 0. -1.
        -13    1    4    4    0    0  0.19153988341E+03 -0.38083677280E+02 -0.20106717404E+03  0.28029609681E+03  0.00000000000E+00 0.  1.
         13    1    4    4    0    0  0.50934533115E+02  0.11292236189E+02 -0.60686029698E+01  0.52523034983E+02  0.00000000000E+00 0. -1.
          2    1    1    2  501    0 -0.15531855391E+03 -0.76505759719E+02 -0.43044953115E+03  0.46396528246E+03  0.00000000000E+00 0. -1.
<scales pt_clust_5="13000.00000" pt_clust_6="13000.00000" pt_clust_7="13000.00000" pt_clust_8="13000.00000" pt_clust_9="13000.00000"></scales>
<clustering>
<clus scale="   89.181">  5  6 -1 -1</clus>
<clus scale="   91.388">  7  8 -1 -1</clus>
<clus scale="  161.925">  1  5  2 -1</clus>
<clus scale="  182.096">  7  9 -1 -1</clus>
<clus scale="  477.860">  2  5  1 -1</clus>
</clustering>
</event>
<event>
 9    1  0.3303741E-006  0.3508512E+03  0.7546771E-02  0.1102174E+00
         21   -1    0    0  501  502  0.00000000000E+00  0.00000000000E+00  0.33061138714E+03  0.33061138714E+03  0.00000000000E+00 0. -1.
          3   -1    0    0  502    0 -0.00000000000E+00 -0.00000000000E+00 -0.16874736696E+03  0.16874736696E+03  0.00000000000E+00 0. -1.
         23    2    1    2    0    0  0.67571037365E+02 -0.36100360991E+02  0.57749858667E+02  0.13338565840E+03  0.92669339790E+02 0.  0.
         23    2    1    2    0    0 -0.11945290452E+03  0.15154396192E+03  0.21438916412E+02  0.21479720712E+03  0.91889304383E+02 0.  0.
        -11    1    4    4    0    0  0.14414144911E+02  0.20638963372E+02 -0.51188735738E+01  0.25689243843E+02  0.00000000000E+00 0.  1.
         11    1    4    4    0    0 -0.13386704943E+03  0.13090499854E+03  0.26557789986E+02  0.18910796328E+03  0.00000000000E+00 0. -1.
        -13    1    3    3    0    0  0.73685933746E+02 -0.58106893797E+02  0.58413334562E+02  0.11053572089E+03  0.00000000000E+00 0.  1.
         13    1    3    3    0    0 -0.61148963815E+01  0.22006532806E+02 -0.66347589496E+00  0.22849937509E+02  0.00000000000E+00 0. -1.
          3    1    1    2  501    0  0.51881867154E+02 -0.11544360093E+03  0.82675245097E+02  0.15117588857E+03  0.00000000000E+00 0. -1.
<scales pt_clust_5="13000.00000" pt_clust_6="13000.00000" pt_clust_7="13000.00000" pt_clust_8="13000.00000" pt_clust_9="13000.00000"></scales>
<clustering>
<clus scale="   91.889">  5  6 -1 -1</clus>
<clus scale="   92.669">  7  8 -1 -1</clus>
<clus scale="  120.236">  2  7  1 -1</clus>
<clus scale="  142.952">  5  9 -1 -1</clus>
<clus scale="  350.851">  1  5  2 -1</clus>
</clustering>
</event>
<event>
 9    1  0.3303741E-006  0.2398491E+03  0.7546771E-02  0.1139360E+00
         -2   -1    0    0    0  501 -0.00000000000E+00  0.00000000000E+00  0.33185082140E+03  0.33185082140E+03  0.00000000000E+00 0.  1.
         21   -1    0    0  501  502  0.00000000000E+00 -0.00000000000E+00 -0.24538406976E+03  0.24538406976E+03  0.00000000000E+00 0. -1.
         23    2    1    2    0    0  0.62981282247E+02  0.95404016908E+02  0.24724104036E+03  0.28848593158E+03  0.95012800846E+02 0.  0.
         23    2    1    2    0    0 -0.36717253389E+02 -0.14184875884E+03 -0.76126426946E+02  0.18868810926E+03  0.91316715975E+02 0.  0.
        -11    1    3    3    0    0 -0.12358331687E+02  0.61160063274E+02  0.13788381118E+03  0.15134472930E+03  0.00000000000E+00 0.  1.
         11    1    3    3    0    0  0.75339613933E+02  0.34243953634E+02  0.10935722919E+03  0.13714120228E+03  0.00000000000E+00 0. -1.
        -11    1    4    4    0    0 -0.31303199501E+02 -0.52226119574E+02  0.12907757685E+02  0.62242012124E+02  0.00000000000E+00 0.  1.
         11    1    4    4    0    0 -0.54140538882E+01 -0.89622639267E+02 -0.89034184632E+02  0.12644609714E+03  0.00000000000E+00 0. -1.
         -2    1    1    2    0  502 -0.26264028857E+02  0.46444741933E+02 -0.84647861768E+02  0.10006085032E+03  0.00000000000E+00 0.  1.
<scales pt_clust_5="13000.00000" pt_clust_6="13000.00000" pt_clust_7="13000.00000" pt_clust_8="13000.00000" pt_clust_9="13000.00000"></scales>
<clustering>
<clus scale="   91.317">  7  8 -1 -1</clus>
<clus scale="   53.357">  7  9 -1 -1</clus>
<clus scale="   95.013">  5  6 -1 -1</clus>
<clus scale="  148.647">  1  5  2 -1</clus>
<clus scale="  239.849">  2  5  1 -1</clus>
</clustering>
</event>
<event>
 9    1  0.3303741E-006  0.3453227E+03  0.7546771E-02  0.1103094E+00
         21   -1    0    0  501  502  0.00000000000E+00  0.00000000000E+00  0.94407490205E+02  0.94407490205E+02  0.00000000000E+00 0. -1.
         -3   -1    0    0    0  501 -0.00000000000E+00 -0.00000000000E+00 -0.58233792342E+03  0.58233792342E+03  0.00000000000E+00 0.  1.
         23    2    1    2    0    0  0.80540371019E+02  0.23071913177E+02 -0.11507065003E+03  0.16854056453E+03  0.90252993595E+02 0.  0.
         23    2    1    2    0    0  0.39759616679E+01  0.21523232932E+02 -0.39830897719E+03  0.40931400511E+03  0.91699812668E+02 0.  0.
        -13    1    3    3    0    0  0.34768184688E+02 -0.24212488361E+02 -0.87443643417E+02  0.97167185989E+02  0.00000000000E+00 0.  1.
         13    1    3    3    0    0  0.45772186331E+02  0.47284401538E+02 -0.27627006618E+02  0.71373378546E+02  0.00000000000E+00 0. -1.
        -13    1    4    4    0    0  0.40894123289E+02  0.33928421066E+02 -0.27181612296E+03  0.27696113767E+03  0.00000000000E+00 0.  1.
         13    1    4    4    0    0 -0.36918161621E+02 -0.12405188134E+02 -0.12649285423E+03  0.13235286745E+03  0.00000000000E+00 0. -1.
         -3    1    1    2    0  502 -0.84516332686E+02 -0.44595146109E+02  0.25449194008E+02  0.98890843979E+02  0.00000000000E+00 0.  1.
<scales pt_clust_5="13000.00000" pt_clust_6="13000.00000" pt_clust_7="13000.00000" pt_clust_8="13000.00000" pt_clust_9="13000.00000"></scales>
<clustering>
<clus scale="   90.253">  5  6 -1 -1</clus>
<clus scale="   91.700">  7  8 -1 -1</clus>
<clus scale="   95.560">  7  9 -1 -1</clus>
<clus scale="  123.145">  2  5  1 -1</clus>
<clus scale="  345.323">  1  5  2 -1</clus>
</clustering>
</event>
<event>
 9    1  0.3303741E-006  0.1369989E+03  0.7546771E-02  0.1233111E+00
         21   -1    0    0  501  502  0.00000000000E+00  0.00000000000E+00  0.29237581142E+03  0.29237581142E+03  0.00000000000E+00 0.  1.
         -1   -1    0    0    0  501 -0.00000000000E+00 -0.00000000000E+00 -0.72379527500E+02  0.72379527500E+02  0.00000000000E+00 0.  1.
         23    2    1    2    0    0  0.21187581988E+01 -0.37141453514E+02 -0.75752066235E+01  0.99128763939E+02  0.91570472201E+02 0.  0.
         23    2    1    2    0    0  0.61366652531E+01  0.59220778043E+02  0.20912271516E+03  0.23569321731E+03  0.90962758750E+02 0.  0.
        -11    1    3    3    0    0  0.44526310825E+01 -0.63838100092E+02 -0.23246224102E+02  0.68084622947E+02  0.00000000000E+00 0.  1.
         11    1    3    3    0    0 -0.23338728837E+01  0.26696646577E+02  0.15671017479E+02  0.31044140992E+02  0.00000000000E+00 0. -1.
        -13    1    4    4    0    0 -0.13202569697E+02 -0.21504474989E+02  0.58524275314E+02  0.63732574812E+02  0.00000000000E+00 0. -1.
         13    1    4    4    0    0  0.19339234950E+02  0.80725253032E+02  0.15059843984E+03  0.17196064250E+03  0.00000000000E+00 0.  1.
         -1    1    1    2    0  502 -0.82554234519E+01 -0.22079324529E+02  0.18448775385E+02  0.29933357667E+02  0.00000000000E+00 0.  1.
<scales pt_clust_5="13000.00000" pt_clust_6="13000.00000" pt_clust_7="13000.00000" pt_clust_8="13000.00000" pt_clust_9="13000.00000"></scales>
<clustering>
<clus scale="   90.963">  7  8 -1 -1</clus>
<clus scale="   23.572">  7  9 -1 -1</clus>
<clus scale="   91.570">  5  6 -1 -1</clus>
<clus scale="   98.839">  2  5  1 -1</clus>
<clus scale="  136.999">  1  5  2 -1</clus>
</clustering>
</event>
<event>
 9    1  0.3303741E-006  0.4713951E+03  0.7546771E-02  0.1078731E+00
          1   -1    0    0  502    0 -0.00000000000E+00  0.00000000000E+00  0.90885636128E+03  0.90885636128E+03  0.00000000000E+00 0. -1.
         21   -1    0    0  501  502  0.00000000000E+00 -0.00000000000E+00 -0.88705738235E+02  0.88705738235E+02  0.00000000000E+00 0.  1.
         23    2    1    2    0    0 -0.50343881606E+01  0.22311879750E+02  0.92197349511E+02  0.13030818339E+03  0.89200371969E+02 0.  0.
         23    2    1    2    0    0 -0.53473483132E+02 -0.21914566605E+03  0.52349976799E+03  0.57748168426E+03  0.92460003382E+02 0.  0.
        -13    1    3    3    0    0 -0.14465508861E+02 -0.32868603528E+02  0.40205058865E+02  0.53907724890E+02  0.00000000000E+00 0.  1.
         13    1    3    3    0    0  0.94311207004E+01  0.55180483278E+02  0.51992290646E+02  0.76400458500E+02  0.00000000000E+00 0. -1.
        -13    1    4    4    0    0 -0.50307427701E+01 -0.16826478147E+03  0.41910041397E+03  0.45164532772E+03  0.00000000000E+00 0.  1.
         13    1    4    4    0    0 -0.48442740362E+02 -0.50880884575E+02  0.10439935402E+03  0.12583635654E+03  0.00000000000E+00 0. -1.
          1    1    1    2  501    0  0.58507871293E+02  0.19683378630E+03  0.20445350555E+03  0.28977223187E+03  0.00000000000E+00 0. -1.
<scales pt_clust_5="13000.00000" pt_clust_6="13000.00000" pt_clust_7="13000.00000" pt_clust_8="13000.00000" pt_clust_9="13000.00000"></scales>
<clustering>
<clus scale="   89.200">  5  6 -1 -1</clus>
<clus scale="   92.086">  1  5  2 -1</clus>
<clus scale="   92.460">  7  8 -1 -1</clus>
<clus scale="  211.556">  7  9 -1 -1</clus>
<clus scale="  471.395">  2  5  1 -1</clus>
</clustering>
</event>
<event>
 9    1  0.3303741E-006  0.2277715E+03  0.7546771E-02  0.1161774E+00
         21   -1    0    0  501  502  0.00000000000E+00  0.00000000000E+00  0.10110806490E+04  0.10110806490E+04  0.00000000000E+00 0.  1.
          3   -1    0    0  502    0 -0.00000000000E+00 -0.00000000000E+00 -0.58356967169E+02  0.58356967169E+02  0.00000000000E+00 0. -1.
         23    2    1    2    0    0  0.29330624187E+02 -0.40594323366E+02  0.13499431683E+02  0.10298944993E+03  0.88974195903E+02 0.  0.
         23    2    1    2    0    0 -0.94494273976E+02 -0.24949917168E+02  0.51339817655E+03  0.53070719539E+03  0.92308035243E+02 0.  0.
        -11    1    4    4    0    0 -0.69518731963E+02 -0.47251425692E+02  0.46045469732E+03  0.46806418322E+03  0.00000000000E+00 0.  1.
         11    1    4    4    0    0 -0.24975542012E+02  0.22301508523E+02  0.52943479231E+02  0.62643012175E+02  0.00000000000E+00 0. -1.
        -13    1    3    3    0    0  0.19961783970E+02  0.22983860028E+02  0.22828738919E+02  0.38051044160E+02  0.00000000000E+00 0.  1.
         13    1    3    3    0    0  0.93688402167E+01 -0.63578183394E+02 -0.93293072356E+01  0.64938405771E+02  0.00000000000E+00 0. -1.
          3    1    1    2  501    0  0.65163649789E+02  0.65544240534E+02  0.42582607359E+03  0.43574097084E+03  0.00000000000E+00 0. -1.
<scales pt_clust_5="13000.00000" pt_clust_6="13000.00000" pt_clust_7="13000.00000" pt_clust_8="13000.00000" pt_clust_9="13000.00000"></scales>
<clustering>
<clus scale="   88.974">  7  8 -1 -1</clus>
<clus scale="   92.308">  5  6 -1 -1</clus>
<clus scale="   92.425">  5  9 -1 -1</clus>
<clus scale="  102.101">  2  7  1 -1</clus>
<clus scale="  227.772">  1  5  2 -1</clus>
</clustering>
</event>
<event>
 9    1  0.3303741E-006  0.3030679E+03  0.7546771E-02  0.1109357E+00
         21   -1    0    0  501  502  0.00000000000E+00  0.00000000000E+00  0.63761368894E+03  0.63761368894E+03  0.00000000000E+00 0. -1.
          1   -1    0    0  502    0 -0.00000000000E+00 -0.00000000000E+00 -0.83286159453E+02  0.83286159453E+02  0.00000000000E+00 0. -1.
         23    2    1    2    0    0 -0.97871481582E+02 -0.78816828668E+02  0.22552408603E+03  0.27372891000E+03  0.90969683988E+02 0.  0.
         23    2    1    2    0    0 -0.18866294386E+02  0.11864858756E+03  0.84010543534E+02  0.17305811270E+03  0.91966920964E+02 0.  0.
        -13    1    3    3    0    0 -0.42243503266E+01 -0.55912720650E+02  0.59603856163E+02  0.81833349777E+02  0.00000000000E+00 0.  1.
         13    1    3    3    0    0 -0.93647131256E+02 -0.22904108018E+02  0.16592022986E+03  0.19189556023E+03  0.00000000000E+00 0. -1.
        -13    1    4    4    0    0 -0.47588216613E+02  0.11206101584E+03  0.69898492450E+02  0.14038557219E+03  0.00000000000E+00 0. -1.
         13    1    4    4    0    0  0.28721922226E+02  0.65875717182E+01  0.14112051084E+02  0.32672540509E+02  0.00000000000E+00 0.  1.
          1    1    1    2  501    0  0.11673777597E+03 -0.39831758893E+02  0.24479289992E+03  0.27411282569E+03  0.00000000000E+00 0. -1.
<scales pt_clust_5="13000.00000" pt_clust_6="13000.00000" pt_clust_7="13000.00000" pt_clust_8="13000.00000" pt_clust_9="13000.00000"></scales>
<clustering>
<clus scale="   90.970">  5  6 -1 -1</clus>
<clus scale="   91.967">  7  8 -1 -1</clus>
<clus scale="  123.346">  7  9 -1 -1</clus>
<clus scale="  155.134">  2  5  1 -1</clus>
<clus scale="  303.068">  1  5  2 -1</clus>
</clustering>
</event>
<event>
 9    1  0.3303741E-006  0.3743722E+03  0.7546771E-02  0.1080166E+00
         21   -1    0    0  501  502  0.00000000000E+00  0.00000000000E+00  0.44653982316E+03  0.44653982316E+03  0.00000000000E+00 0. -1.
         -3   -1    0    0    0  501 -0.00000000000E+00 -0.00000000000E+00 -0.17028273752E+03  0.17028273752E+03  0.00000000000E+00 0.  1.
         23    2    1    2    0    0  0.12819095244E+03 -0.76845447830E+02  0.97613621898E+02  0.20201171913E+03  0.94563060151E+02 0.  0.
         23    2    1    2    0    0  0.17313478111E+02  0.78875085825E+02 -0.59882471432E+02  0.13540024675E+03  0.90698846454E+02 0.  0.
        -11    1    3    3    0    0 -0.50401636645E+01 -0.37449426755E+02  0.17601480693E+02  0.41685428349E+02  0.00000000000E+00 0.  1.
         11    1    3    3    0    0  0.13323111610E+03 -0.39396021076E+02  0.80012141205E+02  0.16032629078E+03  0.00000000000E+00 0. -1.
        -13    1    4    4    0    0  0.41783937146E+02  0.34104124569E+01 -0.24262891888E+02  0.48437756341E+02  0.00000000000E+00 0. -1.
         13    1    4    4    0    0 -0.24470459035E+02  0.75464673368E+02 -0.35619579543E+02  0.86962490413E+02  0.00000000000E+00 0.  1.
         -3    1    1    2    0  502 -0.14550443055E+03 -0.20296379944E+01  0.23852593517E+03  0.27941059480E+03  0.00000000000E+00 0.  1.
<scales pt_clust_5="13000.00000" pt_clust_6="13000.00000" pt_clust_7="13000.00000" pt_clust_8="13000.00000" pt_clust_9="13000.00000"></scales>
<clustering>
<clus scale="   90.699">  7  8 -1 -1</clus>
<clus scale="   94.563">  5  6 -1 -1</clus>
<clus scale="  145.519">  7  9 -1 -1</clus>
<clus scale="  176.863">  2  5  1 -1</clus>
<clus scale="  374.372">  1  5  2 -1</clus>
</clustering>
</event>
<event>
 9    1  0.3303741E-006  0.1323176E+03  0.7546771E-02  0.1239072E+00
         21   -1    0    0  501  502  0.00000000000E+00  0.00000000000E+00  0.15987929779E+02  0.15987929779E+02  0.00000000000E+00 0.  1.
         -2   -1    0    0    0  501 -0.00000000000E+00 -0.00000000000E+00 -0.91904057364E+03  0.91904057364E+03  0.00000000000E+00 0.  1.
         23    2    1    2    0    0 -0.17027327081E+02  0.32388372671E+02 -0.24007051859E+03  0.25897137927E+03  0.89963241548E+02 0.  0.
         23    2    1    2    0    0 -0.27378838220E+00  0.31646499040E+01 -0.51687501897E+03  0.52469453788E+03  0.90191368120E+02 0.  0.
        -13    1    3    3    0    0 -0.47706503789E+01  0.63026396696E+02 -0.14016859655E+03  0.15376059718E+03  0.00000000000E+00 0.  1.
         13    1    3    3    0    0 -0.12256676702E+02 -0.30638024025E+02 -0.99901922042E+02  0.10521078209E+03  0.00000000000E+00 0. -1.
        -13    1    4    4    0    0 -0.28421053150E+02 -0.33557559733E+02 -0.25396672696E+03  0.25774593009E+03  0.00000000000E+00 0. -1.
         13    1    4    4    0    0  0.28147264768E+02  0.36722209637E+02 -0.26290829201E+03  0.26694860779E+03  0.00000000000E+00 0.  1.
         -2    1    1    2    0  502  0.17301115463E+02 -0.35553022575E+02 -0.14610710630E+03  0.15136258627E+03  0.00000000000E+00 0.  1.
<scales pt_clust_5="13000.00000" pt_clust_6="13000.00000" pt_clust_7="13000.00000" pt_clust_8="13000.00000" pt_clust_9="13000.00000"></scales>
<clustering>
<clus scale="   89.963">  5  6 -1 -1</clus>
<clus scale="   90.191">  7  8 -1 -1</clus>
<clus scale="   39.539">  7  9 -1 -1</clus>
<clus scale="   97.120">  2  5  1 -1</clus>
<clus scale="  132.318">  1  5  2 -1</clus>
</clustering>
</event>
<event>
 9    1  0.3303741E-006  0.3377082E+03  0.7546771E-02  0.1093150E+00
         -3   -1    0    0    0  501 -0.00000000000E+00  0.00000000000E+00  0.49692601247E+03  0.49692601247E+03  0.00000000000E+00 0.  1.
         21   -1    0    0  501  502  0.00000000000E+00 -0.00000000000E+00 -0.14134641225E+03  0.14134641225E+03  0.00000000000E+00 0. -1.
         23    2    1    2    0    0  0.10857492301E+03  0.93866055256E+02  0.38135113709E+02  0.17478800671E+03  0.92180313269E+02 0.  0.
         23    2    1    2    0    0 -0.29528170285E+02  0.87645162433E+02  0.17955075277E+03  0.22221818940E+03  0.92676121737E+02 0.  0.
        -13    1    3    3    0    0  0.26846784331E+02  0.89387311632E+01 -0.27856133075E+02  0.39706610201E+02  0.00000000000E+00 0. -1.
         13    1    3    3    0    0  0.81728138681E+02  0.84927324093E+02  0.65991246784E+02  0.13508139651E+03  0.00000000000E+00 0.  1.
        -13    1    4    4    0    0  0.21034147187E+02  0.76197644030E+02  0.11109751295E+03  0.13634945430E+03  0.00000000000E+00 0.  1.
         13    1    4    4    0    0 -0.50562317472E+02  0.11447518404E+02  0.68453239826E+02  0.85868735104E+02  0.00000000000E+00 0. -1.
         -3    1    1    2    0  502 -0.79046752728E+02 -0.18151121769E+03  0.13789373374E+03  0.24126622861E+03  0.00000000000E+00 0.  1.
<scales pt_clust_5="13000.00000" pt_clust_6="13000.00000" pt_clust_7="13000.00000" pt_clust_8="13000.00000" pt_clust_9="13000.00000"></scales>
<clustering>
<clus scale="   92.180">  5  6 -1 -1</clus>
<clus scale="   92.676">  7  8 -1 -1</clus>
<clus scale="  170.577">  1  5  2 -1</clus>
<clus scale="  138.464">  7  9 -1 -1</clus>
<clus scale="  337.708">  2  5  1 -1</clus>
</clustering>
</event>
<event>
 9    1  0.3303741E-006  0.3946765E+03  0.7546771E-02  0.1056193E+00
         21   -1    0    0  501  502  0.00000000000E+00  0.00000000000E+00  0.34439315443E+03  0.34439315443E+03  0.00000000000E+00 0. -1.
          1   -1    0    0  502    0 -0.00000000000E+00 -0.00000000000E+00 -0.38645788678E+03  0.38645788678E+03  0.00000000000E+00 0. -1.
         23    2    1    2    0    0  0.18486926143E+03 -0.20542154195E+03 -0.14028294724E+03  0.32413693202E+03  0.94925189957E+02 0.  0.
         23    2    1    2    0    0 -0.14260172277E+03 -0.36834474276E+01 -0.67005025666E+01  0.16897606284E+03  0.90328256697E+02 0.  0.
        -11    1    3    3    0    0  0.32557723072E+02 -0.17137837616E+02  0.11231564551E+02  0.38468933597E+02  0.00000000000E+00 0.  1.
         11    1    3    3    0    0  0.15231153836E+03 -0.18828370434E+03 -0.15151451180E+03  0.28566799842E+03  0.00000000000E+00 0. -1.
        -11    1    4    4    0    0 -0.12371239653E+03  0.27986215237E+02 -0.22570486264E+02  0.12883094407E+03  0.00000000000E+00 0.  1.
         11    1    4    4    0    0 -0.18889326235E+02 -0.31669662665E+02  0.15869983697E+02  0.40145118775E+02  0.00000000000E+00 0. -1.
          1    1    1    2  501    0 -0.42267538664E+02  0.20910498938E+03  0.10491871745E+03  0.23773804635E+03  0.00000000000E+00 0. -1.
<scales pt_clust_5="13000.00000" pt_clust_6="13000.00000" pt_clust_7="13000.00000" pt_clust_8="13000.00000" pt_clust_9="13000.00000"></scales>
<clustering>
<clus scale="   90.328">  7  8 -1 -1</clus>
<clus scale="   94.925">  5  6 -1 -1</clus>
<clus scale="  213.334">  7  9 -1 -1</clus>
<clus scale="  292.208">  2  5  1 -1</clus>
<clus scale="  394.677">  1  5  2 -1</clus>
</clustering>
</event>
<event>
 9    1  0.3303741E-006  0.4452320E+03  0.7546771E-02  0.1069796E+00
         -1   -1    0    0    0  501 -0.00000000000E+00  0.00000000000E+00  0.81403655702E+02  0.81403655702E+02  0.00000000000E+00 0.  1.
         21   -1    0    0  501  502  0.00000000000E+00 -0.00000000000E+00 -0.10505526147E+04  0.10505526147E+04  0.00000000000E+00 0.  1.
         23    2    1    2    0    0  0.94588472990E+02  0.48625076573E+02 -0.24508074787E+03  0.28195255923E+03  0.90118230063E+02 0.  0.
         23    2    1    2    0    0  0.83694499451E+02  0.83026979103E+02 -0.80104863609E+02  0.16897076411E+03  0.90752859194E+02 0.  0.
        -11    1    4    4    0    0  0.26057794588E+02 -0.14501065456E+02 -0.37561237243E+02  0.47959734167E+02  0.00000000000E+00 0.  1.
         11    1    4    4    0    0  0.57636704864E+02  0.97528044559E+02 -0.42543626366E+02  0.12101102994E+03  0.00000000000E+00 0. -1.
        -13    1    3    3    0    0  0.56328129659E+02 -0.86768837212E+01 -0.17340353801E+03  0.18252926750E+03  0.00000000000E+00 0. -1.
         13    1    3    3    0    0  0.38260343331E+02  0.57301960294E+02 -0.71677209859E+02  0.99423291730E+02  0.00000000000E+00 0.  1.
         -1    1    1    2    0  502 -0.17828297244E+03 -0.13165205568E+03 -0.64396334750E+03  0.68103294704E+03  0.00000000000E+00 0.  1.
<scales pt_clust_5="13000.00000" pt_clust_6="13000.00000" pt_clust_7="13000.00000" pt_clust_8="13000.00000" pt_clust_9="13000.00000"></scales>
<clustering>
<clus scale="   90.118">  7  8 -1 -1</clus>
<clus scale="   90.753">  5  6 -1 -1</clus>
<clus scale="  139.401">  1  7  2 -1</clus>
<clus scale="  190.790">  5  9 -1 -1</clus>
<clus scale="  445.232">  2  5  1 -1</clus>
</clustering>
</event>
<event>
 9    1  0.3303741E-006  0.1691990E+03  0.7546771E-02  0.1204884E+00
         21   -1    0    0  501  502  0.00000000000E+00  0.00000000000E+00  0.30912537570E+03  0.30912537570E+03  0.00000000000E+00 0.  1.
         -3   -1    0    0    0  501 -0.00000000000E+00 -0.00000000000E+00 -0.64748468151E+02  0.64748468151E+02  0.00000000000E+00 0.  1.
         23    2    1    2    0    0 -0.45975709886E+01 -0.24870686534E+02  0.15684231768E+03  0.18337293265E+03  0.91577459584E+02 0.  0.
         23    2    1    2    0    0  0.46837924836E+02  0.56413420225E+02  0.50758642929E+02  0.12622290707E+03  0.89328143683E+02 0.  0.
        -11    1    3    3    0    0  0.25766052124E+02 -0.12586761099E+02  0.63674867579E+01  0.29374493777E+02  0.00000000000E+00 0. -1.
         11    1    3    3    0    0 -0.30363623113E+02 -0.12283925435E+02  0.15047483092E+03  0.15399843887E+03  0.00000000000E+00 0.  1.
        -13    1    4    4    0    0 -0.25031999211E+02  0.15605526017E+01  0.12926586056E+02  0.28215827757E+02  0.00000000000E+00 0. -1.
         13    1    4    4    0    0  0.71869924047E+02  0.54852867623E+02  0.37832056873E+02  0.98007079317E+02  0.00000000000E+00 0.  1.
         -3    1    1    2    0  502 -0.42240353847E+02 -0.31542733691E+02  0.36775946937E+02  0.64278004130E+02  0.00000000000E+00 0.  1.
<scales pt_clust_5="13000.00000" pt_clust_6="13000.00000" pt_clust_7="13000.00000" pt_clust_8="13000.00000" pt_clust_9="13000.00000"></scales>
<clustering>
<clus scale="   89.328">  7  8 -1 -1</clus>
<clus scale="   52.718">  7  9 -1 -1</clus>
<clus scale="   91.577">  5  6 -1 -1</clus>
<clus scale="   95.006">  2  5  1 -1</clus>
<clus scale="  169.199">  1  5  2 -1</clus>
</clustering>
</event>
<event>
 9    1  0.3303741E-006  0.2042299E+03  0.7546771E-02  0.1164019E+00
         21   -1    0    0  501  502  0.00000000000E+00  0.00000000000E+00  0.17345283553E+03  0.17345283553E+03  0.00000000000E+00 0. -1.
          1   -1    0    0  502    0 -0.00000000000E+00 -0.00000000000E+00 -0.22474793292E+03  0.22474793292E+03  0.00000000000E+00 0. -1.
         23    2    1    2    0    0  0.18321430427E+02 -0.97419046376E+02 -0.12251884126E+03  0.18190770575E+03  0.90848233542E+02 0.  0.
         23    2    1    2    0    0  0.41163974346E+02  0.66468618637E+02  0.99417711393E+00  0.11919190717E+03  0.89962060335E+02 0.  0.
        -13    1    4    4    0    0  0.65468857360E+02  0.35016147995E+02 -0.16021678749E+02  0.75953907697E+02  0.00000000000E+00 0.  1.
         13    1    4    4    0    0 -0.24304883015E+02  0.31452470642E+02  0.17015855863E+02  0.43237999475E+02  0.00000000000E+00 0. -1.
        -13    1    3    3    0    0 -0.16880747317E+02 -0.43628165256E+02 -0.38415950846E+01  0.46937557312E+02  0.00000000000E+00 0.  1.
         13    1    3    3    0    0  0.35202177744E+02 -0.53790881121E+02 -0.11867724617E+03  0.13497014844E+03  0.00000000000E+00 0. -1.
          1    1    1    2  501    0 -0.59485404772E+02  0.30950427739E+02  0.70229566759E+02  0.97101155530E+02  0.00000000000E+00 0. -1.
<scales pt_clust_5="13000.00000" pt_clust_6="13000.00000" pt_clust_7="13000.00000" pt_clust_8="13000.00000" pt_clust_9="13000.00000"></scales>
<clustering>
<clus scale="   89.962">  5  6 -1 -1</clus>
<clus scale="   67.056">  5  9 -1 -1</clus>
<clus scale="   90.848">  7  8 -1 -1</clus>
<clus scale="  134.460">  2  7  1 -1</clus>
<clus scale="  204.230">  1  5  2 -1</clus>
</clustering>
</event>
<event>
 9    1  0.3303741E-006  0.2416960E+03  0.7546771E-02  0.1156523E+00
         21   -1    0    0  501  502  0.00000000000E+00  0.00000000000E+00  0.14992611099E+03  0.14992611099E+03  0.00000000000E+00 0. -1.
          1   -1    0    0  502    0 -0.00000000000E+00 -0.00000000000E+00 -0.19456357647E+03  0.19456357647E+03  0.00000000000E+00 0. -1.
         23    2    1    2    0    0  0.26780272289E+02 -0.12351321700E+02 -0.34581363539E+02  0.10258453912E+03  0.91967270428E+02 0.  0.
         23    2    1    2    0    0  0.44113245856E+02 -0.47292861283E+02 -0.69764634508E+02  0.13168523934E+03  0.91056602424E+02 0.  0.
        -13    1    3    3    0    0 -0.29608676502E+01  0.31860008238E+02 -0.37407788212E+02  0.49225699397E+02  0.00000000000E+00 0.  1.
         13    1    3    3    0    0  0.29741139939E+02 -0.44211329939E+02  0.28264246733E+01  0.53358839720E+02  0.00000000000E+00 0. -1.
        -13    1    4    4    0    0  0.24742195702E+02 -0.50154037677E+01  0.18919380992E+02  0.31547955564E+02  0.00000000000E+00 0.  1.
         13    1    4    4    0    0  0.19371050154E+02 -0.42277457515E+02 -0.88684015499E+02  0.10013728378E+03  0.00000000000E+00 0. -1.
          1    1    1    2  501    0 -0.70893518145E+02  0.59644182983E+02  0.59708532565E+02  0.11021990900E+03  0.00000000000E+00 0. -1.
<scales pt_clust_5="13000.00000" pt_clust_6="13000.00000" pt_clust_7="13000.00000" pt_clust_8="13000.00000" pt_clust_9="13000.00000"></scales>
<clustering>
<clus scale="   91.057">  7  8 -1 -1</clus>
<clus scale="   91.967">  5  6 -1 -1</clus>
<clus scale="   92.646">  7  9 -1 -1</clus>
<clus scale="   96.580">  2  5  1 -1</clus>
<clus scale="  241.696">  1  5  2 -1</clus>
</clustering>
</event>
<event>
 9    1  0.3303741E-006  0.1678458E+03  0.7546771E-02  0.1198350E+00
         -1   -1    0    0    0  501 -0.00000000000E+00  0.00000000000E+00  0.63871713502E+03  0.63871713502E+03  0.00000000000E+00 0.  1.
         21   -1    0    0  501  502  0.00000000000E+00 -0.00000000000E+00 -0.37034639897E+02  0.37034639897E+02  0.00000000000E+00 0.  1.
         23    2    1    2    0    0  0.52394601972E+02 -0.37346814451E+02  0.11357782924E+03  0.15959446951E+03  0.91817713627E+02 0.  0.
         23    2    1    2    0    0 -0.48777045287E+01 -0.13776536418E+02  0.34184042010E+03  0.35409348422E+03  0.91179700560E+02 0.  0.
        -11    1    4    4    0    0 -0.28507348179E+02 -0.43287483990E+02  0.15406134673E+03  0.16254652789E+03  0.00000000000E+00 0.  1.
         11    1    4    4    0    0  0.23629643650E+02  0.29510947572E+02  0.18777907336E+03  0.19154695633E+03  0.00000000000E+00 0. -1.
        -13    1    3    3    0    0  0.40876642143E+02 -0.67712331595E+02  0.87449318403E+02  0.11791201386E+03  0.00000000000E+00 0.  1.
         13    1    3    3    0    0  0.11517959829E+02  0.30365517144E+02  0.26128510840E+02  0.41682455647E+02  0.00000000000E+00 0. -1.
         -1    1    1    2    0  502 -0.47516897443E+02  0.51123350869E+02  0.14626424578E+03  0.16206382119E+03  0.00000000000E+00 0.  1.
<scales pt_clust_5="13000.00000" pt_clust_6="13000.00000" pt_clust_7="13000.00000" pt_clust_8="13000.00000" pt_clust_9="13000.00000"></scales>
<clustering>
<clus scale="   91.180">  5  6 -1 -1</clus>
<clus scale="   69.796">  5  9 -1 -1</clus>
<clus scale="   91.818">  7  8 -1 -1</clus>
<clus scale="  112.118">  1  7  2 -1</clus>
<clus scale="  167.846">  2  5  1 -1</clus>
</clustering>
</event>
<event>
 9    1  0.3303741E-006  0.2409888E+03  0.7546771E-02  0.1129946E+00
         21   -1    0    0  501  502  0.00000000000E+00  0.00000000000E+00  0.49112404123E+03  0.49112404123E+03  0.00000000000E+00 0. -1.
          2   -1    0    0  502    0 -0.00000000000E+00 -0.00000000000E+00 -0.10015647920E+03  0.10015647920E+03  0.00000000000E+00 0. -1.
         23    2    1    2    0    0 -0.83976904424E+02  0.13633297411E+03  0.25483201737E+03  0.31449817942E+03  0.91274024105E+02 0.  0.
         23    2    1    2    0    0 -0.12593077813E+02 -0.59540195921E+02  0.42350376420E+02  0.12180314875E+03  0.96637633053E+02 0.  0.
        -13    1    3    3    0    0 -0.37243700509E+02  0.13006987175E+03  0.20731225388E+03  0.24755531780E+03  0.00000000000E+00 0.  1.
         13    1    3    3    0    0 -0.46733203915E+02  0.62631023594E+01  0.47519763491E+02  0.66942861618E+02  0.00000000000E+00 0. -1.
        -13    1    4    4    0    0  0.11431226221E+01 -0.74158946690E+02  0.59755725750E+02  0.95244962404E+02  0.00000000000E+00 0.  1.
         13    1    4    4    0    0 -0.13736200435E+02  0.14618750769E+02 -0.17405349330E+02  0.26558186341E+02  0.00000000000E+00 0. -1.
          2    1    1    2  501    0  0.96569982237E+02 -0.76792778184E+02  0.93785168237E+02  0.15497919225E+03  0.00000000000E+00 0. -1.
<scales pt_clust_5="13000.00000" pt_clust_6="13000.00000" pt_clust_7="13000.00000" pt_clust_8="13000.00000" pt_clust_9="13000.00000"></scales>
<clustering>
<clus scale="   91.274">  5  6 -1 -1</clus>
<clus scale="   96.638">  7  8 -1 -1</clus>
<clus scale="  123.381">  7  9 -1 -1</clus>
<clus scale="  184.309">  2  5  1 -1</clus>
<clus scale="  240.989">  1  5  2 -1</clus>
</clustering>
</event>
<event>
 9    1  0.3303741E-006  0.1237997E+03  0.7546771E-02  0.1246637E+00
          1   -1    0    0  502    0 -0.00000000000E+00  0.00000000000E+00  0.55905926923E+02  0.55905926923E+02  0.00000000000E+00 0. -1.
         21   -1    0    0  501  502  0.00000000000E+00 -0.00000000000E+00 -0.27790071954E+03  0.27790071954E+03  0.00000000000E+00 0.  1.
         23    2    1    2    0    0 -0.44831972360E+02  0.24106910244E+01 -0.31333811027E+02  0.10647871783E+03  0.91324654177E+02 0.  0.
         23    2    1    2    0    0  0.26441787853E+02  0.75404834289E+01 -0.11848252200E+03  0.15218170592E+03  0.91461120494E+02 0.  0.
        -11    1    3    3    0    0 -0.16634176611E+02 -0.16005166066E+02 -0.58704790509E+02  0.63080215607E+02  0.00000000000E+00 0.  1.
         11    1    3    3    0    0 -0.28197795748E+02  0.18415857091E+02  0.27370979482E+02  0.43398502223E+02  0.00000000000E+00 0. -1.
        -13    1    4    4    0    0  0.10529531217E+02  0.49494811348E+02 -0.64755329484E+02  0.82181871934E+02  0.00000000000E+00 0.  1.
         13    1    4    4    0    0  0.15912256636E+02 -0.41954327919E+02 -0.53727192518E+02  0.69999833987E+02  0.00000000000E+00 0. -1.
          1    1    1    2  501    0  0.18390184507E+02 -0.99511744532E+01 -0.72178459589E+02  0.75146222712E+02  0.00000000000E+00 0. -1.
<scales pt_clust_5="13000.00000" pt_clust_6="13000.00000" pt_clust_7="13000.00000" pt_clust_8="13000.00000" pt_clust_9="13000.00000"></scales>
<clustering>
<clus scale="   91.325">  5  6 -1 -1</clus>
<clus scale="   91.461">  7  8 -1 -1</clus>
<clus scale="   20.910">  7  9 -1 -1</clus>
<clus scale="  101.764">  1  5  2 -1</clus>
<clus scale="  123.800">  2  5  1 -1</clus>
</clustering>
</event>
<event>
 9    1  0.3303741E-006  0.4209835E+03  0.7546771E-02  0.1085170E+00
         21   -1    0    0  501  502  0.00000000000E+00  0.00000000000E+00  0.14560752074E+03  0.14560752074E+03  0.00000000000E+00 0.  1.
          2   -1    0    0  502    0 -0.00000000000E+00 -0.00000000000E+00 -0.48464684315E+03  0.48464684315E+03  0.00000000000E+00 0. -1.
         23    2    1    2    0    0  0.57605793136E+02  0.14457706004E+02 -0.89599125454E+02  0.14092063850E+03  0.91121734000E+02 0.  0.
         23    2    1    2    0    0 -0.12632727879E+03 -0.10291155674E+03 -0.30979010248E+03  0.36209836317E+03  0.92714330845E+02 0.  0.
        -13    1    4    4    0    0 -0.79007491880E+02 -0.56468974345E+01 -0.12522308785E+03  0.14817183590E+03  0.00000000000E+00 0. -1.
         13    1    4    4    0    0 -0.47319786909E+02 -0.97264659301E+02 -0.18456701463E+03  0.21392652727E+03  0.00000000000E+00 0.  1.
        -13    1    3    3    0    0  0.79827488827E+02  0.23544829289E+02 -0.78736092600E+02  0.11456945158E+03  0.00000000000E+00 0.  1.
         13    1    3    3    0    0 -0.22221695691E+02 -0.90871232856E+01 -0.10863032855E+02  0.26351186914E+02  0.00000000000E+00 0. -1.
          2    1    1    2  501    0  0.68721485654E+02  0.88453850731E+02  0.60349905523E+02  0.12723536221E+03  0.00000000000E+00 0. -1.
<scales pt_clust_5="13000.00000" pt_clust_6="13000.00000" pt_clust_7="13000.00000" pt_clust_8="13000.00000" pt_clust_9="13000.00000"></scales>
<clustering>
<clus scale="   91.122">  7  8 -1 -1</clus>
<clus scale="   92.714">  5  6 -1 -1</clus>
<clus scale="  108.769">  2  7  1 -1</clus>
<clus scale="  116.293">  5  9 -1 -1</clus>
<clus scale="  420.983">  1  5  2 -1</clus>
</clustering>
</event>
<event>
 9    1  0.3303741E-006  0.2103146E+03  0.7546771E-02  0.1151764E+00
         21   -1    0    0  501  502  0.00000000000E+00  0.00000000000E+00  0.32206864080E+03  0.32206864080E+03  0.00000000000E+00 0.  1.
          1   -1    0    0  502    0 -0.00000000000E+00 -0.00000000000E+00 -0.13864403935E+03  0.13864403935E+03  0.00000000000E+00 0. -1.
         23    2    1    2    0    0 -0.11198425671E+03 -0.74698401370E+02 -0.23559055322E+02  0.16562883477E+03  0.93581819296E+02 0.  0.
         23    2    1    2    0    0  0.32224574351E+02 -0.26358783607E+00  0.12882555313E+03  0.16058627693E+03  0.90296381581E+02 0.  0.
        -11    1    3    3    0    0 -0.98415004836E+02 -0.19064598041E+02  0.74251765053E+01  0.10051917887E+03  0.00000000000E+00 0.  1.
         11    1    3    3    0    0 -0.13569251871E+02 -0.55633803329E+02 -0.30984231827E+02  0.65109655898E+02  0.00000000000E+00 0. -1.
        -13    1    4    4    0    0  0.55828614064E+02 -0.90683165158E+01  0.12201853983E+03  0.13449012074E+03  0.00000000000E+00 0. -1.
         13    1    4    4    0    0 -0.23604039713E+02  0.88047286798E+01  0.68070133014E+01  0.26096156192E+02  0.00000000000E+00 0.  1.
          1    1    1    2  501    0  0.79759682355E+02  0.74961989206E+02  0.78158103643E+02  0.13449756845E+03  0.00000000000E+00 0. -1.
<scales pt_clust_5="13000.00000" pt_clust_6="13000.00000" pt_clust_7="13000.00000" pt_clust_8="13000.00000" pt_clust_9="13000.00000"></scales>
<clustering>
<clus scale="   90.296">  7  8 -1 -1</clus>
<clus scale="   93.582">  5  6 -1 -1</clus>
<clus scale="  109.457">  7  9 -1 -1</clus>
<clus scale="  163.945">  2  5  1 -1</clus>
<clus scale="  210.315">  1  5  2 -1</clus>
</clustering>
</event>
<event>
 9    1  0.3303741E-006  0.1367500E+03  0.7546771E-02  0.1233095E+00
         -1   -1    0    0    0  501 -0.00000000000E+00  0.00000000000E+00  0.13075889697E+03  0.13075889697E+03  0.00000000000E+00 0.  1.
         21   -1    0    0  501  502  0.00000000000E+00 -0.00000000000E+00 -0.15418628455E+03  0.15418628455E+03  0.00000000000E+00 0. -1.
         23    2    1    2    0    0  0.89998413189E+01  0.38302005773E+02  0.68002998103E+02  0.12044568744E+03  0.91294660754E+02 0.  0.
         23    2    1    2    0    0  0.98397547072E+01 -0.13551517736E+02 -0.91408961219E+02  0.13339455081E+03  0.95697667623E+02 0.  0.
        -11    1    3    3    0    0 -0.37314943280E+01  0.58105083362E+02  0.11658452526E+02  0.59380504189E+02  0.00000000000E+00 0.  1.
         11    1    3    3    0    0  0.12731335647E+02 -0.19803077589E+02  0.56344545577E+02  0.61065183252E+02  0.00000000000E+00 0. -1.
        -13    1    4    4    0    0 -0.26593145810E+02  0.36917130172E+01  0.64045617669E+01  0.27601495621E+02  0.00000000000E+00 0.  1.
         13    1    4    4    0    0  0.36432900518E+02 -0.17243230753E+02 -0.97813522986E+02  0.10579305519E+03  0.00000000000E+00 0. -1.
         -1    1    1    2    0  502 -0.18839596026E+02 -0.24750488037E+02 -0.21424468371E-01  0.31104943265E+02  0.00000000000E+00 0.  1.
<scales pt_clust_5="13000.00000" pt_clust_6="13000.00000" pt_clust_7="13000.00000" pt_clust_8="13000.00000" pt_clust_9="13000.00000"></scales>
<clustering>
<clus scale="   91.295">  5  6 -1 -1</clus>
<clus scale="   95.698">  7  8 -1 -1</clus>
<clus scale="   31.105">  7  9 -1 -1</clus>
<clus scale="   99.412">  1  5  2 -1</clus>
<clus scale="  136.750">  2  5  1 -1</clus>
</clustering>
</event>
<event>
 9    1  0.3303741E-006  0.1669973E+03  0.7546771E-02  0.1201092E+00
         -1   -1    0    0    0  501 -0.00000000000E+00  0.00000000000E+00  0.22816198490E+03  0.22816198490E+03  0.00000000000E+00 0.  1.
         21   -1    0    0  501  502  0.00000000000E+00 -0.00000000000E+00 -0.94597487265E+02  0.94597487265E+02  0.00000000000E+00 0. -1.
         23    2    1    2    0    0  0.13567841530E+02  0.55920817705E+02 -0.26022571189E+01  0.10728445924E+03  0.90509443023E+02 0.  0.
         23    2    1    2    0    0 -0.43191892144E+02 -0.67015983022E+02  0.13985385719E+03  0.18362722191E+03  0.88335574524E+02 0.  0.
        -11    1    4    4    0    0  0.22069990211E+02 -0.39772132228E+02  0.74760247748E+02  0.87510008646E+02  0.00000000000E+00 0.  1.
         11    1    4    4    0    0 -0.65261882355E+02 -0.27243850794E+02  0.65093609445E+02  0.96117213262E+02  0.00000000000E+00 0. -1.
        -13    1    3    3    0    0 -0.37306576708E+02  0.23414529013E+02  0.10999814012E+02  0.45398422251E+02  0.00000000000E+00 0. -1.
         13    1    3    3    0    0  0.50874418238E+02  0.32506288692E+02 -0.13602071131E+02  0.61886036992E+02  0.00000000000E+00 0.  1.
         -1    1    1    2    0  502  0.29624050614E+02  0.11095165317E+02 -0.36871024371E+01  0.31847791016E+02  0.00000000000E+00 0.  1.
<scales pt_clust_5="13000.00000" pt_clust_6="13000.00000" pt_clust_7="13000.00000" pt_clust_8="13000.00000" pt_clust_9="13000.00000"></scales>
<clustering>
<clus scale="   88.336">  5  6 -1 -1</clus>
<clus scale="   31.634">  5  9 -1 -1</clus>
<clus scale="   90.509">  7  8 -1 -1</clus>
<clus scale="  107.253">  1  7  2 -1</clus>
<clus scale="  166.997">  2  5  1 -1</clus>
</clustering>
</event>
<event>
 9    1  0.3303741E-006  0.1650218E+03  0.7546771E-02  0.1201444E+00
         -3   -1    0    0    0  501 -0.00000000000E+00  0.00000000000E+00  0.28512069841E+03  0.28512069841E+03  0.00000000000E+00 0.  1.
         21   -1    0    0  501  502  0.00000000000E+00 -0.00000000000E+00 -0.66652015900E+02  0.66652015900E+02  0.00000000000E+00 0. -1.
         23    2    1    2    0    0 -0.30667151863E+02 -0.26556885070E+02  0.96651160056E+02  0.14665879808E+03  0.10257491879E+03 0.  0.
         23    2    1    2    0    0 -0.18459805088E+02  0.22653710055E+02  0.30381776009E+02  0.10124289813E+03  0.92049536252E+02 0.  0.
        -11    1    4    4    0    0 -0.49681879808E+02  0.37251209038E+02  0.18694586152E+02  0.64849281472E+02  0.00000000000E+00 0. -1.
         11    1    4    4    0    0  0.31222074720E+02 -0.14597498983E+02  0.11687189858E+02  0.36393616653E+02  0.00000000000E+00 0.  1.
        -11    1    3    3    0    0  0.28403999668E+02 -0.18867862942E+02  0.76529436324E+02  0.83782683612E+02  0.00000000000E+00 0.  1.
         11    1    3    3    0    0 -0.59071151531E+02 -0.76890221281E+01  0.20121723732E+02  0.62876114467E+02  0.00000000000E+00 0. -1.
         -3    1    1    2    0  502  0.49126956952E+02  0.39031750150E+01  0.91435746447E+02  0.10387101811E+03  0.00000000000E+00 0.  1.
<scales pt_clust_5="13000.00000" pt_clust_6="13000.00000" pt_clust_7="13000.00000" pt_clust_8="13000.00000" pt_clust_9="13000.00000"></scales>
<clustering>
<clus scale="   92.050">  5  6 -1 -1</clus>
<clus scale="   49.282">  5  9 -1 -1</clus>
<clus scale="  102.575">  7  8 -1 -1</clus>
<clus scale="  110.306">  1  7  2 -1</clus>
<clus scale="  165.022">  2  5  1 -1</clus>
</clustering>
</event>
<event>
 9    1  0.3303741E-006  0.2237849E+03  0.7546771E-02  0.1141299E+00
          1   -1    0    0  502    0 -0.00000000000E+00  0.00000000000E+00  0.95442314391E+02  0.95442314391E+02  0.00000000000E+00 0. -1.
         21   -1    0    0  501  502  0.00000000000E+00 -0.00000000000E+00 -0.53730961731E+03  0.53730961731E+03  0.00000000000E+00 0.  1.
         23    2    1    2    0    0 -0.11152066479E+03  0.97516842109E+02 -0.50307942729E+02  0.18175480431E+03  0.92506900385E+02 0.  0.
         23    2    1    2    0    0  0.53901402738E+02 -0.43111091504E+02 -0.33238820472E+03  0.35209722497E+03  0.93416324941E+02 0.  0.
        -11    1    4    4    0    0  0.54568425226E+02  0.13513398315E+02 -0.12393297169E+03  0.13608712811E+03  0.00000000000E+00 0.  1.
         11    1    4    4    0    0 -0.66702248873E+00 -0.56624489820E+02 -0.20845523303E+03  0.21601009686E+03  0.00000000000E+00 0. -1.
        -13    1    3    3    0    0 -0.88724868112E+01  0.60659289067E+02  0.79822189069E+00  0.61309930113E+02  0.00000000000E+00 0.  1.
         13    1    3    3    0    0 -0.10264817798E+03  0.36857553042E+02 -0.51106164619E+02  0.12044487420E+03  0.00000000000E+00 0. -1.
          1    1    1    2  501    0  0.57619262053E+02 -0.54405750605E+02 -0.59171155463E+02  0.98899902413E+02  0.00000000000E+00 0. -1.
<scales pt_clust_5="13000.00000" pt_clust_6="13000.00000" pt_clust_7="13000.00000" pt_clust_8="13000.00000" pt_clust_9="13000.00000"></scales>
<clustering>
<clus scale="   92.507">  7  8 -1 -1</clus>
<clus scale="   93.416">  5  6 -1 -1</clus>
<clus scale="   79.246">  5  9 -1 -1</clus>
<clus scale="  174.654">  1  7  2 -1</clus>
<clus scale="  223.785">  2  5  1 -1</clus>
</clustering>
</event>
<event>
 9    1  0.3303741E-006  0.2130795E+03  0.7546771E-02  0.1163900E+00
          3   -1    0    0  502    0 -0.00000000000E+00  0.00000000000E+00  0.80240181438E+02  0.80240181438E+02  0.00000000000E+00 0. -1.
         21   -1    0    0  501  502  0.00000000000E+00 -0.00000000000E+00 -0.75202847548E+03  0.75202847548E+03  0.00000000000E+00 0.  1.
         23    2    1    2    0    0 -0.17958428265E+02 -0.76734951533E+02  0.88586498881E+01  0.11904839667E+03  0.88787877210E+02 0.  0.
         23    2    1    2    0    0  0.71155456534E+02  0.98265190088E+02 -0.46614091245E+03  0.49117001249E+03  0.96132639257E+02 0.  0.
        -11    1    4    4    0    0  0.41276117160E+02 -0.98616730472E+01 -0.13860457718E+03  0.14495585279E+03  0.00000000000E+00 0. -1.
         11    1    4    4    0    0  0.29879339374E+02  0.10812686313E+03 -0.32753633527E+03  0.34621415969E+03  0.00000000000E+00 0.  1.
        -11    1    3    3    0    0  0.21600253551E+02 -0.24694645620E+01 -0.20546964240E+02  0.29913992514E+02  0.00000000000E+00 0.  1.
         11    1    3    3    0    0 -0.39558681816E+02 -0.74265486971E+02  0.29405614128E+02  0.89134404156E+02  0.00000000000E+00 0. -1.
          3    1    1    2  501    0 -0.53197028269E+02 -0.21530238555E+02 -0.21450603148E+03  0.22205024776E+03  0.00000000000E+00 0. -1.
<scales pt_clust_5="13000.00000" pt_clust_6="13000.00000" pt_clust_7="13000.00000" pt_clust_8="13000.00000" pt_clust_9="13000.00000"></scales>
<clustering>
<clus scale="   88.788">  7  8 -1 -1</clus>
<clus scale="   96.133">  5  6 -1 -1</clus>
<clus scale="   57.389">  5  9 -1 -1</clus>
<clus scale="  118.718">  1  7  2 -1</clus>
<clus scale="  213.080">  2  5  1 -1</clus>
</clustering>
</event>
<event>
 9    1  0.3303741E-006  0.2998110E+03  0.7546771E-02  0.1126966E+00
         -1   -1    0    0    0  501 -0.00000000000E+00  0.00000000000E+00  0.10637600556E+03  0.10637600556E+03  0.00000000000E+00 0.  1.
         21   -1    0    0  501  502  0.00000000000E+00 -0.00000000000E+00 -0.38318833724E+03  0.38318833724E+03  0.00000000000E+00 0.  1.
         23    2    1    2    0    0 -0.76989929950E+01  0.47936786982E+02 -0.56278456319E+02  0.11737912135E+03  0.90848133966E+02 0.  0.
         23    2    1    2    0    0 -0.11762445495E+02 -0.10994123218E+03 -0.15342169287E+00  0.14242264143E+03  0.89770571994E+02 0.  0.
        -11    1    3    3    0    0 -0.13112386133E+02 -0.18888725254E+02 -0.43391443233E+02  0.49107392088E+02  0.00000000000E+00 0.  1.
         11    1    3    3    0    0  0.54133931378E+01  0.66825512235E+02 -0.12887013085E+02  0.68271729266E+02  0.00000000000E+00 0. -1.
        -11    1    4    4    0    0 -0.37494530327E+02 -0.10196576408E+03  0.17742941880E+02  0.11008028359E+03  0.00000000000E+00 0.  1.
         11    1    4    4    0    0  0.25732084833E+02 -0.79754680973E+01 -0.17896363573E+02  0.32342357835E+02  0.00000000000E+00 0. -1.
         -1    1    1    2    0  502  0.19461438490E+02  0.62004445200E+02 -0.22038045368E+03  0.22976258001E+03  0.00000000000E+00 0.  1.
<scales pt_clust_5="13000.00000" pt_clust_6="13000.00000" pt_clust_7="13000.00000" pt_clust_8="13000.00000" pt_clust_9="13000.00000"></scales>
<clustering>
<clus scale="   89.771">  7  8 -1 -1</clus>
<clus scale="   64.987">  7  9 -1 -1</clus>
<clus scale="   90.848">  5  6 -1 -1</clus>
<clus scale="  103.008">  1  5  2 -1</clus>
<clus scale="  299.811">  2  5  1 -1</clus>
</clustering>
</event>
<event>
 9    1  0.3303741E-006  0.3275597E+03  0.7546771E-02  0.1081613E+00
          2   -1    0    0  502    0 -0.00000000000E+00  0.00000000000E+00  0.15055027657E+04  0.15055027657E+04  0.00000000000E+00 0. -1.
         21   -1    0    0  501  502  0.00000000000E+00 -0.00000000000E+00 -0.15629224909E+03  0.15629224909E+03  0.00000000000E+00 0. -1.
         23    2    1    2    0    0 -0.23474094900E+03 -0.34222820878E+02  0.13070952742E+04  0.13315390180E+04  0.90683989318E+02 0.  0.
         23    2    1    2    0    0  0.10971729389E+03 -0.69088196723E+02  0.50770214201E+02  0.16783989771E+03  0.93709941346E+02 0.  0.
        -11    1    4    4    0    0  0.12495896525E+03 -0.49357670039E+02  0.48358009884E+02  0.14279152533E+03  0.00000000000E+00 0. -1.
         11    1    4    4    0    0 -0.15241671355E+02 -0.19730526684E+02  0.24122043172E+01  0.25048372374E+02  0.00000000000E+00 0.  1.
        -13    1    3    3    0    0 -0.59168595377E+02 -0.50230747214E+02  0.41173924548E+03  0.41899075994E+03  0.00000000000E+00 0.  1.
         13    1    3    3    0    0 -0.17557235362E+03  0.16007926335E+02  0.89535602873E+03  0.91254825804E+03  0.00000000000E+00 0. -1.
          2    1    1    2  501    0  0.12502365511E+03  0.10331101760E+03 -0.86549718444E+01  0.16241609906E+03  0.00000000000E+00 0. -1.
<scales pt_clust_5="13000.00000" pt_clust_6="13000.00000" pt_clust_7="13000.00000" pt_clust_8="13000.00000" pt_clust_9="13000.00000"></scales>
<clustering>
<clus scale="   90.684">  7  8 -1 -1</clus>
<clus scale="   93.710">  5  6 -1 -1</clus>
<clus scale="  162.185">  5  9 -1 -1</clus>
<clus scale="  253.965">  1  7  2 -1</clus>
<clus scale="  327.560">  2  5  1 -1</clus>
</clustering>
</event>
<event>
 9    1  0.3303741E-006  0.1552805E+03  0.7546771E-02  0.1215744E+00
         21   -1    0    0  501  502  0.00000000000E+00  0.00000000000E+00  0.98408010719E+02  0.98408010719E+02  0.00000000000E+00 0.  1.
         -1   -1    0    0    0  501 -0.00000000000E+00 -0.00000000000E+00 -0.19521627912E+03  0.19521627912E+03  0.00000000000E+00 0.  1.
         23    2    1    2    0    0  0.56278660672E+01 -0.28697556838E+02 -0.98154460067E+02  0.13833792558E+03  0.92993876019E+02 0.  0.
         23    2    1    2    0    0  0.25591274552E+02 -0.20670586316E+02 -0.11146276425E+02  0.95554379044E+02  0.89018051003E+02 0.  0.
        -13    1    3    3    0    0 -0.41746154424E+02 -0.17875358097E+01 -0.31966006654E+02  0.52609526465E+02  0.00000000000E+00 0. -1.
         13    1    3    3    0    0  0.47374020491E+02 -0.26910021028E+02 -0.66188453414E+02  0.85728399113E+02  0.00000000000E+00 0.  1.
        -13    1    4    4    0    0 -0.28461457346E+02 -0.23288870562E+02 -0.18108946444E+02  0.40992194228E+02  0.00000000000E+00 0. -1.
         13    1    4    4    0    0  0.54052731898E+02  0.26182842464E+01  0.69626700190E+01  0.54562184816E+02  0.00000000000E+00 0.  1.
         -1    1    1    2    0  502 -0.31219140619E+02  0.49368143154E+02  0.12492468088E+02  0.59731985220E+02  0.00000000000E+00 0.  1.
<scales pt_clust_5="13000.00000" pt_clust_6="13000.00000" pt_clust_7="13000.00000" pt_clust_8="13000.00000" pt_clust_9="13000.00000"></scales>
<clustering>
<clus scale="   89.018">  7  8 -1 -1</clus>
<clus scale="   58.411">  7  9 -1 -1</clus>
<clus scale="   92.994">  5  6 -1 -1</clus>
<clus scale="   97.484">  2  5  1 -1</clus>
<clus scale="  155.281">  1  5  2 -1</clus>
</clustering>
</event>
<event>
 9    1  0.3303741E-006  0.2041296E+03  0.7546771E-02  0.1163649E+00
          2   -1    0    0  502    0 -0.00000000000E+00  0.00000000000E+00  0.43593560428E+03  0.43593560428E+03  0.00000000000E+00 0. -1.
         21   -1    0    0  501  502  0.00000000000E+00 -0.00000000000E+00 -0.66641852811E+02  0.66641852811E+02  0.00000000000E+00 0.  1.
         23    2    1    2    0    0  0.98512946706E+02 -0.64261306078E+01  0.16607505702E+03  0.21453798603E+03  0.93271255286E+02 0.  0.
         23    2    1    2    0    0 -0.44320768775E+02 -0.57805211322E+02  0.93723324995E+02  0.15001159936E+03  0.91725924868E+02 0.  0.
        -11    1    4    4    0    0  0.21693569404E+01  0.23391621998E+02  0.16712401464E+02  0.28830165659E+02  0.00000000000E+00 0.  1.
         11    1    4    4    0    0 -0.46490125715E+02 -0.81196833319E+02  0.77010923532E+02  0.12118143370E+03  0.00000000000E+00 0. -1.
        -11    1    3    3    0    0  0.53323665420E+02 -0.24738911982E+02  0.15322571652E+03  0.16411443344E+03  0.00000000000E+00 0. -1.
         11    1    3    3    0    0  0.45189281287E+02  0.18312781374E+02  0.12849340502E+02  0.50423552594E+02  0.00000000000E+00 0.  1.
          2    1    1    2  501    0 -0.54192177931E+02  0.64231341929E+02  0.10949536945E+03  0.13802787170E+03  0.00000000000E+00 0. -1.
<scales pt_clust_5="13000.00000" pt_clust_6="13000.00000" pt_clust_7="13000.00000" pt_clust_8="13000.00000" pt_clust_9="13000.00000"></scales>
<clustering>
<clus scale="   91.726">  5  6 -1 -1</clus>
<clus scale="   84.038">  5  9 -1 -1</clus>
<clus scale="   93.271">  7  8 -1 -1</clus>
<clus scale="  135.815">  1  7  2 -1</clus>
<clus scale="  204.130">  2  5  1 -1</clus>
</clustering>
</event>
<event>
 9    1  0.3303741E-006  0.2543839E+03  0.7546771E-02  0.1121948E+00
         21   -1    0    0  501  502  0.00000000000E+00  0.00000000000E+00  0.15964153553E+03  0.15964153553E+03  0.00000000000E+00 0.  1.
         -2   -1    0    0    0  501 -0.00000000000E+00 -0.00000000000E+00 -0.42954427109E+03  0.42954427109E+03  0.00000000000E+00 0.  1.
         23    2    1    2    0    0 -0.13401771161E+03  0.10024433973E+03 -0.27492218273E+03  0.33475235580E+03  0.92017707457E+02 0.  0.
         23    2    1    2    0    0  0.11508177603E+03 -0.99946206781E+00  0.10173737816E+02  0.15326684512E+03  0.10070951680E+03 0.  0.
        -13    1    4    4    0    0  0.12085534855E+03  0.22030582802E+02 -0.83830791310E+01  0.12313260278E+03  0.00000000000E+00 0.  1.
         13    1    4    4    0    0 -0.57735725194E+01 -0.23030044870E+02  0.18556816947E+02  0.30134242342E+02  0.00000000000E+00 0. -1.
        -13    1    3    3    0    0 -0.37333113215E+02 -0.15021114698E+02 -0.50590340191E+02  0.64643466412E+02  0.00000000000E+00 0. -1.
         13    1    3    3    0    0 -0.96684598394E+02  0.11526545442E+03 -0.22433184254E+03  0.27010888939E+03  0.00000000000E+00 0.  1.
         -2    1    1    2    0  502  0.18935935584E+02 -0.99244877658E+02 -0.51542906490E+01  0.10116660571E+03  0.00000000000E+00 0.  1.
<scales pt_clust_5="13000.00000" pt_clust_6="13000.00000" pt_clust_7="13000.00000" pt_clust_8="13000.00000" pt_clust_9="13000.00000"></scales>
<clustering>
<clus scale="   92.018">  7  8 -1 -1</clus>
<clus scale="  100.710">  5  6 -1 -1</clus>
<clus scale="  101.035">  5  9 -1 -1</clus>
<clus scale="  190.989">  2  7  1 -1</clus>
<clus scale="  254.384">  1  5  2 -1</clus>
</clustering>
</event>
<event>
 9    1  0.3303741E-006  0.2861509E+03  0.7546771E-02  0.1133372E+00
          1   -1    0    0  502    0 -0.00000000000E+00  0.00000000000E+00  0.51892420512E+03  0.51892420512E+03  0.00000000000E+00 0. -1.
         21   -1    0    0  501  502  0.00000000000E+00 -0.00000000000E+00 -0.97793899646E+02  0.97793899646E+02  0.00000000000E+00 0. -1.
         23    2    1    2    0    0 -0.38987114344E+02  0.16267238872E+02  0.27983710506E+03  0.29758476621E+03  0.91996030158E+02 0.  0.
         23    2    1    2    0    0 -0.48367580364E+02  0.50800296443E+02  0.15581824639E+03  0.20804835334E+03  0.11867897230E+03 0.  0.
        -11    1    3    3    0    0 -0.61609791077E+02  0.35081617819E+02  0.17856574262E+03  0.19212550768E+03  0.00000000000E+00 0.  1.
         11    1    3    3    0    0  0.22622676733E+02 -0.18814378948E+02  0.10127136244E+03  0.10545925853E+03  0.00000000000E+00 0. -1.
        -13    1    4    4    0    0  0.24365533489E+02  0.53203195813E+02  0.10179215185E+03  0.11741337847E+03  0.00000000000E+00 0. -1.
         13    1    4    4    0    0 -0.72733113853E+02 -0.24028993707E+01  0.54026094548E+02  0.90634974862E+02  0.00000000000E+00 0.  1.
          1    1    1    2  501    0  0.87354694707E+02 -0.67067535314E+02 -0.14525045983E+02  0.11108498522E+03  0.00000000000E+00 0. -1.
<scales pt_clust_5="13000.00000" pt_clust_6="13000.00000" pt_clust_7="13000.00000" pt_clust_8="13000.00000" pt_clust_9="13000.00000"></scales>
<clustering>
<clus scale="   91.996">  5  6 -1 -1</clus>
<clus scale="  101.232">  1  5  2 -1</clus>
<clus scale="  118.679">  7  8 -1 -1</clus>
<clus scale="  101.594">  7  9 -1 -1</clus>
<clus scale="  286.151">  2  5  1 -1</clus>
</clustering>
</event>
<event>
 9    1  0.3303741E-006  0.2282791E+03  0.7546771E-02  0.1148654E+00
         21   -1    0    0  501  502  0.00000000000E+00  0.00000000000E+00  0.85625228721E+02  0.85625228721E+02  0.00000000000E+00 0. -1.
          3   -1    0    0  502    0 -0.00000000000E+00 -0.00000000000E+00 -0.39825660233E+03  0.39825660233E+03  0.00000000000E+00 0. -1.
         23    2    1    2    0    0  0.75717962043E+02  0.71338548773E+02 -0.88383502245E+02  0.16388425638E+03  0.90686314870E+02 0.  0.
         23    2    1    2    0    0 -0.44469702260E+02  0.37456901686E+02 -0.71937154872E+02  0.13023072261E+03  0.91676130799E+02 0.  0.
        -11    1    3    3    0    0  0.58613059864E+02  0.93104514048E+02 -0.66106016269E+02  0.12835087343E+03  0.00000000000E+00 0. -1.
         11    1    3    3    0    0  0.17104902180E+02 -0.21765965275E+02 -0.22277485976E+02  0.35533382957E+02  0.00000000000E+00 0.  1.
        -13    1    4    4    0    0 -0.46455861906E+02 -0.15265648293E+02 -0.11941998343E+02  0.50336849799E+02  0.00000000000E+00 0.  1.
         13    1    4    4    0    0  0.19861596464E+01  0.52722549978E+02 -0.59995156529E+02  0.79893872814E+02  0.00000000000E+00 0. -1.
          3    1    1    2  501    0 -0.31248259784E+02 -0.10879545046E+03 -0.15231071650E+03  0.18976685206E+03  0.00000000000E+00 0. -1.
<scales pt_clust_5="13000.00000" pt_clust_6="13000.00000" pt_clust_7="13000.00000" pt_clust_8="13000.00000" pt_clust_9="13000.00000"></scales>
<clustering>
<clus scale="   90.686">  5  6 -1 -1</clus>
<clus scale="   91.676">  7  8 -1 -1</clus>
<clus scale="  113.194">  7  9 -1 -1</clus>
<clus scale="  138.009">  2  5  1 -1</clus>
<clus scale="  228.279">  1  5  2 -1</clus>
</clustering>
</event>
<event>
 9    1  0.3303741E-006  0.1461889E+03  0.7546771E-02  0.1224006E+00
         21   -1    0    0  501  502  0.00000000000E+00  0.00000000000E+00  0.22095601496E+02  0.22095601496E+02  0.00000000000E+00 0.  1.
          3   -1    0    0  502    0 -0.00000000000E+00 -0.00000000000E+00 -0.68707463914E+03  0.68707463914E+03  0.00000000000E+00 0. -1.
         23    2    1    2    0    0 -0.28180191869E+02  0.95808995518E+01 -0.22386663859E+03  0.24446458759E+03  0.93598856101E+02 0.  0.
         23    2    1    2    0    0  0.62684914979E+02 -0.10830191705E+02 -0.30572248476E+03  0.32498247837E+03  0.90003788488E+02 0.  0.
        -11    1    4    4    0    0  0.84778515810E+02 -0.16849465557E+02 -0.22354046383E+03  0.23966985668E+03  0.00000000000E+00 0.  1.
         11    1    4    4    0    0 -0.22093600831E+02  0.60192738525E+01 -0.82182020933E+02  0.85312621692E+02  0.00000000000E+00 0. -1.
        -13    1    3    3    0    0 -0.44838765981E+02 -0.24750934697E+02 -0.75241037562E+02  0.91018335715E+02  0.00000000000E+00 0.  1.
         13    1    3    3    0    0  0.16658574112E+02  0.34331834248E+02 -0.14862560102E+03  0.15344625187E+03  0.00000000000E+00 0. -1.
          3    1    1    2  501    0 -0.34504723111E+02  0.12492921530E+01 -0.13538991429E+03  0.13972317467E+03  0.00000000000E+00 0. -1.
<scales pt_clust_5="13000.00000" pt_clust_6="13000.00000" pt_clust_7="13000.00000" pt_clust_8="13000.00000" pt_clust_9="13000.00000"></scales>
<clustering>
<clus scale="   90.004">  5  6 -1 -1</clus>
<clus scale="   34.527">  5  9 -1 -1</clus>
<clus scale="   93.599">  7  8 -1 -1</clus>
<clus scale="   98.217">  2  7  1 -1</clus>
<clus scale="  146.189">  1  5  2 -1</clus>
</clustering>
</event>
<event>
 9    1  0.3303741E-006  0.1742865E+03  0.7546771E-02  0.1199622E+00
         -3   -1    0    0    0  501 -0.00000000000E+00  0.00000000000E+00  0.52282673279E+02  0.52282673279E+02  0.00000000000E+00 0.  1.
         21   -1    0    0  501  502  0.00000000000E+00 -0.00000000000E+00 -0.77526994965E+03  0.77526994965E+03  0.00000000000E+00 0.  1.
         23    2    1    2    0    0 -0.20417074427E+02 -0.20926493557E+02 -0.15156233814E+02  0.98580364041E+02  0.92917176508E+02 0.  0.
         23    2    1    2    0    0 -0.14183937725E+02 -0.39443814831E+02 -0.33754106114E+03  0.35220114201E+03  0.91403926932E+02 0.  0.
        -11    1    3    3    0    0 -0.36142344230E+02  0.19419761992E+02  0.17236468704E+02  0.44502719643E+02  0.00000000000E+00 0. -1.
         11    1    3    3    0    0  0.15725269803E+02 -0.40346255549E+02 -0.32392702517E+02  0.54077644398E+02  0.00000000000E+00 0.  1.
        -11    1    4    4    0    0  0.37835950915E+02 -0.24502983799E+02 -0.18250554922E+03  0.18798997551E+03  0.00000000000E+00 0. -1.
         11    1    4    4    0    0 -0.52019888639E+02 -0.14940831033E+02 -0.15503551193E+03  0.16421116650E+03  0.00000000000E+00 0.  1.
         -3    1    1    2    0  502  0.34601012152E+02  0.60370308388E+02 -0.37028998142E+03  0.37677111688E+03  0.00000000000E+00 0.  1.
<scales pt_clust_5="13000.00000" pt_clust_6="13000.00000" pt_clust_7="13000.00000" pt_clust_8="13000.00000" pt_clust_9="13000.00000"></scales>
<clustering>
<clus scale="   91.404">  7  8 -1 -1</clus>
<clus scale="   69.583">  7  9 -1 -1</clus>
<clus scale="   92.917">  5  6 -1 -1</clus>
<clus scale="   97.408">  1  5  2 -1</clus>
<clus scale="  174.286">  2  5  1 -1</clus>
</clustering>
</event>
<event>
 9    1  0.3303741E-006  0.5747863E+03  0.7546771E-02  0.1003965E+00
          2   -1    0    0  502    0 -0.00000000000E+00  0.00000000000E+00  0.15189691281E+04  0.15189691281E+04  0.00000000000E+00 0.  1.
         21   -1    0    0  501  502  0.00000000000E+00 -0.00000000000E+00 -0.19777634236E+03  0.19777634236E+03  0.00000000000E+00 0.  1.
         23    2    1    2    0    0 -0.43977975357E+01  0.43393506318E+03  0.89910511276E+03  0.10036274842E+04  0.10275769328E+03 0.  0.
         23    2    1    2    0    0  0.25658669290E+02 -0.48441225652E+02  0.28345861368E+03  0.30290396956E+03  0.91635743320E+02 0.  0.
        -11    1    3    3    0    0 -0.18707828813E+02  0.21580877730E+02  0.10388072857E+03  0.10773543015E+03  0.00000000000E+00 0. -1.
         11    1    3    3    0    0  0.14310031277E+02  0.41235418545E+03  0.79522438419E+03  0.89589205402E+03  0.00000000000E+00 0.  1.
        -11    1    4    4    0    0  0.54666320313E+02 -0.21986158498E+02  0.22425136616E+03  0.23186304787E+03  0.00000000000E+00 0. -1.
         11    1    4    4    0    0 -0.29007651023E+02 -0.26455067154E+02  0.59207247520E+02  0.71040921692E+02  0.00000000000E+00 0.  1.
          2    1    1    2  501    0 -0.21260871754E+02 -0.38549383753E+03  0.13862905933E+03  0.41021401674E+03  0.00000000000E+00 0.  1.
<scales pt_clust_5="13000.00000" pt_clust_6="13000.00000" pt_clust_7="13000.00000" pt_clust_8="13000.00000" pt_clust_9="13000.00000"></scales>
<clustering>
<clus scale="   91.636">  7  8 -1 -1</clus>
<clus scale="  102.758">  5  6 -1 -1</clus>
<clus scale="  386.080">  7  9 -1 -1</clus>
<clus scale="  445.958">  1  5  2 -1</clus>
<clus scale="  574.786">  2  5  1 -1</clus>
</clustering>
</event>
<event>
 9    1  0.3303741E-006  0.1616846E+03  0.7546771E-02  0.1199580E+00
         21   -1    0    0  501  502  0.00000000000E+00  0.00000000000E+00  0.12233468620E+03  0.12233468620E+03  0.00000000000E+00 0.  1.
         -3   -1    0    0    0  501 -0.00000000000E+00 -0.00000000000E+00 -0.19944273660E+03  0.19944273660E+03  0.00000000000E+00 0.  1.
         23    2    1    2    0    0  0.58368930373E+02  0.55747871188E+02 -0.10082541408E+03  0.15836256126E+03  0.91641581779E+02 0.  0.
         23    2    1    2    0    0  0.56745132975E+00 -0.24822326886E+02  0.85248628924E+01  0.95145553218E+02  0.91452354244E+02 0.  0.
        -13    1    3    3    0    0 -0.78602777006E+00  0.45837037209E+02 -0.61045346282E+01  0.46248428760E+02  0.00000000000E+00 0. -1.
         13    1    3    3    0    0  0.59154958143E+02  0.99108339791E+01 -0.94720879452E+02  0.11211413250E+03  0.00000000000E+00 0.  1.
        -13    1    4    4    0    0 -0.20161836852E+02  0.14572058209E+02  0.35309976604E+02  0.43193043346E+02  0.00000000000E+00 0. -1.
         13    1    4    4    0    0  0.20729288182E+02 -0.39394385095E+02 -0.26785113712E+02  0.51952509872E+02  0.00000000000E+00 0.  1.
         -3    1    1    2    0  502 -0.58936381703E+02 -0.30925544302E+02  0.15192500784E+02  0.68269308321E+02  0.00000000000E+00 0.  1.
<scales pt_clust_5="13000.00000" pt_clust_6="13000.00000" pt_clust_7="13000.00000" pt_clust_8="13000.00000" pt_clust_9="13000.00000"></scales>
<clustering>
<clus scale="   91.452">  7  8 -1 -1</clus>
<clus scale="   66.557">  7  9 -1 -1</clus>
<clus scale="   91.642">  5  6 -1 -1</clus>
<clus scale="  122.119">  2  5  1 -1</clus>
<clus scale="  161.685">  1  5  2 -1</clus>
</clustering>
</event>
<event>
 9    1  0.3303741E-006  0.2346288E+03  0.7546771E-02  0.1164522E+00
         -3   -1    0    0    0  501 -0.00000000000E+00  0.00000000000E+00  0.35674475473E+03  0.35674475473E+03  0.00000000000E+00 0.  1.
         21   -1    0    0  501  502  0.00000000000E+00 -0.00000000000E+00 -0.12540153230E+03  0.12540153230E+03  0.00000000000E+00 0.  1.
         23    2    1    2    0    0 -0.12791229723E+02 -0.28267690318E+02  0.23147797546E+03  0.24751740885E+03  0.81976439844E+02 0.  0.
         23    2    1    2    0    0  0.48596779756E+02 -0.69262335983E+02  0.27528925838E+02  0.12711412305E+03  0.90781277429E+02 0.  0.
        -11    1    4    4    0    0  0.61669966765E+02 -0.92976756320E+01  0.18693514725E+02  0.65108210432E+02  0.00000000000E+00 0. -1.
         11    1    4    4    0    0 -0.13073187008E+02 -0.59964660351E+02  0.88354111130E+01  0.62005912615E+02  0.00000000000E+00 0.  1.
        -11    1    3    3    0    0  0.18851898545E+01 -0.46485588515E+02  0.21209217056E+03  0.21713487213E+03  0.00000000000E+00 0.  1.
         11    1    3    3    0    0 -0.14676419578E+02  0.18217898197E+02  0.19385804893E+02  0.30382536722E+02  0.00000000000E+00 0. -1.
         -3    1    1    2    0  502 -0.35805550033E+02  0.97530026301E+02 -0.27663678859E+02  0.10751475513E+03  0.00000000000E+00 0.  1.
<scales pt_clust_5="13000.00000" pt_clust_6="13000.00000" pt_clust_7="13000.00000" pt_clust_8="13000.00000" pt_clust_9="13000.00000"></scales>
<clustering>
<clus scale="   81.976">  7  8 -1 -1</clus>
<clus scale="   87.652">  1  7  2 -1</clus>
<clus scale="   90.781">  5  6 -1 -1</clus>
<clus scale="   96.644">  5  9 -1 -1</clus>
<clus scale="  234.629">  2  5  1 -1</clus>
</clustering>
</event>
<event>
 9    1  0.3303741E-006  0.9104086E+03  0.7546771E-02  0.9758915E-01
         21   -1    0    0  501  502  0.00000000000E+00  0.00000000000E+00  0.35620742409E+03  0.35620742409E+03  0.00000000000E+00 0. -1.
          3   -1    0    0  502    0 -0.00000000000E+00 -0.00000000000E+00 -0.16475967026E+04  0.16475967026E+04  0.00000000000E+00 0. -1.
         23    2    1    2    0    0 -0.11464537734E+03  0.23628401669E+03 -0.10153716815E+04  0.10524736846E+04  0.88019918036E+02 0.  0.
         23    2    1    2    0    0  0.10555475215E+03 -0.33224842928E+03 -0.55207406470E+03  0.65892835362E+03  0.88712895464E+02 0.  0.
        -11    1    4    4    0    0  0.59405189244E+02 -0.10637675081E+03 -0.13118753726E+03  0.17903954746E+03  0.00000000000E+00 0.  1.
         11    1    4    4    0    0  0.46149562901E+02 -0.22587167847E+03 -0.42088652744E+03  0.47988880615E+03  0.00000000000E+00 0. -1.
        -11    1    3    3    0    0 -0.12152999741E+03  0.21558701821E+03 -0.98123754740E+03  0.10119656255E+04  0.00000000000E+00 0.  1.
         11    1    3    3    0    0  0.68846200677E+01  0.20696998488E+02 -0.34134134119E+02  0.40508059099E+02  0.00000000000E+00 0. -1.
          3    1    1    2  501    0  0.90906251945E+01  0.95964412589E+02  0.27605646776E+03  0.29240208847E+03  0.00000000000E+00 0. -1.
<scales pt_clust_5="13000.00000" pt_clust_6="13000.00000" pt_clust_7="13000.00000" pt_clust_8="13000.00000" pt_clust_9="13000.00000"></scales>
<clustering>
<clus scale="   88.020">  7  8 -1 -1</clus>
<clus scale="   88.713">  5  6 -1 -1</clus>
<clus scale="   96.394">  5  9 -1 -1</clus>
<clus scale="  276.986">  2  7  1 -1</clus>
<clus scale="  910.409">  1  5  2 -1</clus>
</clustering>
</event>
<event>
 9    1  0.3303741E-006  0.1365066E+03  0.7546771E-02  0.1232688E+00
         21   -1    0    0  501  502  0.00000000000E+00  0.00000000000E+00  0.39673886323E+02  0.39673886323E+02  0.00000000000E+00 0. -1.
          1   -1    0    0  502    0 -0.00000000000E+00 -0.00000000000E+00 -0.40900243559E+03  0.40900243559E+03  0.00000000000E+00 0. -1.
         23    2    1    2    0    0  0.39514399678E+02  0.20032925881E+02 -0.24139987452E+03  0.26159399379E+03  0.90525202397E+02 0.  0.
         23    2    1    2    0    0 -0.39511025327E+02  0.12375928560E+02 -0.11427763236E+03  0.15191579835E+03  0.91130389009E+02 0.  0.
        -11    1    4    4    0    0  0.38672370099E+01 -0.34082950363E+02 -0.56061592994E+02  0.65722943000E+02  0.00000000000E+00 0.  1.
         11    1    4    4    0    0 -0.43378262337E+02  0.46458878924E+02 -0.58216039370E+02  0.86192855354E+02  0.00000000000E+00 0. -1.
        -11    1    3    3    0    0  0.44408633335E+02 -0.21561668808E+02 -0.73431004089E+02  0.88482453843E+02  0.00000000000E+00 0.  1.
         11    1    3    3    0    0 -0.48942336563E+01  0.41594594688E+02 -0.16796887043E+03  0.17311153995E+03  0.00000000000E+00 0. -1.
          1    1    1    2  501    0 -0.33743509848E-02 -0.32408854441E+02 -0.13651042384E+02  0.35166529765E+02  0.00000000000E+00 0. -1.
<scales pt_clust_5="13000.00000" pt_clust_6="13000.00000" pt_clust_7="13000.00000" pt_clust_8="13000.00000" pt_clust_9="13000.00000"></scales>
<clustering>
<clus scale="   90.525">  7  8 -1 -1</clus>
<clus scale="   91.130">  5  6 -1 -1</clus>
<clus scale="   32.409">  5  9 -1 -1</clus>
<clus scale="  100.785">  2  7  1 -1</clus>
<clus scale="  136.507">  1  5  2 -1</clus>
</clustering>
</event>
<event>
 9    1  0.3303741E-006  0.1711233E+03  0.7546771E-02  0.1181846E+00
         21   -1    0    0  501  502  0.00000000000E+00  0.00000000000E+00  0.40983921670E+03  0.40983921670E+03  0.00000000000E+00 0.  1.
          2   -1    0    0  502    0 -0.00000000000E+00 -0.00000000000E+00 -0.70220134689E+02  0.70220134689E+02  0.00000000000E+00 0. -1.
         23    2    1    2    0    0  0.78049428940E+02 -0.93567061334E+02  0.23317431970E+03  0.27853102392E+03  0.91448125159E+02 0.  0.
         23    2    1    2    0    0 -0.57774288917E+02  0.33657777056E+02  0.63948382543E+02  0.12533025702E+03  0.84543262769E+02 0.  0.
        -11    1    3    3    0    0  0.58175748412E+02 -0.46745682360E+02  0.53577087592E+02  0.91869912580E+02  0.00000000000E+00 0.  1.
         11    1    3    3    0    0  0.19873680527E+02 -0.46821378974E+02  0.17959723211E+03  0.18666111134E+03  0.00000000000E+00 0. -1.
        -13    1    4    4    0    0 -0.46132340361E+02  0.58497970654E+02  0.26849503283E+02  0.79190284911E+02  0.00000000000E+00 0. -1.
         13    1    4    4    0    0 -0.11641948556E+02 -0.24840193598E+02  0.37098879260E+02  0.46139972112E+02  0.00000000000E+00 0.  1.
          2    1    1    2  501    0 -0.20275140023E+02  0.59909284278E+02  0.42496379767E+02  0.76198070441E+02  0.00000000000E+00 0. -1.
<scales pt_clust_5="13000.00000" pt_clust_6="13000.00000" pt_clust_7="13000.00000" pt_clust_8="13000.00000" pt_clust_9="13000.00000"></scales>
<clustering>
<clus scale="   84.543">  7  8 -1 -1</clus>
<clus scale="   63.247">  7  9 -1 -1</clus>
<clus scale="   91.448">  5  6 -1 -1</clus>
<clus scale="  152.346">  2  5  1 -1</clus>
<clus scale="  171.123">  1  5  2 -1</clus>
</clustering>
</event>
<event>
 9    1  0.3303741E-006  0.3487548E+03  0.7546771E-02  0.1089621E+00
          1   -1    0    0  502    0 -0.00000000000E+00  0.00000000000E+00  0.33081259160E+03  0.33081259160E+03  0.00000000000E+00 0. -1.
         21   -1    0    0  501  502  0.00000000000E+00 -0.00000000000E+00 -0.20419597611E+03  0.20419597611E+03  0.00000000000E+00 0. -1.
         23    2    1    2    0    0  0.49573403674E+02  0.13552984116E+03  0.25418408209E+02  0.17186813729E+03  0.89814814729E+02 0.  0.
         23    2    1    2    0    0 -0.35247607339E+01 -0.18811889595E+01  0.18001825507E+03  0.20129161305E+03  0.89976544247E+02 0.  0.
        -13    1    3    3    0    0  0.44893541155E+02  0.14012185827E+02  0.16857455385E+02  0.49959435457E+02  0.00000000000E+00 0.  1.
         13    1    3    3    0    0  0.46798625189E+01  0.12151765533E+03  0.85609528234E+01  0.12190870184E+03  0.00000000000E+00 0. -1.
        -13    1    4    4    0    0  0.32745651930E+02 -0.19036469684E+02  0.13837039906E+03  0.14346090839E+03  0.00000000000E+00 0.  1.
         13    1    4    4    0    0 -0.36270412664E+02  0.17155280725E+02  0.41647856009E+02  0.57830704662E+02  0.00000000000E+00 0. -1.
          1    1    1    2  501    0 -0.46048642940E+02 -0.13364865220E+03 -0.78820047790E+02  0.16184881737E+03  0.00000000000E+00 0. -1.
<scales pt_clust_5="13000.00000" pt_clust_6="13000.00000" pt_clust_7="13000.00000" pt_clust_8="13000.00000" pt_clust_9="13000.00000"></scales>
<clustering>
<clus scale="   89.815">  5  6 -1 -1</clus>
<clus scale="   89.977">  7  8 -1 -1</clus>
<clus scale="  141.359">  7  9 -1 -1</clus>
<clus scale="  169.978">  1  5  2 -1</clus>
<clus scale="  348.755">  2  5  1 -1</clus>
</clustering>
</event>
<event>
 9    1  0.3303741E-006  0.1719918E+03  0.7546771E-02  0.1197750E+00
          2   -1    0    0  502    0 -0.00000000000E+00  0.00000000000E+00  0.11275692446E+03  0.11275692446E+03  0.00000000000E+00 0. -1.
         21   -1    0    0  501  502  0.00000000000E+00 -0.00000000000E+00 -0.27796753458E+03  0.27796753458E+03  0.00000000000E+00 0.  1.
         23    2    1    2    0    0  0.31308822160E+02  0.35899061536E+02  0.48682200826E+02  0.11625894509E+03  0.94218897632E+02 0.  0.
         23    2    1    2    0    0 -0.71314922440E+02 -0.32030645023E+02 -0.19603130011E+03  0.23048271874E+03  0.92640340192E+02 0.  0.
        -11    1    3    3    0    0  0.58876407738E+02  0.12325324682E+02  0.63115119354E+01  0.60482891793E+02  0.00000000000E+00 0.  1.
         11    1    3    3    0    0 -0.27567585578E+02  0.23573736854E+02  0.42370688891E+02  0.55776053293E+02  0.00000000000E+00 0. -1.
        -13    1    4    4    0    0 -0.16621871628E+02  0.29289201413E+02 -0.29444439283E+02  0.44733867936E+02  0.00000000000E+00 0. -1.
         13    1    4    4    0    0 -0.54693050813E+02 -0.61319846436E+02 -0.16658686083E+03  0.18574885080E+03  0.00000000000E+00 0.  1.
          2    1    1    2  501    0  0.40006100280E+02 -0.38684165128E+01 -0.17861510836E+02  0.43982795219E+02  0.00000000000E+00 0. -1.
<scales pt_clust_5="13000.00000" pt_clust_6="13000.00000" pt_clust_7="13000.00000" pt_clust_8="13000.00000" pt_clust_9="13000.00000"></scales>
<clustering>
<clus scale="   92.640">  7  8 -1 -1</clus>
<clus scale="   40.193">  7  9 -1 -1</clus>
<clus scale="   94.219">  5  6 -1 -1</clus>
<clus scale="  105.575">  1  5  2 -1</clus>
<clus scale="  171.992">  2  5  1 -1</clus>
</clustering>
</event>
<event>
 9    1  0.3303741E-006  0.1494249E+03  0.7546771E-02  0.1217909E+00
          1   -1    0    0  502    0 -0.00000000000E+00  0.00000000000E+00  0.28294434299E+03  0.28294434299E+03  0.00000000000E+00 0. -1.
         21   -1    0    0  501  502  0.00000000000E+00 -0.00000000000E+00 -0.79455176084E+02  0.79455176084E+02  0.00000000000E+00 0. -1.
         23    2    1    2    0    0 -0.55732399626E+02 -0.91181404822E+01  0.18413268940E+03  0.21172616253E+03  0.87942479713E+02 0.  0.
         23    2    1    2    0    0  0.63821021901E+02  0.38773505401E+02  0.11322420141E+02  0.11890210293E+03  0.91831396189E+02 0.  0.
        -11    1    3    3    0    0  0.21690880246E+02 -0.15086120856E+02  0.38673102659E+02  0.46836889282E+02  0.00000000000E+00 0.  1.
         11    1    3    3    0    0 -0.77423279872E+02  0.59679803742E+01  0.14545958674E+03  0.16488927325E+03  0.00000000000E+00 0. -1.
        -11    1    4    4    0    0  0.23419737942E+02 -0.30228704620E+02  0.75413421902E+00  0.38246927023E+02  0.00000000000E+00 0.  1.
         11    1    4    4    0    0  0.40401283959E+02  0.69002210022E+02  0.10568285922E+02  0.80655175908E+02  0.00000000000E+00 0. -1.
          1    1    1    2  501    0 -0.80886222750E+01 -0.29655364919E+02  0.80340573657E+01  0.31771253619E+02  0.00000000000E+00 0. -1.
<scales pt_clust_5="13000.00000" pt_clust_6="13000.00000" pt_clust_7="13000.00000" pt_clust_8="13000.00000" pt_clust_9="13000.00000"></scales>
<clustering>
<clus scale="   87.942">  5  6 -1 -1</clus>
<clus scale="   91.831">  7  8 -1 -1</clus>
<clus scale="   30.739">  7  9 -1 -1</clus>
<clus scale="  104.514">  1  5  2 -1</clus>
<clus scale="  149.425">  2  5  1 -1</clus>
</clustering>
</event>
<event>
 9    1  0.3303741E-006  0.4162917E+03  0.7546771E-02  0.1092761E+00
          1   -1    0    0  502    0 -0.00000000000E+00  0.00000000000E+00  0.26445533857E+03  0.26445533857E+03  0.00000000000E+00 0. -1.
         21   -1    0    0  501  502  0.00000000000E+00 -0.00000000000E+00 -0.41668083443E+03  0.41668083443E+03  0.00000000000E+00 0. -1.
         23    2    1    2    0    0  0.15300850158E+02  0.15890061944E+02  0.14352667422E+03  0.17048159583E+03  0.89316617826E+02 0.  0.
         23    2    1    2    0    0  0.83232945005E+02 -0.70356237314E+02  0.46649919694E+02  0.15021780861E+03  0.92257529519E+02 0.  0.
        -13    1    4    4    0    0  0.29261070602E+02 -0.12754220887E+02 -0.27338485329E+02  0.42027052994E+02  0.00000000000E+00 0.  1.
         13    1    4    4    0    0  0.53971874403E+02 -0.57602016427E+02  0.73988405023E+02  0.10819075562E+03  0.00000000000E+00 0. -1.
        -13    1    3    3    0    0  0.26826661932E+02  0.41834684377E+02  0.12971755748E+03  0.13891168174E+03  0.00000000000E+00 0. -1.
         13    1    3    3    0    0 -0.11525811774E+02 -0.25944622432E+02  0.13809116745E+02  0.31569914087E+02  0.00000000000E+00 0.  1.
          1    1    1    2  501    0 -0.98533795162E+02  0.54466175369E+02 -0.34240208977E+03  0.36043676856E+03  0.00000000000E+00 0. -1.
<scales pt_clust_5="13000.00000" pt_clust_6="13000.00000" pt_clust_7="13000.00000" pt_clust_8="13000.00000" pt_clust_9="13000.00000"></scales>
<clustering>
<clus scale="   89.317">  7  8 -1 -1</clus>
<clus scale="   92.000">  1  7  2 -1</clus>
<clus scale="   92.258">  5  6 -1 -1</clus>
<clus scale="  112.121">  5  9 -1 -1</clus>
<clus scale="  416.292">  2  5  1 -1</clus>
</clustering>
</event>
<event>
 9    1  0.3303741E-006  0.1882187E+03  0.7546771E-02  0.1183014E+00
         21   -1    0    0  501  502  0.00000000000E+00  0.00000000000E+00  0.94694843447E+02  0.94694843447E+02  0.00000000000E+00 0.  1.
         -3   -1    0    0    0  501 -0.00000000000E+00 -0.00000000000E+00 -0.42109880214E+03  0.42109880214E+03  0.00000000000E+00 0.  1.
         23    2    1    2    0    0 -0.36153160942E+02  0.55101690037E+02  0.27567621576E+02  0.11489195665E+03  0.89983002018E+02 0.  0.
         23    2    1    2    0    0  0.54613723868E+02 -0.23401906550E+01 -0.31530014213E+03  0.33293075156E+03  0.91872576861E+02 0.  0.
        -13    1    4    4    0    0  0.22885231963E+02 -0.45335757034E+02 -0.19090508940E+03  0.19754447060E+03  0.00000000000E+00 0. -1.
         13    1    4    4    0    0  0.31728491905E+02  0.42995566379E+02 -0.12439505274E+03  0.13538628096E+03  0.00000000000E+00 0.  1.
        -13    1    3    3    0    0 -0.10589275861E+02 -0.24968587718E+02  0.10748788540E+02  0.29173611209E+02  0.00000000000E+00 0. -1.
         13    1    3    3    0    0 -0.25563885081E+02  0.80070277756E+02  0.16818833035E+02  0.85718345440E+02  0.00000000000E+00 0.  1.
         -3    1    1    2    0  502 -0.18460562926E+02 -0.52761499382E+02 -0.38671438140E+02  0.67970937381E+02  0.00000000000E+00 0.  1.
<scales pt_clust_5="13000.00000" pt_clust_6="13000.00000" pt_clust_7="13000.00000" pt_clust_8="13000.00000" pt_clust_9="13000.00000"></scales>
<clustering>
<clus scale="   89.983">  7  8 -1 -1</clus>
<clus scale="   91.873">  5  6 -1 -1</clus>
<clus scale="   55.898">  5  9 -1 -1</clus>
<clus scale="  111.536">  2  7  1 -1</clus>
<clus scale="  188.219">  1  5  2 -1</clus>
</clustering>
</event>
<event>
 9    1  0.3303741E-006  0.3939314E+03  0.7546771E-02  0.1092246E+00
         -1   -1    0    0    0  501 -0.00000000000E+00  0.00000000000E+00  0.62299452838E+03  0.62299452838E+03  0.00000000000E+00 0.  1.
         21   -1    0    0  501  502  0.00000000000E+00 -0.00000000000E+00 -0.11246386504E+03  0.11246386504E+03  0.00000000000E+00 0.  1.
         23    2    1    2    0    0 -0.33366513974E+02  0.53102754155E+02  0.21995743908E+03  0.24595380218E+03  0.90436558134E+02 0.  0.
         23    2    1    2    0    0 -0.13353589053E+03  0.17588792210E+02  0.29344714490E+02  0.17155169902E+03  0.10211598060E+03 0.  0.
        -11    1    4    4    0    0 -0.50433145033E+02 -0.29603855867E+02 -0.22700417555E+02  0.62731167351E+02  0.00000000000E+00 0. -1.
         11    1    4    4    0    0 -0.83102745502E+02  0.47192648077E+02  0.52045132045E+02  0.10882053167E+03  0.00000000000E+00 0.  1.
        -11    1    3    3    0    0 -0.28710975371E+02  0.77501461067E+02  0.18887059542E+03  0.20616231079E+03  0.00000000000E+00 0.  1.
         11    1    3    3    0    0 -0.46555386030E+01 -0.24398706912E+02  0.31086843652E+02  0.39791491388E+02  0.00000000000E+00 0. -1.
         -1    1    1    2    0  502  0.16690240451E+03 -0.70691546365E+02  0.26122850978E+03  0.31795289223E+03  0.00000000000E+00 0.  1.
<scales pt_clust_5="13000.00000" pt_clust_6="13000.00000" pt_clust_7="13000.00000" pt_clust_8="13000.00000" pt_clust_9="13000.00000"></scales>
<clustering>
<clus scale="   90.437">  7  8 -1 -1</clus>
<clus scale="  102.116">  5  6 -1 -1</clus>
<clus scale="  110.055">  1  7  2 -1</clus>
<clus scale="  145.527">  5  9 -1 -1</clus>
<clus scale="  393.931">  2  5  1 -1</clus>
</clustering>
</event>
<event>
 9    1  0.3303741E-006  0.2170255E+03  0.7546771E-02  0.1178972E+00
         21   -1    0    0  501  502  0.00000000000E+00  0.00000000000E+00  0.17765921575E+03  0.17765921575E+03  0.00000000000E+00 0. -1.
          1   -1    0    0  502    0 -0.00000000000E+00 -0.00000000000E+00 -0.17222901513E+03  0.17222901513E+03  0.00000000000E+00 0. -1.
         23    2    1    2    0    0  0.75577755825E+01 -0.63471507212E+01 -0.83448898192E+02  0.11536834755E+03  0.79048913417E+02 0.  0.
         23    2    1    2    0    0 -0.69693386307E+01  0.62125280024E+02 -0.19946867411E+02  0.11223073054E+03  0.91047994263E+02 0.  0.
        -11    1    3    3    0    0  0.19966715039E+02  0.18783999782E+02 -0.82921650020E+02  0.87335607854E+02  0.00000000000E+00 0. -1.
         11    1    3    3    0    0 -0.12408939457E+02 -0.25131150504E+02 -0.52724817177E+00  0.28032739693E+02  0.00000000000E+00 0.  1.
        -13    1    4    4    0    0  0.21563334591E+02  0.74713328676E+02 -0.57790771557E+01  0.77977282675E+02  0.00000000000E+00 0. -1.
         13    1    4    4    0    0 -0.28532673222E+02 -0.12588048652E+02 -0.14167790255E+02  0.34253447867E+02  0.00000000000E+00 0.  1.
          1    1    1    2  501    0 -0.58843695179E+00 -0.55778129303E+02  0.10882596623E+03  0.12228915280E+03  0.00000000000E+00 0. -1.
<scales pt_clust_5="13000.00000" pt_clust_6="13000.00000" pt_clust_7="13000.00000" pt_clust_8="13000.00000" pt_clust_9="13000.00000"></scales>
<clustering>
<clus scale="   79.049">  5  6 -1 -1</clus>
<clus scale="   79.663">  2  5  1 -1</clus>
<clus scale="   91.048">  7  8 -1 -1</clus>
<clus scale="   56.365">  7  9 -1 -1</clus>
<clus scale="  217.026">  1  5  2 -1</clus>
</clustering>
</event>
<event>
 9    1  0.3303741E-006  0.4297495E+03  0.7546771E-02  0.1074187E+00
          2   -1    0    0  502    0 -0.00000000000E+00  0.00000000000E+00  0.71279661703E+03  0.71279661703E+03  0.00000000000E+00 0. -1.
         21   -1    0    0  501  502  0.00000000000E+00 -0.00000000000E+00 -0.28956697925E+03  0.28956697925E+03  0.00000000000E+00 0. -1.
         23    2    1    2    0    0  0.10281035621E+03 -0.11666533385E+02  0.53984348529E+03  0.55707331149E+03  0.90518552899E+02 0.  0.
         23    2    1    2    0    0 -0.69444014315E+02 -0.17382051413E+03 -0.14657054988E+03  0.25446009435E+03  0.90724700418E+02 0.  0.
        -13    1    3    3    0    0  0.62888518267E+02  0.29382535918E+02  0.39970917381E+03  0.40569165973E+03  0.00000000000E+00 0.  1.
         13    1    3    3    0    0  0.39921837948E+02 -0.41049069303E+02  0.14013431148E+03  0.15138165176E+03  0.00000000000E+00 0. -1.
        -13    1    4    4    0    0  0.53462864409E+01 -0.39212310673E+02 -0.74674317218E+02  0.84512967875E+02  0.00000000000E+00 0.  1.
         13    1    4    4    0    0 -0.74790300756E+02 -0.13460820346E+03 -0.71896232667E+02  0.16994712647E+03  0.00000000000E+00 0. -1.
          2    1    1    2  501    0 -0.33366341899E+02  0.18548704751E+03  0.29956702368E+02  0.19083019044E+03  0.00000000000E+00 0. -1.
<scales pt_clust_5="13000.00000" pt_clust_6="13000.00000" pt_clust_7="13000.00000" pt_clust_8="13000.00000" pt_clust_9="13000.00000"></scales>
<clustering>
<clus scale="   90.519">  5  6 -1 -1</clus>
<clus scale="   90.725">  7  8 -1 -1</clus>
<clus scale="  137.476">  1  5  2 -1</clus>
<clus scale="  181.201">  7  9 -1 -1</clus>
<clus scale="  429.750">  2  5  1 -1</clus>
</clustering>
</event>
<event>
 9    1  0.3303741E-006  0.2425280E+03  0.7546771E-02  0.1143660E+00
         -1   -1    0    0    0  501 -0.00000000000E+00  0.00000000000E+00  0.33001728496E+03  0.33001728496E+03  0.00000000000E+00 0.  1.
         21   -1    0    0  501  502  0.00000000000E+00 -0.00000000000E+00 -0.14045465951E+03  0.14045465951E+03  0.00000000000E+00 0.  1.
         23    2    1    2    0    0  0.39311160727E+02 -0.84553990206E+02 -0.40864099543E+02  0.13593296589E+03  0.90073036846E+02 0.  0.
         23    2    1    2    0    0  0.60316997572E+00 -0.21719969790E+02  0.19445690536E+03  0.21545440237E+03  0.90194182481E+02 0.  0.
        -11    1    3    3    0    0  0.44980881067E+02 -0.55780343368E+02  0.14658574982E+02  0.73140961084E+02  0.00000000000E+00 0.  1.
         11    1    3    3    0    0 -0.56697203397E+01 -0.28773646838E+02 -0.55522674525E+02  0.62792004806E+02  0.00000000000E+00 0. -1.
        -13    1    4    4    0    0  0.29331536579E+02 -0.42639277183E+02  0.14914239229E+03  0.15786671649E+03  0.00000000000E+00 0.  1.
         13    1    4    4    0    0 -0.28728366603E+02  0.20919307393E+02  0.45314513068E+02  0.57587685872E+02  0.00000000000E+00 0. -1.
         -1    1    1    2    0  502 -0.39914330703E+02  0.10627396000E+03  0.35969819635E+02  0.11908457622E+03  0.00000000000E+00 0.  1.
<scales pt_clust_5="13000.00000" pt_clust_6="13000.00000" pt_clust_7="13000.00000" pt_clust_8="13000.00000" pt_clust_9="13000.00000"></scales>
<clustering>
<clus scale="   90.073">  5  6 -1 -1</clus>
<clus scale="   90.194">  7  8 -1 -1</clus>
<clus scale="  113.522">  7  9 -1 -1</clus>
<clus scale="  129.645">  1  5  2 -1</clus>
<clus scale="  242.528">  2  5  1 -1</clus>
</clustering>
</event>
<event>
 9    1  0.3303741E-006  0.2564994E+03  0.7546771E-02  0.1149357E+00
          1   -1    0    0  502    0 -0.00000000000E+00  0.00000000000E+00  0.23183457315E+03  0.23183457315E+03  0.00000000000E+00 0. -1.
         21   -1    0    0  501  502  0.00000000000E+00 -0.00000000000E+00 -0.13814720167E+03  0.13814720167E+03  0.00000000000E+00 0. -1.
         23    2    1    2    0    0 -0.27273157847E+02  0.12888034514E+02  0.55635560422E+02  0.11067523725E+03  0.90795187011E+02 0.  0.
         23    2    1    2    0    0 -0.45495517993E+02 -0.46954623454E+02  0.10588588690E+03  0.15415296172E+03  0.90976566994E+02 0.  0.
        -13    1    4    4    0    0  0.22376811597E+02  0.36298305237E+01  0.43315788600E+02  0.48889210558E+02  0.00000000000E+00 0.  1.
         13    1    4    4    0    0 -0.67872329590E+02 -0.50584453977E+02  0.62570098303E+02  0.10526375117E+03  0.00000000000E+00 0. -1.
        -13    1    3    3    0    0 -0.57024390720E+02 -0.10129377946E+02  0.36659236809E+02  0.68544037509E+02  0.00000000000E+00 0. -1.
         13    1    3    3    0    0  0.29751232873E+02  0.23017412460E+02  0.18976323613E+02  0.42131199741E+02  0.00000000000E+00 0.  1.
          1    1    1    2  501    0  0.72768675840E+02  0.34066588940E+02 -0.67834075849E+02  0.10515357584E+03  0.00000000000E+00 0. -1.
<scales pt_clust_5="13000.00000" pt_clust_6="13000.00000" pt_clust_7="13000.00000" pt_clust_8="13000.00000" pt_clust_9="13000.00000"></scales>
<clustering>
<clus scale="   90.795">  7  8 -1 -1</clus>
<clus scale="   90.977">  5  6 -1 -1</clus>
<clus scale="   80.348">  5  9 -1 -1</clus>
<clus scale="   95.675">  1  7  2 -1</clus>
<clus scale="  256.499">  2  5  1 -1</clus>
</clustering>
</event>
<event>
 9    1  0.3303741E-006  0.2255855E+03  0.7546771E-02  0.1148520E+00
          1   -1    0    0  502    0 -0.00000000000E+00  0.00000000000E+00  0.52865083260E+03  0.52865083260E+03  0.00000000000E+00 0. -1.
         21   -1    0    0  501  502  0.00000000000E+00 -0.00000000000E+00 -0.77768229348E+02  0.77768229348E+02  0.00000000000E+00 0. -1.
         23    2    1    2    0    0 -0.11137209233E+03  0.12735604469E+02  0.30696104866E+03  0.33883312970E+03  0.89536952229E+02 0.  0.
         23    2    1    2    0    0 -0.12579834729E+02 -0.88957384807E+01  0.97656567832E+02  0.13522553866E+03  0.92259171137E+02 0.  0.
        -13    1    3    3    0    0 -0.12409946100E+01 -0.20578281642E+02  0.16475524985E+02  0.26390313876E+02  0.00000000000E+00 0.  1.
         13    1    3    3    0    0 -0.11013109772E+03  0.33313886111E+02  0.29048552368E+03  0.31244281582E+03  0.00000000000E+00 0. -1.
        -13    1    4    4    0    0  0.38165649613E+02 -0.17591178290E+02  0.42270316742E+02  0.59605755103E+02  0.00000000000E+00 0.  1.
         13    1    4    4    0    0 -0.50745484342E+02  0.86954398092E+01  0.55386251091E+02  0.75619783552E+02  0.00000000000E+00 0. -1.
          1    1    1    2  501    0  0.12395192706E+03 -0.38398659884E+01  0.46264986758E+02  0.13236039359E+03  0.00000000000E+00 0. -1.
<scales pt_clust_5="13000.00000" pt_clust_6="13000.00000" pt_clust_7="13000.00000" pt_clust_8="13000.00000" pt_clust_9="13000.00000"></scales>
<clustering>
<clus scale="   89.537">  5  6 -1 -1</clus>
<clus scale="   92.259">  7  8 -1 -1</clus>
<clus scale="  124.011">  7  9 -1 -1</clus>
<clus scale="  143.467">  1  5  2 -1</clus>
<clus scale="  225.585">  2  5  1 -1</clus>
</clustering>
</event>
<event>
 9    1  0.3303741E-006  0.3115144E+03  0.7546771E-02  0.1102343E+00
         21   -1    0    0  501  502  0.00000000000E+00  0.00000000000E+00  0.12350036290E+03  0.12350036290E+03  0.00000000000E+00 0.  1.
         -1   -1    0    0    0  501 -0.00000000000E+00 -0.00000000000E+00 -0.49318614264E+03  0.49318614264E+03  0.00000000000E+00 0.  1.
         23    2    1    2    0    0  0.19386349116E+02 -0.13978846765E+03 -0.19559924738E+03  0.25982889226E+03  0.96619570770E+02 0.  0.
         23    2    1    2    0    0  0.32056250818E+02  0.44737136994E+01 -0.18900063959E+03  0.21132804817E+03  0.88829526906E+02 0.  0.
        -11    1    3    3    0    0 -0.12979992469E+02 -0.11990521531E+03 -0.18419682442E+03  0.22016859674E+03  0.00000000000E+00 0.  1.
         11    1    3    3    0    0  0.32366341585E+02 -0.19883252341E+02 -0.11402422959E+02  0.39660295518E+02  0.00000000000E+00 0. -1.
        -13    1    4    4    0    0 -0.22678223119E+02  0.18460106625E+02 -0.11244341881E+03  0.11618347462E+03  0.00000000000E+00 0.  1.
         13    1    4    4    0    0  0.54734473937E+02 -0.13986392926E+02 -0.76557220772E+02  0.95144573553E+02  0.00000000000E+00 0. -1.
         -1    1    1    2    0  502 -0.51442599934E+02  0.13531475395E+03  0.14914107227E+02  0.14552956510E+03  0.00000000000E+00 0.  1.
<scales pt_clust_5="13000.00000" pt_clust_6="13000.00000" pt_clust_7="13000.00000" pt_clust_8="13000.00000" pt_clust_9="13000.00000"></scales>
<clustering>
<clus scale="   88.830">  7  8 -1 -1</clus>
<clus scale="   96.620">  5  6 -1 -1</clus>
<clus scale="  144.763">  7  9 -1 -1</clus>
<clus scale="  171.032">  2  5  1 -1</clus>
<clus scale="  311.514">  1  5  2 -1</clus>
</clustering>
</event>
<event>
 9    1  0.3303741E-006  0.2285605E+03  0.7546771E-02  0.1137724E+00
         -2   -1    0    0    0  501 -0.00000000000E+00  0.00000000000E+00  0.10933607267E+03  0.10933607267E+03  0.00000000000E+00 0.  1.
         21   -1    0    0  501  502  0.00000000000E+00 -0.00000000000E+00 -0.38515091360E+03  0.38515091360E+03  0.00000000000E+00 0.  1.
         23    2    1    2    0    0 -0.53132492015E+02 -0.14620045055E+03 -0.90949812461E+02  0.20052272957E+03  0.87976492529E+02 0.  0.
         23    2    1    2    0    0  0.55575031818E+02  0.40039235021E+02 -0.51538098239E+02  0.12351708011E+03  0.88930135536E+02 0.  0.
        -13    1    4    4    0    0 -0.24202740317E+02  0.10715425982E+02 -0.62017819133E+01  0.27185567710E+02  0.00000000000E+00 0.  1.
         13    1    4    4    0    0  0.79777772135E+02  0.29323809040E+02 -0.45336316326E+02  0.96331512401E+02  0.00000000000E+00 0. -1.
        -13    1    3    3    0    0  0.16114975880E+01 -0.11248357540E+03 -0.43488988313E+02  0.12060863884E+03  0.00000000000E+00 0.  1.
         13    1    3    3    0    0 -0.54743989603E+02 -0.33716875152E+02 -0.47460824148E+02  0.79914090726E+02  0.00000000000E+00 0. -1.
         -2    1    1    2    0  502 -0.24425398032E+01  0.10616121553E+03 -0.13332693023E+03  0.17044717659E+03  0.00000000000E+00 0.  1.
<scales pt_clust_5="13000.00000" pt_clust_6="13000.00000" pt_clust_7="13000.00000" pt_clust_8="13000.00000" pt_clust_9="13000.00000"></scales>
<clustering>
<clus scale="   87.976">  7  8 -1 -1</clus>
<clus scale="   88.930">  5  6 -1 -1</clus>
<clus scale="  106.189">  5  9 -1 -1</clus>
<clus scale="  178.711">  1  7  2 -1</clus>
<clus scale="  228.561">  2  5  1 -1</clus>
</clustering>
</event>
<event>
 9    1  0.3303741E-006  0.5224117E+03  0.7546771E-02  0.1031652E+00
         -3   -1    0    0    0  501 -0.00000000000E+00  0.00000000000E+00  0.10479031529E+04  0.10479031529E+04  0.00000000000E+00 0.  1.
         21   -1    0    0  501  502  0.00000000000E+00 -0.00000000000E+00 -0.24797362562E+03  0.24797362562E+03  0.00000000000E+00 0.  1.
         23    2    1    2    0    0  0.12911594677E+03  0.19945501209E+03  0.72408616650E+03  0.76798834838E+03  0.95142509810E+02 0.  0.
         23    2    1    2    0    0 -0.12741594970E+03  0.81287804315E+02  0.15597252038E+03  0.23592935564E+03  0.92155859140E+02 0.  0.
        -11    1    3    3    0    0  0.47984073326E+02  0.61776794953E+02  0.12095214061E+03  0.14404257706E+03  0.00000000000E+00 0. -1.
         11    1    3    3    0    0  0.81131873446E+02  0.13767821713E+03  0.60313402589E+03  0.62394577132E+03  0.00000000000E+00 0.  1.
        -13    1    4    4    0    0 -0.10954712016E+03  0.10198429088E+03  0.13132272309E+03  0.19911560642E+03  0.00000000000E+00 0. -1.
         13    1    4    4    0    0 -0.17868829536E+02 -0.20696486567E+02  0.24649797285E+02  0.36813749217E+02  0.00000000000E+00 0.  1.
         -3    1    1    2    0  502 -0.16999970756E+01 -0.28074281640E+03 -0.80129159614E+02  0.29195907448E+03  0.00000000000E+00 0.  1.
<scales pt_clust_5="13000.00000" pt_clust_6="13000.00000" pt_clust_7="13000.00000" pt_clust_8="13000.00000" pt_clust_9="13000.00000"></scales>
<clustering>
<clus scale="   92.156">  7  8 -1 -1</clus>
<clus scale="   95.143">  5  6 -1 -1</clus>
<clus scale="  255.940">  1  5  2 -1</clus>
<clus scale="  215.224">  7  9 -1 -1</clus>
<clus scale="  522.412">  2  5  1 -1</clus>
</clustering>
</event>
<event>
 9    1  0.3303741E-006  0.3657919E+03  0.7546771E-02  0.1114611E+00
         21   -1    0    0  501  502  0.00000000000E+00  0.00000000000E+00  0.30879807181E+03  0.30879807181E+03  0.00000000000E+00 0.  1.
         -1   -1    0    0    0  501 -0.00000000000E+00 -0.00000000000E+00 -0.16531381267E+03  0.16531381267E+03  0.00000000000E+00 0.  1.
         23    2    1    2    0    0 -0.29238998629E+02  0.46088587175E+02 -0.91385312002E+01  0.77756659358E+02  0.54621501384E+02 0.  0.
         23    2    1    2    0    0 -0.89348578816E+02  0.37334856803E+02 -0.52285053881E+02  0.14533787681E+03  0.94933194969E+02 0.  0.
        -11    1    4    4    0    0 -0.12831343611E+00  0.38741494098E+02 -0.39267315215E+02  0.55161960385E+02  0.00000000000E+00 0.  1.
         11    1    4    4    0    0 -0.89220265380E+02 -0.14066372959E+01 -0.13017738666E+02  0.90175916424E+02  0.00000000000E+00 0. -1.
        -13    1    3    3    0    0 -0.97798269501E+01  0.32789868442E+02  0.20500616204E+02  0.39888541617E+02  0.00000000000E+00 0. -1.
         13    1    3    3    0    0 -0.19459171678E+02  0.13298718733E+02 -0.29639147405E+02  0.37868117741E+02  0.00000000000E+00 0.  1.
         -1    1    1    2    0  502  0.11858757744E+03 -0.83423443977E+02  0.20490784423E+03  0.25101734831E+03  0.00000000000E+00 0.  1.
<scales pt_clust_5="13000.00000" pt_clust_6="13000.00000" pt_clust_7="13000.00000" pt_clust_8="13000.00000" pt_clust_9="13000.00000"></scales>
<clustering>
<clus scale="   54.622">  7  8 -1 -1</clus>
<clus scale="   77.218">  2  7  1 -1</clus>
<clus scale="   94.933">  5  6 -1 -1</clus>
<clus scale="  135.508">  5  9 -1 -1</clus>
<clus scale="  365.792">  1  5  2 -1</clus>
</clustering>
</event>
<event>
 9    1  0.3303741E-006  0.1406670E+03  0.7546771E-02  0.1225431E+00
         21   -1    0    0  501  502  0.00000000000E+00  0.00000000000E+00  0.13696638571E+03  0.13696638571E+03  0.00000000000E+00 0. -1.
          4   -1    0    0  502    0 -0.00000000000E+00 -0.00000000000E+00 -0.11201756990E+03  0.11201756990E+03  0.00000000000E+00 0. -1.
         23    2    1    2    0    0  0.25299088621E+02 -0.47096418728E+02  0.84219390420E+01  0.10734942663E+03  0.92708434344E+02 0.  0.
         23    2    1    2    0    0 -0.45284676565E+02  0.38265975216E+02 -0.86002070772E+01  0.10833631880E+03  0.90265207136E+02 0.  0.
        -13    1    4    4    0    0 -0.41420324586E+01 -0.25606388598E+02 -0.18297917820E+02  0.31743619303E+02  0.00000000000E+00 0. -1.
         13    1    4    4    0    0 -0.41142644106E+02  0.63872363813E+02  0.96977107425E+01  0.76592699501E+02  0.00000000000E+00 0.  1.
        -13    1    3    3    0    0 -0.29644072239E+01 -0.62359395647E+02  0.29377854474E+02  0.68996668537E+02  0.00000000000E+00 0. -1.
         13    1    3    3    0    0  0.28263495844E+02  0.15262976919E+02 -0.20955915432E+02  0.38352758094E+02  0.00000000000E+00 0.  1.
          4    1    1    2  501    0  0.19985587944E+02  0.88304435128E+01  0.25127083849E+02  0.33298210175E+02  0.00000000000E+00 0. -1.
<scales pt_clust_5="13000.00000" pt_clust_6="13000.00000" pt_clust_7="13000.00000" pt_clust_8="13000.00000" pt_clust_9="13000.00000"></scales>
<clustering>
<clus scale="   90.265">  5  6 -1 -1</clus>
<clus scale="   21.850">  5  9 -1 -1</clus>
<clus scale="   92.708">  7  8 -1 -1</clus>
<clus scale="  107.019">  2  7  1 -1</clus>
<clus scale="  140.667">  1  5  2 -1</clus>
</clustering>
</event>
<event>
 9    1  0.3303741E-006  0.3445290E+03  0.7546771E-02  0.1104880E+00
         -3   -1    0    0    0  501 -0.00000000000E+00  0.00000000000E+00  0.71280933835E+03  0.71280933835E+03  0.00000000000E+00 0.  1.
         21   -1    0    0  501  502  0.00000000000E+00 -0.00000000000E+00 -0.95446291311E+02  0.95446291311E+02  0.00000000000E+00 0. -1.
         23    2    1    2    0    0 -0.19916159843E+02  0.75020666103E+02  0.35781591851E+03  0.37690318254E+03  0.89437261263E+02 0.  0.
         23    2    1    2    0    0  0.13485944246E+03  0.47114544036E+02  0.17484613339E+03  0.24346091897E+03  0.91077984297E+02 0.  0.
        -11    1    4    4    0    0  0.11952677408E+02 -0.20125711293E+02  0.61996891955E+01  0.24214600934E+02  0.00000000000E+00 0.  1.
         11    1    4    4    0    0  0.12290676505E+03  0.67240255329E+02  0.16864644420E+03  0.21924631804E+03  0.00000000000E+00 0. -1.
        -13    1    3    3    0    0  0.21984859452E+02  0.49919970843E+02  0.27821123836E+03  0.28350807869E+03  0.00000000000E+00 0. -1.
         13    1    3    3    0    0 -0.41901019295E+02  0.25100695260E+02  0.79604680152E+02  0.93395103847E+02  0.00000000000E+00 0.  1.
         -3    1    1    2    0  502 -0.11494328261E+03 -0.12213521014E+03  0.84700995128E+02  0.18789152815E+03  0.00000000000E+00 0.  1.
<scales pt_clust_5="13000.00000" pt_clust_6="13000.00000" pt_clust_7="13000.00000" pt_clust_8="13000.00000" pt_clust_9="13000.00000"></scales>
<clustering>
<clus scale="   89.437">  7  8 -1 -1</clus>
<clus scale="   91.078">  5  6 -1 -1</clus>
<clus scale="  118.422">  1  7  2 -1</clus>
<clus scale="  153.763">  5  9 -1 -1</clus>
<clus scale="  344.529">  2  5  1 -1</clus>
</clustering>
</event>
<event>
 9    1  0.3303741E-006  0.1502673E+03  0.7546771E-02  0.1206691E+00
         21   -1    0    0  501  502  0.00000000000E+00  0.00000000000E+00  0.32419248664E+03  0.32419248664E+03  0.00000000000E+00 0.  1.
         -2   -1    0    0    0  501 -0.00000000000E+00 -0.00000000000E+00 -0.87335398507E+02  0.87335398507E+02  0.00000000000E+00 0.  1.
         23    2    1    2    0    0  0.17949606678E+02 -0.94558946868E+02 -0.66815269273E+00  0.13046118517E+03  0.88068675446E+02 0.  0.
         23    2    1    2    0    0 -0.18456304095E+01  0.65834096480E+02  0.14986497882E+03  0.18742495386E+03  0.91274677986E+02 0.  0.
        -11    1    3    3    0    0  0.39507985110E+02 -0.39538006735E+02  0.30476242821E+02  0.63662675412E+02  0.00000000000E+00 0. -1.
         11    1    3    3    0    0 -0.21558378433E+02 -0.55020940133E+02 -0.31144395514E+02  0.66798509757E+02  0.00000000000E+00 0.  1.
        -13    1    4    4    0    0  0.13440116278E+02  0.85418781417E+02  0.12712156652E+03  0.15374295958E+03  0.00000000000E+00 0. -1.
         13    1    4    4    0    0 -0.15285746687E+02 -0.19584684937E+02  0.22743412295E+02  0.33681994280E+02  0.00000000000E+00 0.  1.
         -2    1    1    2    0  502 -0.16103976268E+02  0.28724850388E+02  0.87660262002E+02  0.93641746116E+02  0.00000000000E+00 0.  1.
<scales pt_clust_5="13000.00000" pt_clust_6="13000.00000" pt_clust_7="13000.00000" pt_clust_8="13000.00000" pt_clust_9="13000.00000"></scales>
<clustering>
<clus scale="   88.069">  5  6 -1 -1</clus>
<clus scale="   91.275">  7  8 -1 -1</clus>
<clus scale="   32.931">  7  9 -1 -1</clus>
<clus scale="  130.459">  2  5  1 -1</clus>
<clus scale="  150.267">  1  5  2 -1</clus>
</clustering>
</event>
<event>
 9    1  0.3303741E-006  0.1490488E+03  0.7546771E-02  0.1215907E+00
         21   -1    0    0  501  502  0.00000000000E+00  0.00000000000E+00  0.62388105497E+02  0.62388105497E+02  0.00000000000E+00 0.  1.
          1   -1    0    0  502    0 -0.00000000000E+00 -0.00000000000E+00 -0.34981919248E+03  0.34981919248E+03  0.00000000000E+00 0. -1.
         23    2    1    2    0    0  0.13892420958E+02  0.59562730692E+02 -0.22544220178E+03  0.25078188875E+03  0.91250485669E+02 0.  0.
         23    2    1    2    0    0  0.22123965099E+02 -0.26940589981E+02 -0.40796581271E+02  0.10841128021E+03  0.94198616834E+02 0.  0.
        -11    1    3    3    0    0 -0.93314146920E+01  0.77880688554E+02 -0.14157621950E+03  0.16185271971E+03  0.00000000000E+00 0. -1.
         11    1    3    3    0    0  0.23223835650E+02 -0.18317957862E+02 -0.83865982279E+02  0.88929169040E+02  0.00000000000E+00 0.  1.
        -13    1    4    4    0    0 -0.67987968193E+01 -0.53888957011E+02 -0.42310602208E+02  0.68850783476E+02  0.00000000000E+00 0.  1.
         13    1    4    4    0    0  0.28922761919E+02  0.26948367031E+02  0.15140209371E+01  0.39560496736E+02  0.00000000000E+00 0. -1.
          1    1    1    2  501    0 -0.36016386057E+02 -0.32622140711E+02 -0.21192303932E+02  0.53014129014E+02  0.00000000000E+00 0. -1.
<scales pt_clust_5="13000.00000" pt_clust_6="13000.00000" pt_clust_7="13000.00000" pt_clust_8="13000.00000" pt_clust_9="13000.00000"></scales>
<clustering>
<clus scale="   91.250">  5  6 -1 -1</clus>
<clus scale="   94.199">  7  8 -1 -1</clus>
<clus scale="   48.594">  7  9 -1 -1</clus>
<clus scale="  109.852">  2  5  1 -1</clus>
<clus scale="  149.049">  1  5  2 -1</clus>
</clustering>
</event>
<event>
 9    1  0.3303741E-006  0.3042528E+03  0.7546771E-02  0.1110314E+00
          2   -1    0    0  502    0 -0.00000000000E+00  0.00000000000E+00  0.27367610418E+03  0.27367610418E+03  0.00000000000E+00 0. -1.
         21   -1    0    0  501  502  0.00000000000E+00 -0.00000000000E+00 -0.21597522987E+03  0.21597522987E+03  0.00000000000E+00 0. -1.
         23    2    1    2    0    0 -0.11563876315E+03  0.24992192792E+02  0.10354030016E+03  0.18196474751E+03  0.91616823445E+02 0.  0.
         23    2    1    2    0    0  0.35492142213E+01 -0.39918552821E+02  0.92305566562E+02  0.12916235253E+03  0.80972266318E+02 0.  0.
        -11    1    4    4    0    0 -0.28028631697E+02  0.11187414706E+02  0.28125360856E+02  0.41252858881E+02  0.00000000000E+00 0.  1.
         11    1    4    4    0    0  0.31577845918E+02 -0.51105967528E+02  0.64180205706E+02  0.87909493653E+02  0.00000000000E+00 0. -1.
        -13    1    3    3    0    0 -0.37274612384E+02  0.22124304675E+02  0.93306266038E+02  0.10288314180E+03  0.00000000000E+00 0. -1.
         13    1    3    3    0    0 -0.78364150762E+02  0.28678881173E+01  0.10234034119E+02  0.79081605707E+02  0.00000000000E+00 0.  1.
          2    1    1    2  501    0  0.11208954892E+03  0.14926360029E+02 -0.13814499240E+03  0.17852423401E+03  0.00000000000E+00 0. -1.
<scales pt_clust_5="13000.00000" pt_clust_6="13000.00000" pt_clust_7="13000.00000" pt_clust_8="13000.00000" pt_clust_9="13000.00000"></scales>
<clustering>
<clus scale="   80.972">  5  6 -1 -1</clus>
<clus scale="   91.617">  7  8 -1 -1</clus>
<clus scale="  113.079">  5  9 -1 -1</clus>
<clus scale="  149.635">  1  7  2 -1</clus>
<clus scale="  304.253">  2  5  1 -1</clus>
</clustering>
</event>
<event>
 9    1  0.3303741E-006  0.3364101E+03  0.7546771E-02  0.1109421E+00
          1   -1    0    0  502    0 -0.00000000000E+00  0.00000000000E+00  0.12957544027E+03  0.12957544027E+03  0.00000000000E+00 0. -1.
         21   -1    0    0  501  502  0.00000000000E+00 -0.00000000000E+00 -0.39463975559E+03  0.39463975559E+03  0.00000000000E+00 0. -1.
         23    2    1    2    0    0  0.60325417427E+01  0.66943364008E+02 -0.43055277752E+02  0.12115219889E+03  0.91138865526E+02 0.  0.
         23    2    1    2    0    0  0.43697408232E+02 -0.23799148179E+01  0.54562796764E+02  0.11473421511E+03  0.90948962866E+02 0.  0.
        -11    1    3    3    0    0  0.26255849963E+02  0.66121568493E+02  0.26214356668E+01  0.71192017827E+02  0.00000000000E+00 0. -1.
         11    1    3    3    0    0 -0.20223308220E+02  0.82179551433E+00 -0.45676713419E+02  0.49960181065E+02  0.00000000000E+00 0.  1.
        -13    1    4    4    0    0  0.18293192419E+01 -0.41776466299E+02  0.33238571629E+02  0.53417433383E+02  0.00000000000E+00 0. -1.
         13    1    4    4    0    0  0.41868088990E+02  0.39396551481E+02  0.21324225135E+02  0.61316781731E+02  0.00000000000E+00 0.  1.
          1    1    1    2  501    0 -0.49729949974E+02 -0.64563449190E+02 -0.27657183434E+03  0.28832878186E+03  0.00000000000E+00 0. -1.
<scales pt_clust_5="13000.00000" pt_clust_6="13000.00000" pt_clust_7="13000.00000" pt_clust_8="13000.00000" pt_clust_9="13000.00000"></scales>
<clustering>
<clus scale="   90.949">  7  8 -1 -1</clus>
<clus scale="   81.495">  7  9 -1 -1</clus>
<clus scale="   91.139">  5  6 -1 -1</clus>
<clus scale="  113.244">  1  5  2 -1</clus>
<clus scale="  336.410">  2  5  1 -1</clus>
</clustering>
</event>
<event>
 9    1  0.3303741E-006  0.1408836E+04  0.7546771E-02  0.9432415E-01
          1   -1    0    0  502    0 -0.00000000000E+00  0.00000000000E+00  0.35504418065E+04  0.35504418065E+04  0.00000000000E+00 0. -1.
         21   -1    0    0  501  502  0.00000000000E+00 -0.00000000000E+00 -0.19359724223E+03  0.19359724223E+03  0.00000000000E+00 0. -1.
         23    2    1    2    0    0  0.97692097110E+02 -0.18458987816E+03  0.70396092731E+03  0.74027320664E+03  0.93948200280E+02 0.  0.
         23    2    1    2    0    0 -0.18350814984E+03  0.70283343791E+03  0.84234114990E+03  0.11185589888E+04  0.11826037439E+03 0.  0.
        -11    1    3    3    0    0  0.98796859397E+02 -0.95071248759E+02  0.47630636527E+03  0.49564817700E+03  0.00000000000E+00 0.  1.
         11    1    3    3    0    0 -0.11047622866E+01 -0.89518629398E+02  0.22765456204E+03  0.24462502964E+03  0.00000000000E+00 0. -1.
        -11    1    4    4    0    0  0.13727754056E+02  0.89771067566E+02  0.12556214186E+03  0.15496176068E+03  0.00000000000E+00 0.  1.
         11    1    4    4    0    0 -0.19723590390E+03  0.61306237035E+03  0.71677900803E+03  0.96359722814E+03  0.00000000000E+00 0. -1.
          1    1    1    2  501    0  0.85816052729E+02 -0.51824355975E+03  0.18105424871E+04  0.18852068533E+04  0.00000000000E+00 0. -1.
<scales pt_clust_5="13000.00000" pt_clust_6="13000.00000" pt_clust_7="13000.00000" pt_clust_8="13000.00000" pt_clust_9="13000.00000"></scales>
<clustering>
<clus scale="   93.948">  5  6 -1 -1</clus>
<clus scale="  118.260">  7  8 -1 -1</clus>
<clus scale="  229.005">  1  5  2 -1</clus>
<clus scale="  656.137">  7  9 -1 -1</clus>
<clus scale=" 1408.836">  2  5  1 -1</clus>
</clustering>
</event>
<event>
 9    1  0.3303741E-006  0.1164929E+03  0.7546771E-02  0.1257737E+00
          2   -1    0    0  502    0 -0.00000000000E+00  0.00000000000E+00  0.58767783945E+02  0.58767783945E+02  0.00000000000E+00 0. -1.
         21   -1    0    0  501  502  0.00000000000E+00 -0.00000000000E+00 -0.23767324553E+03  0.23767324553E+03  0.00000000000E+00 0.  1.
         23    2    1    2    0    0  0.10819055352E+02 -0.14773440394E+02 -0.20891430303E+02  0.10012743523E+03  0.96196387276E+02 0.  0.
         23    2    1    2    0    0  0.44297399698E+01  0.16348412852E+01 -0.10837870522E+03  0.14275228230E+03  0.92789951247E+02 0.  0.
        -11    1    4    4    0    0 -0.40270906129E+02  0.19349978027E+02 -0.48175225517E+02  0.65704032477E+02  0.00000000000E+00 0.  1.
         11    1    4    4    0    0  0.44700646098E+02 -0.17715136742E+02 -0.60203479707E+02  0.77048249819E+02  0.00000000000E+00 0. -1.
        -11    1    3    3    0    0  0.47757485761E+02 -0.62287580166E+01  0.12332931440E+02  0.49715953883E+02  0.00000000000E+00 0. -1.
         11    1    3    3    0    0 -0.36938430408E+02 -0.85446823774E+01 -0.33224361743E+02  0.50411481343E+02  0.00000000000E+00 0.  1.
          2    1    1    2  501    0 -0.15248795322E+02  0.13138599109E+02 -0.49635326059E+02  0.53561311955E+02  0.00000000000E+00 0. -1.
<scales pt_clust_5="13000.00000" pt_clust_6="13000.00000" pt_clust_7="13000.00000" pt_clust_8="13000.00000" pt_clust_9="13000.00000"></scales>
<clustering>
<clus scale="   92.790">  5  6 -1 -1</clus>
<clus scale="   20.128">  5  9 -1 -1</clus>
<clus scale="   96.196">  7  8 -1 -1</clus>
<clus scale="   97.924">  1  7  2 -1</clus>
<clus scale="  116.493">  2  5  1 -1</clus>
</clustering>
</event>
<event>
 9    1  0.3303741E-006  0.2086438E+03  0.7546771E-02  0.1158423E+00
         21   -1    0    0  501  502  0.00000000000E+00  0.00000000000E+00  0.15395444563E+03  0.15395444563E+03  0.00000000000E+00 0.  1.
          2   -1    0    0  502    0 -0.00000000000E+00 -0.00000000000E+00 -0.26230080211E+03  0.26230080211E+03  0.00000000000E+00 0.  1.
         23    2    1    2    0    0  0.11006204502E+03 -0.18300583847E+02  0.52397481575E+02  0.15287187907E+03  0.90419855189E+02 0.  0.
         23    2    1    2    0    0 -0.48114293626E+02 -0.36739914019E+02 -0.13428772729E+03  0.17639540339E+03  0.97042970388E+02 0.  0.
        -13    1    3    3    0    0  0.77223286188E+02 -0.53916970494E+02  0.26020138132E+02  0.97711428325E+02  0.00000000000E+00 0.  1.
         13    1    3    3    0    0  0.32838758830E+02  0.35616386647E+02  0.26377343443E+02  0.55160450745E+02  0.00000000000E+00 0. -1.
        -13    1    4    4    0    0 -0.49599910750E+02 -0.60733423413E+02 -0.13023132401E+03  0.15201610974E+03  0.00000000000E+00 0.  1.
         13    1    4    4    0    0  0.14856171240E+01  0.23993509393E+02 -0.40564032786E+01  0.24379293649E+02  0.00000000000E+00 0. -1.
          2    1    1    2  501    0 -0.61947751393E+02  0.55040497866E+02 -0.26456110757E+02  0.86987965284E+02  0.00000000000E+00 0.  1.
<scales pt_clust_5="13000.00000" pt_clust_6="13000.00000" pt_clust_7="13000.00000" pt_clust_8="13000.00000" pt_clust_9="13000.00000"></scales>
<clustering>
<clus scale="   90.420">  5  6 -1 -1</clus>
<clus scale="   97.043">  7  8 -1 -1</clus>
<clus scale="   82.867">  7  9 -1 -1</clus>
<clus scale="  143.612">  2  5  1 -1</clus>
<clus scale="  208.644">  1  5  2 -1</clus>
</clustering>
</event>
<event>
 9    1  0.3303741E-006  0.1919753E+03  0.7546771E-02  0.1186509E+00
         21   -1    0    0  501  502  0.00000000000E+00  0.00000000000E+00  0.13797220446E+03  0.13797220446E+03  0.00000000000E+00 0.  1.
          1   -1    0    0  502    0 -0.00000000000E+00 -0.00000000000E+00 -0.18397215929E+03  0.18397215929E+03  0.00000000000E+00 0. -1.
         23    2    1    2    0    0  0.89391131759E+01 -0.33036718800E+02  0.47719989465E+02  0.10831394726E+03  0.91013082808E+02 0.  0.
         23    2    1    2    0    0  0.59313844207E+02  0.48510436468E+02 -0.67657770224E+02  0.13895017113E+03  0.94117913413E+02 0.  0.
        -11    1    3    3    0    0 -0.18683478943E+02  0.17963650407E+02  0.42889678069E+02  0.50112768894E+02  0.00000000000E+00 0.  1.
         11    1    3    3    0    0  0.27622592119E+02 -0.51000369207E+02  0.48303113969E+01  0.58201178363E+02  0.00000000000E+00 0. -1.
        -13    1    4    4    0    0  0.24010746671E+02  0.69982992341E+02 -0.21604749827E+02  0.77077236508E+02  0.00000000000E+00 0. -1.
         13    1    4    4    0    0  0.35303097536E+02 -0.21472555873E+02 -0.46053020397E+02  0.61872934624E+02  0.00000000000E+00 0.  1.
          1    1    1    2  501    0 -0.68252957382E+02 -0.15473717668E+02 -0.26062174069E+02  0.74680245361E+02  0.00000000000E+00 0. -1.
<scales pt_clust_5="13000.00000" pt_clust_6="13000.00000" pt_clust_7="13000.00000" pt_clust_8="13000.00000" pt_clust_9="13000.00000"></scales>
<clustering>
<clus scale="   91.013">  5  6 -1 -1</clus>
<clus scale="   94.118">  7  8 -1 -1</clus>
<clus scale="   69.985">  7  9 -1 -1</clus>
<clus scale="   97.235">  2  5  1 -1</clus>
<clus scale="  191.975">  1  5  2 -1</clus>
</clustering>
</event>
<event>
 9    1  0.3303741E-006  0.1564218E+03  0.7546771E-02  0.1208431E+00
          1   -1    0    0  502    0 -0.00000000000E+00  0.00000000000E+00  0.36855652641E+02  0.36855652641E+02  0.00000000000E+00 0. -1.
         21   -1    0    0  501  502  0.00000000000E+00 -0.00000000000E+00 -0.50970410056E+03  0.50970410056E+03  0.00000000000E+00 0.  1.
         23    2    1    2    0    0 -0.60422079186E+02 -0.21155453397E+02 -0.14115244183E+03  0.17983092728E+03  0.91196325094E+02 0.  0.
         23    2    1    2    0    0  0.52724671473E+02 -0.93925558042E-01 -0.32675010236E+03  0.34359339518E+03  0.92254495939E+02 0.  0.
        -13    1    4    4    0    0  0.40850179724E+02 -0.43886826005E+02 -0.20803309695E+03  0.21650071618E+03  0.00000000000E+00 0.  1.
         13    1    4    4    0    0  0.11874491749E+02  0.43792900447E+02 -0.11871700541E+03  0.12709267901E+03  0.00000000000E+00 0. -1.
        -13    1    3    3    0    0 -0.73916879512E+02  0.12296325778E+02 -0.87793700147E+02  0.11542373452E+03  0.00000000000E+00 0. -1.
         13    1    3    3    0    0  0.13494800325E+02 -0.33451779174E+02 -0.53358741683E+02  0.64407192764E+02  0.00000000000E+00 0.  1.
          1    1    1    2  501    0  0.76974077136E+01  0.21249378955E+02 -0.49459037302E+01  0.23135430732E+02  0.00000000000E+00 0. -1.
<scales pt_clust_5="13000.00000" pt_clust_6="13000.00000" pt_clust_7="13000.00000" pt_clust_8="13000.00000" pt_clust_9="13000.00000"></scales>
<clustering>
<clus scale="   91.196">  7  8 -1 -1</clus>
<clus scale="   92.254">  5  6 -1 -1</clus>
<clus scale="   22.601">  5  9 -1 -1</clus>
<clus scale="  111.423">  1  7  2 -1</clus>
<clus scale="  156.422">  2  5  1 -1</clus>
</clustering>
</event>
<event>
 9    1  0.3303741E-006  0.3696206E+03  0.7546771E-02  0.1083699E+00
         21   -1    0    0  501  502  0.00000000000E+00  0.00000000000E+00  0.15612173466E+03  0.15612173466E+03  0.00000000000E+00 0. -1.
          3   -1    0    0  502    0 -0.00000000000E+00 -0.00000000000E+00 -0.69761300831E+03  0.69761300831E+03  0.00000000000E+00 0. -1.
         23    2    1    2    0    0  0.36110007706E+02  0.13481682498E+03 -0.43963401996E+03  0.47033637217E+03  0.91971313624E+02 0.  0.
         23    2    1    2    0    0 -0.47072954601E+02 -0.11776266718E+03 -0.21664741572E+03  0.26683160109E+03  0.90438331301E+02 0.  0.
        -11    1    4    4    0    0  0.13731140661E+02 -0.83406829319E+02 -0.10069653107E+03  0.13147256281E+03  0.00000000000E+00 0. -1.
         11    1    4    4    0    0 -0.60804095262E+02 -0.34355837859E+02 -0.11595088465E+03  0.13535903829E+03  0.00000000000E+00 0.  1.
        -11    1    3    3    0    0 -0.25043876506E+02  0.12837822541E+02 -0.48362029499E+02  0.55954368331E+02  0.00000000000E+00 0.  1.
         11    1    3    3    0    0  0.61153884212E+02  0.12197900244E+03 -0.39127199046E+03  0.41438200384E+03  0.00000000000E+00 0. -1.
          3    1    1    2  501    0  0.10962946895E+02 -0.17054157803E+02  0.11479016202E+03  0.11656676971E+03  0.00000000000E+00 0. -1.
<scales pt_clust_5="13000.00000" pt_clust_6="13000.00000" pt_clust_7="13000.00000" pt_clust_8="13000.00000" pt_clust_9="13000.00000"></scales>
<clustering>
<clus scale="   90.438">  5  6 -1 -1</clus>
<clus scale="   20.274">  5  9 -1 -1</clus>
<clus scale="   91.971">  7  8 -1 -1</clus>
<clus scale="  167.147">  2  7  1 -1</clus>
<clus scale="  369.621">  1  5  2 -1</clus>
</clustering>
</event>
<event>
 9    1  0.3303741E-006  0.3892170E+03  0.7546771E-02  0.1091556E+00
         21   -1    0    0  501  502  0.00000000000E+00  0.00000000000E+00  0.37737523928E+03  0.37737523928E+03  0.00000000000E+00 0. -1.
          2   -1    0    0  502    0 -0.00000000000E+00 -0.00000000000E+00 -0.17066271364E+03  0.17066271364E+03  0.00000000000E+00 0. -1.
         23    2    1    2    0    0 -0.29762816496E+01 -0.73146503248E+02  0.69212872460E+02  0.13524739139E+03  0.90233951340E+02 0.  0.
         23    2    1    2    0    0  0.16044523672E+03  0.46114792510E+02 -0.15206312553E+02  0.19177857731E+03  0.93158696302E+02 0.  0.
        -11    1    3    3    0    0  0.42989165300E+02 -0.28922929848E+02  0.24247443669E+02  0.57206142403E+02  0.00000000000E+00 0.  1.
         11    1    3    3    0    0 -0.45965446949E+02 -0.44223573400E+02  0.44965428791E+02  0.78041248990E+02  0.00000000000E+00 0. -1.
        -11    1    4    4    0    0  0.42168570200E+02  0.52831803249E+02  0.15594606521E+02  0.69372757620E+02  0.00000000000E+00 0.  1.
         11    1    4    4    0    0  0.11827666652E+03 -0.67170107395E+01 -0.30800919074E+02  0.12240581969E+03  0.00000000000E+00 0. -1.
          2    1    1    2  501    0 -0.15746895507E+03  0.27031710738E+02  0.15270596574E+03  0.22101198422E+03  0.00000000000E+00 0. -1.
<scales pt_clust_5="13000.00000" pt_clust_6="13000.00000" pt_clust_7="13000.00000" pt_clust_8="13000.00000" pt_clust_9="13000.00000"></scales>
<clustering>
<clus scale="   90.234">  5  6 -1 -1</clus>
<clus scale="   93.159">  7  8 -1 -1</clus>
<clus scale="  116.196">  2  5  1 -1</clus>
<clus scale="  158.457">  7  9 -1 -1</clus>
<clus scale="  389.217">  1  5  2 -1</clus>
</clustering>
</event>
<event>
 9    1  0.3303741E-006  0.2242738E+03  0.7546771E-02  0.1162633E+00
         -1   -1    0    0    0  501 -0.00000000000E+00  0.00000000000E+00  0.40078607509E+03  0.40078607509E+03  0.00000000000E+00 0.  1.
         21   -1    0    0  501  502  0.00000000000E+00 -0.00000000000E+00 -0.68019864487E+02  0.68019864487E+02  0.00000000000E+00 0.  1.
         23    2    1    2    0    0  0.19898006841E+02  0.47351757448E+02  0.88557889029E+02  0.13723927786E+03  0.91400219198E+02 0.  0.
         23    2    1    2    0    0 -0.80208275496E+01  0.38873134569E+01  0.26079114222E+03  0.27641686828E+03  0.91185636631E+02 0.  0.
        -11    1    3    3    0    0  0.49535988226E+02  0.14222205733E+02  0.19482417920E+02  0.55096731967E+02  0.00000000000E+00 0. -1.
         11    1    3    3    0    0 -0.29637981385E+02  0.33129551715E+02  0.69075471109E+02  0.82142545896E+02  0.00000000000E+00 0.  1.
        -13    1    4    4    0    0 -0.17753945806E+02 -0.32212004589E+02  0.48557392612E+02  0.60914991657E+02  0.00000000000E+00 0. -1.
         13    1    4    4    0    0  0.97331182567E+01  0.36099318046E+02  0.21223374961E+03  0.21550187662E+03  0.00000000000E+00 0.  1.
         -1    1    1    2    0  502 -0.11877179292E+02 -0.51239070905E+02 -0.16582820648E+02  0.55149793434E+02  0.00000000000E+00 0.  1.
<scales pt_clust_5="13000.00000" pt_clust_6="13000.00000" pt_clust_7="13000.00000" pt_clust_8="13000.00000" pt_clust_9="13000.00000"></scales>
<clustering>
<clus scale="   91.186">  7  8 -1 -1</clus>
<clus scale="   52.598">  7  9 -1 -1</clus>
<clus scale="   91.400">  5  6 -1 -1</clus>
<clus scale="  104.843">  1  5  2 -1</clus>
<clus scale="  224.274">  2  5  1 -1</clus>
</clustering>
</event>
<event>
 9    1  0.3303741E-006  0.1871276E+03  0.7546771E-02  0.1185510E+00
          2   -1    0    0  502    0 -0.00000000000E+00  0.00000000000E+00  0.27349562606E+03  0.27349562606E+03  0.00000000000E+00 0. -1.
         21   -1    0    0  501  502  0.00000000000E+00 -0.00000000000E+00 -0.80342483494E+02  0.80342483494E+02  0.00000000000E+00 0. -1.
         23    2    1    2    0    0 -0.59676961286E+02 -0.97729431706E-01  0.90484403269E+02  0.14039585157E+03  0.89231264951E+02 0.  0.
         23    2    1    2    0    0  0.11152474974E+01 -0.48072009284E+02  0.27318672617E+02  0.10654309709E+03  0.91065689539E+02 0.  0.
        -11    1    4    4    0    0 -0.16629694555E+02  0.14560304951E+02  0.34581351719E+02  0.41041675258E+02  0.00000000000E+00 0.  1.
         11    1    4    4    0    0  0.17744942052E+02 -0.62632314234E+02 -0.72626791020E+01  0.65501421836E+02  0.00000000000E+00 0. -1.
        -13    1    3    3    0    0 -0.68700652187E+01  0.31456984427E+02  0.67390416275E+02  0.74687401019E+02  0.00000000000E+00 0.  1.
         13    1    3    3    0    0 -0.52806896068E+02 -0.31554713858E+02  0.23093986995E+02  0.65708450555E+02  0.00000000000E+00 0. -1.
          2    1    1    2  501    0  0.58561713789E+02  0.48169738715E+02  0.75350066684E+02  0.10689916089E+03  0.00000000000E+00 0. -1.
<scales pt_clust_5="13000.00000" pt_clust_6="13000.00000" pt_clust_7="13000.00000" pt_clust_8="13000.00000" pt_clust_9="13000.00000"></scales>
<clustering>
<clus scale="   89.231">  7  8 -1 -1</clus>
<clus scale="   91.066">  5  6 -1 -1</clus>
<clus scale="   75.827">  5  9 -1 -1</clus>
<clus scale="  107.348">  1  7  2 -1</clus>
<clus scale="  187.128">  2  5  1 -1</clus>
</clustering>
</event>
<event>
 9    1  0.3303741E-006  0.3649917E+03  0.7546771E-02  0.1105212E+00
         21   -1    0    0  501  502  0.00000000000E+00  0.00000000000E+00  0.16466757773E+03  0.16466757773E+03  0.00000000000E+00 0. -1.
          1   -1    0    0  502    0 -0.00000000000E+00 -0.00000000000E+00 -0.42144484996E+03  0.42144484996E+03  0.00000000000E+00 0. -1.
         23    2    1    2    0    0 -0.12429282806E+02 -0.38983677279E+02 -0.19131016602E+03  0.21529588565E+03  0.89880612996E+02 0.  0.
         23    2    1    2    0    0  0.14943705433E+03 -0.44192883845E+02 -0.98011056139E+02  0.20726661554E+03  0.95230449971E+02 0.  0.
        -13    1    4    4    0    0  0.12560621949E+03  0.89084277378E+00 -0.92462042767E+02  0.15597097592E+03  0.00000000000E+00 0. -1.
         13    1    4    4    0    0  0.23830834844E+02 -0.45083726618E+02 -0.55490133721E+01  0.51295639625E+02  0.00000000000E+00 0.  1.
        -13    1    3    3    0    0 -0.51062513170E+02 -0.15179772551E+02 -0.10828610970E+03  0.12068010316E+03  0.00000000000E+00 0.  1.
         13    1    3    3    0    0  0.38633230364E+02 -0.23803904727E+02 -0.83024056319E+02  0.94615782490E+02  0.00000000000E+00 0. -1.
          1    1    1    2  501    0 -0.13700777153E+03  0.83176561123E+02  0.32543949924E+02  0.16354992649E+03  0.00000000000E+00 0. -1.
<scales pt_clust_5="13000.00000" pt_clust_6="13000.00000" pt_clust_7="13000.00000" pt_clust_8="13000.00000" pt_clust_9="13000.00000"></scales>
<clustering>
<clus scale="   89.881">  7  8 -1 -1</clus>
<clus scale="   95.230">  5  6 -1 -1</clus>
<clus scale="   98.756">  2  7  1 -1</clus>
<clus scale="  157.847">  5  9 -1 -1</clus>
<clus scale="  364.992">  1  5  2 -1</clus>
</clustering>
</event>
<event>
 9    1  0.3303741E-006  0.1997609E+03  0.7546771E-02  0.1177541E+00
          4   -1    0    0  502    0 -0.00000000000E+00  0.00000000000E+00  0.55307859345E+02  0.55307859345E+02  0.00000000000E+00 0. -1.
         21   -1    0    0  501  502  0.00000000000E+00 -0.00000000000E+00 -0.48133717375E+03  0.48133717375E+03  0.00000000000E+00 0. -1.
         23    2    1    2    0    0 -0.58752088666E+02  0.27382056571E+01 -0.64673311087E+02  0.12374968769E+03  0.87590195479E+02 0.  0.
         23    2    1    2    0    0  0.10429270673E+03 -0.19969633938E+02 -0.20327716338E+03  0.24748739623E+03  0.93019627955E+02 0.  0.
        -11    1    3    3    0    0  0.14678496447E+02 -0.23219626112E+02 -0.13996394859E+02  0.30830315661E+02  0.00000000000E+00 0.  1.
         11    1    3    3    0    0 -0.73430585113E+02  0.25957831769E+02 -0.50676916227E+02  0.92919372030E+02  0.00000000000E+00 0. -1.
        -13    1    4    4    0    0  0.55380022954E+02 -0.30377814139E+02 -0.35587278600E+02  0.72499744360E+02  0.00000000000E+00 0.  1.
         13    1    4    4    0    0  0.48912683772E+02  0.10408180201E+02 -0.16768988478E+03  0.17498765187E+03  0.00000000000E+00 0. -1.
          4    1    1    2  501    0 -0.45540618059E+02  0.17231428281E+02 -0.15807883993E+03  0.16540794917E+03  0.00000000000E+00 0. -1.
<scales pt_clust_5="13000.00000" pt_clust_6="13000.00000" pt_clust_7="13000.00000" pt_clust_8="13000.00000" pt_clust_9="13000.00000"></scales>
<clustering>
<clus scale="   87.590">  5  6 -1 -1</clus>
<clus scale="   93.020">  7  8 -1 -1</clus>
<clus scale="   48.692">  7  9 -1 -1</clus>
<clus scale="  105.505">  1  5  2 -1</clus>
<clus scale="  199.761">  2  5  1 -1</clus>
</clustering>
</event>
<event>
 9    1  0.3303741E-006  0.2306869E+03  0.7546771E-02  0.1140560E+00
         21   -1    0    0  501  502  0.00000000000E+00  0.00000000000E+00  0.32269203666E+03  0.32269203666E+03  0.00000000000E+00 0. -1.
          3   -1    0    0  502    0 -0.00000000000E+00 -0.00000000000E+00 -0.17032346574E+03  0.17032346574E+03  0.00000000000E+00 0. -1.
         23    2    1    2    0    0  0.84023030538E+02 -0.10072383235E+03 -0.66146765177E+02  0.17526496648E+03  0.95588984030E+02 0.  0.
         23    2    1    2    0    0 -0.77550080728E+01  0.21977071763E+02  0.30458403009E+02  0.10007354210E+03  0.92433044316E+02 0.  0.
        -11    1    4    4    0    0  0.29756212713E+02  0.36871249650E+02 -0.32451867015E+01  0.47491604337E+02  0.00000000000E+00 0. -1.
         11    1    4    4    0    0 -0.37511220786E+02 -0.14894177887E+02  0.33703589710E+02  0.52581937765E+02  0.00000000000E+00 0.  1.
        -13    1    3    3    0    0  0.44353420322E+02  0.35297360739E+01  0.20197319883E+01  0.44539468433E+02  0.00000000000E+00 0.  1.
         13    1    3    3    0    0  0.39669610216E+02 -0.10425356842E+03 -0.68166497165E+02  0.13072549805E+03  0.00000000000E+00 0. -1.
          3    1    1    2  501    0 -0.76268022465E+02  0.78746760587E+02  0.18805693309E+03  0.21767699382E+03  0.00000000000E+00 0. -1.
<scales pt_clust_5="13000.00000" pt_clust_6="13000.00000" pt_clust_7="13000.00000" pt_clust_8="13000.00000" pt_clust_9="13000.00000"></scales>
<clustering>
<clus scale="   92.433">  5  6 -1 -1</clus>
<clus scale="   95.589">  7  8 -1 -1</clus>
<clus scale="  109.626">  5  9 -1 -1</clus>
<clus scale="  162.303">  2  7  1 -1</clus>
<clus scale="  230.687">  1  5  2 -1</clus>
</clustering>
</event>
<event>
 9    1  0.3303741E-006  0.8949634E+03  0.7546771E-02  0.9832440E-01
         21   -1    0    0  501  502  0.00000000000E+00  0.00000000000E+00  0.99390678823E+03  0.99390678823E+03  0.00000000000E+00 0.  1.
         -2   -1    0    0    0  501 -0.00000000000E+00 -0.00000000000E+00 -0.50374273637E+03  0.50374273637E+03  0.00000000000E+00 0.  1.
         23    2    1    2    0    0  0.40432737869E+02 -0.20626619226E+03 -0.24800277275E+03  0.33754189201E+03  0.90821832218E+02 0.  0.
         23    2    1    2    0    0  0.33179750908E+03  0.30971474402E+03  0.58103540717E+03  0.74303780397E+03  0.92142411792E+02 0.  0.
        -11    1    4    4    0    0  0.23925458726E+03  0.22037824113E+03  0.47824396327E+03  0.57838275830E+03  0.00000000000E+00 0.  1.
         11    1    4    4    0    0  0.92542921815E+02  0.89336502890E+02  0.10279144389E+03  0.16465504567E+03  0.00000000000E+00 0. -1.
        -11    1    3    3    0    0  0.64765260792E+02 -0.14446814035E+03 -0.20245168427E+03  0.25700635604E+03  0.00000000000E+00 0.  1.
         11    1    3    3    0    0 -0.24332522924E+02 -0.61798051910E+02 -0.45551088479E+02  0.80535535965E+02  0.00000000000E+00 0. -1.
         -2    1    1    2    0  502 -0.37223024695E+03 -0.10344855176E+03  0.15713141744E+03  0.41706982863E+03  0.00000000000E+00 0.  1.
<scales pt_clust_5="13000.00000" pt_clust_6="13000.00000" pt_clust_7="13000.00000" pt_clust_8="13000.00000" pt_clust_9="13000.00000"></scales>
<clustering>
<clus scale="   90.822">  7  8 -1 -1</clus>
<clus scale="   92.142">  5  6 -1 -1</clus>
<clus scale="  228.974">  2  7  1 -1</clus>
<clus scale="  416.859">  5  9 -1 -1</clus>
<clus scale="  894.963">  1  5  2 -1</clus>
</clustering>
</event>
<event>
 9    1  0.3303741E-006  0.2441224E+03  0.7546771E-02  0.1155533E+00
         21   -1    0    0  501  502  0.00000000000E+00  0.00000000000E+00  0.70763949790E+02  0.70763949790E+02  0.00000000000E+00 0.  1.
         -1   -1    0    0    0  501 -0.00000000000E+00 -0.00000000000E+00 -0.47354155265E+03  0.47354155265E+03  0.00000000000E+00 0.  1.
         23    2    1    2    0    0 -0.25876328230E+02 -0.30082404330E+01 -0.21788591186E+03  0.23806920031E+03  0.92325725985E+02 0.  0.
         23    2    1    2    0    0  0.11826417186E+03 -0.37170285337E+00 -0.90948656483E+02  0.17443254117E+03  0.90379758757E+02 0.  0.
        -11    1    4    4    0    0  0.11643702343E+03  0.28142275352E+02 -0.67700773527E+02  0.13759710325E+03  0.00000000000E+00 0.  1.
         11    1    4    4    0    0  0.18271484325E+01 -0.28513978206E+02 -0.23247882956E+02  0.36835437916E+02  0.00000000000E+00 0. -1.
        -13    1    3    3    0    0 -0.43535761071E+02 -0.24698567043E+02 -0.61947326412E+02  0.79642030082E+02  0.00000000000E+00 0.  1.
         13    1    3    3    0    0  0.17659432841E+02  0.21690326610E+02 -0.15593858544E+03  0.15842717023E+03  0.00000000000E+00 0. -1.
         -1    1    1    2    0  502 -0.92387843633E+02  0.33799432864E+01 -0.93943034520E+02  0.13180376096E+03  0.00000000000E+00 0.  1.
<scales pt_clust_5="13000.00000" pt_clust_6="13000.00000" pt_clust_7="13000.00000" pt_clust_8="13000.00000" pt_clust_9="13000.00000"></scales>
<clustering>
<clus scale="   90.380">  5  6 -1 -1</clus>
<clus scale="   92.326">  7  8 -1 -1</clus>
<clus scale="   92.450">  5  9 -1 -1</clus>
<clus scale="   95.931">  2  7  1 -1</clus>
<clus scale="  244.122">  1  5  2 -1</clus>
</clustering>
</event>
<event>
 9    1  0.3303741E-006  0.3693608E+03  0.7546771E-02  0.1099085E+00
         21   -1    0    0  501  502  0.00000000000E+00  0.00000000000E+00  0.39909861236E+03  0.39909861236E+03  0.00000000000E+00 0. -1.
          2   -1    0    0  502    0 -0.00000000000E+00 -0.00000000000E+00 -0.14540770097E+03  0.14540770097E+03  0.00000000000E+00 0. -1.
         23    2    1    2    0    0  0.32424103770E+02  0.55030729771E+02  0.45911489173E+02  0.12071425835E+03  0.91566170645E+02 0.  0.
         23    2    1    2    0    0 -0.34834761955E+02  0.83660455774E+02 -0.42425552001E+02  0.13770887591E+03  0.94611175566E+02 0.  0.
        -11    1    4    4    0    0 -0.10935163200E+02  0.92057909270E+02 -0.54200447993E+01  0.92863412273E+02  0.00000000000E+00 0. -1.
         11    1    4    4    0    0 -0.23899598755E+02 -0.83974534959E+01 -0.37005507202E+02  0.44845463640E+02  0.00000000000E+00 0.  1.
        -13    1    3    3    0    0 -0.27780513036E+02  0.32730335297E+02  0.20878462808E+01  0.42981284942E+02  0.00000000000E+00 0.  1.
         13    1    3    3    0    0  0.60204616806E+02  0.22300394474E+02  0.43823642892E+02  0.77732973408E+02  0.00000000000E+00 0. -1.
          2    1    1    2  501    0  0.24106581843E+01 -0.13869118554E+03  0.25020497422E+03  0.28608317906E+03  0.00000000000E+00 0. -1.
<scales pt_clust_5="13000.00000" pt_clust_6="13000.00000" pt_clust_7="13000.00000" pt_clust_8="13000.00000" pt_clust_9="13000.00000"></scales>
<clustering>
<clus scale="   91.566">  7  8 -1 -1</clus>
<clus scale="   94.611">  5  6 -1 -1</clus>
<clus scale="  111.643">  2  7  1 -1</clus>
<clus scale="  129.785">  5  9 -1 -1</clus>
<clus scale="  369.361">  1  5  2 -1</clus>
</clustering>
</event>
<event>
 9    1  0.3303741E-006  0.1938015E+03  0.7546771E-02  0.1185350E+00
          2   -1    0    0  502    0 -0.00000000000E+00  0.00000000000E+00  0.14459043506E+03  0.14459043506E+03  0.00000000000E+00 0. -1.
         21   -1    0    0  501  502  0.00000000000E+00 -0.00000000000E+00 -0.14720553770E+03  0.14720553770E+03  0.00000000000E+00 0. -1.
         23    2    1    2    0    0 -0.29068888321E+02  0.13592861695E+02 -0.12275551415E+02  0.97753885091E+02  0.91517029730E+02 0.  0.
         23    2    1    2    0    0  0.16407243485E+02  0.59608567050E+02 -0.23780770209E+02  0.11257380213E+03  0.91021739106E+02 0.  0.
        -13    1    3    3    0    0  0.26803465163E+02 -0.15645951944E+02 -0.15338094251E+02  0.34619051002E+02  0.00000000000E+00 0.  1.
         13    1    3    3    0    0 -0.55872353484E+02  0.29238813640E+02  0.30625428359E+01  0.63134834089E+02  0.00000000000E+00 0. -1.
        -13    1    4    4    0    0 -0.16571046039E+02  0.45699579196E+02 -0.48819074414E+02  0.68893781521E+02  0.00000000000E+00 0. -1.
         13    1    4    4    0    0  0.32978289524E+02  0.13908987854E+02  0.25038304205E+02  0.43680020610E+02  0.00000000000E+00 0.  1.
          2    1    1    2  501    0  0.12661644835E+02 -0.73201428745E+02  0.33441218986E+02  0.81468285532E+02  0.00000000000E+00 0. -1.
<scales pt_clust_5="13000.00000" pt_clust_6="13000.00000" pt_clust_7="13000.00000" pt_clust_8="13000.00000" pt_clust_9="13000.00000"></scales>
<clustering>
<clus scale="   91.022">  7  8 -1 -1</clus>
<clus scale="   74.288">  7  9 -1 -1</clus>
<clus scale="   91.517">  5  6 -1 -1</clus>
<clus scale="   96.980">  1  5  2 -1</clus>
<clus scale="  193.801">  2  5  1 -1</clus>
</clustering>
</event>
<event>
 9    1  0.3303741E-006  0.2834322E+03  0.7546771E-02  0.1138867E+00
         21   -1    0    0  501  502  0.00000000000E+00  0.00000000000E+00  0.19552462994E+03  0.19552462994E+03  0.00000000000E+00 0.  1.
         -1   -1    0    0    0  501 -0.00000000000E+00 -0.00000000000E+00 -0.17945414800E+03  0.17945414800E+03  0.00000000000E+00 0.  1.
         23    2    1    2    0    0  0.61039355299E+01  0.37529882524E+01  0.63736228416E+01  0.91380721271E+02  0.90876125589E+02 0.  0.
         23    2    1    2    0    0 -0.16418223687E+02  0.54933903534E+02 -0.10715897434E+03  0.15242709336E+03  0.91998267269E+02 0.  0.
        -11    1    4    4    0    0  0.17265824527E+02  0.17140952807E+02 -0.98006424924E+02  0.10098108875E+03  0.00000000000E+00 0.  1.
         11    1    4    4    0    0 -0.33684048214E+02  0.37792950727E+02 -0.91525494202E+01  0.51446004603E+02  0.00000000000E+00 0. -1.
        -13    1    3    3    0    0  0.12010835325E+02 -0.39936536869E+02  0.18550044039E+02  0.45643085743E+02  0.00000000000E+00 0. -1.
         13    1    3    3    0    0 -0.59068997956E+01  0.43689525121E+02 -0.12176421198E+02  0.45737635528E+02  0.00000000000E+00 0.  1.
         -1    1    1    2    0  502  0.10314288157E+02 -0.58686891786E+02  0.11685583344E+03  0.13117096331E+03  0.00000000000E+00 0.  1.
<scales pt_clust_5="13000.00000" pt_clust_6="13000.00000" pt_clust_7="13000.00000" pt_clust_8="13000.00000" pt_clust_9="13000.00000"></scales>
<clustering>
<clus scale="   90.876">  7  8 -1 -1</clus>
<clus scale="   91.158">  2  7  1 -1</clus>
<clus scale="   91.998">  5  6 -1 -1</clus>
<clus scale="   59.449">  5  9 -1 -1</clus>
<clus scale="  283.432">  1  5  2 -1</clus>
</clustering>
</event>
<event>
 9    1  0.3303741E-006  0.3633063E+03  0.7546771E-02  0.1107108E+00
         21   -1    0    0  501  502  0.00000000000E+00  0.00000000000E+00  0.54372413774E+03  0.54372413774E+03  0.00000000000E+00 0.  1.
         -1   -1    0    0    0  501 -0.00000000000E+00 -0.00000000000E+00 -0.14631295963E+03  0.14631295963E+03  0.00000000000E+00 0.  1.
         23    2    1    2    0    0 -0.22709797078E+02  0.12370697350E+02 -0.54767375481E+02  0.10998802911E+03  0.91810304940E+02 0.  0.
         23    2    1    2    0    0  0.99953014953E+01 -0.92950498034E+02  0.15234482324E+02  0.13555510419E+03  0.96971107466E+02 0.  0.
        -11    1    3    3    0    0 -0.33212798693E+02 -0.20460228921E+02  0.66374216184E+01  0.39569765356E+02  0.00000000000E+00 0.  1.
         11    1    3    3    0    0  0.10503001615E+02  0.32830926271E+02 -0.61404797099E+02  0.70418263750E+02  0.00000000000E+00 0. -1.
        -13    1    4    4    0    0  0.31487300251E+02 -0.16937896020E+02 -0.28083694805E+02  0.45464671038E+02  0.00000000000E+00 0. -1.
         13    1    4    4    0    0 -0.21491998756E+02 -0.76012602015E+02  0.43318177129E+02  0.90090433151E+02  0.00000000000E+00 0.  1.
         -1    1    1    2    0  502  0.12714495583E+02  0.80579800685E+02  0.43694407127E+03  0.44449396407E+03  0.00000000000E+00 0.  1.
<scales pt_clust_5="13000.00000" pt_clust_6="13000.00000" pt_clust_7="13000.00000" pt_clust_8="13000.00000" pt_clust_9="13000.00000"></scales>
<clustering>
<clus scale="   91.810">  5  6 -1 -1</clus>
<clus scale="   95.383">  2  5  1 -1</clus>
<clus scale="   96.971">  7  8 -1 -1</clus>
<clus scale="   82.102">  7  9 -1 -1</clus>
<clus scale="  363.306">  1  5  2 -1</clus>
</clustering>
</event>
<event>
 9    1  0.3303741E-006  0.2151480E+03  0.7546771E-02  0.1165174E+00
          2   -1    0    0  502    0 -0.00000000000E+00  0.00000000000E+00  0.19852104878E+03  0.19852104878E+03  0.00000000000E+00 0. -1.
         21   -1    0    0  501  502  0.00000000000E+00 -0.00000000000E+00 -0.25038266874E+03  0.25038266874E+03  0.00000000000E+00 0. -1.
         23    2    1    2    0    0 -0.58266562833E+02 -0.26750393350E+02  0.12685473938E+03  0.16921063967E+03  0.91812525215E+02 0.  0.
         23    2    1    2    0    0 -0.22555865978E+02  0.60727053297E+02 -0.42829701805E+02  0.11797770408E+03  0.88813361665E+02 0.  0.
        -13    1    3    3    0    0 -0.78276079525E+02 -0.23754138402E+02  0.12432231338E+03  0.14882016436E+03  0.00000000000E+00 0. -1.
         13    1    3    3    0    0  0.20009516692E+02 -0.29962549481E+01  0.25324260040E+01  0.20390475312E+02  0.00000000000E+00 0.  1.
        -13    1    4    4    0    0  0.33711612843E+02  0.14914943401E+02 -0.91440108632E+01  0.37980801885E+02  0.00000000000E+00 0. -1.
         13    1    4    4    0    0 -0.56267478821E+02  0.45812109895E+02 -0.33685690942E+02  0.79996902191E+02  0.00000000000E+00 0.  1.
          2    1    1    2  501    0  0.80822428810E+02 -0.33976659947E+02 -0.13588665753E+03  0.16171537378E+03  0.00000000000E+00 0. -1.
<scales pt_clust_5="13000.00000" pt_clust_6="13000.00000" pt_clust_7="13000.00000" pt_clust_8="13000.00000" pt_clust_9="13000.00000"></scales>
<clustering>
<clus scale="   88.813">  7  8 -1 -1</clus>
<clus scale="   87.674">  7  9 -1 -1</clus>
<clus scale="   91.813">  5  6 -1 -1</clus>
<clus scale="  111.983">  1  5  2 -1</clus>
<clus scale="  215.148">  2  5  1 -1</clus>
</clustering>
</event>
<event>
 9    1  0.3303741E-006  0.2373572E+03  0.7546771E-02  0.1146545E+00
          1   -1    0    0  502    0 -0.00000000000E+00  0.00000000000E+00  0.18684452124E+03  0.18684452124E+03  0.00000000000E+00 0. -1.
         21   -1    0    0  501  502  0.00000000000E+00 -0.00000000000E+00 -0.18839451713E+03  0.18839451713E+03  0.00000000000E+00 0. -1.
         23    2    1    2    0    0  0.87980816109E+01 -0.94414825228E+02 -0.39210675882E+02  0.13491264686E+03  0.87592121309E+02 0.  0.
         23    2    1    2    0    0 -0.42687928406E+02 -0.45234803149E+01  0.79695714754E+02  0.12761324159E+03  0.89950049321E+02 0.  0.
        -13    1    4    4    0    0  0.13500206297E+02 -0.33275064500E+02  0.35994249317E+02  0.50843598136E+02  0.00000000000E+00 0.  1.
         13    1    4    4    0    0 -0.56188134703E+02  0.28751584185E+02  0.43701465437E+02  0.76769643453E+02  0.00000000000E+00 0. -1.
        -13    1    3    3    0    0  0.47518083848E+02 -0.54905326045E+02 -0.31138409369E+02  0.79007364585E+02  0.00000000000E+00 0.  1.
         13    1    3    3    0    0 -0.38720002237E+02 -0.39509499184E+02 -0.80722665136E+01  0.55905282270E+02  0.00000000000E+00 0. -1.
          1    1    1    2  501    0  0.33889846795E+02  0.98938305543E+02 -0.42035034760E+02  0.11271314993E+03  0.00000000000E+00 0. -1.
<scales pt_clust_5="13000.00000" pt_clust_6="13000.00000" pt_clust_7="13000.00000" pt_clust_8="13000.00000" pt_clust_9="13000.00000"></scales>
<clustering>
<clus scale="   87.592">  7  8 -1 -1</clus>
<clus scale="   89.950">  5  6 -1 -1</clus>
<clus scale="  104.582">  5  9 -1 -1</clus>
<clus scale="  129.089">  1  7  2 -1</clus>
<clus scale="  237.357">  2  5  1 -1</clus>
</clustering>
</event>
<event>
 9    1  0.3303741E-006  0.3945242E+03  0.7546771E-02  0.1069954E+00
         21   -1    0    0  501  502  0.00000000000E+00  0.00000000000E+00  0.30114018669E+03  0.30114018669E+03  0.00000000000E+00 0. -1.
         -1   -1    0    0    0  501 -0.00000000000E+00 -0.00000000000E+00 -0.30021313421E+03  0.30021313421E+03  0.00000000000E+00 0.  1.
         23    2    1    2    0    0 -0.15710120758E+03  0.82179834028E+02  0.44605740631E+02  0.20441863977E+03  0.91449404817E+02 0.  0.
         23    2    1    2    0    0 -0.36906690128E+02 -0.65927054059E+02 -0.13533320173E+03  0.18175157982E+03  0.94921446705E+02 0.  0.
        -11    1    3    3    0    0 -0.11896528154E+03  0.10146626748E+03  0.40285829240E+02  0.16146544425E+03  0.00000000000E+00 0. -1.
         11    1    3    3    0    0 -0.38135926043E+02 -0.19286433456E+02  0.43199113912E+01  0.42953195516E+02  0.00000000000E+00 0.  1.
        -13    1    4    4    0    0 -0.50012246222E+02 -0.84627659605E+01 -0.10230360417E+03  0.11418787417E+03  0.00000000000E+00 0. -1.
         13    1    4    4    0    0  0.13105556094E+02 -0.57464288098E+02 -0.33029597555E+02  0.67563705655E+02  0.00000000000E+00 0.  1.
         -1    1    1    2    0  502  0.19400789771E+03 -0.16252779970E+02  0.91654513571E+02  0.21518310131E+03  0.00000000000E+00 0.  1.
<scales pt_clust_5="13000.00000" pt_clust_6="13000.00000" pt_clust_7="13000.00000" pt_clust_8="13000.00000" pt_clust_9="13000.00000"></scales>
<clustering>
<clus scale="   91.449">  5  6 -1 -1</clus>
<clus scale="   94.921">  7  8 -1 -1</clus>
<clus scale="  194.688">  7  9 -1 -1</clus>
<clus scale="  199.493">  2  5  1 -1</clus>
<clus scale="  394.524">  1  5  2 -1</clus>
</clustering>
</event>
<event>
 9    1  0.3303741E-006  0.2293956E+03  0.7546771E-02  0.1149240E+00
          1   -1    0    0  502    0 -0.00000000000E+00  0.00000000000E+00  0.30270321846E+03  0.30270321846E+03  0.00000000000E+00 0. -1.
         21   -1    0    0  501  502  0.00000000000E+00 -0.00000000000E+00 -0.12073960892E+03  0.12073960892E+03  0.00000000000E+00 0. -1.
         23    2    1    2    0    0  0.75898868529E+02  0.58240567560E+02  0.13298748217E+03  0.18887729691E+03  0.94001919772E+02 0.  0.
         23    2    1    2    0    0 -0.45398317913E+01  0.19679637593E+02  0.81162451074E+02  0.12411359555E+03  0.91700288591E+02 0.  0.
        -11    1    3    3    0    0  0.74525256505E+02 -0.79777604054E+00  0.65732712639E+02  0.99375247495E+02  0.00000000000E+00 0. -1.
         11    1    3    3    0    0  0.13736120241E+01  0.59038343600E+02  0.67254769533E+02  0.89502049418E+02  0.00000000000E+00 0.  1.
        -11    1    4    4    0    0 -0.43253623031E+01 -0.20919560961E+02  0.80733165660E+02  0.83511561040E+02  0.00000000000E+00 0.  1.
         11    1    4    4    0    0 -0.21446948815E+00  0.40599198554E+02  0.42928541407E+00  0.40602034510E+02  0.00000000000E+00 0. -1.
          1    1    1    2  501    0 -0.71359036737E+02 -0.77920205153E+02 -0.32186323707E+02  0.11045193493E+03  0.00000000000E+00 0. -1.
<scales pt_clust_5="13000.00000" pt_clust_6="13000.00000" pt_clust_7="13000.00000" pt_clust_8="13000.00000" pt_clust_9="13000.00000"></scales>
<clustering>
<clus scale="   91.700">  7  8 -1 -1</clus>
<clus scale="   94.002">  5  6 -1 -1</clus>
<clus scale="  105.658">  7  9 -1 -1</clus>
<clus scale="  134.123">  1  5  2 -1</clus>
<clus scale="  229.396">  2  5  1 -1</clus>
</clustering>
</event>
<event>
 9    1  0.3303741E-006  0.3506530E+03  0.7546771E-02  0.1107807E+00
          1   -1    0    0  502    0 -0.00000000000E+00  0.00000000000E+00  0.25130779766E+03  0.25130779766E+03  0.00000000000E+00 0. -1.
         21   -1    0    0  501  502  0.00000000000E+00 -0.00000000000E+00 -0.20599307707E+03  0.20599307707E+03  0.00000000000E+00 0. -1.
         23    2    1    2    0    0 -0.44079725399E+02 -0.33558169430E+02  0.47860380672E+01  0.10431352008E+03  0.88256622331E+02 0.  0.
         23    2    1    2    0    0 -0.96062728655E+02 -0.54857201241E+02  0.10157099930E+03  0.17639927567E+03  0.92534729649E+02 0.  0.
        -11    1    4    4    0    0 -0.71679329968E+02 -0.69026714872E+02  0.10863820333E+03  0.14732573751E+03  0.00000000000E+00 0. -1.
         11    1    4    4    0    0 -0.24383398687E+02  0.14169513631E+02 -0.70672040259E+01  0.29073538155E+02  0.00000000000E+00 0.  1.
        -13    1    3    3    0    0  0.15249957396E+02 -0.41402547040E+02  0.54998488322E+01  0.44463248185E+02  0.00000000000E+00 0. -1.
         13    1    3    3    0    0 -0.59329682795E+02  0.78443776102E+01 -0.71381076499E+00  0.59850271900E+02  0.00000000000E+00 0.  1.
          1    1    1    2  501    0  0.14014245405E+03  0.88415370671E+02 -0.61042316782E+02  0.17658807898E+03  0.00000000000E+00 0. -1.
<scales pt_clust_5="13000.00000" pt_clust_6="13000.00000" pt_clust_7="13000.00000" pt_clust_8="13000.00000" pt_clust_9="13000.00000"></scales>
<clustering>
<clus scale="   88.257">  7  8 -1 -1</clus>
<clus scale="   92.535">  5  6 -1 -1</clus>
<clus scale="  104.204">  1  7  2 -1</clus>
<clus scale="  149.505">  5  9 -1 -1</clus>
<clus scale="  350.653">  2  5  1 -1</clus>
</clustering>
</event>
<event>
 9    1  0.3303741E-006  0.2062514E+03  0.7546771E-02  0.1155272E+00
         21   -1    0    0  501  502  0.00000000000E+00  0.00000000000E+00  0.28644962652E+02  0.28644962652E+02  0.00000000000E+00 0. -1.
          2   -1    0    0  502    0 -0.00000000000E+00 -0.00000000000E+00 -0.14139056304E+04  0.14139056304E+04  0.00000000000E+00 0. -1.
         23    2    1    2    0    0 -0.73670464487E+02 -0.10908061769E+03 -0.91724824144E+03  0.93110628504E+03  0.91042073410E+02 0.  0.
         23    2    1    2    0    0  0.74545822003E+02  0.63899948542E+02 -0.43775676476E+03  0.45706173568E+03  0.87373692419E+02 0.  0.
        -11    1    3    3    0    0 -0.29926619754E+02  0.10785943566E+02 -0.15202129836E+03  0.15531392179E+03  0.00000000000E+00 0.  1.
         11    1    3    3    0    0 -0.43743844734E+02 -0.11986656125E+03 -0.76522694308E+03  0.77579236325E+03  0.00000000000E+00 0. -1.
        -11    1    4    4    0    0 -0.19798147185E+02  0.14350576870E+02 -0.68381267288E+02  0.72621645563E+02  0.00000000000E+00 0.  1.
         11    1    4    4    0    0  0.94343969188E+02  0.49549371671E+02 -0.36937549748E+03  0.38444009012E+03  0.00000000000E+00 0. -1.
          2    1    1    2  501    0 -0.87535751591E+00  0.45180669145E+02 -0.30255661499E+02  0.54382572281E+02  0.00000000000E+00 0. -1.
<scales pt_clust_5="13000.00000" pt_clust_6="13000.00000" pt_clust_7="13000.00000" pt_clust_8="13000.00000" pt_clust_9="13000.00000"></scales>
<clustering>
<clus scale="   87.374">  7  8 -1 -1</clus>
<clus scale="   45.189">  7  9 -1 -1</clus>
<clus scale="   91.042">  5  6 -1 -1</clus>
<clus scale="  160.046">  2  5  1 -1</clus>
<clus scale="  206.251">  1  5  2 -1</clus>
</clustering>
</event>
<event>
 9    1  0.3303741E-006  0.2423011E+03  0.7546771E-02  0.1149514E+00
         21   -1    0    0  501  502  0.00000000000E+00  0.00000000000E+00  0.13269110240E+03  0.13269110240E+03  0.00000000000E+00 0.  1.
         -3   -1    0    0    0  501 -0.00000000000E+00 -0.00000000000E+00 -0.28008073341E+03  0.28008073341E+03  0.00000000000E+00 0.  1.
         23    2    1    2    0    0 -0.54322874424E+02  0.36706762640E+02  0.24491531179E+02  0.11569781647E+03  0.92129194761E+02 0.  0.
         23    2    1    2    0    0  0.10145128633E+03 -0.13080871218E+02 -0.19547691967E+03  0.23931564570E+03  0.92721515654E+02 0.  0.
        -11    1    4    4    0    0  0.25238580774E+02 -0.23983307401E+02 -0.67163297129E+01  0.35458342857E+02  0.00000000000E+00 0.  1.
         11    1    4    4    0    0  0.76212705559E+02  0.10902436184E+02 -0.18876058996E+03  0.20385730285E+03  0.00000000000E+00 0. -1.
        -13    1    3    3    0    0 -0.60304397013E+02  0.15604222589E+02 -0.20555580701E+02  0.65594542148E+02  0.00000000000E+00 0.  1.
         13    1    3    3    0    0  0.59815225893E+01  0.21102540052E+02  0.45047111879E+02  0.50103274322E+02  0.00000000000E+00 0. -1.
         -3    1    1    2    0  502 -0.47128411909E+02 -0.23625891422E+02  0.23595757475E+02  0.57758373639E+02  0.00000000000E+00 0.  1.
<scales pt_clust_5="13000.00000" pt_clust_6="13000.00000" pt_clust_7="13000.00000" pt_clust_8="13000.00000" pt_clust_9="13000.00000"></scales>
<clustering>
<clus scale="   92.129">  7  8 -1 -1</clus>
<clus scale="   92.722">  5  6 -1 -1</clus>
<clus scale="   52.719">  5  9 -1 -1</clus>
<clus scale="  113.076">  2  7  1 -1</clus>
<clus scale="  242.301">  1  5  2 -1</clus>
</clustering>
</event>
<event>
 9    1  0.3303741E-006  0.3310757E+03  0.7546771E-02  0.1114777E+00
         21   -1    0    0  501  502  0.00000000000E+00  0.00000000000E+00  0.40949372964E+03  0.40949372964E+03  0.00000000000E+00 0.  1.
         -2   -1    0    0    0  501 -0.00000000000E+00 -0.00000000000E+00 -0.15906732628E+03  0.15906732628E+03  0.00000000000E+00 0.  1.
         23    2    1    2    0    0  0.50787323569E+02  0.30100165858E+00 -0.55635900633E+02  0.11768937207E+03  0.90421192321E+02 0.  0.
         23    2    1    2    0    0 -0.62542462125E+02  0.14623530870E+03  0.16843292461E+03  0.24949412898E+03  0.92635550547E+02 0.  0.
        -11    1    4    4    0    0  0.20184787072E+02  0.62863222362E+02  0.70292488376E+02  0.96437774119E+02  0.00000000000E+00 0. -1.
         11    1    4    4    0    0 -0.82727249198E+02  0.83372086337E+02  0.98140436234E+02  0.15305635486E+03  0.00000000000E+00 0.  1.
        -13    1    3    3    0    0 -0.22170208488E+02  0.32191100665E+01  0.47943719156E+01  0.22909971979E+02  0.00000000000E+00 0. -1.
         13    1    3    3    0    0  0.72957532057E+02 -0.29181084079E+01 -0.60430272549E+02  0.94779400087E+02  0.00000000000E+00 0.  1.
         -2    1    1    2    0  502  0.11755138556E+02 -0.14653631036E+03  0.13762937939E+03  0.20137755487E+03  0.00000000000E+00 0.  1.
<scales pt_clust_5="13000.00000" pt_clust_6="13000.00000" pt_clust_7="13000.00000" pt_clust_8="13000.00000" pt_clust_9="13000.00000"></scales>
<clustering>
<clus scale="   90.421">  7  8 -1 -1</clus>
<clus scale="   92.636">  5  6 -1 -1</clus>
<clus scale="  103.708">  2  7  1 -1</clus>
<clus scale="  150.326">  5  9 -1 -1</clus>
<clus scale="  331.076">  1  5  2 -1</clus>
</clustering>
</event>
<event>
 9    1  0.3303741E-006  0.1601297E+03  0.7546771E-02  0.1209394E+00
         -3   -1    0    0    0  501 -0.00000000000E+00  0.00000000000E+00  0.84392338303E+02  0.84392338303E+02  0.00000000000E+00 0.  1.
         21   -1    0    0  501  502  0.00000000000E+00 -0.00000000000E+00 -0.23332592237E+03  0.23332592237E+03  0.00000000000E+00 0.  1.
         23    2    1    2    0    0 -0.38252746693E+02 -0.28110897086E+02 -0.41314107996E+01  0.10182660730E+03  0.89989411795E+02 0.  0.
         23    2    1    2    0    0  0.91802671755E+01  0.43504770226E+02 -0.44629815898E+02  0.11045597830E+03  0.90729049033E+02 0.  0.
        -13    1    3    3    0    0 -0.24500305988E+02 -0.54405346212E+02 -0.25877944121E+02  0.65037486743E+02  0.00000000000E+00 0. -1.
         13    1    3    3    0    0 -0.13752440704E+02  0.26294449125E+02  0.21746533321E+02  0.36789120561E+02  0.00000000000E+00 0.  1.
        -13    1    4    4    0    0  0.49414829952E+02  0.33075501035E+02 -0.27074153187E+02  0.65336237715E+02  0.00000000000E+00 0.  1.
         13    1    4    4    0    0 -0.40234562777E+02  0.10429269191E+02 -0.17555662711E+02  0.45119740590E+02  0.00000000000E+00 0. -1.
         -3    1    1    2    0  502  0.29072479517E+02 -0.15393873140E+02 -0.10017235737E+03  0.10543567507E+03  0.00000000000E+00 0.  1.
<scales pt_clust_5="13000.00000" pt_clust_6="13000.00000" pt_clust_7="13000.00000" pt_clust_8="13000.00000" pt_clust_9="13000.00000"></scales>
<clustering>
<clus scale="   89.989">  5  6 -1 -1</clus>
<clus scale="   90.729">  7  8 -1 -1</clus>
<clus scale="   32.897">  7  9 -1 -1</clus>
<clus scale="  101.743">  1  5  2 -1</clus>
<clus scale="  160.130">  2  5  1 -1</clus>
</clustering>
</event>
<event>
 9    1  0.3303741E-006  0.1401040E+03  0.7546771E-02  0.1229729E+00
         21   -1    0    0  501  502  0.00000000000E+00  0.00000000000E+00  0.11945049015E+03  0.11945049015E+03  0.00000000000E+00 0.  1.
          3   -1    0    0  502    0 -0.00000000000E+00 -0.00000000000E+00 -0.21748903123E+03  0.21748903123E+03  0.00000000000E+00 0. -1.
         23    2    1    2    0    0 -0.36920841007E+02  0.18296882065E+01 -0.15641915514E+03  0.18515862781E+03  0.91925345249E+02 0.  0.
         23    2    1    2    0    0  0.18739896291E+02  0.31523062587E+02  0.30176778034E+02  0.10446906521E+03  0.93049774125E+02 0.  0.
        -11    1    4    4    0    0  0.60225924406E+01 -0.32628762067E+02  0.18645719772E+02  0.38060091954E+02  0.00000000000E+00 0.  1.
         11    1    4    4    0    0  0.12717303850E+02  0.64151824654E+02  0.11531058262E+02  0.66408973252E+02  0.00000000000E+00 0. -1.
        -13    1    3    3    0    0  0.14189563842E+02 -0.33878369239E+02 -0.57559307460E+02  0.68280022698E+02  0.00000000000E+00 0.  1.
         13    1    3    3    0    0 -0.51110404848E+02  0.35708057445E+02 -0.98859847682E+02  0.11687860512E+03  0.00000000000E+00 0. -1.
          3    1    1    2  501    0  0.18180944716E+02 -0.33352750793E+02  0.28203836027E+02  0.47311828361E+02  0.00000000000E+00 0. -1.
<scales pt_clust_5="13000.00000" pt_clust_6="13000.00000" pt_clust_7="13000.00000" pt_clust_8="13000.00000" pt_clust_9="13000.00000"></scales>
<clustering>
<clus scale="   91.925">  7  8 -1 -1</clus>
<clus scale="   93.050">  5  6 -1 -1</clus>
<clus scale="   37.986">  5  9 -1 -1</clus>
<clus scale="   99.080">  2  7  1 -1</clus>
<clus scale="  140.104">  1  5  2 -1</clus>
</clustering>
</event>
<event>
 9    1  0.3303741E-006  0.2784585E+03  0.7546771E-02  0.1108457E+00
         21   -1    0    0  501  502  0.00000000000E+00  0.00000000000E+00  0.91502092646E+02  0.91502092646E+02  0.00000000000E+00 0. -1.
          1   -1    0    0  502    0 -0.00000000000E+00 -0.00000000000E+00 -0.66085787022E+03  0.66085787022E+03  0.00000000000E+00 0. -1.
         23    2    1    2    0    0  0.18347255574E+03 -0.17222508880E+02 -0.31235639779E+03  0.37343015747E+03  0.89021175830E+02 0.  0.
         23    2    1    2    0    0 -0.35317498906E+02 -0.35595014604E+02 -0.16703260119E+03  0.19772927311E+03  0.93180710404E+02 0.  0.
        -13    1    3    3    0    0  0.16567176321E+03 -0.32543152942E+02 -0.30535320982E+03  0.34892230178E+03  0.00000000000E+00 0. -1.
         13    1    3    3    0    0  0.17800792523E+02  0.15320644062E+02 -0.70031879712E+01  0.24507855693E+02  0.00000000000E+00 0.  1.
        -13    1    4    4    0    0 -0.10196431131E+01  0.30928453983E+02 -0.50866928724E+02  0.59540350819E+02  0.00000000000E+00 0.  1.
         13    1    4    4    0    0 -0.34297855793E+02 -0.66523468587E+02 -0.11616567246E+03  0.13818892229E+03  0.00000000000E+00 0. -1.
          1    1    1    2  501    0 -0.14815505683E+03  0.52817523484E+02 -0.89966778601E+02  0.18120053229E+03  0.00000000000E+00 0. -1.
<scales pt_clust_5="13000.00000" pt_clust_6="13000.00000" pt_clust_7="13000.00000" pt_clust_8="13000.00000" pt_clust_9="13000.00000"></scales>
<clustering>
<clus scale="   89.021">  5  6 -1 -1</clus>
<clus scale="   93.181">  7  8 -1 -1</clus>
<clus scale="  157.288">  7  9 -1 -1</clus>
<clus scale="  204.655">  2  5  1 -1</clus>
<clus scale="  278.458">  1  5  2 -1</clus>
</clustering>
</event>
<event>
 9    1  0.3303741E-006  0.2573307E+03  0.7546771E-02  0.1121310E+00
         21   -1    0    0  501  502  0.00000000000E+00  0.00000000000E+00  0.71244224770E+02  0.71244224770E+02  0.00000000000E+00 0. -1.
          1   -1    0    0  502    0 -0.00000000000E+00 -0.00000000000E+00 -0.10945046404E+04  0.10945046404E+04  0.00000000000E+00 0. -1.
         23    2    1    2    0    0 -0.15133827968E+03  0.56713470940E+02 -0.81037252416E+03  0.83177234215E+03  0.94983727909E+02 0.  0.
         23    2    1    2    0    0  0.63045283929E+01  0.68646580372E+01 -0.11800396861E+03  0.14936903045E+03  0.91100494181E+02 0.  0.
        -11    1    3    3    0    0 -0.13801009784E+02 -0.20436991113E+02 -0.57564425433E+02  0.62624288836E+02  0.00000000000E+00 0.  1.
         11    1    3    3    0    0 -0.13753726990E+03  0.77150462053E+02 -0.75280809872E+03  0.76914805331E+03  0.00000000000E+00 0. -1.
        -13    1    4    4    0    0  0.40543398990E+02 -0.22355446095E+02 -0.54147369688E+02  0.71242338647E+02  0.00000000000E+00 0.  1.
         13    1    4    4    0    0 -0.34238870597E+02  0.29220104133E+02 -0.63856598927E+02  0.78126691801E+02  0.00000000000E+00 0. -1.
          1    1    1    2  501    0  0.14503375129E+03 -0.63578128977E+02 -0.94883922856E+02  0.18460749257E+03  0.00000000000E+00 0. -1.
<scales pt_clust_5="13000.00000" pt_clust_6="13000.00000" pt_clust_7="13000.00000" pt_clust_8="13000.00000" pt_clust_9="13000.00000"></scales>
<clustering>
<clus scale="   91.100">  7  8 -1 -1</clus>
<clus scale="   94.984">  5  6 -1 -1</clus>
<clus scale="  158.357">  7  9 -1 -1</clus>
<clus scale="  187.461">  2  5  1 -1</clus>
<clus scale="  257.331">  1  5  2 -1</clus>
</clustering>
</event>
<event>
 9    1  0.3303741E-006  0.2325543E+03  0.7546771E-02  0.1150487E+00
          2   -1    0    0  502    0 -0.00000000000E+00  0.00000000000E+00  0.16013070531E+03  0.16013070531E+03  0.00000000000E+00 0. -1.
         21   -1    0    0  501  502  0.00000000000E+00 -0.00000000000E+00 -0.26099168286E+03  0.26099168286E+03  0.00000000000E+00 0.  1.
         23    2    1    2    0    0 -0.82159866407E+02 -0.16558172869E+02  0.59716331802E+02  0.13851566334E+03  0.92715327595E+02 0.  0.
         23    2    1    2    0    0  0.63396179696E+02 -0.60904152939E+02 -0.15844203393E+03  0.20287563140E+03  0.91248300008E+02 0.  0.
        -13    1    4    4    0    0  0.44672917097E+02 -0.24205604699E+02 -0.14042851154E+02  0.52714158339E+02  0.00000000000E+00 0. -1.
         13    1    4    4    0    0  0.18723262598E+02 -0.36698548239E+02 -0.14439918277E+03  0.15016147306E+03  0.00000000000E+00 0.  1.
        -13    1    3    3    0    0 -0.92749481764E+02 -0.38610120027E+02  0.46384499320E+02  0.11065590591E+03  0.00000000000E+00 0.  1.
         13    1    3    3    0    0  0.10589615357E+02  0.22051947158E+02  0.13331832482E+02  0.27859757432E+02  0.00000000000E+00 0. -1.
          2    1    1    2  501    0  0.18763686712E+02  0.77462325808E+02 -0.21352754279E+01  0.79731093431E+02  0.00000000000E+00 0. -1.
<scales pt_clust_5="13000.00000" pt_clust_6="13000.00000" pt_clust_7="13000.00000" pt_clust_8="13000.00000" pt_clust_9="13000.00000"></scales>
<clustering>
<clus scale="   91.248">  5  6 -1 -1</clus>
<clus scale="   79.703">  5  9 -1 -1</clus>
<clus scale="   92.715">  7  8 -1 -1</clus>
<clus scale="  124.982">  1  7  2 -1</clus>
<clus scale="  232.554">  2  5  1 -1</clus>
</clustering>
</event>
<event>
 9    1  0.3303741E-006  0.2067566E+03  0.7546771E-02  0.1158774E+00
         21   -1    0    0  501  502  0.00000000000E+00  0.00000000000E+00  0.59242647848E+03  0.59242647848E+03  0.00000000000E+00 0. -1.
          4   -1    0    0  502    0 -0.00000000000E+00 -0.00000000000E+00 -0.72380848222E+02  0.72380848222E+02  0.00000000000E+00 0. -1.
         23    2    1    2    0    0  0.11067594125E+03 -0.98034096396E+01  0.39951030248E+03  0.42548105107E+03  0.95290987076E+02 0.  0.
         23    2    1    2    0    0  0.49189775297E+00  0.73709912541E+01  0.76742670638E+02  0.11981894570E+03  0.91720056570E+02 0.  0.
        -11    1    3    3    0    0  0.48491124181E+01  0.31524332552E+02  0.69691441171E+02  0.76643293291E+02  0.00000000000E+00 0.  1.
         11    1    3    3    0    0  0.10582682883E+03 -0.41327742191E+02  0.32981886131E+03  0.34883775778E+03  0.00000000000E+00 0. -1.
        -13    1    4    4    0    0 -0.15747404150E+02  0.22430842623E+02 -0.10845129932E+02  0.29474400443E+02  0.00000000000E+00 0. -1.
         13    1    4    4    0    0  0.16239301903E+02 -0.15059851369E+02  0.87587800570E+02  0.90344545260E+02  0.00000000000E+00 0.  1.
          4    1    1    2  501    0 -0.11116783900E+03  0.24324183855E+01  0.43792657139E+02  0.11950732993E+03  0.00000000000E+00 0. -1.
<scales pt_clust_5="13000.00000" pt_clust_6="13000.00000" pt_clust_7="13000.00000" pt_clust_8="13000.00000" pt_clust_9="13000.00000"></scales>
<clustering>
<clus scale="   91.720">  7  8 -1 -1</clus>
<clus scale="   95.291">  5  6 -1 -1</clus>
<clus scale="  111.195">  7  9 -1 -1</clus>
<clus scale="  146.375">  2  5  1 -1</clus>
<clus scale="  206.757">  1  5  2 -1</clus>
</clustering>
</event>
<event>
 9    1  0.3303741E-006  0.7991570E+03  0.7546771E-02  0.1017479E+00
         21   -1    0    0  501  502  0.00000000000E+00  0.00000000000E+00  0.44010137621E+03  0.44010137621E+03  0.00000000000E+00 0.  1.
         -1   -1    0    0    0  501 -0.00000000000E+00 -0.00000000000E+00 -0.47107217842E+03  0.47107217842E+03  0.00000000000E+00 0.  1.
         23    2    1    2    0    0 -0.54514847471E+02 -0.89238719005E+01  0.16474701145E+02  0.11060935867E+03  0.94400796406E+02 0.  0.
         23    2    1    2    0    0 -0.13089017887E+03  0.29656153916E+03 -0.23475717181E+03  0.41044099420E+03  0.90938960658E+02 0.  0.
        -11    1    4    4    0    0  0.88757294735E+01  0.62088728971E+02 -0.56559394787E+02  0.84455633190E+02  0.00000000000E+00 0. -1.
         11    1    4    4    0    0 -0.13976590834E+03  0.23447281019E+03 -0.17819777703E+03  0.32598536101E+03  0.00000000000E+00 0.  1.
        -13    1    3    3    0    0 -0.61974159524E+02 -0.31081699736E+02 -0.15456853156E+02  0.71033673822E+02  0.00000000000E+00 0.  1.
         13    1    3    3    0    0  0.74593120526E+01  0.22157827836E+02  0.31931554302E+02  0.39575684843E+02  0.00000000000E+00 0. -1.
         -1    1    1    2    0  502  0.18540502634E+03 -0.28763766726E+03  0.18731166846E+03  0.39012320177E+03  0.00000000000E+00 0.  1.
<scales pt_clust_5="13000.00000" pt_clust_6="13000.00000" pt_clust_7="13000.00000" pt_clust_8="13000.00000" pt_clust_9="13000.00000"></scales>
<clustering>
<clus scale="   90.939">  5  6 -1 -1</clus>
<clus scale="   94.401">  7  8 -1 -1</clus>
<clus scale="  109.376">  2  7  1 -1</clus>
<clus scale="  337.162">  5  9 -1 -1</clus>
<clus scale="  799.157">  1  5  2 -1</clus>
</clustering>
</event>
<event>
 9    1  0.3303741E-006  0.2700254E+03  0.7546771E-02  0.1113691E+00
         21   -1    0    0  501  502  0.00000000000E+00  0.00000000000E+00  0.18188372399E+03  0.18188372399E+03  0.00000000000E+00 0. -1.
          3   -1    0    0  502    0 -0.00000000000E+00 -0.00000000000E+00 -0.39047152115E+03  0.39047152115E+03  0.00000000000E+00 0. -1.
         23    2    1    2    0    0  0.15559449637E+03 -0.79017535155E+02 -0.22879453330E+03  0.30157482976E+03  0.90260851496E+02 0.  0.
         23    2    1    2    0    0 -0.83334164457E+02  0.97127934615E+02 -0.53613271796E+02  0.16590460450E+03  0.90947986409E+02 0.  0.
        -11    1    3    3    0    0  0.39985418720E+01 -0.39562892586E+02 -0.49342035750E+02  0.63370713258E+02  0.00000000000E+00 0.  1.
         11    1    3    3    0    0  0.15159595450E+03 -0.39454642569E+02 -0.17945249755E+03  0.23820411650E+03  0.00000000000E+00 0. -1.
        -11    1    4    4    0    0 -0.52029578344E+02  0.11103747110E+03 -0.44611005876E+02  0.13048578028E+03  0.00000000000E+00 0. -1.
         11    1    4    4    0    0 -0.31304586113E+02 -0.13909536484E+02 -0.90022659197E+01  0.35418824212E+02  0.00000000000E+00 0.  1.
          3    1    1    2  501    0 -0.72260331913E+02 -0.18110399460E+02  0.73820007933E+02  0.10487581088E+03  0.00000000000E+00 0. -1.
<scales pt_clust_5="13000.00000" pt_clust_6="13000.00000" pt_clust_7="13000.00000" pt_clust_8="13000.00000" pt_clust_9="13000.00000"></scales>
<clustering>
<clus scale="   90.261">  5  6 -1 -1</clus>
<clus scale="   90.948">  7  8 -1 -1</clus>
<clus scale="   74.495">  7  9 -1 -1</clus>
<clus scale="  196.470">  2  5  1 -1</clus>
<clus scale="  270.025">  1  5  2 -1</clus>
</clustering>
</event>
<event>
 9    1  0.3303741E-006  0.2500798E+03  0.7546771E-02  0.1125050E+00
          2   -1    0    0  502    0 -0.00000000000E+00  0.00000000000E+00  0.25346832810E+03  0.25346832810E+03  0.00000000000E+00 0. -1.
         21   -1    0    0  501  502  0.00000000000E+00 -0.00000000000E+00 -0.19447506998E+03  0.19447506998E+03  0.00000000000E+00 0.  1.
         23    2    1    2    0    0  0.76280693464E+02 -0.14270735581E+03  0.66828452588E+02  0.19774085460E+03  0.91930788662E+02 0.  0.
         23    2    1    2    0    0 -0.18995173980E+02  0.82148298655E+02  0.62492648060E+02  0.14113817909E+03  0.94368929894E+02 0.  0.
        -11    1    3    3    0    0  0.58458421241E+02 -0.54094923729E+02 -0.84735885573E+01  0.80096501112E+02  0.00000000000E+00 0.  1.
         11    1    3    3    0    0  0.17822272223E+02 -0.88612432078E+02  0.75302041145E+02  0.11764435348E+03  0.00000000000E+00 0. -1.
        -13    1    4    4    0    0 -0.45705698359E+02  0.63285835993E+01  0.24005642514E+02  0.52012812896E+02  0.00000000000E+00 0.  1.
         13    1    4    4    0    0  0.26710524378E+02  0.75819715055E+02  0.38487005545E+02  0.89125366196E+02  0.00000000000E+00 0. -1.
          2    1    1    2  501    0 -0.57285519484E+02  0.60559057152E+02 -0.70327842533E+02  0.10906436440E+03  0.00000000000E+00 0. -1.
<scales pt_clust_5="13000.00000" pt_clust_6="13000.00000" pt_clust_7="13000.00000" pt_clust_8="13000.00000" pt_clust_9="13000.00000"></scales>
<clustering>
<clus scale="   91.931">  5  6 -1 -1</clus>
<clus scale="   94.369">  7  8 -1 -1</clus>
<clus scale="   83.361">  7  9 -1 -1</clus>
<clus scale="  186.106">  1  5  2 -1</clus>
<clus scale="  250.080">  2  5  1 -1</clus>
</clustering>
</event>
<event>
 9    1  0.3303741E-006  0.2020887E+03  0.7546771E-02  0.1157273E+00
         21   -1    0    0  501  502  0.00000000000E+00  0.00000000000E+00  0.65615635127E+02  0.65615635127E+02  0.00000000000E+00 0. -1.
          4   -1    0    0  502    0 -0.00000000000E+00 -0.00000000000E+00 -0.52355434961E+03  0.52355434961E+03  0.00000000000E+00 0. -1.
         23    2    1    2    0    0  0.94819229025E+02 -0.95691620648E+02 -0.25842256031E+03  0.30518661668E+03  0.90603967178E+02 0.  0.
         23    2    1    2    0    0 -0.61535776623E+02  0.29684837256E+02 -0.16902815470E+03  0.20401961521E+03  0.91573167143E+02 0.  0.
        -11    1    3    3    0    0  0.45776980162E+02 -0.27673564979E+02 -0.28843139688E+02  0.60772401783E+02  0.00000000000E+00 0.  1.
         11    1    3    3    0    0  0.49042248862E+02 -0.68018055670E+02 -0.22957942062E+03  0.24441421490E+03  0.00000000000E+00 0. -1.
        -11    1    4    4    0    0  0.71425641503E+00  0.48062549342E+02 -0.57149757946E+02  0.74676727598E+02  0.00000000000E+00 0.  1.
         11    1    4    4    0    0 -0.62250033038E+02 -0.18377712087E+02 -0.11187839676E+03  0.12934288761E+03  0.00000000000E+00 0. -1.
          4    1    1    2  501    0 -0.33283452401E+02  0.66006783393E+02 -0.30487999470E+02  0.79963752847E+02  0.00000000000E+00 0. -1.
<scales pt_clust_5="13000.00000" pt_clust_6="13000.00000" pt_clust_7="13000.00000" pt_clust_8="13000.00000" pt_clust_9="13000.00000"></scales>
<clustering>
<clus scale="   90.604">  5  6 -1 -1</clus>
<clus scale="   91.573">  7  8 -1 -1</clus>
<clus scale="   73.924">  7  9 -1 -1</clus>
<clus scale="  162.347">  2  5  1 -1</clus>
<clus scale="  202.089">  1  5  2 -1</clus>
</clustering>
</event>
<event>
 9    1  0.3303741E-006  0.1772427E+03  0.7546771E-02  0.1179233E+00
         21   -1    0    0  501  502  0.00000000000E+00  0.00000000000E+00  0.28117514394E+03  0.28117514394E+03  0.00000000000E+00 0.  1.
          1   -1    0    0  502    0 -0.00000000000E+00 -0.00000000000E+00 -0.99496515579E+02  0.99496515579E+02  0.00000000000E+00 0. -1.
         23    2    1    2    0    0 -0.66593637852E+02  0.94161070250E+02  0.32432780551E+02  0.14896212975E+03  0.88525765138E+02 0.  0.
         23    2    1    2    0    0  0.28462009828E+02 -0.32245050208E+02  0.96002936050E+02  0.14158504782E+03  0.94762507191E+02 0.  0.
        -11    1    3    3    0    0 -0.13716026300E+02 -0.17163456704E+02  0.75428921225E+01  0.23229482239E+02  0.00000000000E+00 0. -1.
         11    1    3    3    0    0 -0.52877611552E+02  0.11132452695E+03  0.24889888428E+02  0.12573264751E+03  0.00000000000E+00 0.  1.
        -13    1    4    4    0    0 -0.79644417096E+01 -0.48263606986E+02  0.14718185581E+02  0.51082610327E+02  0.00000000000E+00 0. -1.
         13    1    4    4    0    0  0.36426451537E+02  0.16018556778E+02  0.81284750470E+02  0.90502437491E+02  0.00000000000E+00 0.  1.
          1    1    1    2  501    0  0.38131628025E+02 -0.61916020042E+02  0.53242911759E+02  0.90124481947E+02  0.00000000000E+00 0. -1.
<scales pt_clust_5="13000.00000" pt_clust_6="13000.00000" pt_clust_7="13000.00000" pt_clust_8="13000.00000" pt_clust_9="13000.00000"></scales>
<clustering>
<clus scale="   88.526">  5  6 -1 -1</clus>
<clus scale="   94.763">  7  8 -1 -1</clus>
<clus scale="   72.716">  7  9 -1 -1</clus>
<clus scale="  145.389">  2  5  1 -1</clus>
<clus scale="  177.243">  1  5  2 -1</clus>
</clustering>
</event>
<event>
 9    1  0.3303741E-006  0.2742044E+03  0.7546771E-02  0.1132203E+00
          1   -1    0    0  502    0 -0.00000000000E+00  0.00000000000E+00  0.49857029241E+03  0.49857029241E+03  0.00000000000E+00 0. -1.
         21   -1    0    0  501  502  0.00000000000E+00 -0.00000000000E+00 -0.11372571138E+03  0.11372571138E+03  0.00000000000E+00 0. -1.
         23    2    1    2    0    0 -0.40028035532E+02 -0.61932147775E+02  0.30428498094E+03  0.32650255884E+03  0.92610672974E+02 0.  0.
         23    2    1    2    0    0  0.10545206749E+01  0.63409025734E+02  0.16111669213E+03  0.19629170693E+03  0.92466367762E+02 0.  0.
        -11    1    3    3    0    0 -0.39653655796E+02  0.97109261892E+01  0.65318432040E+02  0.77027346246E+02  0.00000000000E+00 0.  1.
         11    1    3    3    0    0 -0.37437973558E+00 -0.71643073965E+02  0.23896654890E+03  0.24947521260E+03  0.00000000000E+00 0. -1.
        -13    1    4    4    0    0  0.26085653341E+01 -0.20870626265E+02  0.10077502126E+02  0.23322600689E+02  0.00000000000E+00 0. -1.
         13    1    4    4    0    0 -0.15540446591E+01  0.84279651998E+02  0.15103919001E+03  0.17296910624E+03  0.00000000000E+00 0.  1.
          1    1    1    2  501    0  0.38973514857E+02 -0.14768779582E+01 -0.80557092047E+02  0.89501738016E+02  0.00000000000E+00 0. -1.
<scales pt_clust_5="13000.00000" pt_clust_6="13000.00000" pt_clust_7="13000.00000" pt_clust_8="13000.00000" pt_clust_9="13000.00000"></scales>
<clustering>
<clus scale="   92.466">  7  8 -1 -1</clus>
<clus scale="   39.002">  7  9 -1 -1</clus>
<clus scale="   92.611">  5  6 -1 -1</clus>
<clus scale="  118.383">  1  5  2 -1</clus>
<clus scale="  274.204">  2  5  1 -1</clus>
</clustering>
</event>
<event>
 9    1  0.3303741E-006  0.3612791E+03  0.7546771E-02  0.1069215E+00
          1   -1    0    0  502    0 -0.00000000000E+00  0.00000000000E+00  0.94691790254E+03  0.94691790254E+03  0.00000000000E+00 0. -1.
         21   -1    0    0  501  502  0.00000000000E+00 -0.00000000000E+00 -0.27105246017E+03  0.27105246017E+03  0.00000000000E+00 0. -1.
         23    2    1    2    0    0  0.41630541322E+02  0.24706637750E+03  0.79461585392E+03  0.83767537676E+03  0.86664783387E+02 0.  0.
         23    2    1    2    0    0 -0.17908304993E+02 -0.29211666640E+03 -0.12122507573E+03  0.32932051205E+03  0.90020144950E+02 0.  0.
        -11    1    4    4    0    0  0.61276308032E+01 -0.43239701211E+02  0.12960557655E+02  0.45554315656E+02  0.00000000000E+00 0.  1.
         11    1    4    4    0    0 -0.24035935796E+02 -0.24887696519E+03 -0.13418563338E+03  0.28376619640E+03  0.00000000000E+00 0. -1.
        -11    1    3    3    0    0  0.26214992993E+02  0.23262741143E+03  0.77207378685E+03  0.80678415376E+03  0.00000000000E+00 0. -1.
         11    1    3    3    0    0  0.15415548329E+02  0.14438966065E+02  0.22542067061E+02  0.30891223005E+02  0.00000000000E+00 0.  1.
          1    1    1    2  501    0 -0.23722236330E+02  0.45050288900E+02  0.24746641770E+01  0.50974473898E+02  0.00000000000E+00 0. -1.
<scales pt_clust_5="13000.00000" pt_clust_6="13000.00000" pt_clust_7="13000.00000" pt_clust_8="13000.00000" pt_clust_9="13000.00000"></scales>
<clustering>
<clus scale="   86.665">  7  8 -1 -1</clus>
<clus scale="   90.020">  5  6 -1 -1</clus>
<clus scale="   50.914">  5  9 -1 -1</clus>
<clus scale="  265.114">  1  7  2 -1</clus>
<clus scale="  361.279">  2  5  1 -1</clus>
</clustering>
</event>
<event>
 9    1  0.3303741E-006  0.2739085E+03  0.7546771E-02  0.1138266E+00
         -1   -1    0    0    0  501 -0.00000000000E+00  0.00000000000E+00  0.20996903799E+03  0.20996903799E+03  0.00000000000E+00 0.  1.
         21   -1    0    0  501  502  0.00000000000E+00 -0.00000000000E+00 -0.17309286398E+03  0.17309286398E+03  0.00000000000E+00 0. -1.
         23    2    1    2    0    0  0.88699052090E+01 -0.49634245126E+02  0.37582730577E+02  0.10915251587E+03  0.89216459105E+02 0.  0.
         23    2    1    2    0    0  0.98637207386E+01  0.13671842479E+03 -0.57906779693E+02  0.16804877674E+03  0.78089535583E+02 0.  0.
        -13    1    4    4    0    0 -0.27174122808E+02  0.37874135223E+02  0.20393248404E+01  0.46658781757E+02  0.00000000000E+00 0.  1.
         13    1    4    4    0    0  0.37037843547E+02  0.98844289563E+02 -0.59946104534E+02  0.12138999499E+03  0.00000000000E+00 0. -1.
        -13    1    3    3    0    0  0.31514789940E+02 -0.62856134487E+02  0.42939622119E+02  0.82388632561E+02  0.00000000000E+00 0.  1.
         13    1    3    3    0    0 -0.22644884731E+02  0.13221889361E+02 -0.53568915417E+01  0.26763883308E+02  0.00000000000E+00 0. -1.
         -1    1    1    2    0  502 -0.18733625948E+02 -0.87084179660E+02  0.57200223119E+02  0.10586060936E+03  0.00000000000E+00 0.  1.
<scales pt_clust_5="13000.00000" pt_clust_6="13000.00000" pt_clust_7="13000.00000" pt_clust_8="13000.00000" pt_clust_9="13000.00000"></scales>
<clustering>
<clus scale="   78.090">  5  6 -1 -1</clus>
<clus scale="   89.076">  5  9 -1 -1</clus>
<clus scale="   89.216">  7  8 -1 -1</clus>
<clus scale="  102.478">  1  7  2 -1</clus>
<clus scale="  273.908">  2  5  1 -1</clus>
</clustering>
</event>
<event>
 9    1  0.3303741E-006  0.3204119E+03  0.7546771E-02  0.1121534E+00
         21   -1    0    0  501  502  0.00000000000E+00  0.00000000000E+00  0.98934145184E+02  0.98934145184E+02  0.00000000000E+00 0.  1.
         -2   -1    0    0    0  501 -0.00000000000E+00 -0.00000000000E+00 -0.49559223020E+03  0.49559223020E+03  0.00000000000E+00 0.  1.
         23    2    1    2    0    0 -0.27900875005E+02  0.27722013470E+01 -0.19033708470E+03  0.21343304064E+03  0.92408403836E+02 0.  0.
         23    2    1    2    0    0  0.13580755361E+03  0.51006521909E+02 -0.19543157407E+03  0.26003722393E+03  0.91545075184E+02 0.  0.
        -11    1    3    3    0    0  0.30220459196E+01  0.41096345119E+02 -0.12499830483E+03  0.13161541913E+03  0.00000000000E+00 0. -1.
         11    1    3    3    0    0 -0.30922920925E+02 -0.38324143772E+02 -0.65338779871E+02  0.81817621510E+02  0.00000000000E+00 0.  1.
        -13    1    4    4    0    0  0.11760307256E+03  0.73830513926E+02 -0.13885685278E+03  0.19637375849E+03  0.00000000000E+00 0.  1.
         13    1    4    4    0    0  0.18204481054E+02 -0.22823992017E+02 -0.56574721292E+02  0.63663465436E+02  0.00000000000E+00 0. -1.
         -2    1    1    2    0  502 -0.10790667860E+03 -0.53778723256E+02 -0.10889426253E+02  0.12105611082E+03  0.00000000000E+00 0.  1.
<scales pt_clust_5="13000.00000" pt_clust_6="13000.00000" pt_clust_7="13000.00000" pt_clust_8="13000.00000" pt_clust_9="13000.00000"></scales>
<clustering>
<clus scale="   91.545">  7  8 -1 -1</clus>
<clus scale="   92.408">  5  6 -1 -1</clus>
<clus scale="   96.568">  2  5  1 -1</clus>
<clus scale="  125.941">  7  9 -1 -1</clus>
<clus scale="  320.412">  1  5  2 -1</clus>
</clustering>
</event>
<event>
 9    1  0.3303741E-006  0.2249359E+03  0.7546771E-02  0.1158179E+00
         21   -1    0    0  501  502  0.00000000000E+00  0.00000000000E+00  0.30170370878E+03  0.30170370878E+03  0.00000000000E+00 0.  1.
         -2   -1    0    0    0  501 -0.00000000000E+00 -0.00000000000E+00 -0.38156018731E+03  0.38156018731E+03  0.00000000000E+00 0.  1.
         23    2    1    2    0    0  0.17157067814E+02  0.36886839073E+02 -0.32840355598E+03  0.34804486381E+03  0.10784863359E+03 0.  0.
         23    2    1    2    0    0 -0.55770955597E+02 -0.10183319004E+03  0.14775054597E+03  0.20924680679E+03  0.92052182144E+02 0.  0.
        -11    1    4    4    0    0 -0.75386762483E+02 -0.71483515396E+02  0.75380346528E+02  0.12835596431E+03  0.00000000000E+00 0.  1.
         11    1    4    4    0    0  0.19615806886E+02 -0.30349674642E+02  0.72370199439E+02  0.80890842482E+02  0.00000000000E+00 0. -1.
        -13    1    3    3    0    0  0.36792597572E+00 -0.34245074501E+02 -0.52948763702E+02  0.63058957132E+02  0.00000000000E+00 0. -1.
         13    1    3    3    0    0  0.16789141838E+02  0.71131913574E+02 -0.27545479228E+03  0.28498590668E+03  0.00000000000E+00 0.  1.
         -2    1    1    2    0  502  0.38613887783E+02  0.64946350965E+02  0.10079653149E+03  0.12597222549E+03  0.00000000000E+00 0.  1.
<scales pt_clust_5="13000.00000" pt_clust_6="13000.00000" pt_clust_7="13000.00000" pt_clust_8="13000.00000" pt_clust_9="13000.00000"></scales>
<clustering>
<clus scale="   92.052">  5  6 -1 -1</clus>
<clus scale="   75.558">  5  9 -1 -1</clus>
<clus scale="  107.849">  7  8 -1 -1</clus>
<clus scale="  115.266">  2  7  1 -1</clus>
<clus scale="  224.936">  1  5  2 -1</clus>
</clustering>
</event>
<event>
 9    1  0.3303741E-006  0.2020057E+03  0.7546771E-02  0.1176348E+00
         21   -1    0    0  501  502  0.00000000000E+00  0.00000000000E+00  0.37988778556E+02  0.37988778556E+02  0.00000000000E+00 0. -1.
         -4   -1    0    0    0  501 -0.00000000000E+00 -0.00000000000E+00 -0.61953389932E+03  0.61953389932E+03  0.00000000000E+00 0.  1.
         23    2    1    2    0    0 -0.82362053245E+01 -0.55574218611E+02 -0.19692146691E+03  0.22307858996E+03  0.88485390423E+02 0.  0.
         23    2    1    2    0    0  0.71928716721E+02  0.38238991791E+02 -0.31849844814E+03  0.34101074842E+03  0.90615165910E+02 0.  0.
        -11    1    3    3    0    0  0.74989455712E+00  0.21662081935E+02 -0.18676771665E+02  0.28611709761E+02  0.00000000000E+00 0.  1.
         11    1    3    3    0    0 -0.89860998816E+01 -0.77236300546E+02 -0.17824469524E+03  0.19446688020E+03  0.00000000000E+00 0. -1.
        -13    1    4    4    0    0  0.83620841182E+02  0.55001638864E+02 -0.24325540640E+03  0.26304147601E+03  0.00000000000E+00 0.  1.
         13    1    4    4    0    0 -0.11692124460E+02 -0.16762647073E+02 -0.75243041732E+02  0.77969272412E+02  0.00000000000E+00 0. -1.
         -4    1    1    2    0  502 -0.63692511397E+02  0.17335226820E+02 -0.66125205722E+02  0.93433339493E+02  0.00000000000E+00 0.  1.
<scales pt_clust_5="13000.00000" pt_clust_6="13000.00000" pt_clust_7="13000.00000" pt_clust_8="13000.00000" pt_clust_9="13000.00000"></scales>
<clustering>
<clus scale="   88.485">  5  6 -1 -1</clus>
<clus scale="   90.615">  7  8 -1 -1</clus>
<clus scale="   66.009">  7  9 -1 -1</clus>
<clus scale="  104.814">  2  5  1 -1</clus>
<clus scale="  202.006">  1  5  2 -1</clus>
</clustering>
</event>
<event>
 9    1  0.3303741E-006  0.4266164E+03  0.7546771E-02  0.1087675E+00
          2   -1    0    0  502    0 -0.00000000000E+00  0.00000000000E+00  0.76817522800E+03  0.76817522800E+03  0.00000000000E+00 0. -1.
         21   -1    0    0  501  502  0.00000000000E+00 -0.00000000000E+00 -0.20482296814E+03  0.20482296814E+03  0.00000000000E+00 0. -1.
         23    2    1    2    0    0 -0.33493370141E+01 -0.40149095367E+02  0.53671759521E+03  0.54555117704E+03  0.89090638344E+02 0.  0.
         23    2    1    2    0    0  0.26620688379E+02  0.50258318948E+02  0.21346274664E+03  0.23890396192E+03  0.90962624985E+02 0.  0.
        -11    1    4    4    0    0 -0.17661652463E+02 -0.17246109479E+02  0.70825907843E+02  0.75004476411E+02  0.00000000000E+00 0. -1.
         11    1    4    4    0    0  0.44282340842E+02  0.67504428427E+02  0.14263683880E+03  0.16389948551E+03  0.00000000000E+00 0.  1.
        -13    1    3    3    0    0  0.35689200811E+02  0.70654326673E+01  0.18648566303E+03  0.19000142607E+03  0.00000000000E+00 0.  1.
         13    1    3    3    0    0 -0.39038537825E+02 -0.47214528034E+02  0.35023193218E+03  0.35554975096E+03  0.00000000000E+00 0. -1.
          2    1    1    2  501    0 -0.23271351365E+02 -0.10109223581E+02 -0.18682808198E+03  0.18854305719E+03  0.00000000000E+00 0. -1.
<scales pt_clust_5="13000.00000" pt_clust_6="13000.00000" pt_clust_7="13000.00000" pt_clust_8="13000.00000" pt_clust_9="13000.00000"></scales>
<clustering>
<clus scale="   89.091">  7  8 -1 -1</clus>
<clus scale="   90.963">  5  6 -1 -1</clus>
<clus scale="   25.372">  5  9 -1 -1</clus>
<clus scale="   97.777">  1  7  2 -1</clus>
<clus scale="  426.616">  2  5  1 -1</clus>
</clustering>
</event>
<event>
 9    1  0.3303741E-006  0.1312728E+03  0.7546771E-02  0.1240112E+00
         21   -1    0    0  501  502  0.00000000000E+00  0.00000000000E+00  0.27810855338E+03  0.27810855338E+03  0.00000000000E+00 0.  1.
          4   -1    0    0  502    0 -0.00000000000E+00 -0.00000000000E+00 -0.11125618616E+03  0.11125618616E+03  0.00000000000E+00 0. -1.
         23    2    1    2    0    0 -0.33416189173E+02 -0.13173179890E+02 -0.69065956553E+02  0.11938323517E+03  0.90510088485E+02 0.  0.
         23    2    1    2    0    0  0.39689207796E+02 -0.15690383837E+02  0.19313450733E+03  0.21799197636E+03  0.91641379704E+02 0.  0.
        -13    1    4    4    0    0 -0.18390440797E+02 -0.92003018494E+01  0.52425695601E+01  0.21221178158E+02  0.00000000000E+00 0. -1.
         13    1    4    4    0    0  0.58079648593E+02 -0.64900819873E+01  0.18789193777E+03  0.19677079820E+03  0.00000000000E+00 0.  1.
        -13    1    3    3    0    0  0.31442509377E+02 -0.36650119525E+01 -0.25833590683E+02  0.40858758132E+02  0.00000000000E+00 0.  1.
         13    1    3    3    0    0 -0.64858698550E+02 -0.95081679379E+01 -0.43232365871E+02  0.78524477037E+02  0.00000000000E+00 0. -1.
          4    1    1    2  501    0 -0.62730186229E+01  0.28863563727E+02  0.42783816444E+02  0.51989528014E+02  0.00000000000E+00 0. -1.
<scales pt_clust_5="13000.00000" pt_clust_6="13000.00000" pt_clust_7="13000.00000" pt_clust_8="13000.00000" pt_clust_9="13000.00000"></scales>
<clustering>
<clus scale="   90.510">  7  8 -1 -1</clus>
<clus scale="   91.641">  5  6 -1 -1</clus>
<clus scale="   29.537">  5  9 -1 -1</clus>
<clus scale="   97.377">  2  7  1 -1</clus>
<clus scale="  131.273">  1  5  2 -1</clus>
</clustering>
</event>
<event>
 9    1  0.3303741E-006  0.2960819E+03  0.7546771E-02  0.1120714E+00
         -3   -1    0    0    0  501 -0.00000000000E+00  0.00000000000E+00  0.12434700727E+03  0.12434700727E+03  0.00000000000E+00 0.  1.
         21   -1    0    0  501  502  0.00000000000E+00 -0.00000000000E+00 -0.38002264258E+03  0.38002264258E+03  0.00000000000E+00 0.  1.
         23    2    1    2    0    0 -0.23166968177E+01  0.85782089432E+02 -0.13697491734E+03  0.18538004630E+03  0.90772791273E+02 0.  0.
         23    2    1    2    0    0 -0.12206169255E+01  0.88100434344E+01  0.65681449999E+02  0.11172897523E+03  0.89945562763E+02 0.  0.
        -13    1    4    4    0    0  0.34554662254E+02 -0.21903797244E+02  0.18082873981E+02  0.44730206222E+02  0.00000000000E+00 0.  1.
         13    1    4    4    0    0 -0.35775279179E+02  0.30713840679E+02  0.47598576018E+02  0.66998769008E+02  0.00000000000E+00 0. -1.
        -13    1    3    3    0    0  0.35681391494E+02  0.55972172183E+02 -0.11395659905E+03  0.13187930931E+03  0.00000000000E+00 0.  1.
         13    1    3    3    0    0 -0.37998088312E+02  0.29809917248E+02 -0.23018318294E+02  0.53500736993E+02  0.00000000000E+00 0. -1.
         -3    1    1    2    0  502  0.35373137432E+01 -0.94592132866E+02 -0.18438216797E+03  0.20726062832E+03  0.00000000000E+00 0.  1.
<scales pt_clust_5="13000.00000" pt_clust_6="13000.00000" pt_clust_7="13000.00000" pt_clust_8="13000.00000" pt_clust_9="13000.00000"></scales>
<clustering>
<clus scale="   89.946">  5  6 -1 -1</clus>
<clus scale="   90.773">  7  8 -1 -1</clus>
<clus scale="   94.658">  5  9 -1 -1</clus>
<clus scale="  124.915">  1  7  2 -1</clus>
<clus scale="  296.082">  2  5  1 -1</clus>
</clustering>
</event>
<event>
 9    1  0.3303741E-006  0.3537491E+03  0.7546771E-02  0.1079238E+00
         -1   -1    0    0    0  501 -0.00000000000E+00  0.00000000000E+00  0.15917482006E+03  0.15917482006E+03  0.00000000000E+00 0.  1.
         21   -1    0    0  501  502  0.00000000000E+00 -0.00000000000E+00 -0.57286985803E+03  0.57286985803E+03  0.00000000000E+00 0.  1.
         23    2    1    2    0    0 -0.15284084107E+03  0.12292313397E+03 -0.42168137697E+02  0.21904305583E+03  0.87927748208E+02 0.  0.
         23    2    1    2    0    0 -0.33721179644E+02 -0.45421993584E+02 -0.26379827366E+03  0.28405343745E+03  0.88862538152E+02 0.  0.
        -11    1    4    4    0    0 -0.12185967321E+02 -0.66474655238E+02 -0.12576812805E+03  0.14277604709E+03  0.00000000000E+00 0.  1.
         11    1    4    4    0    0 -0.21535212323E+02  0.21052661654E+02 -0.13803014560E+03  0.14127739036E+03  0.00000000000E+00 0. -1.
        -13    1    3    3    0    0 -0.13819449566E+03  0.79978584736E+02 -0.59608570877E+02  0.17043319620E+03  0.00000000000E+00 0.  1.
         13    1    3    3    0    0 -0.14646345412E+02  0.42944549237E+02  0.17440433180E+02  0.48609859623E+02  0.00000000000E+00 0. -1.
         -1    1    1    2    0  502  0.18656202071E+03 -0.77501140389E+02 -0.10772862662E+03  0.22894818481E+03  0.00000000000E+00 0.  1.
<scales pt_clust_5="13000.00000" pt_clust_6="13000.00000" pt_clust_7="13000.00000" pt_clust_8="13000.00000" pt_clust_9="13000.00000"></scales>
<clustering>
<clus scale="   87.928">  7  8 -1 -1</clus>
<clus scale="   88.863">  5  6 -1 -1</clus>
<clus scale="  202.019">  5  9 -1 -1</clus>
<clus scale="  214.946">  1  7  2 -1</clus>
<clus scale="  353.749">  2  5  1 -1</clus>
</clustering>
</event>
<event>
 9    1  0.3303741E-006  0.2906096E+03  0.7546771E-02  0.1128440E+00
          2   -1    0    0  502    0 -0.00000000000E+00  0.00000000000E+00  0.60007028258E+03  0.60007028258E+03  0.00000000000E+00 0. -1.
         21   -1    0    0  501  502  0.00000000000E+00 -0.00000000000E+00 -0.66637067108E+02  0.66637067108E+02  0.00000000000E+00 0. -1.
         23    2    1    2    0    0 -0.10968590087E+02  0.60867653347E+02  0.15641070490E+03  0.19068225935E+03  0.89834482408E+02 0.  0.
         23    2    1    2    0    0 -0.41687870109E+02  0.22417682125E+02  0.36258684067E+03  0.37643825149E+03  0.89420966084E+02 0.  0.
        -13    1    4    4    0    0 -0.52414833624E+02 -0.20292681269E+02  0.17758049587E+03  0.18626309406E+03  0.00000000000E+00 0.  1.
         13    1    4    4    0    0  0.10726963515E+02  0.42710363395E+02  0.18500634480E+03  0.19017515743E+03  0.00000000000E+00 0. -1.
        -13    1    3    3    0    0  0.38009259143E+02  0.32588274733E+02  0.93689180835E+02  0.10622787787E+03  0.00000000000E+00 0.  1.
         13    1    3    3    0    0 -0.48977849230E+02  0.28279378614E+02  0.62721524069E+02  0.84454381482E+02  0.00000000000E+00 0. -1.
          2    1    1    2  501    0  0.52656460196E+02 -0.83285335472E+02  0.14435669896E+02  0.99586838842E+02  0.00000000000E+00 0. -1.
<scales pt_clust_5="13000.00000" pt_clust_6="13000.00000" pt_clust_7="13000.00000" pt_clust_8="13000.00000" pt_clust_9="13000.00000"></scales>
<clustering>
<clus scale="   89.421">  5  6 -1 -1</clus>
<clus scale="   89.834">  7  8 -1 -1</clus>
<clus scale="   98.535">  5  9 -1 -1</clus>
<clus scale="  109.066">  1  7  2 -1</clus>
<clus scale="  290.610">  2  5  1 -1</clus>
</clustering>
</event>
<event>
 9    1  0.3303741E-006  0.4756098E+03  0.7546771E-02  0.1051739E+00
          1   -1    0    0  502    0 -0.00000000000E+00  0.00000000000E+00  0.58787951750E+03  0.58787951750E+03  0.00000000000E+00 0. -1.
         21   -1    0    0  501  502  0.00000000000E+00 -0.00000000000E+00 -0.19947135481E+03  0.19947135481E+03  0.00000000000E+00 0.  1.
         23    2    1    2    0    0  0.10047105102E+03  0.13041452783E+03  0.20088782736E+03  0.27610866437E+03  0.93689349419E+02 0.  0.
         23    2    1    2    0    0 -0.17902324905E+03 -0.12733857608E+03  0.29329321319E+03  0.37945521699E+03  0.98493228901E+02 0.  0.
        -11    1    3    3    0    0  0.48340199769E+02  0.25568996199E+02  0.15500637788E+02  0.56840287228E+02  0.00000000000E+00 0. -1.
         11    1    3    3    0    0  0.52130851249E+02  0.10484553163E+03  0.18538718957E+03  0.21926837714E+03  0.00000000000E+00 0.  1.
        -13    1    4    4    0    0 -0.22155863496E+02 -0.29262788454E+02  0.51932203123E+01  0.37069699386E+02  0.00000000000E+00 0.  1.
         13    1    4    4    0    0 -0.15686738555E+03 -0.98075787624E+02  0.28809999288E+03  0.34238551760E+03  0.00000000000E+00 0. -1.
          1    1    1    2  501    0  0.78552198032E+02 -0.30759517486E+01 -0.10577287786E+03  0.13178699096E+03  0.00000000000E+00 0. -1.
<scales pt_clust_5="13000.00000" pt_clust_6="13000.00000" pt_clust_7="13000.00000" pt_clust_8="13000.00000" pt_clust_9="13000.00000"></scales>
<clustering>
<clus scale="   93.689">  5  6 -1 -1</clus>
<clus scale="   98.493">  7  8 -1 -1</clus>
<clus scale="   78.612">  7  9 -1 -1</clus>
<clus scale="  189.420">  1  5  2 -1</clus>
<clus scale="  475.610">  2  5  1 -1</clus>
</clustering>
</event>
<event>
 9    1  0.3303741E-006  0.2208974E+03  0.7546771E-02  0.1162987E+00
          1   -1    0    0  502    0 -0.00000000000E+00  0.00000000000E+00  0.64600629005E+03  0.64600629005E+03  0.00000000000E+00 0. -1.
         21   -1    0    0  501  502  0.00000000000E+00 -0.00000000000E+00 -0.60257178043E+02  0.60257178043E+02  0.00000000000E+00 0. -1.
         23    2    1    2    0    0 -0.82917040934E+01  0.65842878000E+02  0.40936767048E+03  0.42358686962E+03  0.86254910240E+02 0.  0.
         23    2    1    2    0    0 -0.54988535363E+01  0.46822953959E+02  0.78008701768E+02  0.13247351895E+03  0.96131416632E+02 0.  0.
        -11    1    4    4    0    0  0.38228749920E+02  0.11161327660E+02  0.62231721520E+02  0.73883690480E+02  0.00000000000E+00 0.  1.
         11    1    4    4    0    0 -0.43727603456E+02  0.35661626299E+02  0.15776980248E+02  0.58589828469E+02  0.00000000000E+00 0. -1.
        -11    1    3    3    0    0  0.32237670675E+02  0.68799418726E+01  0.19021773784E+03  0.19305281350E+03  0.00000000000E+00 0.  1.
         11    1    3    3    0    0 -0.40529374769E+02  0.58962936127E+02  0.21914993264E+03  0.23053405612E+03  0.00000000000E+00 0. -1.
          1    1    1    2  501    0  0.13790557630E+02 -0.11266583196E+03  0.98372739758E+02  0.15020307952E+03  0.00000000000E+00 0. -1.
<scales pt_clust_5="13000.00000" pt_clust_6="13000.00000" pt_clust_7="13000.00000" pt_clust_8="13000.00000" pt_clust_9="13000.00000"></scales>
<clustering>
<clus scale="   86.255">  7  8 -1 -1</clus>
<clus scale="   96.131">  5  6 -1 -1</clus>
<clus scale="  108.830">  1  7  2 -1</clus>
<clus scale="   77.572">  5  9 -1 -1</clus>
<clus scale="  220.897">  2  5  1 -1</clus>
</clustering>
</event>
<event>
 9    1  0.3303741E-006  0.6107069E+03  0.7546771E-02  0.1001073E+00
         21   -1    0    0  501  502  0.00000000000E+00  0.00000000000E+00  0.14745764384E+04  0.14745764384E+04  0.00000000000E+00 0. -1.
          1   -1    0    0  502    0 -0.00000000000E+00 -0.00000000000E+00 -0.40919287276E+03  0.40919287276E+03  0.00000000000E+00 0. -1.
         23    2    1    2    0    0 -0.37831550724E+03  0.11930566623E+03  0.11924125576E+04  0.12599911099E+04  0.91506417938E+02 0.  0.
         23    2    1    2    0    0  0.19791730500E+03 -0.27834373035E+03 -0.14486616458E+03  0.38262517527E+03  0.93644686286E+02 0.  0.
        -11    1    4    4    0    0  0.17723880010E+03 -0.18086630340E+03 -0.11827882184E+03  0.27949256102E+03  0.00000000000E+00 0.  1.
         11    1    4    4    0    0  0.20678504892E+02 -0.97477426946E+02 -0.26587342740E+02  0.10313261425E+03  0.00000000000E+00 0. -1.
        -13    1    3    3    0    0 -0.33341832583E+03  0.12854513702E+03  0.99184897666E+03  0.10542561476E+04  0.00000000000E+00 0. -1.
         13    1    3    3    0    0 -0.44897181412E+02 -0.92394707888E+01  0.20056358089E+03  0.20573496227E+03  0.00000000000E+00 0.  1.
          1    1    1    2  501    0  0.18039820225E+03  0.15903806412E+03  0.17837172624E+02  0.24115302598E+03  0.00000000000E+00 0. -1.
<scales pt_clust_5="13000.00000" pt_clust_6="13000.00000" pt_clust_7="13000.00000" pt_clust_8="13000.00000" pt_clust_9="13000.00000"></scales>
<clustering>
<clus scale="   91.506">  7  8 -1 -1</clus>
<clus scale="   93.645">  5  6 -1 -1</clus>
<clus scale="  240.493">  5  9 -1 -1</clus>
<clus scale="  407.100">  2  7  1 -1</clus>
<clus scale="  610.707">  1  5  2 -1</clus>
</clustering>
</event>
<event>
 9    1  0.3303741E-006  0.1736828E+03  0.7546771E-02  0.1192146E+00
         21   -1    0    0  501  502  0.00000000000E+00  0.00000000000E+00  0.31668514751E+02  0.31668514751E+02  0.00000000000E+00 0. -1.
          2   -1    0    0  502    0 -0.00000000000E+00 -0.00000000000E+00 -0.75252045027E+03  0.75252045027E+03  0.00000000000E+00 0. -1.
         23    2    1    2    0    0 -0.67318545763E+02  0.26393754451E+02 -0.43071053855E+03  0.44603552448E+03  0.90596380723E+02 0.  0.
         23    2    1    2    0    0  0.30089929979E+02  0.18370473152E+02 -0.10324664521E+03  0.14239988594E+03  0.91514914619E+02 0.  0.
        -13    1    4    4    0    0  0.20568760757E+02 -0.21222598327E+02 -0.96749647080E+02  0.10116307038E+03  0.00000000000E+00 0.  1.
         13    1    4    4    0    0  0.95211692220E+01  0.39593071480E+02 -0.64969981320E+01  0.41236815557E+02  0.00000000000E+00 0. -1.
        -13    1    3    3    0    0 -0.94683886096E+00 -0.28577384001E+02 -0.13650811937E+03  0.13947053465E+03  0.00000000000E+00 0. -1.
         13    1    3    3    0    0 -0.66371706902E+02  0.54971138452E+02 -0.29420241918E+03  0.30656498983E+03  0.00000000000E+00 0.  1.
          2    1    1    2  501    0  0.37228615784E+02 -0.44764227603E+02 -0.18689475176E+03  0.19575355461E+03  0.00000000000E+00 0. -1.
<scales pt_clust_5="13000.00000" pt_clust_6="13000.00000" pt_clust_7="13000.00000" pt_clust_8="13000.00000" pt_clust_9="13000.00000"></scales>
<clustering>
<clus scale="   90.596">  7  8 -1 -1</clus>
<clus scale="   91.515">  5  6 -1 -1</clus>
<clus scale="   58.222">  5  9 -1 -1</clus>
<clus scale="  115.914">  2  7  1 -1</clus>
<clus scale="  173.683">  1  5  2 -1</clus>
</clustering>
</event>
<event>
 9    1  0.3303741E-006  0.4236401E+03  0.7546771E-02  0.1091209E+00
         21   -1    0    0  501  502  0.00000000000E+00  0.00000000000E+00  0.13101219408E+03  0.13101219408E+03  0.00000000000E+00 0. -1.
          1   -1    0    0  502    0 -0.00000000000E+00 -0.00000000000E+00 -0.53585195507E+03  0.53585195507E+03  0.00000000000E+00 0. -1.
         23    2    1    2    0    0 -0.10901284743E+01  0.43081796323E+01 -0.14100150473E+03  0.16778339629E+03  0.90830033260E+02 0.  0.
         23    2    1    2    0    0 -0.44558143921E+02 -0.19631903551E+02 -0.36886698511E+03  0.38354021811E+03  0.93109647070E+02 0.  0.
        -11    1    4    4    0    0 -0.12692431039E+02 -0.53497493488E+02 -0.24834758077E+03  0.25436116152E+03  0.00000000000E+00 0.  1.
         11    1    4    4    0    0 -0.31865712882E+02  0.33865589937E+02 -0.12051940433E+03  0.12917905658E+03  0.00000000000E+00 0. -1.
        -13    1    3    3    0    0  0.40645076508E+02 -0.10221854380E+02 -0.95809961833E+02  0.10457560584E+03  0.00000000000E+00 0.  1.
         13    1    3    3    0    0 -0.41735204983E+02  0.14530034012E+02 -0.45191542895E+02  0.63207790442E+02  0.00000000000E+00 0. -1.
          1    1    1    2  501    0  0.45648272395E+02  0.15323723918E+02  0.10502872885E+03  0.11554053475E+03  0.00000000000E+00 0. -1.
<scales pt_clust_5="13000.00000" pt_clust_6="13000.00000" pt_clust_7="13000.00000" pt_clust_8="13000.00000" pt_clust_9="13000.00000"></scales>
<clustering>
<clus scale="   90.830">  7  8 -1 -1</clus>
<clus scale="   90.939">  2  7  1 -1</clus>
<clus scale="   93.110">  5  6 -1 -1</clus>
<clus scale="   48.156">  5  9 -1 -1</clus>
<clus scale="  423.640">  1  5  2 -1</clus>
</clustering>
</event>
<event>
 9    1  0.3303741E-006  0.2800156E+03  0.7546771E-02  0.1121756E+00
         21   -1    0    0  501  502  0.00000000000E+00  0.00000000000E+00  0.12208737627E+03  0.12208737627E+03  0.00000000000E+00 0. -1.
          1   -1    0    0  502    0 -0.00000000000E+00 -0.00000000000E+00 -0.38863318747E+03  0.38863318747E+03  0.00000000000E+00 0. -1.
         23    2    1    2    0    0 -0.10335362538E+03  0.40189092434E+02 -0.14870645493E+03  0.20691991406E+03  0.91679365540E+02 0.  0.
         23    2    1    2    0    0  0.12484182050E+02 -0.54022879554E+02 -0.16772569549E+03  0.19921921615E+03  0.92098104433E+02 0.  0.
        -11    1    3    3    0    0 -0.65797355812E+02 -0.19262510461E+02 -0.10051851160E+03  0.12167295310E+03  0.00000000000E+00 0.  1.
         11    1    3    3    0    0 -0.37556269567E+02  0.59451602895E+02 -0.48187943333E+02  0.85246960962E+02  0.00000000000E+00 0. -1.
        -13    1    4    4    0    0 -0.28429597738E+02 -0.21264759557E+02 -0.16463759636E+02  0.39134222975E+02  0.00000000000E+00 0.  1.
         13    1    4    4    0    0  0.40913779788E+02 -0.32758119997E+02 -0.15126193585E+03  0.16008499318E+03  0.00000000000E+00 0. -1.
          1    1    1    2  501    0  0.90869443329E+02  0.13833787120E+02  0.49886339220E+02  0.10458143352E+03  0.00000000000E+00 0. -1.
<scales pt_clust_5="13000.00000" pt_clust_6="13000.00000" pt_clust_7="13000.00000" pt_clust_8="13000.00000" pt_clust_9="13000.00000"></scales>
<clustering>
<clus scale="   91.679">  5  6 -1 -1</clus>
<clus scale="   92.098">  7  8 -1 -1</clus>
<clus scale="   91.916">  7  9 -1 -1</clus>
<clus scale="  143.883">  2  5  1 -1</clus>
<clus scale="  280.016">  1  5  2 -1</clus>
</clustering>
</event>
<event>
 9    1  0.3303741E-006  0.1893821E+03  0.7546771E-02  0.1169447E+00
          2   -1    0    0  502    0 -0.00000000000E+00  0.00000000000E+00  0.62435050914E+03  0.62435050914E+03  0.00000000000E+00 0. -1.
         21   -1    0    0  501  502  0.00000000000E+00 -0.00000000000E+00 -0.50800307738E+02  0.50800307738E+02  0.00000000000E+00 0.  1.
         23    2    1    2    0    0 -0.27657978075E+02  0.11383346661E+03  0.15059619754E+03  0.21173345380E+03  0.91808599125E+02 0.  0.
         23    2    1    2    0    0  0.39666368139E+00 -0.24746591074E+02  0.19282155581E+03  0.21514212408E+03  0.92159807157E+02 0.  0.
        -11    1    3    3    0    0  0.20177857683E+02  0.12571358923E+02  0.69524487148E+02  0.73476794425E+02  0.00000000000E+00 0. -1.
         11    1    3    3    0    0 -0.47835835758E+02  0.10126210768E+03  0.81071710393E+02  0.13825665937E+03  0.00000000000E+00 0.  1.
        -11    1    4    4    0    0  0.10398184349E+02  0.27080880914E+02  0.12948367770E+03  0.13269332741E+03  0.00000000000E+00 0.  1.
         11    1    4    4    0    0 -0.10001520667E+02 -0.51827471987E+02  0.63337878117E+02  0.82448796672E+02  0.00000000000E+00 0. -1.
          2    1    1    2  501    0  0.27261314394E+02 -0.89086875534E+02  0.23013244805E+03  0.24827523900E+03  0.00000000000E+00 0. -1.
<scales pt_clust_5="13000.00000" pt_clust_6="13000.00000" pt_clust_7="13000.00000" pt_clust_8="13000.00000" pt_clust_9="13000.00000"></scales>
<clustering>
<clus scale="   91.809">  5  6 -1 -1</clus>
<clus scale="   92.160">  7  8 -1 -1</clus>
<clus scale="   93.165">  7  9 -1 -1</clus>
<clus scale="  148.835">  1  5  2 -1</clus>
<clus scale="  189.382">  2  5  1 -1</clus>
</clustering>
</event>
<event>
 9    1  0.3303741E-006  0.2468400E+03  0.7546771E-02  0.1124664E+00
         21   -1    0    0  501  502  0.00000000000E+00  0.00000000000E+00  0.22304092464E+03  0.22304092464E+03  0.00000000000E+00 0. -1.
          1   -1    0    0  502    0 -0.00000000000E+00 -0.00000000000E+00 -0.33344308176E+03  0.33344308176E+03  0.00000000000E+00 0. -1.
         23    2    1    2    0    0  0.15952772338E+03  0.61335803772E+02 -0.21311362344E+03  0.28912727851E+03  0.94688918739E+02 0.  0.
         23    2    1    2    0    0 -0.29392826482E+02  0.13420613689E+02  0.47460231555E+02  0.10743076913E+03  0.90801131358E+02 0.  0.
        -11    1    4    4    0    0  0.31749256161E+02 -0.41696357791E+01  0.22263877020E+02  0.39001042926E+02  0.00000000000E+00 0. -1.
         11    1    4    4    0    0 -0.61142082644E+02  0.17590249468E+02  0.25196354535E+02  0.68429726203E+02  0.00000000000E+00 0.  1.
        -13    1    3    3    0    0  0.10275197333E+03  0.25394165140E+01 -0.16467079641E+03  0.19411565586E+03  0.00000000000E+00 0. -1.
         13    1    3    3    0    0  0.56775750047E+02  0.58796387258E+02 -0.48442827034E+02  0.95011622652E+02  0.00000000000E+00 0.  1.
          1    1    1    2  501    0 -0.13013489690E+03 -0.74756417461E+02  0.55251234766E+02  0.15992595876E+03  0.00000000000E+00 0. -1.
<scales pt_clust_5="13000.00000" pt_clust_6="13000.00000" pt_clust_7="13000.00000" pt_clust_8="13000.00000" pt_clust_9="13000.00000"></scales>
<clustering>
<clus scale="   90.801">  5  6 -1 -1</clus>
<clus scale="   94.689">  7  8 -1 -1</clus>
<clus scale="  150.079">  5  9 -1 -1</clus>
<clus scale="  195.390">  2  7  1 -1</clus>
<clus scale="  246.840">  1  5  2 -1</clus>
</clustering>
</event>
<event>
 9    1  0.3303741E-006  0.2114850E+03  0.7546771E-02  0.1168538E+00
         21   -1    0    0  501  502  0.00000000000E+00  0.00000000000E+00  0.34713480132E+02  0.34713480132E+02  0.00000000000E+00 0.  1.
         -1   -1    0    0    0  501 -0.00000000000E+00 -0.00000000000E+00 -0.84139383918E+03  0.84139383918E+03  0.00000000000E+00 0.  1.
         23    2    1    2    0    0  0.43990391091E+02  0.31505525253E+02 -0.43492966440E+03  0.44841058187E+03  0.94765417368E+02 0.  0.
         23    2    1    2    0    0 -0.69191134995E+01 -0.86820407179E+02 -0.28583404761E+03  0.31899675574E+03  0.11167887070E+03 0.  0.
        -13    1    4    4    0    0 -0.40196785260E+02 -0.87083557668E+02 -0.14196046265E+03  0.17132454732E+03  0.00000000000E+00 0.  1.
         13    1    4    4    0    0  0.33277671761E+02  0.26315048926E+00 -0.14387358497E+03  0.14767220841E+03  0.00000000000E+00 0. -1.
        -13    1    3    3    0    0  0.52808491472E+02 -0.19229837209E+02 -0.19059714029E+03  0.19871032509E+03  0.00000000000E+00 0. -1.
         13    1    3    3    0    0 -0.88181003815E+01  0.50735362462E+02 -0.24433252410E+03  0.24970025677E+03  0.00000000000E+00 0.  1.
         -1    1    1    2    0  502 -0.37071277591E+02  0.55314881926E+02 -0.85916647038E+02  0.10869998171E+03  0.00000000000E+00 0.  1.
<scales pt_clust_5="13000.00000" pt_clust_6="13000.00000" pt_clust_7="13000.00000" pt_clust_8="13000.00000" pt_clust_9="13000.00000"></scales>
<clustering>
<clus scale="   94.765">  7  8 -1 -1</clus>
<clus scale="  109.125">  2  7  1 -1</clus>
<clus scale="  111.679">  5  6 -1 -1</clus>
<clus scale="   68.279">  5  9 -1 -1</clus>
<clus scale="  211.485">  1  5  2 -1</clus>
</clustering>
</event>
<event>
 9    1  0.3303741E-006  0.2361007E+03  0.7546771E-02  0.1141401E+00
         -3   -1    0    0    0  501 -0.00000000000E+00  0.00000000000E+00  0.69670671641E+03  0.69670671641E+03  0.00000000000E+00 0.  1.
         21   -1    0    0  501  502  0.00000000000E+00 -0.00000000000E+00 -0.53420836098E+02  0.53420836098E+02  0.00000000000E+00 0. -1.
         23    2    1    2    0    0  0.22651719664E+02 -0.11563384020E+03  0.21785457093E+03  0.26357299515E+03  0.90143354143E+02 0.  0.
         23    2    1    2    0    0  0.38738231086E+02  0.15336535862E+02  0.28743505384E+03  0.30525027761E+03  0.93930622946E+02 0.  0.
        -11    1    4    4    0    0 -0.30207812892E+02  0.59933837109E+01  0.12100129427E+03  0.12485890366E+03  0.00000000000E+00 0. -1.
         11    1    4    4    0    0  0.68946043978E+02  0.93431521506E+01  0.16643375956E+03  0.18039137395E+03  0.00000000000E+00 0.  1.
        -11    1    3    3    0    0  0.35042050788E+02 -0.61260191575E+02  0.18692167445E+03  0.19980107300E+03  0.00000000000E+00 0.  1.
         11    1    3    3    0    0 -0.12390331125E+02 -0.54373648620E+02  0.30932896483E+02  0.63771922149E+02  0.00000000000E+00 0. -1.
         -3    1    1    2    0  502 -0.61389950749E+02  0.10029730433E+03  0.13799625554E+03  0.18130427975E+03  0.00000000000E+00 0.  1.
<scales pt_clust_5="13000.00000" pt_clust_6="13000.00000" pt_clust_7="13000.00000" pt_clust_8="13000.00000" pt_clust_9="13000.00000"></scales>
<clustering>
<clus scale="   90.143">  7  8 -1 -1</clus>
<clus scale="   93.931">  5  6 -1 -1</clus>
<clus scale="  117.594">  5  9 -1 -1</clus>
<clus scale="  148.358">  1  7  2 -1</clus>
<clus scale="  236.101">  2  5  1 -1</clus>
</clustering>
</event>
<event>
 9    1  0.3303741E-006  0.3181684E+03  0.7546771E-02  0.1120408E+00
          1   -1    0    0  502    0 -0.00000000000E+00  0.00000000000E+00  0.38765818007E+02  0.38765818007E+02  0.00000000000E+00 0. -1.
         21   -1    0    0  501  502  0.00000000000E+00 -0.00000000000E+00 -0.11475141139E+04  0.11475141139E+04  0.00000000000E+00 0. -1.
         23    2    1    2    0    0  0.44632060455E+02  0.44535858302E+01 -0.21887381655E+03  0.24123617627E+03  0.90979612663E+02 0.  0.
         23    2    1    2    0    0 -0.13134806039E+03  0.90912746117E+02 -0.58939166687E+03  0.61808149099E+03  0.95523568589E+02 0.  0.
        -13    1    3    3    0    0  0.66971501588E+02 -0.12908928170E+02 -0.11622338925E+03  0.13475792615E+03  0.00000000000E+00 0.  1.
         13    1    3    3    0    0 -0.22339441133E+02  0.17362514001E+02 -0.10265042730E+03  0.10647825012E+03  0.00000000000E+00 0. -1.
        -13    1    4    4    0    0 -0.79738340387E+02  0.15561053459E+02 -0.39547192000E+03  0.40373058940E+03  0.00000000000E+00 0.  1.
         13    1    4    4    0    0 -0.51609720004E+02  0.75351692658E+02 -0.19391974687E+03  0.21435090159E+03  0.00000000000E+00 0. -1.
          1    1    1    2  501    0  0.86715999936E+02 -0.95366331947E+02 -0.30048281247E+03  0.32696226465E+03  0.00000000000E+00 0. -1.
<scales pt_clust_5="13000.00000" pt_clust_6="13000.00000" pt_clust_7="13000.00000" pt_clust_8="13000.00000" pt_clust_9="13000.00000"></scales>
<clustering>
<clus scale="   90.980">  5  6 -1 -1</clus>
<clus scale="   95.524">  7  8 -1 -1</clus>
<clus scale="  101.435">  1  5  2 -1</clus>
<clus scale="  142.778">  7  9 -1 -1</clus>
<clus scale="  318.168">  2  5  1 -1</clus>
</clustering>
</event>
<event>
 9    1  0.3303741E-006  0.3182572E+03  0.7546771E-02  0.1098259E+00
          1   -1    0    0  502    0 -0.00000000000E+00  0.00000000000E+00  0.92625204599E+02  0.92625204599E+02  0.00000000000E+00 0. -1.
         21   -1    0    0  501  502  0.00000000000E+00 -0.00000000000E+00 -0.79599601628E+03  0.79599601628E+03  0.00000000000E+00 0. -1.
         23    2    1    2    0    0 -0.15196006957E+03  0.25609415186E+02 -0.95008393371E+02  0.20204094193E+03  0.89700850131E+02 0.  0.
         23    2    1    2    0    0  0.69771919165E+02 -0.56748112133E+02 -0.57948514698E+03  0.59406861852E+03  0.95005363061E+02 0.  0.
        -11    1    3    3    0    0 -0.11659782632E+03 -0.19853099313E+02 -0.79098626842E+02  0.14228770651E+03  0.00000000000E+00 0. -1.
         11    1    3    3    0    0 -0.35362243253E+02  0.45462514499E+02 -0.15909766529E+02  0.59753235422E+02  0.00000000000E+00 0.  1.
        -11    1    4    4    0    0  0.73240740745E+02 -0.28580009173E+01 -0.39905695792E+03  0.40573246103E+03  0.00000000000E+00 0.  1.
         11    1    4    4    0    0 -0.34688215798E+01 -0.53890111215E+02 -0.18042818906E+03  0.18833615749E+03  0.00000000000E+00 0. -1.
          1    1    1    2  501    0  0.82188150409E+02  0.31138696946E+02 -0.28877271333E+02  0.92511660426E+02  0.00000000000E+00 0. -1.
<scales pt_clust_5="13000.00000" pt_clust_6="13000.00000" pt_clust_7="13000.00000" pt_clust_8="13000.00000" pt_clust_9="13000.00000"></scales>
<clustering>
<clus scale="   89.701">  5  6 -1 -1</clus>
<clus scale="   95.005">  7  8 -1 -1</clus>
<clus scale="   87.889">  7  9 -1 -1</clus>
<clus scale="  178.309">  1  5  2 -1</clus>
<clus scale="  318.257">  2  5  1 -1</clus>
</clustering>
</event>
<event>
 9    1  0.3303741E-006  0.1356585E+03  0.7546771E-02  0.1234533E+00
          2   -1    0    0  502    0 -0.00000000000E+00  0.00000000000E+00  0.45711437808E+03  0.45711437808E+03  0.00000000000E+00 0. -1.
         21   -1    0    0  501  502  0.00000000000E+00 -0.00000000000E+00 -0.30802508900E+02  0.30802508900E+02  0.00000000000E+00 0. -1.
         23    2    1    2    0    0 -0.34362024674E+02  0.22021820097E+02  0.21735412482E+03  0.23878524548E+03  0.90054808759E+02 0.  0.
         23    2    1    2    0    0  0.13237625142E+02 -0.32268382124E+02  0.20245592005E+03  0.22476966276E+03  0.91194947931E+02 0.  0.
        -11    1    3    3    0    0  0.10949557641E+02 -0.25847797414E+02  0.10338370388E+03  0.10712698853E+03  0.00000000000E+00 0. -1.
         11    1    3    3    0    0 -0.45311582315E+02  0.47869617511E+02  0.11397042094E+03  0.13165825694E+03  0.00000000000E+00 0.  1.
        -11    1    4    4    0    0  0.38092029395E+02  0.10223153008E+02  0.45195277681E+02  0.59984403686E+02  0.00000000000E+00 0.  1.
         11    1    4    4    0    0 -0.24854404253E+02 -0.42491535132E+02  0.15726064237E+03  0.16478525907E+03  0.00000000000E+00 0. -1.
          2    1    1    2  501    0  0.21124399533E+02  0.10246562026E+02  0.65018243041E+01  0.24361978743E+02  0.00000000000E+00 0. -1.
<scales pt_clust_5="13000.00000" pt_clust_6="13000.00000" pt_clust_7="13000.00000" pt_clust_8="13000.00000" pt_clust_9="13000.00000"></scales>
<clustering>
<clus scale="   90.055">  5  6 -1 -1</clus>
<clus scale="   91.195">  7  8 -1 -1</clus>
<clus scale="   23.478">  7  9 -1 -1</clus>
<clus scale="   98.872">  1  5  2 -1</clus>
<clus scale="  135.659">  2  5  1 -1</clus>
</clustering>
</event>
<event>
 9    1  0.3303741E-006  0.1908762E+03  0.7546771E-02  0.1182669E+00
          1   -1    0    0  502    0 -0.00000000000E+00  0.00000000000E+00  0.35958848326E+03  0.35958848326E+03  0.00000000000E+00 0. -1.
         21   -1    0    0  501  502  0.00000000000E+00 -0.00000000000E+00 -0.64976616796E+02  0.64976616796E+02  0.00000000000E+00 0.  1.
         23    2    1    2    0    0  0.24366664359E+02 -0.49423956290E+02  0.64520408856E+02  0.12560725658E+03  0.92616618159E+02 0.  0.
         23    2    1    2    0    0  0.15567971163E+02 -0.68638069450E+01  0.20341186435E+03  0.22496535669E+03  0.94570352535E+02 0.  0.
        -11    1    4    4    0    0  0.53410302740E+02 -0.46153291978E+01  0.15135028256E+03  0.16056422308E+03  0.00000000000E+00 0.  1.
         11    1    4    4    0    0 -0.37842331577E+02 -0.22484777473E+01  0.52061581797E+02  0.64401133612E+02  0.00000000000E+00 0. -1.
        -13    1    3    3    0    0  0.48516525738E+02 -0.21829374961E+02  0.21365808577E+01  0.53244153281E+02  0.00000000000E+00 0.  1.
         13    1    3    3    0    0 -0.24149861378E+02 -0.27594581329E+02  0.62383827998E+02  0.72363103299E+02  0.00000000000E+00 0. -1.
          1    1    1    2  501    0 -0.39934635522E+02  0.56287763235E+02  0.26679593250E+02  0.73992486783E+02  0.00000000000E+00 0. -1.
<scales pt_clust_5="13000.00000" pt_clust_6="13000.00000" pt_clust_7="13000.00000" pt_clust_8="13000.00000" pt_clust_9="13000.00000"></scales>
<clustering>
<clus scale="   92.617">  7  8 -1 -1</clus>
<clus scale="   94.570">  5  6 -1 -1</clus>
<clus scale="   69.015">  5  9 -1 -1</clus>
<clus scale="  107.770">  1  7  2 -1</clus>
<clus scale="  190.876">  2  5  1 -1</clus>
</clustering>
</event>
<event>
 9    1  0.3303741E-006  0.2621171E+03  0.7546771E-02  0.1143813E+00
          3   -1    0    0  502    0 -0.00000000000E+00  0.00000000000E+00  0.22588621722E+03  0.22588621722E+03  0.00000000000E+00 0. -1.
         21   -1    0    0  501  502  0.00000000000E+00 -0.00000000000E+00 -0.15871132905E+03  0.15871132905E+03  0.00000000000E+00 0. -1.
         23    2    1    2    0    0 -0.28884233376E+02 -0.33730032279E+02  0.67317376478E+02  0.12248037195E+03  0.92183503526E+02 0.  0.
         23    2    1    2    0    0 -0.61268931416E+01 -0.12188144685E+02  0.10637985362E+03  0.14095089483E+03  0.91457048980E+02 0.  0.
        -13    1    3    3    0    0 -0.41399567118E+02  0.19436546920E+02  0.18886753436E+02  0.49481440653E+02  0.00000000000E+00 0.  1.
         13    1    3    3    0    0  0.12515333743E+02 -0.53166579200E+02  0.48430623042E+02  0.72998931299E+02  0.00000000000E+00 0. -1.
        -13    1    4    4    0    0  0.39599336900E+02  0.11051249619E+02  0.44743454047E+02  0.60763593385E+02  0.00000000000E+00 0.  1.
         13    1    4    4    0    0 -0.45726230041E+02 -0.23239394305E+02  0.61636399573E+02  0.80187301450E+02  0.00000000000E+00 0. -1.
          3    1    1    2  501    0  0.35011126517E+02  0.45918176965E+02 -0.10652234193E+03  0.12116627949E+03  0.00000000000E+00 0. -1.
<scales pt_clust_5="13000.00000" pt_clust_6="13000.00000" pt_clust_7="13000.00000" pt_clust_8="13000.00000" pt_clust_9="13000.00000"></scales>
<clustering>
<clus scale="   91.457">  7  8 -1 -1</clus>
<clus scale="   57.743">  7  9 -1 -1</clus>
<clus scale="   92.184">  5  6 -1 -1</clus>
<clus scale="  102.322">  1  5  2 -1</clus>
<clus scale="  262.117">  2  5  1 -1</clus>
</clustering>
</event>
<event>
 9    1  0.3303741E-006  0.2057236E+03  0.7546771E-02  0.1163263E+00
         21   -1    0    0  501  502  0.00000000000E+00  0.00000000000E+00  0.57841224064E+03  0.57841224064E+03  0.00000000000E+00 0. -1.
         -3   -1    0    0    0  501 -0.00000000000E+00 -0.00000000000E+00 -0.52489703360E+02  0.52489703360E+02  0.00000000000E+00 0.  1.
         23    2    1    2    0    0 -0.27161462729E+02 -0.94515587231E+02  0.27940210628E+03  0.30981860470E+03  0.90835508135E+02 0.  0.
         23    2    1    2    0    0  0.32391849927E+02 -0.13803583554E+02  0.10169375145E+03  0.14015471575E+03  0.89788386791E+02 0.  0.
        -11    1    3    3    0    0  0.33772912896E+01 -0.55553434314E+02  0.24050584301E+03  0.24686160229E+03  0.00000000000E+00 0. -1.
         11    1    3    3    0    0 -0.30538754019E+02 -0.38962152917E+02  0.38896263271E+02  0.62957002417E+02  0.00000000000E+00 0.  1.
        -13    1    4    4    0    0  0.15438152703E+00 -0.43628471937E+02  0.80109404395E+02  0.91219428138E+02  0.00000000000E+00 0. -1.
         13    1    4    4    0    0  0.32237468400E+02  0.29824888383E+02  0.21584347054E+02  0.48935287612E+02  0.00000000000E+00 0.  1.
         -3    1    1    2    0  502 -0.52303871983E+01  0.10831917078E+03  0.14482667955E+03  0.18092862355E+03  0.00000000000E+00 0.  1.
<scales pt_clust_5="13000.00000" pt_clust_6="13000.00000" pt_clust_7="13000.00000" pt_clust_8="13000.00000" pt_clust_9="13000.00000"></scales>
<clustering>
<clus scale="   89.788">  7  8 -1 -1</clus>
<clus scale="   90.836">  5  6 -1 -1</clus>
<clus scale="  108.445">  7  9 -1 -1</clus>
<clus scale="  133.873">  2  5  1 -1</clus>
<clus scale="  205.724">  1  5  2 -1</clus>
</clustering>
</event>
<event>
 9    1  0.3303741E-006  0.1751217E+03  0.7546771E-02  0.1192413E+00
          2   -1    0    0  502    0 -0.00000000000E+00  0.00000000000E+00  0.92098175613E+03  0.92098175613E+03  0.00000000000E+00 0. -1.
         21   -1    0    0  501  502  0.00000000000E+00 -0.00000000000E+00 -0.22946173696E+02  0.22946173696E+02  0.00000000000E+00 0. -1.
         23    2    1    2    0    0 -0.45946160947E+02 -0.42902074229E+02  0.42146947302E+03  0.43620472500E+03  0.93200899896E+02 0.  0.
         23    2    1    2    0    0 -0.22672546964E+02  0.23586933047E+02  0.20268464213E+03  0.22471673870E+03  0.91357324264E+02 0.  0.
        -13    1    3    3    0    0  0.24512405412E+02  0.51239800849E+01  0.64462156138E+02  0.69155496997E+02  0.00000000000E+00 0. -1.
         13    1    3    3    0    0 -0.70458566359E+02 -0.48026054314E+02  0.35700731689E+03  0.36704922800E+03  0.00000000000E+00 0.  1.
        -13    1    4    4    0    0 -0.51377576365E+01  0.58072670861E+02  0.11821993726E+03  0.13181344856E+03  0.00000000000E+00 0.  1.
         13    1    4    4    0    0 -0.17534789328E+02 -0.34485737814E+02  0.84464704871E+02  0.92903290137E+02  0.00000000000E+00 0. -1.
          2    1    1    2  501    0  0.68618707911E+02  0.19315141182E+02  0.27388146728E+03  0.28300646613E+03  0.00000000000E+00 0. -1.
<scales pt_clust_5="13000.00000" pt_clust_6="13000.00000" pt_clust_7="13000.00000" pt_clust_8="13000.00000" pt_clust_9="13000.00000"></scales>
<clustering>
<clus scale="   91.357">  7  8 -1 -1</clus>
<clus scale="   71.285">  7  9 -1 -1</clus>
<clus scale="   93.201">  5  6 -1 -1</clus>
<clus scale="  112.419">  1  5  2 -1</clus>
<clus scale="  175.122">  2  5  1 -1</clus>
</clustering>
</event>
<event>
 9    1  0.3303741E-006  0.2712193E+03  0.7546771E-02  0.1132498E+00
          1   -1    0    0  502    0 -0.00000000000E+00  0.00000000000E+00  0.31648791996E+03  0.31648791996E+03  0.00000000000E+00 0. -1.
         21   -1    0    0  501  502  0.00000000000E+00 -0.00000000000E+00 -0.16778284597E+03  0.16778284597E+03  0.00000000000E+00 0. -1.
         23    2    1    2    0    0 -0.71334137449E+00 -0.80546673930E+02  0.17364758088E+03  0.21190695961E+03  0.90899954066E+02 0.  0.
         23    2    1    2    0    0  0.66111270899E+02  0.14024126930E+03 -0.36823937601E+02  0.18302455236E+03  0.90020390097E+02 0.  0.
        -13    1    4    4    0    0  0.83807890531E+02  0.93251516897E+02 -0.91978287314E+01  0.12571478820E+03  0.00000000000E+00 0. -1.
         13    1    4    4    0    0 -0.17696619632E+02  0.46989752402E+02 -0.27626108869E+02  0.57309764163E+02  0.00000000000E+00 0.  1.
        -13    1    3    3    0    0 -0.52605731218E+00 -0.23232046948E+02 -0.54443739272E+01  0.23867256842E+02  0.00000000000E+00 0.  1.
         13    1    3    3    0    0 -0.18728406232E+00 -0.57314626982E+02  0.17909195480E+03  0.18803970277E+03  0.00000000000E+00 0. -1.
          1    1    1    2  501    0 -0.65397929524E+02 -0.59694595369E+02  0.11881430716E+02  0.89339253960E+02  0.00000000000E+00 0. -1.
<scales pt_clust_5="13000.00000" pt_clust_6="13000.00000" pt_clust_7="13000.00000" pt_clust_8="13000.00000" pt_clust_9="13000.00000"></scales>
<clustering>
<clus scale="   90.020">  5  6 -1 -1</clus>
<clus scale="   88.546">  5  9 -1 -1</clus>
<clus scale="   90.900">  7  8 -1 -1</clus>
<clus scale="  121.454">  1  7  2 -1</clus>
<clus scale="  271.219">  2  5  1 -1</clus>
</clustering>
</event>
<event>
 9    1  0.3303741E-006  0.3560596E+03  0.7546771E-02  0.1106043E+00
          1   -1    0    0  502    0 -0.00000000000E+00  0.00000000000E+00  0.67534866665E+03  0.67534866665E+03  0.00000000000E+00 0. -1.
         21   -1    0    0  501  502  0.00000000000E+00 -0.00000000000E+00 -0.88891191108E+02  0.88891191108E+02  0.00000000000E+00 0. -1.
         23    2    1    2    0    0 -0.36959966976E+02 -0.40804641725E+02  0.26428474371E+03  0.28405892551E+03  0.88385459519E+02 0.  0.
         23    2    1    2    0    0  0.76956101638E+02 -0.74027608082E+02  0.32953703010E+03  0.35835987795E+03  0.91786815933E+02 0.  0.
        -13    1    3    3    0    0 -0.63072854251E+02 -0.10188845774E+02  0.16227063846E+03  0.17439540599E+03  0.00000000000E+00 0.  1.
         13    1    3    3    0    0  0.26112887275E+02 -0.30615795951E+02  0.10201410525E+03  0.10966351952E+03  0.00000000000E+00 0. -1.
        -13    1    4    4    0    0  0.93025498484E+02 -0.43710572762E+02  0.27849650425E+03  0.29685798022E+03  0.00000000000E+00 0. -1.
         13    1    4    4    0    0 -0.16069396845E+02 -0.30317035320E+02  0.51040525848E+02  0.61501897731E+02  0.00000000000E+00 0.  1.
          1    1    1    2  501    0 -0.39996134662E+02  0.11483224981E+03 -0.73642982674E+01  0.12182105431E+03  0.00000000000E+00 0. -1.
<scales pt_clust_5="13000.00000" pt_clust_6="13000.00000" pt_clust_7="13000.00000" pt_clust_8="13000.00000" pt_clust_9="13000.00000"></scales>
<clustering>
<clus scale="   88.385">  5  6 -1 -1</clus>
<clus scale="   91.787">  7  8 -1 -1</clus>
<clus scale="  104.130">  1  5  2 -1</clus>
<clus scale="  118.037">  7  9 -1 -1</clus>
<clus scale="  356.060">  2  5  1 -1</clus>
</clustering>
</event>
<event>
 9    1  0.3303741E-006  0.5263288E+03  0.7546771E-02  0.1036083E+00
         21   -1    0    0  501  502  0.00000000000E+00  0.00000000000E+00  0.18481264780E+03  0.18481264780E+03  0.00000000000E+00 0.  1.
         -1   -1    0    0    0  501 -0.00000000000E+00 -0.00000000000E+00 -0.75564708683E+03  0.75564708683E+03  0.00000000000E+00 0.  1.
         23    2    1    2    0    0 -0.10999440138E+03 -0.17255253285E+03 -0.14204392556E+03  0.26157584685E+03  0.79826699410E+02 0.  0.
         23    2    1    2    0    0 -0.64840420844E+02  0.12328729485E+03 -0.46529757307E+03  0.49360829808E+03  0.87995927097E+02 0.  0.
        -13    1    3    3    0    0 -0.24675466555E+02 -0.95074534482E+02 -0.34969230193E+02  0.10426357378E+03  0.00000000000E+00 0. -1.
         13    1    3    3    0    0 -0.85318934822E+02 -0.77477998365E+02 -0.10707469537E+03  0.15731227307E+03  0.00000000000E+00 0.  1.
        -13    1    4    4    0    0 -0.27510276097E+02  0.12046716366E+03 -0.39618108027E+03  0.41500433875E+03  0.00000000000E+00 0.  1.
         13    1    4    4    0    0 -0.37330144747E+02  0.28201311815E+01 -0.69116492792E+02  0.78603959331E+02  0.00000000000E+00 0. -1.
         -1    1    1    2    0  502  0.17483482222E+03  0.49265238002E+02  0.36507059600E+02  0.18527558970E+03  0.00000000000E+00 0.  1.
<scales pt_clust_5="13000.00000" pt_clust_6="13000.00000" pt_clust_7="13000.00000" pt_clust_8="13000.00000" pt_clust_9="13000.00000"></scales>
<clustering>
<clus scale="   79.827">  5  6 -1 -1</clus>
<clus scale="   87.996">  7  8 -1 -1</clus>
<clus scale="  181.643">  7  9 -1 -1</clus>
<clus scale="  219.649">  2  5  1 -1</clus>
<clus scale="  526.329">  1  5  2 -1</clus>
</clustering>
</event>
<event>
 9    1  0.3303741E-006  0.2499437E+03  0.7546771E-02  0.1142448E+00
          2   -1    0    0  502    0 -0.00000000000E+00  0.00000000000E+00  0.29149708342E+02  0.29149708342E+02  0.00000000000E+00 0. -1.
         21   -1    0    0  501  502  0.00000000000E+00 -0.00000000000E+00 -0.12314978539E+04  0.12314978539E+04  0.00000000000E+00 0.  1.
         23    2    1    2    0    0 -0.36965556723E+02  0.68451899545E+02 -0.28796238137E+03  0.31271657467E+03  0.93899989628E+02 0.  0.
         23    2    1    2    0    0  0.72991434301E+02  0.41244949179E+02 -0.60872191351E+03  0.62118697143E+03  0.91115257647E+02 0.  0.
        -11    1    3    3    0    0 -0.44916252265E+02  0.11378080930E+02 -0.51247380176E+02  0.69088525951E+02  0.00000000000E+00 0. -1.
         11    1    3    3    0    0  0.79506955419E+01  0.57073818615E+02 -0.23671500120E+03  0.24362804872E+03  0.00000000000E+00 0.  1.
        -13    1    4    4    0    0  0.94132548115E+02  0.37251847534E+02 -0.52977437085E+03  0.53936028846E+03  0.00000000000E+00 0.  1.
         13    1    4    4    0    0 -0.21141113814E+02  0.39931016454E+01 -0.78947542659E+02  0.81826682971E+02  0.00000000000E+00 0. -1.
          2    1    1    2  501    0 -0.36025877578E+02 -0.10969684872E+03 -0.30566385073E+03  0.32674401619E+03  0.00000000000E+00 0. -1.
<scales pt_clust_5="13000.00000" pt_clust_6="13000.00000" pt_clust_7="13000.00000" pt_clust_8="13000.00000" pt_clust_9="13000.00000"></scales>
<clustering>
<clus scale="   91.115">  7  8 -1 -1</clus>
<clus scale="   93.900">  5  6 -1 -1</clus>
<clus scale="  115.461">  7  9 -1 -1</clus>
<clus scale="  121.940">  1  5  2 -1</clus>
<clus scale="  249.944">  2  5  1 -1</clus>
</clustering>
</event>
<event>
 9    1  0.3303741E-006  0.1280061E+03  0.7546771E-02  0.1245863E+00
          1   -1    0    0  502    0 -0.00000000000E+00  0.00000000000E+00  0.12988763198E+03  0.12988763198E+03  0.00000000000E+00 0. -1.
         21   -1    0    0  501  502  0.00000000000E+00 -0.00000000000E+00 -0.11671826514E+03  0.11671826514E+03  0.00000000000E+00 0. -1.
         23    2    1    2    0    0  0.16182861513E+02  0.32523209582E+01  0.59096197521E+02  0.11061015870E+03  0.92031429671E+02 0.  0.
         23    2    1    2    0    0 -0.55614015522E+02 -0.16323674007E+02 -0.45035668915E+02  0.94444921995E+02  0.59432741485E+02 0.  0.
        -11    1    3    3    0    0  0.25499618225E+02 -0.36561064482E+02  0.81990846638E+01  0.45322918650E+02  0.00000000000E+00 0.  1.
         11    1    3    3    0    0 -0.93167567114E+01  0.39813385440E+02  0.50897112857E+02  0.65287240047E+02  0.00000000000E+00 0. -1.
        -13    1    4    4    0    0 -0.22651400838E+02  0.10042885743E+02  0.85673504013E+01  0.26217265435E+02  0.00000000000E+00 0.  1.
         13    1    4    4    0    0 -0.32962614684E+02 -0.26366559751E+02 -0.53603019316E+02  0.68227656560E+02  0.00000000000E+00 0. -1.
          1    1    1    2  501    0  0.39431154009E+02  0.13071353049E+02 -0.89116176337E+00  0.41550816434E+02  0.00000000000E+00 0. -1.
<scales pt_clust_5="13000.00000" pt_clust_6="13000.00000" pt_clust_7="13000.00000" pt_clust_8="13000.00000" pt_clust_9="13000.00000"></scales>
<clustering>
<clus scale="   59.433">  7  8 -1 -1</clus>
<clus scale="   41.541">  7  9 -1 -1</clus>
<clus scale="   92.031">  5  6 -1 -1</clus>
<clus scale="   93.500">  1  5  2 -1</clus>
<clus scale="  128.006">  2  5  1 -1</clus>
</clustering>
</event>
<event>
 9    1  0.3303741E-006  0.2940055E+03  0.7546771E-02  0.1127099E+00
          2   -1    0    0  502    0 -0.00000000000E+00  0.00000000000E+00  0.29124390041E+03  0.29124390041E+03  0.00000000000E+00 0. -1.
         21   -1    0    0  501  502  0.00000000000E+00 -0.00000000000E+00 -0.17341158860E+03  0.17341158860E+03  0.00000000000E+00 0. -1.
         23    2    1    2    0    0  0.29883099180E+02  0.49577870240E+02  0.13102395494E+03  0.17035419476E+03  0.92207971843E+02 0.  0.
         23    2    1    2    0    0 -0.77155521999E+02  0.75764676186E+02  0.44129804876E+02  0.14859204847E+03  0.91863466396E+02 0.  0.
        -11    1    4    4    0    0 -0.35559569128E+02  0.58313593914E+02 -0.19100249180E+02  0.70920925759E+02  0.00000000000E+00 0.  1.
         11    1    4    4    0    0 -0.41595952871E+02  0.17451082272E+02  0.63230054055E+02  0.77671122713E+02  0.00000000000E+00 0. -1.
        -13    1    3    3    0    0 -0.17804358785E+02 -0.17733755829E+02  0.42336461952E+02  0.49232685262E+02  0.00000000000E+00 0.  1.
         13    1    3    3    0    0  0.47687457965E+02  0.67311626070E+02  0.88687492987E+02  0.12112150950E+03  0.00000000000E+00 0. -1.
          2    1    1    2  501    0  0.47272422819E+02 -0.12534254643E+03 -0.57321447999E+02  0.14570924578E+03  0.00000000000E+00 0. -1.
<scales pt_clust_5="13000.00000" pt_clust_6="13000.00000" pt_clust_7="13000.00000" pt_clust_8="13000.00000" pt_clust_9="13000.00000"></scales>
<clustering>
<clus scale="   91.863">  5  6 -1 -1</clus>
<clus scale="   92.208">  7  8 -1 -1</clus>
<clus scale="  108.873">  1  7  2 -1</clus>
<clus scale="  123.520">  5  9 -1 -1</clus>
<clus scale="  294.005">  2  5  1 -1</clus>
</clustering>
</event>
<event>
 9    1  0.3303741E-006  0.1785629E+03  0.7546771E-02  0.1196121E+00
          1   -1    0    0  502    0 -0.00000000000E+00  0.00000000000E+00  0.19675250883E+03  0.19675250883E+03  0.00000000000E+00 0. -1.
         21   -1    0    0  501  502  0.00000000000E+00 -0.00000000000E+00 -0.97181150611E+02  0.97181150611E+02  0.00000000000E+00 0. -1.
         23    2    1    2    0    0 -0.32922396314E+02 -0.43936536363E+01  0.40996751033E+02  0.10600893573E+03  0.91945486501E+02 0.  0.
         23    2    1    2    0    0  0.59714490368E+02  0.24894981467E+02 -0.87128125437E+01  0.11265376251E+03  0.91811636748E+02 0.  0.
        -11    1    4    4    0    0 -0.15706951021E+02  0.28847370615E+02  0.10928470316E+02  0.34616622672E+02  0.00000000000E+00 0.  1.
         11    1    4    4    0    0  0.75421441389E+02 -0.39523891481E+01 -0.19641282860E+02  0.78037139835E+02  0.00000000000E+00 0. -1.
        -13    1    3    3    0    0  0.88221508536E+01 -0.27889821516E+02 -0.14540800949E+02  0.32666609591E+02  0.00000000000E+00 0. -1.
         13    1    3    3    0    0 -0.41744547167E+02  0.23496167880E+02  0.55537551983E+02  0.73342326139E+02  0.00000000000E+00 0.  1.
          1    1    1    2  501    0 -0.26792094054E+02 -0.20501327830E+02  0.67287419727E+02  0.75270961201E+02  0.00000000000E+00 0. -1.
<scales pt_clust_5="13000.00000" pt_clust_6="13000.00000" pt_clust_7="13000.00000" pt_clust_8="13000.00000" pt_clust_9="13000.00000"></scales>
<clustering>
<clus scale="   91.812">  5  6 -1 -1</clus>
<clus scale="   33.736">  5  9 -1 -1</clus>
<clus scale="   91.945">  7  8 -1 -1</clus>
<clus scale="   97.761">  1  7  2 -1</clus>
<clus scale="  178.563">  2  5  1 -1</clus>
</clustering>
</event>
<event>
 9    1  0.3303741E-006  0.2442892E+03  0.7546771E-02  0.1144878E+00
         21   -1    0    0  501  502  0.00000000000E+00  0.00000000000E+00  0.61647458925E+03  0.61647458925E+03  0.00000000000E+00 0.  1.
         -4   -1    0    0    0  501 -0.00000000000E+00 -0.00000000000E+00 -0.58208660551E+02  0.58208660551E+02  0.00000000000E+00 0.  1.
         23    2    1    2    0    0  0.69554127885E+02  0.13651180075E+02  0.27028478470E+03  0.29704536932E+03  0.10078668151E+03 0.  0.
         23    2    1    2    0    0  0.52016940186E+02  0.32368727977E+02  0.10201523229E+03  0.15074434412E+03  0.92537846559E+02 0.  0.
        -11    1    3    3    0    0  0.60972611552E+02  0.51343713852E+02  0.13950568923E+03  0.16067256654E+03  0.00000000000E+00 0.  1.
         11    1    3    3    0    0  0.85815163335E+01 -0.37692533778E+02  0.13077909547E+03  0.13637280278E+03  0.00000000000E+00 0. -1.
        -13    1    4    4    0    0 -0.23481946738E+02  0.26097109550E+02  0.29143991871E+02  0.45627110490E+02  0.00000000000E+00 0. -1.
         13    1    4    4    0    0  0.75498886924E+02  0.62716184274E+01  0.72871240422E+02  0.10511723363E+03  0.00000000000E+00 0.  1.
         -4    1    1    2    0  502 -0.12157106807E+03 -0.46019908052E+02  0.18596591171E+03  0.22689353637E+03  0.00000000000E+00 0.  1.
<scales pt_clust_5="13000.00000" pt_clust_6="13000.00000" pt_clust_7="13000.00000" pt_clust_8="13000.00000" pt_clust_9="13000.00000"></scales>
<clustering>
<clus scale="   92.538">  7  8 -1 -1</clus>
<clus scale="  100.787">  5  6 -1 -1</clus>
<clus scale="  123.216">  2  5  1 -1</clus>
<clus scale="   98.238">  7  9 -1 -1</clus>
<clus scale="  244.289">  1  5  2 -1</clus>
</clustering>
</event>
<event>
 9    1  0.3303741E-006  0.1945327E+03  0.7546771E-02  0.1174878E+00
         21   -1    0    0  501  502  0.00000000000E+00  0.00000000000E+00  0.37114768457E+03  0.37114768457E+03  0.00000000000E+00 0.  1.
         -2   -1    0    0    0  501 -0.00000000000E+00 -0.00000000000E+00 -0.70820674883E+02  0.70820674883E+02  0.00000000000E+00 0.  1.
         23    2    1    2    0    0 -0.24150777869E+02 -0.75932895751E+02  0.68511064827E+02  0.13934382200E+03  0.91508852015E+02 0.  0.
         23    2    1    2    0    0 -0.24806168811E+02  0.12401575085E+02  0.58168226916E+02  0.11134845092E+03  0.90806331406E+02 0.  0.
        -13    1    3    3    0    0 -0.46744814421E+02 -0.64668342586E+02  0.16432406258E+02  0.81468375358E+02  0.00000000000E+00 0.  1.
         13    1    3    3    0    0  0.22594036552E+02 -0.11264553165E+02  0.52078658569E+02  0.57875446642E+02  0.00000000000E+00 0. -1.
        -13    1    4    4    0    0  0.10964335444E+02 -0.20175487011E+02  0.58628174968E+02  0.62964512449E+02  0.00000000000E+00 0. -1.
         13    1    4    4    0    0 -0.35770504254E+02  0.32577062097E+02 -0.45994805209E+00  0.48383938468E+02  0.00000000000E+00 0.  1.
         -2    1    1    2    0  502  0.48956946680E+02  0.63531320665E+02  0.17364771795E+03  0.19127608654E+03  0.00000000000E+00 0.  1.
<scales pt_clust_5="13000.00000" pt_clust_6="13000.00000" pt_clust_7="13000.00000" pt_clust_8="13000.00000" pt_clust_9="13000.00000"></scales>
<clustering>
<clus scale="   90.806">  7  8 -1 -1</clus>
<clus scale="   80.206">  7  9 -1 -1</clus>
<clus scale="   91.509">  5  6 -1 -1</clus>
<clus scale="  121.338">  2  5  1 -1</clus>
<clus scale="  194.533">  1  5  2 -1</clus>
</clustering>
</event>
<event>
 9    1  0.3303741E-006  0.3316963E+03  0.7546771E-02  0.1089544E+00
          1   -1    0    0  502    0 -0.00000000000E+00  0.00000000000E+00  0.14139038868E+04  0.14139038868E+04  0.00000000000E+00 0. -1.
         21   -1    0    0  501  502  0.00000000000E+00 -0.00000000000E+00 -0.83279768845E+02  0.83279768845E+02  0.00000000000E+00 0. -1.
         23    2    1    2    0    0 -0.19512695525E+02 -0.17443677830E+03  0.10321560491E+04  0.10509711211E+04  0.91571026388E+02 0.  0.
         23    2    1    2    0    0 -0.23357839180E+02 -0.28155423999E+01  0.23167665169E+03  0.25200295351E+03  0.96321865158E+02 0.  0.
        -11    1    3    3    0    0  0.36224240229E+02 -0.87095763275E+02  0.50197769280E+03  0.51076361620E+03  0.00000000000E+00 0.  1.
         11    1    3    3    0    0 -0.55736935755E+02 -0.87341015027E+02  0.53017835628E+03  0.54020750493E+03  0.00000000000E+00 0. -1.
        -11    1    4    4    0    0  0.35673702489E+02  0.97615784163E+01  0.11233513178E+03  0.11826700002E+03  0.00000000000E+00 0.  1.
         11    1    4    4    0    0 -0.59031541668E+02 -0.12577120816E+02  0.11934151992E+03  0.13373595349E+03  0.00000000000E+00 0. -1.
          1    1    1    2  501    0  0.42870534705E+02  0.17725232070E+03  0.66791417151E+02  0.19420958098E+03  0.00000000000E+00 0. -1.
<scales pt_clust_5="13000.00000" pt_clust_6="13000.00000" pt_clust_7="13000.00000" pt_clust_8="13000.00000" pt_clust_9="13000.00000"></scales>
<clustering>
<clus scale="   91.571">  5  6 -1 -1</clus>
<clus scale="   96.322">  7  8 -1 -1</clus>
<clus scale="  182.363">  7  9 -1 -1</clus>
<clus scale="  197.975">  1  5  2 -1</clus>
<clus scale="  331.696">  2  5  1 -1</clus>
</clustering>
</event>
<event>
 9    1  0.3303741E-006  0.2388442E+03  0.7546771E-02  0.1140813E+00
         21   -1    0    0  501  502  0.00000000000E+00  0.00000000000E+00  0.70434056302E+03  0.70434056302E+03  0.00000000000E+00 0. -1.
          3   -1    0    0  502    0 -0.00000000000E+00 -0.00000000000E+00 -0.54431353040E+02  0.54431353040E+02  0.00000000000E+00 0. -1.
         23    2    1    2    0    0  0.25125306228E+02 -0.11305761177E+03  0.17750561999E+03  0.22942163795E+03  0.87822196718E+02 0.  0.
         23    2    1    2    0    0  0.22558603824E+02  0.14834738938E+02  0.90172003656E+02  0.13182987157E+03  0.92299321287E+02 0.  0.
        -11    1    4    4    0    0  0.40724973221E+01  0.52639852726E+02  0.39360283878E+02  0.65854166735E+02  0.00000000000E+00 0. -1.
         11    1    4    4    0    0  0.18486106502E+02 -0.37805113788E+02  0.50811719778E+02  0.65975704838E+02  0.00000000000E+00 0.  1.
        -13    1    3    3    0    0  0.38916581688E+02 -0.21800783583E+02  0.97731880146E+02  0.10743041884E+03  0.00000000000E+00 0.  1.
         13    1    3    3    0    0 -0.13791275460E+02 -0.91256828191E+02  0.79773739848E+02  0.12199121911E+03  0.00000000000E+00 0. -1.
          3    1    1    2  501    0 -0.47683910052E+02  0.98222872836E+02  0.38223158633E+03  0.39752040654E+03  0.00000000000E+00 0. -1.
<scales pt_clust_5="13000.00000" pt_clust_6="13000.00000" pt_clust_7="13000.00000" pt_clust_8="13000.00000" pt_clust_9="13000.00000"></scales>
<clustering>
<clus scale="   87.822">  7  8 -1 -1</clus>
<clus scale="   92.299">  5  6 -1 -1</clus>
<clus scale="  109.186">  5  9 -1 -1</clus>
<clus scale="  145.348">  2  7  1 -1</clus>
<clus scale="  238.844">  1  5  2 -1</clus>
</clustering>
</event>
<event>
 9    1  0.3303741E-006  0.2264873E+03  0.7546771E-02  0.1159761E+00
         21   -1    0    0  501  502  0.00000000000E+00  0.00000000000E+00  0.26202694070E+03  0.26202694070E+03  0.00000000000E+00 0. -1.
          1   -1    0    0  502    0 -0.00000000000E+00 -0.00000000000E+00 -0.23525066543E+03  0.23525066543E+03  0.00000000000E+00 0. -1.
         23    2    1    2    0    0 -0.10798520952E+02  0.59832192790E+02 -0.16691886113E+03  0.19926033517E+03  0.90256720653E+02 0.  0.
         23    2    1    2    0    0 -0.31668826810E+02  0.44311558973E+01  0.81630659900E+01  0.97130728945E+02  0.91352028576E+02 0.  0.
        -11    1    3    3    0    0  0.12190142975E+02  0.74446756990E+02 -0.14792835073E+03  0.16605335336E+03  0.00000000000E+00 0. -1.
         11    1    3    3    0    0 -0.22988663927E+02 -0.14614564199E+02 -0.18990510402E+02  0.33206981814E+02  0.00000000000E+00 0.  1.
        -11    1    4    4    0    0  0.21690255431E+02  0.26894428917E+02  0.17098762555E+02  0.38550553412E+02  0.00000000000E+00 0. -1.
         11    1    4    4    0    0 -0.53359082241E+02 -0.22463273020E+02 -0.89356965650E+01  0.58580175533E+02  0.00000000000E+00 0.  1.
          1    1    1    2  501    0  0.42467347763E+02 -0.64263348688E+02  0.18553207041E+03  0.20088654201E+03  0.00000000000E+00 0. -1.
<scales pt_clust_5="13000.00000" pt_clust_6="13000.00000" pt_clust_7="13000.00000" pt_clust_8="13000.00000" pt_clust_9="13000.00000"></scales>
<clustering>
<clus scale="   90.257">  5  6 -1 -1</clus>
<clus scale="   91.352">  7  8 -1 -1</clus>
<clus scale="   77.028">  7  9 -1 -1</clus>
<clus scale="  108.825">  2  5  1 -1</clus>
<clus scale="  226.487">  1  5  2 -1</clus>
</clustering>
</event>
<event>
 9    1  0.3303741E-006  0.2749205E+03  0.7546771E-02  0.1138881E+00
         21   -1    0    0  501  502  0.00000000000E+00  0.00000000000E+00  0.83218823833E+02  0.83218823833E+02  0.00000000000E+00 0.  1.
          3   -1    0    0  502    0 -0.00000000000E+00 -0.00000000000E+00 -0.46012260022E+03  0.46012260022E+03  0.00000000000E+00 0. -1.
         23    2    1    2    0    0  0.27466315623E+02 -0.31811208356E+02 -0.37739093116E+02  0.10674781292E+03  0.90578722353E+02 0.  0.
         23    2    1    2    0    0 -0.38526059479E+02  0.13640529570E+03 -0.22462336358E+03  0.28108812905E+03  0.92001189515E+02 0.  0.
        -11    1    4    4    0    0 -0.39597207262E+02  0.12400806302E+02 -0.33838041363E+02  0.53541870187E+02  0.00000000000E+00 0.  1.
         11    1    4    4    0    0  0.10711477825E+01  0.12400448940E+03 -0.19078532222E+03  0.22754625886E+03  0.00000000000E+00 0. -1.
        -11    1    3    3    0    0  0.19398938337E+02  0.18721491772E+02 -0.47533260802E+02  0.54646353448E+02  0.00000000000E+00 0. -1.
         11    1    3    3    0    0  0.80673772864E+01 -0.50532700128E+02  0.97941676859E+01  0.52101459473E+02  0.00000000000E+00 0.  1.
          3    1    1    2  501    0  0.11059743856E+02 -0.10459408734E+03 -0.11454131969E+03  0.15550548208E+03  0.00000000000E+00 0. -1.
<scales pt_clust_5="13000.00000" pt_clust_6="13000.00000" pt_clust_7="13000.00000" pt_clust_8="13000.00000" pt_clust_9="13000.00000"></scales>
<clustering>
<clus scale="   90.579">  7  8 -1 -1</clus>
<clus scale="   92.001">  5  6 -1 -1</clus>
<clus scale="   99.854">  2  7  1 -1</clus>
<clus scale="  117.492">  5  9 -1 -1</clus>
<clus scale="  274.921">  1  5  2 -1</clus>
</clustering>
</event>
<event>
 9    1  0.4567051E-006  0.3382893E+03  0.7546771E-02  0.1118709E+00
          1   -1    0    0  502    0 -0.00000000000E+00  0.00000000000E+00  0.59544932231E+03  0.59544932231E+03  0.00000000000E+00 0. -1.
         21   -1    0    0  501  502  0.00000000000E+00 -0.00000000000E+00 -0.80062971655E+02  0.80062971655E+02  0.00000000000E+00 0. -1.
         23    2    1    2    0    0 -0.18155455286E+02 -0.43781586839E+01  0.53650555465E+02  0.10311420902E+03  0.86054454683E+02 0.  0.
         23    2    1    2    0    0 -0.48014069809E+02  0.24727466657E+02  0.48740304824E+03  0.49856510949E+03  0.89936858189E+02 0.  0.
        -13    1    3    3    0    0  0.32763141526E+02  0.64945265853E+01  0.91747456768E+01  0.34637815700E+02  0.00000000000E+00 0.  1.
         13    1    3    3    0    0 -0.50918596812E+02 -0.10872685269E+02  0.44475809788E+02  0.68476393324E+02  0.00000000000E+00 0. -1.
        -13    1    4    4    0    0  0.22506764839E+02 -0.11723360549E+02  0.12967147873E+03  0.13213131363E+03  0.00000000000E+00 0.  1.
         13    1    4    4    0    0 -0.70520834647E+02  0.36450827206E+02  0.35773156950E+03  0.36643379585E+03  0.00000000000E+00 0. -1.
          1    1    1    2  501    0  0.66169525095E+02 -0.20349307973E+02 -0.25667253042E+02  0.73832975459E+02  0.00000000000E+00 0. -1.
<scales pt_clust_5="13000.00000" pt_clust_6="13000.00000" pt_clust_7="13000.00000" pt_clust_8="13000.00000" pt_clust_9="13000.00000"></scales>
<clustering>
<clus scale="   86.054">  5  6 -1 -1</clus>
<clus scale="   88.058">  1  5  2 -1</clus>
<clus scale="   89.937">  7  8 -1 -1</clus>
<clus scale="   68.481">  7  9 -1 -1</clus>
<clus scale="  338.289">  2  5  1 -1</clus>
</clustering>
</event>
<event>
 9    1  0.3303741E-006  0.2245216E+03  0.7546771E-02  0.1164478E+00
          2   -1    0    0  502    0 -0.00000000000E+00  0.00000000000E+00  0.49979983909E+02  0.49979983909E+02  0.00000000000E+00 0. -1.
         21   -1    0    0  501  502  0.00000000000E+00 -0.00000000000E+00 -0.53793318553E+03  0.53793318553E+03  0.00000000000E+00 0.  1.
         23    2    1    2    0    0 -0.33398665436E+02 -0.30895286673E+02 -0.11395315747E+03  0.15169533967E+03  0.89197333971E+02 0.  0.
         23    2    1    2    0    0 -0.35451891979E+02 -0.35993608464E+02 -0.27264660099E+03  0.29662182700E+03  0.10533737573E+03 0.  0.
        -11    1    3    3    0    0  0.15505601677E+02 -0.14627290333E+02  0.51410765924E+01  0.21927425165E+02  0.00000000000E+00 0. -1.
         11    1    3    3    0    0 -0.48904267113E+02 -0.16267996340E+02 -0.11909423407E+03  0.12976791450E+03  0.00000000000E+00 0.  1.
        -13    1    4    4    0    0  0.17439868689E+02 -0.55833910755E+02 -0.16484916333E+03  0.17491947079E+03  0.00000000000E+00 0. -1.
         13    1    4    4    0    0 -0.52891760668E+02  0.19840302290E+02 -0.10779743766E+03  0.12170235621E+03  0.00000000000E+00 0.  1.
          2    1    1    2  501    0  0.68850557415E+02  0.66888895138E+02 -0.10135344315E+03  0.13959600277E+03  0.00000000000E+00 0. -1.
<scales pt_clust_5="13000.00000" pt_clust_6="13000.00000" pt_clust_7="13000.00000" pt_clust_8="13000.00000" pt_clust_9="13000.00000"></scales>
<clustering>
<clus scale="   89.197">  5  6 -1 -1</clus>
<clus scale="  100.131">  1  5  2 -1</clus>
<clus scale="  105.337">  7  8 -1 -1</clus>
<clus scale="   68.039">  7  9 -1 -1</clus>
<clus scale="  224.522">  2  5  1 -1</clus>
</clustering>
</event>
<event>
 9    1  0.3303741E-006  0.3479163E+03  0.7546771E-02  0.1096823E+00
          1   -1    0    0  502    0 -0.00000000000E+00  0.00000000000E+00  0.43509110484E+03  0.43509110484E+03  0.00000000000E+00 0. -1.
         21   -1    0    0  501  502  0.00000000000E+00 -0.00000000000E+00 -0.14316222966E+03  0.14316222966E+03  0.00000000000E+00 0. -1.
         23    2    1    2    0    0 -0.96369159189E+02  0.47206073388E+02  0.13806653825E+03  0.19783337892E+03  0.92521611664E+02 0.  0.
         23    2    1    2    0    0  0.20445885368E+03 -0.74631414440E+02  0.10036040436E+03  0.25673491939E+03  0.92018135175E+02 0.  0.
        -11    1    3    3    0    0 -0.88396947373E+02 -0.53027517514E+01  0.87996734982E+02  0.12484215974E+03  0.00000000000E+00 0.  1.
         11    1    3    3    0    0 -0.79722118162E+01  0.52508825140E+02  0.50069803267E+02  0.72991219184E+02  0.00000000000E+00 0. -1.
        -11    1    4    4    0    0  0.55943384085E+02 -0.67333613297E+02  0.34175395619E+02  0.93975716907E+02  0.00000000000E+00 0.  1.
         11    1    4    4    0    0  0.14851546960E+03 -0.72978011434E+01  0.66185008738E+02  0.16275920248E+03  0.00000000000E+00 0. -1.
          1    1    1    2  501    0 -0.10808969449E+03  0.27425341052E+02  0.53501932577E+02  0.12368503619E+03  0.00000000000E+00 0. -1.
<scales pt_clust_5="13000.00000" pt_clust_6="13000.00000" pt_clust_7="13000.00000" pt_clust_8="13000.00000" pt_clust_9="13000.00000"></scales>
<clustering>
<clus scale="   92.018">  7  8 -1 -1</clus>
<clus scale="   92.522">  5  6 -1 -1</clus>
<clus scale="  111.515">  7  9 -1 -1</clus>
<clus scale="  141.689">  1  5  2 -1</clus>
<clus scale="  347.916">  2  5  1 -1</clus>
</clustering>
</event>
<event>
 9    1  0.3303741E-006  0.3052318E+03  0.7546771E-02  0.1128957E+00
         21   -1    0    0  501  502  0.00000000000E+00  0.00000000000E+00  0.49075144318E+03  0.49075144318E+03  0.00000000000E+00 0.  1.
         -1   -1    0    0    0  501 -0.00000000000E+00 -0.00000000000E+00 -0.15681204011E+03  0.15681204011E+03  0.00000000000E+00 0.  1.
         23    2    1    2    0    0  0.19059005291E+02  0.29378023810E+01 -0.87200165834E+02  0.12744329018E+03  0.90917803121E+02 0.  0.
         23    2    1    2    0    0 -0.76573064225E+02  0.91959727252E+02  0.93509818491E+02  0.17420884397E+03  0.85349924209E+02 0.  0.
        -11    1    4    4    0    0 -0.54202459001E+02  0.36272475637E+02  0.93739422465E+02  0.11419578965E+03  0.00000000000E+00 0. -1.
         11    1    4    4    0    0 -0.22370605224E+02  0.55687251615E+02 -0.22960397379E+00  0.60013054317E+02  0.00000000000E+00 0.  1.
        -11    1    3    3    0    0  0.29273424093E+02 -0.26256896368E+02 -0.50293836932E+01  0.39644074782E+02  0.00000000000E+00 0. -1.
         11    1    3    3    0    0 -0.10214418803E+02  0.29194698749E+02 -0.82170782141E+02  0.87799215396E+02  0.00000000000E+00 0.  1.
         -1    1    1    2    0  502  0.57514058934E+02 -0.94897529633E+02  0.32762975042E+03  0.34591134914E+03  0.00000000000E+00 0.  1.
<scales pt_clust_5="13000.00000" pt_clust_6="13000.00000" pt_clust_7="13000.00000" pt_clust_8="13000.00000" pt_clust_9="13000.00000"></scales>
<clustering>
<clus scale="   85.350">  5  6 -1 -1</clus>
<clus scale="   90.918">  7  8 -1 -1</clus>
<clus scale="   92.940">  2  7  1 -1</clus>
<clus scale="  112.375">  5  9 -1 -1</clus>
<clus scale="  305.232">  1  5  2 -1</clus>
</clustering>
</event>
<event>
 9    1  0.3303741E-006  0.5136527E+03  0.7546771E-02  0.1062125E+00
         21   -1    0    0  501  502  0.00000000000E+00  0.00000000000E+00  0.44153910420E+03  0.44153910420E+03  0.00000000000E+00 0. -1.
          1   -1    0    0  502    0 -0.00000000000E+00 -0.00000000000E+00 -0.22744059588E+03  0.22744059588E+03  0.00000000000E+00 0. -1.
         23    2    1    2    0    0  0.42585347653E+01 -0.63198173068E+02  0.80813052313E+02  0.13831582231E+03  0.92673475595E+02 0.  0.
         23    2    1    2    0    0 -0.88105351927E+02  0.19750454568E+02 -0.17072806382E+03  0.21232096011E+03  0.88201387923E+02 0.  0.
        -13    1    3    3    0    0 -0.31670242330E+02 -0.42252373088E+02  0.81041873699E+02  0.96726690078E+02  0.00000000000E+00 0. -1.
         13    1    3    3    0    0  0.35928777095E+02 -0.20945799980E+02 -0.22882138618E+00  0.41589132229E+02  0.00000000000E+00 0.  1.
        -13    1    4    4    0    0 -0.21186466821E+02  0.48017520836E+02 -0.85619478648E+02  0.10042531458E+03  0.00000000000E+00 0.  1.
         13    1    4    4    0    0 -0.66918885106E+02 -0.28267066268E+02 -0.85108585173E+02  0.11189564553E+03  0.00000000000E+00 0. -1.
          1    1    1    2  501    0  0.83846817162E+02  0.43447718500E+02  0.30401351982E+03  0.31834291766E+03  0.00000000000E+00 0. -1.
<scales pt_clust_5="13000.00000" pt_clust_6="13000.00000" pt_clust_7="13000.00000" pt_clust_8="13000.00000" pt_clust_9="13000.00000"></scales>
<clustering>
<clus scale="   88.201">  7  8 -1 -1</clus>
<clus scale="   92.673">  5  6 -1 -1</clus>
<clus scale="   94.435">  7  9 -1 -1</clus>
<clus scale="  112.252">  2  5  1 -1</clus>
<clus scale="  513.653">  1  5  2 -1</clus>
</clustering>
</event>
<event>
 9    1  0.3303741E-006  0.1916892E+03  0.7546771E-02  0.1194802E+00
         21   -1    0    0  501  502  0.00000000000E+00  0.00000000000E+00  0.24909665239E+03  0.24909665239E+03  0.00000000000E+00 0. -1.
         -2   -1    0    0    0  501 -0.00000000000E+00 -0.00000000000E+00 -0.81198560828E+02  0.81198560828E+02  0.00000000000E+00 0.  1.
         23    2    1    2    0    0  0.12887307111E+02  0.24930413318E+02  0.99996283233E+01  0.81947321371E+02  0.76339784650E+02 0.  0.
         23    2    1    2    0    0  0.11379328892E+02 -0.80799433915E+02  0.13845904386E+03  0.18440957695E+03  0.90432005385E+02 0.  0.
        -13    1    4    4    0    0 -0.24179735562E+02 -0.59854205299E+02  0.35913721376E+02  0.73871380703E+02  0.00000000000E+00 0.  1.
         13    1    4    4    0    0  0.35559064454E+02 -0.20945228616E+02  0.10254532249E+03  0.11053819625E+03  0.00000000000E+00 0. -1.
        -13    1    3    3    0    0  0.51963106890E+01  0.51156553712E+02 -0.33536548169E+01  0.51529036795E+02  0.00000000000E+00 0.  1.
         13    1    3    3    0    0  0.76909964218E+01 -0.26226140394E+02  0.13353283140E+02  0.30418284576E+02  0.00000000000E+00 0. -1.
         -2    1    1    2    0  502 -0.24266636003E+02  0.55869020597E+02  0.19439419373E+02  0.63938314890E+02  0.00000000000E+00 0.  1.
<scales pt_clust_5="13000.00000" pt_clust_6="13000.00000" pt_clust_7="13000.00000" pt_clust_8="13000.00000" pt_clust_9="13000.00000"></scales>
<clustering>
<clus scale="   76.340">  7  8 -1 -1</clus>
<clus scale="   81.335">  2  7  1 -1</clus>
<clus scale="   90.432">  5  6 -1 -1</clus>
<clus scale="   70.453">  5  9 -1 -1</clus>
<clus scale="  191.689">  1  5  2 -1</clus>
</clustering>
</event>
<event>
 9    1  0.3303741E-006  0.1877573E+03  0.7546771E-02  0.1190838E+00
         21   -1    0    0  501  502  0.00000000000E+00  0.00000000000E+00  0.37604584336E+02  0.37604584336E+02  0.00000000000E+00 0. -1.
          1   -1    0    0  502    0 -0.00000000000E+00 -0.00000000000E+00 -0.54024024708E+03  0.54024024708E+03  0.00000000000E+00 0. -1.
         23    2    1    2    0    0  0.18421636857E+02  0.13564656316E+02 -0.20853295899E+03  0.22891904706E+03  0.91621932491E+02 0.  0.
         23    2    1    2    0    0 -0.18953377557E+02  0.37373276785E+02 -0.27967149710E+03  0.29598038321E+03  0.87362741601E+02 0.  0.
        -11    1    3    3    0    0 -0.57593480368E+01  0.48142053843E+02 -0.14282410461E+03  0.15082954716E+03  0.00000000000E+00 0. -1.
         11    1    3    3    0    0  0.24180984893E+02 -0.34577397527E+02 -0.65708854381E+02  0.78089499898E+02  0.00000000000E+00 0.  1.
        -13    1    4    4    0    0  0.34051912290E+02  0.13856514269E+02 -0.79689006547E+02  0.87760318383E+02  0.00000000000E+00 0.  1.
         13    1    4    4    0    0 -0.53005289847E+02  0.23516762516E+02 -0.19998249055E+03  0.20822006483E+03  0.00000000000E+00 0. -1.
          1    1    1    2  501    0  0.53174070047E+00 -0.50937933102E+02 -0.14431206652E+02  0.52945401144E+02  0.00000000000E+00 0. -1.
<scales pt_clust_5="13000.00000" pt_clust_6="13000.00000" pt_clust_7="13000.00000" pt_clust_8="13000.00000" pt_clust_9="13000.00000"></scales>
<clustering>
<clus scale="   87.363">  7  8 -1 -1</clus>
<clus scale="   50.941">  7  9 -1 -1</clus>
<clus scale="   91.622">  5  6 -1 -1</clus>
<clus scale="   94.435">  2  5  1 -1</clus>
<clus scale="  187.757">  1  5  2 -1</clus>
</clustering>
</event>
<event>
 9    1  0.3303741E-006  0.4444584E+03  0.7546771E-02  0.1062603E+00
          1   -1    0    0  502    0 -0.00000000000E+00  0.00000000000E+00  0.32303204354E+03  0.32303204354E+03  0.00000000000E+00 0. -1.
         21   -1    0    0  501  502  0.00000000000E+00 -0.00000000000E+00 -0.29387235561E+03  0.29387235561E+03  0.00000000000E+00 0. -1.
         23    2    1    2    0    0  0.96541448303E+02  0.10746646136E+03  0.22059420012E+02  0.17238931024E+03  0.91444872552E+02 0.  0.
         23    2    1    2    0    0 -0.13534883614E+03 -0.23692812257E+03 -0.62473357601E+02  0.29250579826E+03  0.84867419513E+02 0.  0.
        -13    1    4    4    0    0 -0.48642850170E+02 -0.32903545952E+02  0.93732480387E+01  0.59469555133E+02  0.00000000000E+00 0.  1.
         13    1    4    4    0    0 -0.86705985969E+02 -0.20402457662E+03 -0.71846605639E+02  0.23303624313E+03  0.00000000000E+00 0. -1.
        -13    1    3    3    0    0  0.50015525056E+02  0.95303861296E+02  0.47887130574E+02  0.11780303901E+03  0.00000000000E+00 0. -1.
         13    1    3    3    0    0  0.46525923247E+02  0.12162600065E+02 -0.25827710563E+02  0.54586271234E+02  0.00000000000E+00 0.  1.
          1    1    1    2  501    0  0.38807387836E+02  0.12946166121E+03  0.69573625520E+02  0.15200929065E+03  0.00000000000E+00 0. -1.
<scales pt_clust_5="13000.00000" pt_clust_6="13000.00000" pt_clust_7="13000.00000" pt_clust_8="13000.00000" pt_clust_9="13000.00000"></scales>
<clustering>
<clus scale="   84.867">  5  6 -1 -1</clus>
<clus scale="   91.445">  7  8 -1 -1</clus>
<clus scale="  135.153">  5  9 -1 -1</clus>
<clus scale="  170.972">  1  7  2 -1</clus>
<clus scale="  444.458">  2  5  1 -1</clus>
</clustering>
</event>
<event>
 9    1  0.3303741E-006  0.1182127E+03  0.7546771E-02  0.1256639E+00
         -4   -1    0    0    0  501 -0.00000000000E+00  0.00000000000E+00  0.47656248180E+02  0.47656248180E+02  0.00000000000E+00 0.  1.
         21   -1    0    0  501  502  0.00000000000E+00 -0.00000000000E+00 -0.24137558624E+03  0.24137558624E+03  0.00000000000E+00 0. -1.
         23    2    1    2    0    0  0.12160979530E+02  0.16941055836E+02 -0.76676656501E+02  0.12267907285E+03  0.93466338684E+02 0.  0.
         23    2    1    2    0    0 -0.23661544552E+02  0.83055396554E+01 -0.11877602078E+03  0.13855603435E+03  0.66792071854E+02 0.  0.
        -13    1    3    3    0    0 -0.39026985211E+02  0.89014062084E+01 -0.51050729778E+02  0.64873088550E+02  0.00000000000E+00 0. -1.
         13    1    3    3    0    0  0.51187964740E+02  0.80396496274E+01 -0.25625926722E+02  0.57805984299E+02  0.00000000000E+00 0.  1.
        -13    1    4    4    0    0  0.20304415560E+01  0.24373948799E+02 -0.11397601552E+02  0.26983650496E+02  0.00000000000E+00 0.  1.
         13    1    4    4    0    0 -0.25691986108E+02 -0.16068409144E+02 -0.10737841922E+03  0.11157238385E+03  0.00000000000E+00 0. -1.
         -4    1    1    2    0  502  0.11500565023E+02 -0.25246595491E+02  0.17333392144E+01  0.27796727228E+02  0.00000000000E+00 0.  1.
<scales pt_clust_5="13000.00000" pt_clust_6="13000.00000" pt_clust_7="13000.00000" pt_clust_8="13000.00000" pt_clust_9="13000.00000"></scales>
<clustering>
<clus scale="   66.792">  7  8 -1 -1</clus>
<clus scale="   27.743">  7  9 -1 -1</clus>
<clus scale="   93.466">  5  6 -1 -1</clus>
<clus scale="   95.765">  1  5  2 -1</clus>
<clus scale="  118.213">  2  5  1 -1</clus>
</clustering>
</event>
<event>
 9    1  0.3303741E-006  0.3416204E+03  0.7546771E-02  0.1094834E+00
          1   -1    0    0  502    0 -0.00000000000E+00  0.00000000000E+00  0.35304334546E+03  0.35304334546E+03  0.00000000000E+00 0. -1.
         21   -1    0    0  501  502  0.00000000000E+00 -0.00000000000E+00 -0.26646960743E+03  0.26646960743E+03  0.00000000000E+00 0. -1.
         23    2    1    2    0    0 -0.13708579189E+01  0.12782523732E+03  0.20440431853E+03  0.25814262373E+03  0.92278481814E+02 0.  0.
         23    2    1    2    0    0  0.16689306142E+02  0.77173703832E+02 -0.98347884966E+02  0.15487869216E+03  0.89893210558E+02 0.  0.
        -11    1    3    3    0    0  0.42475307043E+02  0.45915414718E+02  0.61696488569E+02  0.87856893406E+02  0.00000000000E+00 0.  1.
         11    1    3    3    0    0 -0.43846164961E+02  0.81909822598E+02  0.14270782996E+03  0.17028573032E+03  0.00000000000E+00 0. -1.
        -11    1    4    4    0    0  0.40681870030E+02  0.27283865287E+02 -0.90495266529E+01  0.49812827532E+02  0.00000000000E+00 0.  1.
         11    1    4    4    0    0 -0.23992563888E+02  0.49889838545E+02 -0.89298358313E+02  0.10506586463E+03  0.00000000000E+00 0. -1.
          1    1    1    2  501    0 -0.15318448223E+02 -0.20499894115E+03 -0.19482695537E+02  0.20649163701E+03  0.00000000000E+00 0. -1.
<scales pt_clust_5="13000.00000" pt_clust_6="13000.00000" pt_clust_7="13000.00000" pt_clust_8="13000.00000" pt_clust_9="13000.00000"></scales>
<clustering>
<clus scale="   89.893">  7  8 -1 -1</clus>
<clus scale="   92.278">  5  6 -1 -1</clus>
<clus scale="  157.659">  1  5  2 -1</clus>
<clus scale="  108.092">  7  9 -1 -1</clus>
<clus scale="  341.620">  2  5  1 -1</clus>
</clustering>
</event>
<event>
 9    1  0.3303741E-006  0.5166342E+03  0.7546771E-02  0.1042047E+00
         21   -1    0    0  501  502  0.00000000000E+00  0.00000000000E+00  0.65658016073E+03  0.65658016073E+03  0.00000000000E+00 0.  1.
         -3   -1    0    0    0  501 -0.00000000000E+00 -0.00000000000E+00 -0.34992003921E+03  0.34992003921E+03  0.00000000000E+00 0.  1.
         23    2    1    2    0    0  0.13060939789E+03  0.11274523079E+03 -0.20241265498E+03  0.28119611891E+03  0.91269230906E+02 0.  0.
         23    2    1    2    0    0 -0.18154772427E+02 -0.23433719734E+03  0.78273856023E+02  0.26376496134E+03  0.90562908935E+02 0.  0.
        -11    1    3    3    0    0  0.55090350688E+02 -0.49148870074E+01 -0.60882868251E+02  0.82254644244E+02  0.00000000000E+00 0. -1.
         11    1    3    3    0    0  0.75519047202E+02  0.11766011780E+03 -0.14152978673E+03  0.19894147467E+03  0.00000000000E+00 0.  1.
        -13    1    4    4    0    0  0.23053813428E+02 -0.18810808343E+03  0.52222720224E+02  0.19657909826E+03  0.00000000000E+00 0.  1.
         13    1    4    4    0    0 -0.41208585855E+02 -0.46229113903E+02  0.26051135799E+02  0.67185863073E+02  0.00000000000E+00 0. -1.
         -3    1    1    2    0  502 -0.11245462546E+03  0.12159196655E+03  0.43079892048E+03  0.46153911969E+03  0.00000000000E+00 0.  1.
<scales pt_clust_5="13000.00000" pt_clust_6="13000.00000" pt_clust_7="13000.00000" pt_clust_8="13000.00000" pt_clust_9="13000.00000"></scales>
<clustering>
<clus scale="   90.563">  7  8 -1 -1</clus>
<clus scale="   91.269">  5  6 -1 -1</clus>
<clus scale="  165.622">  7  9 -1 -1</clus>
<clus scale="  195.193">  2  5  1 -1</clus>
<clus scale="  516.634">  1  5  2 -1</clus>
</clustering>
</event>
<event>
 9    1  0.3303741E-006  0.4250175E+03  0.7546771E-02  0.1088931E+00
         21   -1    0    0  501  502  0.00000000000E+00  0.00000000000E+00  0.98663339452E+02  0.98663339452E+02  0.00000000000E+00 0.  1.
         -4   -1    0    0    0  501 -0.00000000000E+00 -0.00000000000E+00 -0.91348985806E+03  0.91348985806E+03  0.00000000000E+00 0.  1.
         23    2    1    2    0    0  0.95970158350E+00 -0.27884794685E+02 -0.42434807047E+03  0.43499351242E+03  0.91485453103E+02 0.  0.
         23    2    1    2    0    0  0.13755208610E+03 -0.58620296187E+02 -0.37437426790E+03  0.41306218147E+03  0.90040867310E+02 0.  0.
        -11    1    4    4    0    0  0.90231859467E+02 -0.21297852131E+02 -0.11997981741E+03  0.15162632870E+03  0.00000000000E+00 0. -1.
         11    1    4    4    0    0  0.47320226629E+02 -0.37322444056E+02 -0.25439445049E+03  0.26143585278E+03  0.00000000000E+00 0.  1.
        -11    1    3    3    0    0 -0.18401119484E+02 -0.55961110752E+02 -0.31462421700E+03  0.32009161975E+03  0.00000000000E+00 0. -1.
         11    1    3    3    0    0  0.19360821068E+02  0.28076316067E+02 -0.10972385347E+03  0.11490189266E+03  0.00000000000E+00 0.  1.
         -4    1    1    2    0  502 -0.13851178768E+03  0.86505090872E+02 -0.16104180237E+02  0.16409750362E+03  0.00000000000E+00 0.  1.
<scales pt_clust_5="13000.00000" pt_clust_6="13000.00000" pt_clust_7="13000.00000" pt_clust_8="13000.00000" pt_clust_9="13000.00000"></scales>
<clustering>
<clus scale="   90.041">  5  6 -1 -1</clus>
<clus scale="   91.485">  7  8 -1 -1</clus>
<clus scale="   95.646">  2  7  1 -1</clus>
<clus scale="  160.461">  5  9 -1 -1</clus>
<clus scale="  425.018">  1  5  2 -1</clus>
</clustering>
</event>
<event>
 9    1  0.3303741E-006  0.3661361E+03  0.7546771E-02  0.1105481E+00
         21   -1    0    0  501  502  0.00000000000E+00  0.00000000000E+00  0.52126623703E+03  0.52126623703E+03  0.00000000000E+00 0. -1.
          3   -1    0    0  502    0 -0.00000000000E+00 -0.00000000000E+00 -0.10953402344E+03  0.10953402344E+03  0.00000000000E+00 0. -1.
         23    2    1    2    0    0  0.30909015733E+02 -0.15687568945E+02  0.15749013046E+03  0.18504845561E+03  0.90765206217E+02 0.  0.
         23    2    1    2    0    0 -0.73026924844E+02 -0.10808010166E+03 -0.10996613333E+01  0.15888639909E+03  0.90716252318E+02 0.  0.
        -11    1    4    4    0    0 -0.46138751827E+02 -0.17103308894E+02  0.31671818657E+02  0.58518473086E+02  0.00000000000E+00 0.  1.
         11    1    4    4    0    0 -0.26888173017E+02 -0.90976792767E+02 -0.32771479990E+02  0.10036792601E+03  0.00000000000E+00 0. -1.
        -13    1    3    3    0    0  0.14994609813E+02  0.30338177077E+02  0.20281252642E+02  0.39453422165E+02  0.00000000000E+00 0.  1.
         13    1    3    3    0    0  0.15914405920E+02 -0.46025746022E+02  0.13720887782E+03  0.14559503345E+03  0.00000000000E+00 0. -1.
          3    1    1    2  501    0  0.42117909112E+02  0.12376767061E+03  0.25534174447E+03  0.28686540576E+03  0.00000000000E+00 0. -1.
<scales pt_clust_5="13000.00000" pt_clust_6="13000.00000" pt_clust_7="13000.00000" pt_clust_8="13000.00000" pt_clust_9="13000.00000"></scales>
<clustering>
<clus scale="   90.716">  5  6 -1 -1</clus>
<clus scale="   90.765">  7  8 -1 -1</clus>
<clus scale="   97.159">  2  7  1 -1</clus>
<clus scale="  130.055">  5  9 -1 -1</clus>
<clus scale="  366.136">  1  5  2 -1</clus>
</clustering>
</event>
<event>
 9    1  0.3303741E-006  0.1652196E+03  0.7546771E-02  0.1198805E+00
          2   -1    0    0  502    0 -0.00000000000E+00  0.00000000000E+00  0.49095746974E+02  0.49095746974E+02  0.00000000000E+00 0. -1.
         21   -1    0    0  501  502  0.00000000000E+00 -0.00000000000E+00 -0.43220436954E+03  0.43220436954E+03  0.00000000000E+00 0. -1.
         23    2    1    2    0    0 -0.68179647606E+02 -0.24958325219E+02 -0.99730900065E+02  0.15327503829E+03  0.90970339064E+02 0.  0.
         23    2    1    2    0    0  0.27539933094E+02  0.21978213889E+01 -0.10000541146E+03  0.13882932936E+03  0.92245444531E+02 0.  0.
        -11    1    3    3    0    0 -0.71398646864E+01 -0.24081830199E+02 -0.87476330464E+02  0.91011101548E+02  0.00000000000E+00 0.  1.
         11    1    3    3    0    0 -0.61039782920E+02 -0.87649502022E+00 -0.12254569600E+02  0.62263936741E+02  0.00000000000E+00 0. -1.
        -13    1    4    4    0    0  0.61700208475E+02 -0.17052511169E+01 -0.68324358618E+02  0.92076281353E+02  0.00000000000E+00 0.  1.
         13    1    4    4    0    0 -0.34160275381E+02  0.39030725058E+01 -0.31681052838E+02  0.46753048008E+02  0.00000000000E+00 0. -1.
          2    1    1    2  501    0  0.40639714512E+02  0.22760503830E+02 -0.18337231105E+03  0.18919574887E+03  0.00000000000E+00 0. -1.
<scales pt_clust_5="13000.00000" pt_clust_6="13000.00000" pt_clust_7="13000.00000" pt_clust_8="13000.00000" pt_clust_9="13000.00000"></scales>
<clustering>
<clus scale="   90.970">  5  6 -1 -1</clus>
<clus scale="   92.245">  7  8 -1 -1</clus>
<clus scale="   46.579">  7  9 -1 -1</clus>
<clus scale="  116.392">  1  5  2 -1</clus>
<clus scale="  165.220">  2  5  1 -1</clus>
</clustering>
</event>
<event>
 9    1  0.3303741E-006  0.3322923E+03  0.7546771E-02  0.1093062E+00
         21   -1    0    0  501  502  0.00000000000E+00  0.00000000000E+00  0.16834754324E+03  0.16834754324E+03  0.00000000000E+00 0. -1.
         -2   -1    0    0    0  501 -0.00000000000E+00 -0.00000000000E+00 -0.55566308827E+03  0.55566308827E+03  0.00000000000E+00 0.  1.
         23    2    1    2    0    0  0.12340066124E+03 -0.93386195902E+02 -0.34519350840E+03  0.38905919372E+03  0.90883404412E+02 0.  0.
         23    2    1    2    0    0 -0.44082478298E+02  0.16364062118E+03 -0.98360887787E+02  0.21499366689E+03  0.88464087426E+02 0.  0.
        -13    1    4    4    0    0  0.14781745116E+02  0.30444926854E+02 -0.52233907855E+02  0.62239655282E+02  0.00000000000E+00 0.  1.
         13    1    4    4    0    0 -0.58864223414E+02  0.13319569433E+03 -0.46126979932E+02  0.15275401161E+03  0.00000000000E+00 0. -1.
        -13    1    3    3    0    0  0.11638076972E+03 -0.59830928432E+02 -0.32225504798E+03  0.34781106869E+03  0.00000000000E+00 0.  1.
         13    1    3    3    0    0  0.70198915188E+01 -0.33555267470E+02 -0.22938460427E+02  0.41248125032E+02  0.00000000000E+00 0. -1.
         -2    1    1    2    0  502 -0.79318182943E+02 -0.70254425278E+02  0.56238851158E+02  0.11995777089E+03  0.00000000000E+00 0.  1.
<scales pt_clust_5="13000.00000" pt_clust_6="13000.00000" pt_clust_7="13000.00000" pt_clust_8="13000.00000" pt_clust_9="13000.00000"></scales>
<clustering>
<clus scale="   88.464">  5  6 -1 -1</clus>
<clus scale="   90.883">  7  8 -1 -1</clus>
<clus scale="  105.958">  5  9 -1 -1</clus>
<clus scale="  179.467">  2  7  1 -1</clus>
<clus scale="  332.292">  1  5  2 -1</clus>
</clustering>
</event>
<event>
 9    1  0.3303741E-006  0.1976217E+03  0.7546771E-02  0.1182235E+00
         21   -1    0    0  501  502  0.00000000000E+00  0.00000000000E+00  0.41658349148E+03  0.41658349148E+03  0.00000000000E+00 0.  1.
         -1   -1    0    0    0  501 -0.00000000000E+00 -0.00000000000E+00 -0.57051759278E+02  0.57051759278E+02  0.00000000000E+00 0.  1.
         23    2    1    2    0    0 -0.27704312245E+02  0.10534160795E+02  0.60549191285E+02  0.11524315277E+03  0.93468081369E+02 0.  0.
         23    2    1    2    0    0  0.83766075282E+02 -0.44530021528E+02  0.19272503964E+03  0.23353499406E+03  0.91629549624E+02 0.  0.
        -13    1    4    4    0    0  0.64948580435E+02  0.13196587574E+02  0.68767240766E+02  0.95506028221E+02  0.00000000000E+00 0. -1.
         13    1    4    4    0    0  0.18817494847E+02 -0.57726609102E+02  0.12395779887E+03  0.13802896584E+03  0.00000000000E+00 0.  1.
        -13    1    3    3    0    0 -0.39040910021E+02 -0.10870593922E+02 -0.90718469251E+01  0.41529036518E+02  0.00000000000E+00 0. -1.
         13    1    3    3    0    0  0.11336597775E+02  0.21404754717E+02  0.69621038210E+02  0.73714116254E+02  0.00000000000E+00 0.  1.
         -1    1    1    2    0  502 -0.56061763037E+02  0.33995860733E+02  0.10625750128E+03  0.12485710393E+03  0.00000000000E+00 0.  1.
<scales pt_clust_5="13000.00000" pt_clust_6="13000.00000" pt_clust_7="13000.00000" pt_clust_8="13000.00000" pt_clust_9="13000.00000"></scales>
<clustering>
<clus scale="   91.630">  5  6 -1 -1</clus>
<clus scale="   65.564">  5  9 -1 -1</clus>
<clus scale="   93.468">  7  8 -1 -1</clus>
<clus scale="   98.055">  2  7  1 -1</clus>
<clus scale="  197.622">  1  5  2 -1</clus>
</clustering>
</event>
<event>
 9    1  0.3303741E-006  0.2902831E+03  0.7546771E-02  0.1100316E+00
         21   -1    0    0  501  502  0.00000000000E+00  0.00000000000E+00  0.26438881668E+03  0.26438881668E+03  0.00000000000E+00 0.  1.
          2   -1    0    0  502    0 -0.00000000000E+00 -0.00000000000E+00 -0.35107358240E+03  0.35107358240E+03  0.00000000000E+00 0. -1.
         23    2    1    2    0    0  0.19247174911E+02 -0.20476335039E+03  0.12570252862E+03  0.25577827533E+03  0.85574044101E+02 0.  0.
         23    2    1    2    0    0 -0.55037347029E+02  0.11987920786E+03 -0.21513611793E+03  0.26752225471E+03  0.88794557727E+02 0.  0.
        -13    1    4    4    0    0 -0.77545328593E+02  0.74595021961E+02 -0.13310939898E+03  0.17116018049E+03  0.00000000000E+00 0. -1.
         13    1    4    4    0    0  0.22507981564E+02  0.45284185897E+02 -0.82026718949E+02  0.96362074220E+02  0.00000000000E+00 0.  1.
        -13    1    3    3    0    0  0.29508430373E+02 -0.17605768062E+03  0.68969206450E+02  0.19137347206E+03  0.00000000000E+00 0.  1.
         13    1    3    3    0    0 -0.10261255462E+02 -0.28705669775E+02  0.56733322166E+02  0.64404803275E+02  0.00000000000E+00 0. -1.
          2    1    1    2  501    0  0.35790172118E+02  0.84884142538E+02  0.27488235840E+01  0.92161869044E+02  0.00000000000E+00 0. -1.
<scales pt_clust_5="13000.00000" pt_clust_6="13000.00000" pt_clust_7="13000.00000" pt_clust_8="13000.00000" pt_clust_9="13000.00000"></scales>
<clustering>
<clus scale="   85.574">  7  8 -1 -1</clus>
<clus scale="   88.795">  5  6 -1 -1</clus>
<clus scale="   92.121">  5  9 -1 -1</clus>
<clus scale="  222.759">  2  7  1 -1</clus>
<clus scale="  290.283">  1  5  2 -1</clus>
</clustering>
</event>
<event>
 9    1  0.3303741E-006  0.2397202E+03  0.7546771E-02  0.1142093E+00
         21   -1    0    0  501  502  0.00000000000E+00  0.00000000000E+00  0.46339348950E+03  0.46339348950E+03  0.00000000000E+00 0. -1.
          1   -1    0    0  502    0 -0.00000000000E+00 -0.00000000000E+00 -0.12920967044E+03  0.12920967044E+03  0.00000000000E+00 0. -1.
         23    2    1    2    0    0 -0.48388366525E+02  0.91634135079E+02 -0.42829979310E+02  0.14583118158E+03  0.93242038086E+02 0.  0.
         23    2    1    2    0    0 -0.86358302892E+01 -0.13875702546E+03  0.26511290288E+03  0.31262975447E+03  0.90135578014E+02 0.  0.
        -11    1    4    4    0    0 -0.35785755931E+02 -0.13321901415E+03  0.21825208814E+03  0.25818965904E+03  0.00000000000E+00 0. -1.
         11    1    4    4    0    0  0.27149925641E+02 -0.55380113115E+01  0.46860814749E+02  0.54440095431E+02  0.00000000000E+00 0.  1.
        -11    1    3    3    0    0 -0.18014112998E+02  0.86457089958E+02 -0.63460445849E+02  0.10875001084E+03  0.00000000000E+00 0.  1.
         11    1    3    3    0    0 -0.30374253527E+02  0.51770451211E+01  0.20630466539E+02  0.37081170736E+02  0.00000000000E+00 0. -1.
          1    1    1    2  501    0  0.57024196814E+02  0.47122890382E+02  0.11190089548E+03  0.13414222389E+03  0.00000000000E+00 0. -1.
<scales pt_clust_5="13000.00000" pt_clust_6="13000.00000" pt_clust_7="13000.00000" pt_clust_8="13000.00000" pt_clust_9="13000.00000"></scales>
<clustering>
<clus scale="   90.136">  5  6 -1 -1</clus>
<clus scale="   73.975">  5  9 -1 -1</clus>
<clus scale="   93.242">  7  8 -1 -1</clus>
<clus scale="  139.400">  2  7  1 -1</clus>
<clus scale="  239.720">  1  5  2 -1</clus>
</clustering>
</event>
<event>
 9    1  0.3303741E-006  0.2087184E+03  0.7546771E-02  0.1152596E+00
          1   -1    0    0  502    0 -0.00000000000E+00  0.00000000000E+00  0.20767254232E+03  0.20767254232E+03  0.00000000000E+00 0. -1.
         21   -1    0    0  501  502  0.00000000000E+00 -0.00000000000E+00 -0.19804722808E+03  0.19804722808E+03  0.00000000000E+00 0. -1.
         23    2    1    2    0    0  0.74992100909E+02 -0.11090550621E+03  0.83316799446E+02  0.18437434008E+03  0.95542460219E+02 0.  0.
         23    2    1    2    0    0  0.71074250674E-01  0.36834104048E+02 -0.80701635606E+01  0.97139107057E+02  0.89521630389E+02 0.  0.
        -11    1    4    4    0    0  0.18735203991E+02  0.62364449199E+02 -0.38215312704E+01  0.65229874243E+02  0.00000000000E+00 0.  1.
         11    1    4    4    0    0 -0.18664129740E+02 -0.25530345151E+02 -0.42486322902E+01  0.31909232814E+02  0.00000000000E+00 0. -1.
        -13    1    3    3    0    0  0.60150007531E+01 -0.92996783029E+02  0.45771908640E+02  0.10382509094E+03  0.00000000000E+00 0.  1.
         13    1    3    3    0    0  0.68977100156E+02 -0.17908723177E+02  0.37544890806E+02  0.80549249142E+02  0.00000000000E+00 0. -1.
          1    1    1    2  501    0 -0.75063175159E+02  0.74071402157E+02 -0.65621321646E+02  0.12420632326E+03  0.00000000000E+00 0. -1.
<scales pt_clust_5="13000.00000" pt_clust_6="13000.00000" pt_clust_7="13000.00000" pt_clust_8="13000.00000" pt_clust_9="13000.00000"></scales>
<clustering>
<clus scale="   89.522">  5  6 -1 -1</clus>
<clus scale="   95.542">  7  8 -1 -1</clus>
<clus scale="  105.456">  5  9 -1 -1</clus>
<clus scale="  164.476">  1  7  2 -1</clus>
<clus scale="  208.718">  2  5  1 -1</clus>
</clustering>
</event>
<event>
 9    1  0.3303741E-006  0.2138589E+03  0.7546771E-02  0.1171893E+00
         21   -1    0    0  501  502  0.00000000000E+00  0.00000000000E+00  0.34835088951E+03  0.34835088951E+03  0.00000000000E+00 0.  1.
          4   -1    0    0  502    0 -0.00000000000E+00 -0.00000000000E+00 -0.78605017001E+02  0.78605017001E+02  0.00000000000E+00 0.  1.
         23    2    1    2    0    0  0.12611812536E+02 -0.34939547545E+02  0.22960852272E+02  0.10040045588E+03  0.90405868205E+02 0.  0.
         23    2    1    2    0    0  0.21930934200E+02 -0.43348306508E+02  0.51596427617E+02  0.11343394507E+03  0.88572157019E+02 0.  0.
        -13    1    4    4    0    0 -0.10057250045E+02 -0.62787631113E+02  0.32315818210E+02  0.71328444578E+02  0.00000000000E+00 0.  1.
         13    1    4    4    0    0  0.31988184246E+02  0.19439324606E+02  0.19280609408E+02  0.42105500491E+02  0.00000000000E+00 0. -1.
        -13    1    3    3    0    0  0.29793780532E+02 -0.59890016674E+02  0.10806558416E+02  0.67758875141E+02  0.00000000000E+00 0.  1.
         13    1    3    3    0    0 -0.17181967996E+02  0.24950469129E+02  0.12154293856E+02  0.32641580739E+02  0.00000000000E+00 0. -1.
          4    1    1    2  501    0 -0.34542746736E+02  0.78287854052E+02  0.19518859262E+03  0.21312150556E+03  0.00000000000E+00 0.  1.
<scales pt_clust_5="13000.00000" pt_clust_6="13000.00000" pt_clust_7="13000.00000" pt_clust_8="13000.00000" pt_clust_9="13000.00000"></scales>
<clustering>
<clus scale="   88.572">  5  6 -1 -1</clus>
<clus scale="   85.570">  5  9 -1 -1</clus>
<clus scale="   90.406">  7  8 -1 -1</clus>
<clus scale="   97.740">  2  7  1 -1</clus>
<clus scale="  213.859">  1  5  2 -1</clus>
</clustering>
</event>
<event>
 9    1  0.3303741E-006  0.1903332E+03  0.7546771E-02  0.1185774E+00
         -1   -1    0    0    0  501 -0.00000000000E+00  0.00000000000E+00  0.11046921847E+03  0.11046921847E+03  0.00000000000E+00 0.  1.
         21   -1    0    0  501  502  0.00000000000E+00 -0.00000000000E+00 -0.24279806039E+03  0.24279806039E+03  0.00000000000E+00 0.  1.
         23    2    1    2    0    0 -0.16637291253E+02 -0.27074362061E+02  0.27108455397E+02  0.10497920944E+03  0.96311710189E+02 0.  0.
         23    2    1    2    0    0 -0.18470427971E+02 -0.36338563452E+02 -0.36683723511E+02  0.10573214722E+03  0.90398802440E+02 0.  0.
        -13    1    4    4    0    0  0.16767526617E+02 -0.55978435843E+02 -0.26264507204E+02  0.64066836717E+02  0.00000000000E+00 0.  1.
         13    1    4    4    0    0 -0.35237954588E+02  0.19639872391E+02 -0.10419216306E+02  0.41665310506E+02  0.00000000000E+00 0. -1.
        -13    1    3    3    0    0 -0.35909379864E+02  0.22936737416E+02  0.28675941214E+02  0.51360364972E+02  0.00000000000E+00 0. -1.
         13    1    3    3    0    0  0.19272088611E+02 -0.50011099478E+02 -0.15674858169E+01  0.53618844469E+02  0.00000000000E+00 0.  1.
         -1    1    1    2    0  502  0.35107719224E+02  0.63412925513E+02 -0.12275357381E+03  0.14255592220E+03  0.00000000000E+00 0.  1.
<scales pt_clust_5="13000.00000" pt_clust_6="13000.00000" pt_clust_7="13000.00000" pt_clust_8="13000.00000" pt_clust_9="13000.00000"></scales>
<clustering>
<clus scale="   90.399">  5  6 -1 -1</clus>
<clus scale="   72.483">  5  9 -1 -1</clus>
<clus scale="   96.312">  7  8 -1 -1</clus>
<clus scale="  101.419">  1  7  2 -1</clus>
<clus scale="  190.333">  2  5  1 -1</clus>
</clustering>
</event>
<event>
 9    1  0.3303741E-006  0.2014451E+03  0.7546771E-02  0.1174879E+00
         21   -1    0    0  501  502  0.00000000000E+00  0.00000000000E+00  0.82404563304E+02  0.82404563304E+02  0.00000000000E+00 0. -1.
          1   -1    0    0  502    0 -0.00000000000E+00 -0.00000000000E+00 -0.71807305878E+03  0.71807305878E+03  0.00000000000E+00 0. -1.
         23    2    1    2    0    0 -0.27526122631E+02 -0.26453490279E+02 -0.58177597791E+03  0.59194820441E+03  0.10238121732E+03 0.  0.
         23    2    1    2    0    0 -0.20500793592E+02 -0.42010560099E+02  0.94310543617E+01  0.10363048709E+03  0.92006322444E+02 0.  0.
        -11    1    3    3    0    0  0.37980063549E+02 -0.32087984764E+00 -0.17159112695E+03  0.17574442534E+03  0.00000000000E+00 0. -1.
         11    1    3    3    0    0 -0.65506186179E+02 -0.26132610431E+02 -0.41018485096E+03  0.41620377907E+03  0.00000000000E+00 0.  1.
        -13    1    4    4    0    0 -0.13354421494E+02 -0.61137194797E+02  0.34372595171E+02  0.71397286082E+02  0.00000000000E+00 0. -1.
         13    1    4    4    0    0 -0.71463720973E+01  0.19126634699E+02 -0.24941540809E+02  0.32233201004E+02  0.00000000000E+00 0.  1.
          1    1    1    2  501    0  0.48026916223E+02  0.68464050378E+02 -0.63323571927E+02  0.10489893058E+03  0.00000000000E+00 0. -1.
<scales pt_clust_5="13000.00000" pt_clust_6="13000.00000" pt_clust_7="13000.00000" pt_clust_8="13000.00000" pt_clust_9="13000.00000"></scales>
<clustering>
<clus scale="   92.006">  7  8 -1 -1</clus>
<clus scale="   83.630">  7  9 -1 -1</clus>
<clus scale="  102.381">  5  6 -1 -1</clus>
<clus scale="  109.268">  2  5  1 -1</clus>
<clus scale="  201.445">  1  5  2 -1</clus>
</clustering>
</event>
<event>
 9    1  0.3303741E-006  0.3206757E+03  0.7546771E-02  0.1103450E+00
          1   -1    0    0  502    0 -0.00000000000E+00  0.00000000000E+00  0.62889294669E+03  0.62889294669E+03  0.00000000000E+00 0. -1.
         21   -1    0    0  501  502  0.00000000000E+00 -0.00000000000E+00 -0.23203544220E+03  0.23203544220E+03  0.00000000000E+00 0.  1.
         23    2    1    2    0    0 -0.59489640270E+02 -0.93162829142E+02  0.50108462446E+03  0.52373967702E+03  0.10487668178E+03 0.  0.
         23    2    1    2    0    0  0.10050836063E+03  0.16806472019E+03 -0.11865942788E+03  0.25057970417E+03  0.10179610793E+03 0.  0.
        -13    1    3    3    0    0  0.40837775197E-01 -0.88998583802E+02  0.24131410707E+03  0.25720273687E+03  0.00000000000E+00 0.  1.
         13    1    3    3    0    0 -0.59530478045E+02 -0.41642453407E+01  0.25977051739E+03  0.26653694014E+03  0.00000000000E+00 0. -1.
        -13    1    4    4    0    0 -0.17227535962E+02  0.38342081237E+02 -0.41786389723E+02  0.59270612912E+02  0.00000000000E+00 0. -1.
         13    1    4    4    0    0  0.11773589659E+03  0.12972263895E+03 -0.76873038152E+02  0.19130909126E+03  0.00000000000E+00 0.  1.
          1    1    1    2  501    0 -0.41018720364E+02 -0.74901891049E+02  0.14432307916E+02  0.86609007700E+02  0.00000000000E+00 0. -1.
<scales pt_clust_5="13000.00000" pt_clust_6="13000.00000" pt_clust_7="13000.00000" pt_clust_8="13000.00000" pt_clust_9="13000.00000"></scales>
<clustering>
<clus scale="  101.796">  7  8 -1 -1</clus>
<clus scale="   85.398">  7  9 -1 -1</clus>
<clus scale="  104.877">  5  6 -1 -1</clus>
<clus scale="  152.373">  1  5  2 -1</clus>
<clus scale="  320.676">  2  5  1 -1</clus>
</clustering>
</event>
<event>
 9    1  0.3303741E-006  0.1893677E+03  0.7546771E-02  0.1184751E+00
         21   -1    0    0  501  502  0.00000000000E+00  0.00000000000E+00  0.93464907988E+02  0.93464907988E+02  0.00000000000E+00 0.  1.
          2   -1    0    0  502    0 -0.00000000000E+00 -0.00000000000E+00 -0.24381281825E+03  0.24381281825E+03  0.00000000000E+00 0. -1.
         23    2    1    2    0    0 -0.38242970068E+02  0.35127223130E+02 -0.19603427669E+02  0.10715980115E+03  0.91665053543E+02 0.  0.
         23    2    1    2    0    0 -0.21952009242E+02 -0.60756687614E+02 -0.11857511780E+03  0.16357171240E+03  0.92316741365E+02 0.  0.
        -11    1    3    3    0    0  0.21705090047E+02  0.37952035699E+01  0.19158415365E+02  0.29198619546E+02  0.00000000000E+00 0. -1.
         11    1    3    3    0    0 -0.59948060115E+02  0.31332019561E+02 -0.38761843034E+02  0.77961181602E+02  0.00000000000E+00 0.  1.
        -13    1    4    4    0    0 -0.45219653536E+02 -0.31028127551E+01 -0.26600206129E+02  0.52554880639E+02  0.00000000000E+00 0.  1.
         13    1    4    4    0    0  0.23267644294E+02 -0.57653874859E+02 -0.91974911668E+02  0.11101683176E+03  0.00000000000E+00 0. -1.
          2    1    1    2  501    0  0.60194979310E+02  0.25629464484E+02 -0.12169364792E+02  0.66546212690E+02  0.00000000000E+00 0. -1.
<scales pt_clust_5="13000.00000" pt_clust_6="13000.00000" pt_clust_7="13000.00000" pt_clust_8="13000.00000" pt_clust_9="13000.00000"></scales>
<clustering>
<clus scale="   91.665">  5  6 -1 -1</clus>
<clus scale="   92.317">  7  8 -1 -1</clus>
<clus scale="   65.424">  7  9 -1 -1</clus>
<clus scale="  105.352">  2  5  1 -1</clus>
<clus scale="  189.368">  1  5  2 -1</clus>
</clustering>
</event>
<event>
 9    1  0.3303741E-006  0.4872271E+03  0.7546771E-02  0.1063223E+00
          2   -1    0    0  502    0 -0.00000000000E+00  0.00000000000E+00  0.11535662517E+04  0.11535662517E+04  0.00000000000E+00 0. -1.
         21   -1    0    0  501  502  0.00000000000E+00 -0.00000000000E+00 -0.83619695353E+02  0.83619695353E+02  0.00000000000E+00 0. -1.
         23    2    1    2    0    0 -0.10469310584E+02  0.94372326992E+02  0.30044279068E+03  0.32640259014E+03  0.85188249266E+02 0.  0.
         23    2    1    2    0    0  0.22657925468E+02 -0.11330899518E+03  0.83165540406E+03  0.84467748814E+03  0.92070830877E+02 0.  0.
        -11    1    4    4    0    0 -0.31842229458E+02 -0.16902544202E+02  0.16565430245E+03  0.16953162389E+03  0.00000000000E+00 0.  1.
         11    1    4    4    0    0  0.54500154926E+02 -0.96406450982E+02  0.66600110161E+03  0.67514586426E+03  0.00000000000E+00 0. -1.
        -11    1    3    3    0    0 -0.42946776927E+02  0.29128855463E+02  0.15954026294E+03  0.16776773042E+03  0.00000000000E+00 0.  1.
         11    1    3    3    0    0  0.32477466343E+02  0.65243471529E+02  0.14090252774E+03  0.15863485973E+03  0.00000000000E+00 0. -1.
          2    1    1    2  501    0 -0.12188614884E+02  0.18936668192E+02 -0.62151638376E+02  0.66105868785E+02  0.00000000000E+00 0. -1.
<scales pt_clust_5="13000.00000" pt_clust_6="13000.00000" pt_clust_7="13000.00000" pt_clust_8="13000.00000" pt_clust_9="13000.00000"></scales>
<clustering>
<clus scale="   85.188">  7  8 -1 -1</clus>
<clus scale="   92.071">  5  6 -1 -1</clus>
<clus scale="   22.520">  5  9 -1 -1</clus>
<clus scale="  127.565">  1  7  2 -1</clus>
<clus scale="  487.227">  2  5  1 -1</clus>
</clustering>
</event>
<event>
 9    1  0.3303741E-006  0.2148617E+03  0.7546771E-02  0.1167707E+00
          2   -1    0    0  502    0 -0.00000000000E+00  0.00000000000E+00  0.30832548087E+03  0.30832548087E+03  0.00000000000E+00 0. -1.
         21   -1    0    0  501  502  0.00000000000E+00 -0.00000000000E+00 -0.11098033601E+03  0.11098033601E+03  0.00000000000E+00 0.  1.
         23    2    1    2    0    0  0.35266667347E+02  0.38834328613E+02  0.17319426160E+03  0.20309111834E+03  0.92184094037E+02 0.  0.
         23    2    1    2    0    0 -0.94884584671E+02 -0.25651551633E+02 -0.26988606900E+02  0.13656967906E+03  0.90894476327E+02 0.  0.
        -11    1    3    3    0    0 -0.75307447762E+00  0.60571416272E+02  0.12639912139E+03  0.14016490815E+03  0.00000000000E+00 0. -1.
         11    1    3    3    0    0  0.36019741825E+02 -0.21737087659E+02  0.46795140213E+02  0.62926210188E+02  0.00000000000E+00 0.  1.
        -13    1    4    4    0    0 -0.26899128755E+02  0.22416673414E+02  0.20641725427E+02  0.40646662881E+02  0.00000000000E+00 0. -1.
         13    1    4    4    0    0 -0.67985455916E+02 -0.48068225047E+02 -0.47630332327E+02  0.95923016179E+02  0.00000000000E+00 0.  1.
          2    1    1    2  501    0  0.59617917324E+02 -0.13182776980E+02  0.51139490158E+02  0.79645019483E+02  0.00000000000E+00 0. -1.
<scales pt_clust_5="13000.00000" pt_clust_6="13000.00000" pt_clust_7="13000.00000" pt_clust_8="13000.00000" pt_clust_9="13000.00000"></scales>
<clustering>
<clus scale="   90.894">  7  8 -1 -1</clus>
<clus scale="   61.058">  7  9 -1 -1</clus>
<clus scale="   92.184">  5  6 -1 -1</clus>
<clus scale="  106.065">  1  5  2 -1</clus>
<clus scale="  214.862">  2  5  1 -1</clus>
</clustering>
</event>
<event>
 9    1  0.3303741E-006  0.1913000E+03  0.7546771E-02  0.1173875E+00
         21   -1    0    0  501  502  0.00000000000E+00  0.00000000000E+00  0.22271351976E+03  0.22271351976E+03  0.00000000000E+00 0.  1.
         -1   -1    0    0    0  501 -0.00000000000E+00 -0.00000000000E+00 -0.24984837879E+03  0.24984837879E+03  0.00000000000E+00 0.  1.
         23    2    1    2    0    0 -0.10076913998E+02  0.92134612527E+02 -0.18370471315E+03  0.22535790980E+03  0.91915367887E+02 0.  0.
         23    2    1    2    0    0 -0.48240511968E+01 -0.51803966575E+02  0.24086470330E+02  0.10791850226E+03  0.91429331480E+02 0.  0.
        -11    1    4    4    0    0 -0.34867326518E+02 -0.43602890286E+02 -0.15127398936E+02  0.57842723815E+02  0.00000000000E+00 0.  1.
         11    1    4    4    0    0  0.30043275321E+02 -0.82010762892E+01  0.39213869266E+02  0.50075778448E+02  0.00000000000E+00 0. -1.
        -13    1    3    3    0    0 -0.21431780119E+02 -0.12811266598E+02 -0.35942746235E+02  0.43764491975E+02  0.00000000000E+00 0. -1.
         13    1    3    3    0    0  0.11354866121E+02  0.10494587912E+03 -0.14776196691E+03  0.18159341782E+03  0.00000000000E+00 0.  1.
         -1    1    1    2    0  502  0.14900965195E+02 -0.40330645952E+02  0.13248338379E+03  0.13928548649E+03  0.00000000000E+00 0.  1.
<scales pt_clust_5="13000.00000" pt_clust_6="13000.00000" pt_clust_7="13000.00000" pt_clust_8="13000.00000" pt_clust_9="13000.00000"></scales>
<clustering>
<clus scale="   91.429">  5  6 -1 -1</clus>
<clus scale="   42.995">  5  9 -1 -1</clus>
<clus scale="   91.915">  7  8 -1 -1</clus>
<clus scale="  130.533">  2  7  1 -1</clus>
<clus scale="  191.300">  1  5  2 -1</clus>
</clustering>
</event>
<event>
 9    1  0.3303741E-006  0.1554449E+03  0.7546771E-02  0.1213713E+00
         21   -1    0    0  501  502  0.00000000000E+00  0.00000000000E+00  0.42750576402E+03  0.42750576402E+03  0.00000000000E+00 0.  1.
          3   -1    0    0  502    0 -0.00000000000E+00 -0.00000000000E+00 -0.42117433459E+02  0.42117433459E+02  0.00000000000E+00 0. -1.
         23    2    1    2    0    0 -0.11841488326E+02 -0.50547456914E+02  0.22212345898E+03  0.24419351498E+03  0.87157188366E+02 0.  0.
         23    2    1    2    0    0 -0.18934711626E+02  0.70113267979E+02  0.13742839722E+03  0.18073607162E+03  0.92220223219E+02 0.  0.
        -11    1    3    3    0    0  0.94349302694E+01 -0.66610114080E+02  0.19449067801E+03  0.20579734945E+03  0.00000000000E+00 0.  1.
         11    1    3    3    0    0 -0.21276418596E+02  0.16062657166E+02  0.27632780964E+02  0.38396165529E+02  0.00000000000E+00 0. -1.
        -13    1    4    4    0    0 -0.47056719602E+02  0.12013939142E+02  0.83627035048E+02  0.96706517796E+02  0.00000000000E+00 0.  1.
         13    1    4    4    0    0  0.28122007976E+02  0.58099328838E+02  0.53801362171E+02  0.84029553822E+02  0.00000000000E+00 0. -1.
          3    1    1    2  501    0  0.30776199952E+02 -0.19565811066E+02  0.25836474368E+02  0.44693610884E+02  0.00000000000E+00 0. -1.
<scales pt_clust_5="13000.00000" pt_clust_6="13000.00000" pt_clust_7="13000.00000" pt_clust_8="13000.00000" pt_clust_9="13000.00000"></scales>
<clustering>
<clus scale="   87.157">  5  6 -1 -1</clus>
<clus scale="   92.220">  7  8 -1 -1</clus>
<clus scale="   36.469">  7  9 -1 -1</clus>
<clus scale="  101.448">  2  5  1 -1</clus>
<clus scale="  155.445">  1  5  2 -1</clus>
</clustering>
</event>
<event>
 9    1  0.3303741E-006  0.5056048E+03  0.7546771E-02  0.1057273E+00
         21   -1    0    0  501  502  0.00000000000E+00  0.00000000000E+00  0.67146094443E+02  0.67146094443E+02  0.00000000000E+00 0.  1.
          2   -1    0    0  502    0 -0.00000000000E+00 -0.00000000000E+00 -0.15710116445E+04  0.15710116445E+04  0.00000000000E+00 0. -1.
         23    2    1    2    0    0 -0.98717594292E+02  0.15726805293E+01 -0.44123865589E+03  0.46137732941E+03  0.91814224924E+02 0.  0.
         23    2    1    2    0    0 -0.17029959948E+03 -0.42013952356E+02 -0.24567087403E+03  0.31572124440E+03  0.92512702058E+02 0.  0.
        -11    1    4    4    0    0 -0.37499031984E+02 -0.37140591748E+02 -0.25647757722E+02  0.58680562636E+02  0.00000000000E+00 0. -1.
         11    1    4    4    0    0 -0.13280056750E+03 -0.48733606078E+01 -0.22002311631E+03  0.25704068177E+03  0.00000000000E+00 0.  1.
        -11    1    3    3    0    0 -0.60459448604E+02 -0.42009796590E+02 -0.29528536060E+03  0.30432484637E+03  0.00000000000E+00 0. -1.
         11    1    3    3    0    0 -0.38258145688E+02  0.43582477119E+02 -0.14595329529E+03  0.15705248304E+03  0.00000000000E+00 0.  1.
          2    1    1    2  501    0  0.26901719378E+03  0.40441271826E+02 -0.81695602011E+03  0.86105916510E+03  0.00000000000E+00 0. -1.
<scales pt_clust_5="13000.00000" pt_clust_6="13000.00000" pt_clust_7="13000.00000" pt_clust_8="13000.00000" pt_clust_9="13000.00000"></scales>
<clustering>
<clus scale="   91.814">  7  8 -1 -1</clus>
<clus scale="   92.513">  5  6 -1 -1</clus>
<clus scale="  134.824">  2  7  1 -1</clus>
<clus scale="  199.438">  5  9 -1 -1</clus>
<clus scale="  505.605">  1  5  2 -1</clus>
</clustering>
</event>
<event>
 9    1  0.3303741E-006  0.5093369E+03  0.7546771E-02  0.1030499E+00
         21   -1    0    0  501  502  0.00000000000E+00  0.00000000000E+00  0.22831565714E+03  0.22831565714E+03  0.00000000000E+00 0.  1.
          1   -1    0    0  502    0 -0.00000000000E+00 -0.00000000000E+00 -0.10522102861E+04  0.10522102861E+04  0.00000000000E+00 0. -1.
         23    2    1    2    0    0  0.22206645945E+03 -0.15630985152E+03 -0.70037603937E+03  0.75642580157E+03  0.88921958266E+02 0.  0.
         23    2    1    2    0    0 -0.22706808342E+03  0.25792002531E+03 -0.10442442433E+01  0.36488453649E+03  0.12270688882E+03 0.  0.
        -11    1    3    3    0    0  0.11587357592E+03 -0.79820900188E+02 -0.47920628798E+03  0.49943641051E+03  0.00000000000E+00 0. -1.
         11    1    3    3    0    0  0.10619288352E+03 -0.76488951327E+02 -0.22116975139E+03  0.25698939106E+03  0.00000000000E+00 0.  1.
        -11    1    4    4    0    0 -0.12449147180E+03  0.19456748051E+03 -0.47251730188E+02  0.23576971186E+03  0.00000000000E+00 0.  1.
         11    1    4    4    0    0 -0.10257661162E+03  0.63352544792E+02  0.46207485945E+02  0.12911482463E+03  0.00000000000E+00 0. -1.
          1    1    1    2  501    0  0.50016239734E+01 -0.10161017379E+03 -0.12247434530E+03  0.15921560513E+03  0.00000000000E+00 0. -1.
<scales pt_clust_5="13000.00000" pt_clust_6="13000.00000" pt_clust_7="13000.00000" pt_clust_8="13000.00000" pt_clust_9="13000.00000"></scales>
<clustering>
<clus scale="   88.922">  5  6 -1 -1</clus>
<clus scale="  122.707">  7  8 -1 -1</clus>
<clus scale="  101.733">  7  9 -1 -1</clus>
<clus scale="  285.751">  2  5  1 -1</clus>
<clus scale="  509.337">  1  5  2 -1</clus>
</clustering>
</event>
<event>
 9    1  0.3303741E-006  0.2362638E+03  0.7546771E-02  0.1158993E+00
         21   -1    0    0  501  502  0.00000000000E+00  0.00000000000E+00  0.36910098141E+02  0.36910098141E+02  0.00000000000E+00 0.  1.
          1   -1    0    0  502    0 -0.00000000000E+00 -0.00000000000E+00 -0.78718955475E+03  0.78718955475E+03  0.00000000000E+00 0. -1.
         23    2    1    2    0    0  0.31475932503E+02 -0.14775827956E+02 -0.14954515871E+03  0.17857484510E+03  0.91192989800E+02 0.  0.
         23    2    1    2    0    0  0.13890733209E+02  0.10148765716E+03 -0.41189914668E+03  0.43283773716E+03  0.84822771978E+02 0.  0.
        -11    1    4    4    0    0  0.45202337861E+02  0.48325705598E+02 -0.15313919319E+03  0.16682397208E+03  0.00000000000E+00 0.  1.
         11    1    4    4    0    0 -0.31311604653E+02  0.53161951560E+02 -0.25875995349E+03  0.26601376508E+03  0.00000000000E+00 0. -1.
        -13    1    3    3    0    0  0.79786659262E+00  0.31783275447E+02 -0.20054068862E+02  0.37589611160E+02  0.00000000000E+00 0.  1.
         13    1    3    3    0    0  0.30678065910E+02 -0.46559103403E+02 -0.12949108985E+03  0.14098523394E+03  0.00000000000E+00 0. -1.
          1    1    1    2  501    0 -0.45366665711E+02 -0.86711829202E+02 -0.18883515121E+03  0.21268707063E+03  0.00000000000E+00 0. -1.
<scales pt_clust_5="13000.00000" pt_clust_6="13000.00000" pt_clust_7="13000.00000" pt_clust_8="13000.00000" pt_clust_9="13000.00000"></scales>
<clustering>
<clus scale="   84.823">  5  6 -1 -1</clus>
<clus scale="   91.193">  7  8 -1 -1</clus>
<clus scale="   97.597">  2  7  1 -1</clus>
<clus scale="   98.021">  5  9 -1 -1</clus>
<clus scale="  236.264">  1  5  2 -1</clus>
</clustering>
</event>
<event>
 9    1  0.3303741E-006  0.5397329E+03  0.7546771E-02  0.1011468E+00
         21   -1    0    0  501  502  0.00000000000E+00  0.00000000000E+00  0.36976376933E+03  0.36976376933E+03  0.00000000000E+00 0. -1.
          1   -1    0    0  502    0 -0.00000000000E+00 -0.00000000000E+00 -0.72173993712E+03  0.72173993712E+03  0.00000000000E+00 0. -1.
         23    2    1    2    0    0  0.89477243948E+02  0.40734031717E+03 -0.34975656698E+03  0.55176626374E+03  0.90465697767E+02 0.  0.
         23    2    1    2    0    0  0.11601483530E+01  0.99869510429E+01 -0.59584397343E+02  0.10884545443E+03  0.90531471920E+02 0.  0.
        -13    1    4    4    0    0 -0.10468757252E+02  0.46422740081E+02 -0.14553115406E+02  0.49764031620E+02  0.00000000000E+00 0.  1.
         13    1    4    4    0    0  0.11628905605E+02 -0.36435789038E+02 -0.45031281937E+02  0.59081422810E+02  0.00000000000E+00 0. -1.
        -13    1    3    3    0    0  0.52259677408E+02  0.70081540286E+02 -0.69329234379E+02  0.11157526120E+03  0.00000000000E+00 0.  1.
         13    1    3    3    0    0  0.37217566540E+02  0.33725877689E+03 -0.28042733261E+03  0.44019100254E+03  0.00000000000E+00 0. -1.
          1    1    1    2  501    0 -0.90637392301E+02 -0.41732726822E+03  0.57364796536E+02  0.43089198828E+03  0.00000000000E+00 0. -1.
<scales pt_clust_5="13000.00000" pt_clust_6="13000.00000" pt_clust_7="13000.00000" pt_clust_8="13000.00000" pt_clust_9="13000.00000"></scales>
<clustering>
<clus scale="   90.466">  7  8 -1 -1</clus>
<clus scale="   90.531">  5  6 -1 -1</clus>
<clus scale="  426.751">  2  7  1 -1</clus>
<clus scale="  139.619">  5  9 -1 -1</clus>
<clus scale="  539.733">  1  5  2 -1</clus>
</clustering>
</event>
<event>
 9    1  0.3303741E-006  0.2348787E+03  0.7546771E-02  0.1155656E+00
         21   -1    0    0  501  502  0.00000000000E+00  0.00000000000E+00  0.10367681580E+03  0.10367681580E+03  0.00000000000E+00 0. -1.
          3   -1    0    0  502    0 -0.00000000000E+00 -0.00000000000E+00 -0.28344121977E+03  0.28344121977E+03  0.00000000000E+00 0. -1.
         23    2    1    2    0    0 -0.32508621763E+02 -0.48871350258E+02 -0.66896151355E+02  0.12652789190E+03  0.89938829193E+02 0.  0.
         23    2    1    2    0    0  0.46487184187E+02 -0.31782166083E+02 -0.13818644985E+03  0.17490816765E+03  0.91248056503E+02 0.  0.
        -11    1    4    4    0    0  0.33640551439E+02  0.27632390093E+02 -0.38324960718E+02  0.58000330149E+02  0.00000000000E+00 0. -1.
         11    1    4    4    0    0  0.12846632748E+02 -0.59414556176E+02 -0.99861489127E+02  0.11690783750E+03  0.00000000000E+00 0.  1.
        -13    1    3    3    0    0  0.25438907635E+02 -0.12808106334E+01 -0.38878862993E+02  0.46479506077E+02  0.00000000000E+00 0.  1.
         13    1    3    3    0    0 -0.57947529398E+02 -0.47590539625E+02 -0.28017288362E+02  0.80048385820E+02  0.00000000000E+00 0. -1.
          3    1    1    2  501    0 -0.13978562423E+02  0.80653516341E+02  0.25318197229E+02  0.85681976031E+02  0.00000000000E+00 0. -1.
<scales pt_clust_5="13000.00000" pt_clust_6="13000.00000" pt_clust_7="13000.00000" pt_clust_8="13000.00000" pt_clust_9="13000.00000"></scales>
<clustering>
<clus scale="   89.939">  7  8 -1 -1</clus>
<clus scale="   91.248">  5  6 -1 -1</clus>
<clus scale="   81.856">  5  9 -1 -1</clus>
<clus scale="  107.397">  2  7  1 -1</clus>
<clus scale="  234.879">  1  5  2 -1</clus>
</clustering>
</event>
<event>
 9    1  0.3303741E-006  0.3353744E+03  0.7546771E-02  0.1107857E+00
          2   -1    0    0  502    0 -0.00000000000E+00  0.00000000000E+00  0.89180502234E+03  0.89180502234E+03  0.00000000000E+00 0. -1.
         21   -1    0    0  501  502  0.00000000000E+00 -0.00000000000E+00 -0.61721322278E+02  0.61721322278E+02  0.00000000000E+00 0. -1.
         23    2    1    2    0    0  0.69335144265E+02 -0.31341325829E+02  0.33545029415E+03  0.35591594278E+03  0.91430944137E+02 0.  0.
         23    2    1    2    0    0 -0.13940022016E+03 -0.66793279975E+02  0.41738620472E+03  0.45440898491E+03  0.91556092382E+02 0.  0.
        -11    1    4    4    0    0 -0.10644003882E+03 -0.22862930725E+01  0.22766625848E+03  0.25132973213E+03  0.00000000000E+00 0.  1.
         11    1    4    4    0    0 -0.32960181340E+02 -0.64506986903E+02  0.18971994623E+03  0.20307925279E+03  0.00000000000E+00 0. -1.
        -11    1    3    3    0    0 -0.42293342375E+01  0.25099377735E+02  0.56756605984E+02  0.62202719825E+02  0.00000000000E+00 0.  1.
         11    1    3    3    0    0  0.73564478503E+02 -0.56440703564E+02  0.27869368817E+03  0.29371322296E+03  0.00000000000E+00 0. -1.
          2    1    1    2  501    0  0.70065075891E+02  0.98134605804E+02  0.77247201191E+02  0.14320141692E+03  0.00000000000E+00 0. -1.
<scales pt_clust_5="13000.00000" pt_clust_6="13000.00000" pt_clust_7="13000.00000" pt_clust_8="13000.00000" pt_clust_9="13000.00000"></scales>
<clustering>
<clus scale="   91.431">  7  8 -1 -1</clus>
<clus scale="   91.556">  5  6 -1 -1</clus>
<clus scale="  118.951">  1  7  2 -1</clus>
<clus scale="  124.478">  5  9 -1 -1</clus>
<clus scale="  335.374">  2  5  1 -1</clus>
</clustering>
</event>
<event>
 9    1  0.3303741E-006  0.3961382E+03  0.7546771E-02  0.1095051E+00
         21   -1    0    0  501  502  0.00000000000E+00  0.00000000000E+00  0.41399218073E+03  0.41399218073E+03  0.00000000000E+00 0. -1.
         -3   -1    0    0    0  501 -0.00000000000E+00 -0.00000000000E+00 -0.21254400887E+03  0.21254400887E+03  0.00000000000E+00 0.  1.
         23    2    1    2    0    0  0.17180660270E+02  0.44680164119E+02 -0.89838903686E+02  0.13483136868E+03  0.88413670960E+02 0.  0.
         23    2    1    2    0    0 -0.54689354643E+02 -0.18370216478E+03  0.62890939459E+02  0.22170701759E+03  0.91985436488E+02 0.  0.
        -13    1    4    4    0    0  0.19124495582E+02 -0.25383292413E+02 -0.86601800107E+01  0.32940197067E+02  0.00000000000E+00 0.  1.
         13    1    4    4    0    0 -0.73813850225E+02 -0.15831887236E+03  0.71551119469E+02  0.18876682052E+03  0.00000000000E+00 0. -1.
        -13    1    3    3    0    0  0.10157818034E+02 -0.26648733988E+02 -0.20643542046E+02  0.35206421553E+02  0.00000000000E+00 0. -1.
         13    1    3    3    0    0  0.70228422366E+01  0.71328898107E+02 -0.69195361639E+02  0.99624947130E+02  0.00000000000E+00 0.  1.
         -3    1    1    2    0  502  0.37508694373E+02  0.13902200066E+03  0.22839613609E+03  0.26999780333E+03  0.00000000000E+00 0.  1.
<scales pt_clust_5="13000.00000" pt_clust_6="13000.00000" pt_clust_7="13000.00000" pt_clust_8="13000.00000" pt_clust_9="13000.00000"></scales>
<clustering>
<clus scale="   88.414">  7  8 -1 -1</clus>
<clus scale="   91.985">  5  6 -1 -1</clus>
<clus scale="  100.541">  2  7  1 -1</clus>
<clus scale="  153.880">  5  9 -1 -1</clus>
<clus scale="  396.138">  1  5  2 -1</clus>
</clustering>
</event>
<event>
 9    1  0.3303741E-006  0.3271624E+03  0.7546771E-02  0.1116415E+00
         21   -1    0    0  501  502  0.00000000000E+00  0.00000000000E+00  0.11075931538E+04  0.11075931538E+04  0.00000000000E+00 0. -1.
          1   -1    0    0  502    0 -0.00000000000E+00 -0.00000000000E+00 -0.42497174818E+02  0.42497174818E+02  0.00000000000E+00 0. -1.
         23    2    1    2    0    0 -0.38287318480E+02  0.28657628530E+02  0.32337031469E+03  0.33941639853E+03  0.91367131608E+02 0.  0.
         23    2    1    2    0    0  0.66161614330E+02  0.55485668514E+02  0.91186187117E+02  0.15412333633E+03  0.89347990792E+02 0.  0.
        -11    1    4    4    0    0 -0.14609561738E+02  0.33062574641E+02  0.10180687422E+02  0.37552889802E+02  0.00000000000E+00 0. -1.
         11    1    4    4    0    0  0.80771176069E+02  0.22423093872E+02  0.81005499695E+02  0.11657044653E+03  0.00000000000E+00 0.  1.
        -13    1    3    3    0    0  0.29021637896E+02  0.12610136987E+02  0.13722753832E+03  0.14082850668E+03  0.00000000000E+00 0.  1.
         13    1    3    3    0    0 -0.67308956377E+02  0.16047491543E+02  0.18614277638E+03  0.19858789185E+03  0.00000000000E+00 0. -1.
          1    1    1    2  501    0 -0.27874295850E+02 -0.84143297043E+02  0.65053947715E+03  0.65655059374E+03  0.00000000000E+00 0. -1.
<scales pt_clust_5="13000.00000" pt_clust_6="13000.00000" pt_clust_7="13000.00000" pt_clust_8="13000.00000" pt_clust_9="13000.00000"></scales>
<clustering>
<clus scale="   89.348">  5  6 -1 -1</clus>
<clus scale="   88.640">  5  9 -1 -1</clus>
<clus scale="   91.367">  7  8 -1 -1</clus>
<clus scale="  103.127">  2  7  1 -1</clus>
<clus scale="  327.162">  1  5  2 -1</clus>
</clustering>
</event>
<event>
 9    1  0.3303741E-006  0.2151400E+03  0.7546771E-02  0.1171908E+00
         21   -1    0    0  501  502  0.00000000000E+00  0.00000000000E+00  0.22805519264E+02  0.22805519264E+02  0.00000000000E+00 0. -1.
          1   -1    0    0  502    0 -0.00000000000E+00 -0.00000000000E+00 -0.10805698375E+04  0.10805698375E+04  0.00000000000E+00 0. -1.
         23    2    1    2    0    0 -0.19846294886E+02 -0.16344891182E+02 -0.39859701170E+03  0.40998746114E+03  0.92461395557E+02 0.  0.
         23    2    1    2    0    0  0.38859226978E+02 -0.68016023537E+02 -0.47270604129E+03  0.48784943461E+03  0.91705236459E+02 0.  0.
        -11    1    3    3    0    0 -0.39036890994E+02  0.25467530942E+02 -0.25422516042E+03  0.25846258178E+03  0.00000000000E+00 0.  1.
         11    1    3    3    0    0  0.19190596108E+02 -0.41812422124E+02 -0.14437185128E+03  0.15152487936E+03  0.00000000000E+00 0. -1.
        -13    1    4    4    0    0 -0.29516602097E+02 -0.31161026361E+02 -0.16526131842E+03  0.17074408548E+03  0.00000000000E+00 0.  1.
         13    1    4    4    0    0  0.68375829075E+02 -0.36854997176E+02 -0.30744472288E+03  0.31710534913E+03  0.00000000000E+00 0. -1.
          1    1    1    2  501    0 -0.19012932092E+02  0.84360914719E+02 -0.18646126522E+03  0.20553846099E+03  0.00000000000E+00 0. -1.
<scales pt_clust_5="13000.00000" pt_clust_6="13000.00000" pt_clust_7="13000.00000" pt_clust_8="13000.00000" pt_clust_9="13000.00000"></scales>
<clustering>
<clus scale="   91.705">  7  8 -1 -1</clus>
<clus scale="   86.477">  7  9 -1 -1</clus>
<clus scale="   92.461">  5  6 -1 -1</clus>
<clus scale="   95.969">  2  5  1 -1</clus>
<clus scale="  215.140">  1  5  2 -1</clus>
</clustering>
</event>
<event>
 9    1  0.3303741E-006  0.1353925E+03  0.7546771E-02  0.1238286E+00
         21   -1    0    0  501  502  0.00000000000E+00  0.00000000000E+00  0.11068526442E+03  0.11068526442E+03  0.00000000000E+00 0. -1.
         -3   -1    0    0    0  501 -0.00000000000E+00 -0.00000000000E+00 -0.14286917609E+03  0.14286917609E+03  0.00000000000E+00 0.  1.
         23    2    1    2    0    0  0.37768272489E+02  0.78159097341E+01 -0.66824594488E+02  0.11380071746E+03  0.83651335994E+02 0.  0.
         23    2    1    2    0    0  0.50574128231E+01 -0.16741457308E+02  0.25466796687E+02  0.95056240919E+02  0.89895925307E+02 0.  0.
        -13    1    4    4    0    0 -0.39830452965E+02  0.52773915936E+01  0.31429413808E+01  0.40301289383E+02  0.00000000000E+00 0. -1.
         13    1    4    4    0    0  0.44887865788E+02 -0.22018848902E+02  0.22323855306E+02  0.54754951536E+02  0.00000000000E+00 0.  1.
        -13    1    3    3    0    0  0.55075269585E+02 -0.20382711653E+02 -0.47106266647E+02  0.75284398195E+02  0.00000000000E+00 0.  1.
         13    1    3    3    0    0 -0.17306997097E+02  0.28198621387E+02 -0.19718327841E+02  0.38516319262E+02  0.00000000000E+00 0. -1.
         -3    1    1    2    0  502 -0.42825685312E+02  0.89255475740E+01  0.91738861288E+01  0.44697482129E+02  0.00000000000E+00 0.  1.
<scales pt_clust_5="13000.00000" pt_clust_6="13000.00000" pt_clust_7="13000.00000" pt_clust_8="13000.00000" pt_clust_9="13000.00000"></scales>
<clustering>
<clus scale="   83.651">  7  8 -1 -1</clus>
<clus scale="   89.896">  5  6 -1 -1</clus>
<clus scale="   43.746">  5  9 -1 -1</clus>
<clus scale="   92.114">  2  7  1 -1</clus>
<clus scale="  135.392">  1  5  2 -1</clus>
</clustering>
</event>
<event>
 9    1  0.3303741E-006  0.1817589E+03  0.7546771E-02  0.1184603E+00
         21   -1    0    0  501  502  0.00000000000E+00  0.00000000000E+00  0.15048231003E+03  0.15048231003E+03  0.00000000000E+00 0.  1.
         -3   -1    0    0    0  501 -0.00000000000E+00 -0.00000000000E+00 -0.16646328738E+03  0.16646328738E+03  0.00000000000E+00 0.  1.
         23    2    1    2    0    0  0.74330609165E+02  0.40083378822E+01 -0.54136603314E+02  0.13122498239E+03  0.93531374173E+02 0.  0.
         23    2    1    2    0    0  0.39773496291E+01  0.29758480464E+02  0.12148380376E+02  0.96565069733E+02  0.90971660846E+02 0.  0.
        -11    1    3    3    0    0  0.92182190363E+02 -0.14812755335E+02 -0.45681984011E+02  0.10394141429E+03  0.00000000000E+00 0.  1.
         11    1    3    3    0    0 -0.17851581198E+02  0.18821093217E+02 -0.84546193025E+01  0.27283568108E+02  0.00000000000E+00 0. -1.
        -13    1    4    4    0    0 -0.21500241563E+01  0.50735173263E+02 -0.22546815586E+02  0.55561131225E+02  0.00000000000E+00 0. -1.
         13    1    4    4    0    0  0.61273737853E+01 -0.20976692799E+02  0.34695195962E+02  0.41003938508E+02  0.00000000000E+00 0.  1.
         -3    1    1    2    0  502 -0.78307958794E+02 -0.33766818346E+02  0.26007245580E+02  0.89155545281E+02  0.00000000000E+00 0.  1.
<scales pt_clust_5="13000.00000" pt_clust_6="13000.00000" pt_clust_7="13000.00000" pt_clust_8="13000.00000" pt_clust_9="13000.00000"></scales>
<clustering>
<clus scale="   90.972">  7  8 -1 -1</clus>
<clus scale="   85.278">  7  9 -1 -1</clus>
<clus scale="   93.531">  5  6 -1 -1</clus>
<clus scale="  119.538">  2  5  1 -1</clus>
<clus scale="  181.759">  1  5  2 -1</clus>
</clustering>
</event>
<event>
 9    1  0.6892802E-006  0.5255408E+03  0.7546771E-02  0.1047299E+00
         -2   -1    0    0    0  501 -0.00000000000E+00  0.00000000000E+00  0.88698108442E+03  0.88698108442E+03  0.00000000000E+00 0.  1.
         21   -1    0    0  501  502  0.00000000000E+00 -0.00000000000E+00 -0.15580528783E+03  0.15580528783E+03  0.00000000000E+00 0.  1.
         23    2    1    2    0    0  0.13226673720E+03  0.28997220361E+02  0.37626860659E+03  0.40863158895E+03  0.84061778579E+02 0.  0.
         23    2    1    2    0    0  0.70112434707E+02 -0.43151626154E+02  0.40641865883E+03  0.42484375195E+03  0.92402765054E+02 0.  0.
        -13    1    4    4    0    0  0.91903590695E+02 -0.32911094489E+02  0.29089310812E+03  0.30683580377E+03  0.00000000000E+00 0.  1.
         13    1    4    4    0    0 -0.21791155988E+02 -0.10240531665E+02  0.11552555071E+03  0.11800794818E+03  0.00000000000E+00 0. -1.
        -13    1    3    3    0    0 -0.15541946349E+01  0.20879562209E+02  0.24770941349E+02  0.32434105110E+02  0.00000000000E+00 0. -1.
         13    1    3    3    0    0  0.13382093184E+03  0.81176581519E+01  0.35149766524E+03  0.37619748384E+03  0.00000000000E+00 0.  1.
         -2    1    1    2    0  502 -0.20237917191E+03  0.14154405793E+02 -0.51511468825E+02  0.20931103136E+03  0.00000000000E+00 0.  1.
<scales pt_clust_5="13000.00000" pt_clust_6="13000.00000" pt_clust_7="13000.00000" pt_clust_8="13000.00000" pt_clust_9="13000.00000"></scales>
<clustering>
<clus scale="   84.062">  7  8 -1 -1</clus>
<clus scale="   92.403">  5  6 -1 -1</clus>
<clus scale="  159.379">  1  7  2 -1</clus>
<clus scale="  182.247">  5  9 -1 -1</clus>
<clus scale="  525.541">  2  5  1 -1</clus>
</clustering>
</event>
<event>
 9    1  0.3303741E-006  0.1348836E+03  0.7546771E-02  0.1237910E+00
         21   -1    0    0  501  502  0.00000000000E+00  0.00000000000E+00  0.28005970229E+03  0.28005970229E+03  0.00000000000E+00 0.  1.
          1   -1    0    0  502    0 -0.00000000000E+00 -0.00000000000E+00 -0.47008173382E+02  0.47008173382E+02  0.00000000000E+00 0. -1.
         23    2    1    2    0    0  0.27585432415E+01  0.10955830966E+02  0.10848151152E+03  0.14346160437E+03  0.93195245556E+02 0.  0.
         23    2    1    2    0    0  0.22859697746E+02  0.19897937696E+02  0.97325186003E+02  0.13512400496E+03  0.88700683096E+02 0.  0.
        -11    1    4    4    0    0  0.49033057479E+02  0.11841121517E+02  0.95098359433E+02  0.10764827380E+03  0.00000000000E+00 0. -1.
         11    1    4    4    0    0 -0.26173359733E+02  0.80568161794E+01  0.22268265700E+01  0.27475731169E+02  0.00000000000E+00 0.  1.
        -13    1    3    3    0    0 -0.35437396580E+02 -0.18497390553E+02  0.74213418553E+02  0.84294685639E+02  0.00000000000E+00 0.  1.
         13    1    3    3    0    0  0.38195939821E+02  0.29453221520E+02  0.34268092966E+02  0.59166918732E+02  0.00000000000E+00 0. -1.
          1    1    1    2  501    0 -0.25618240987E+02 -0.30853768662E+02  0.27244831391E+02  0.48482266340E+02  0.00000000000E+00 0. -1.
<scales pt_clust_5="13000.00000" pt_clust_6="13000.00000" pt_clust_7="13000.00000" pt_clust_8="13000.00000" pt_clust_9="13000.00000"></scales>
<clustering>
<clus scale="   88.701">  5  6 -1 -1</clus>
<clus scale="   40.103">  5  9 -1 -1</clus>
<clus scale="   93.195">  7  8 -1 -1</clus>
<clus scale="   93.878">  2  7  1 -1</clus>
<clus scale="  134.884">  1  5  2 -1</clus>
</clustering>
</event>
<event>
 9    1  0.3303741E-006  0.3646521E+03  0.7546771E-02  0.1073444E+00
         -2   -1    0    0    0  501 -0.00000000000E+00  0.00000000000E+00  0.42843233348E+03  0.42843233348E+03  0.00000000000E+00 0.  1.
         21   -1    0    0  501  502  0.00000000000E+00 -0.00000000000E+00 -0.20703504835E+03  0.20703504835E+03  0.00000000000E+00 0. -1.
         23    2    1    2    0    0  0.66001809115E+02 -0.20040486607E+03  0.10661986383E+03  0.25317822219E+03  0.90625976830E+02 0.  0.
         23    2    1    2    0    0  0.72876057760E+02 -0.54879964071E+01  0.40608253189E+02  0.12309811383E+03  0.90349750982E+02 0.  0.
        -13    1    4    4    0    0 -0.14565306503E+02 -0.22795048970E+02  0.10384192619E+02  0.28975746192E+02  0.00000000000E+00 0. -1.
         13    1    4    4    0    0  0.87441364263E+02  0.17307052563E+02  0.30224060570E+02  0.94122367639E+02  0.00000000000E+00 0.  1.
        -13    1    3    3    0    0  0.68593038825E+02 -0.95781504724E+02  0.87598977612E+02  0.14680831891E+03  0.00000000000E+00 0.  1.
         13    1    3    3    0    0 -0.25912297103E+01 -0.10462336135E+03  0.19020886215E+02  0.10636990328E+03  0.00000000000E+00 0. -1.
         -2    1    1    2    0  502 -0.13887786688E+03  0.20589286248E+03  0.74169168116E+02  0.25919104581E+03  0.00000000000E+00 0.  1.
<scales pt_clust_5="13000.00000" pt_clust_6="13000.00000" pt_clust_7="13000.00000" pt_clust_8="13000.00000" pt_clust_9="13000.00000"></scales>
<clustering>
<clus scale="   90.350">  5  6 -1 -1</clus>
<clus scale="   90.626">  7  8 -1 -1</clus>
<clus scale="  229.633">  1  7  2 -1</clus>
<clus scale="  118.586">  5  9 -1 -1</clus>
<clus scale="  364.652">  2  5  1 -1</clus>
</clustering>
</event>
<event>
 9    1  0.3303741E-006  0.2960746E+03  0.7546771E-02  0.1123733E+00
          2   -1    0    0  502    0 -0.00000000000E+00  0.00000000000E+00  0.33825330696E+03  0.33825330696E+03  0.00000000000E+00 0. -1.
         21   -1    0    0  501  502  0.00000000000E+00 -0.00000000000E+00 -0.20048611398E+03  0.20048611398E+03  0.00000000000E+00 0. -1.
         23    2    1    2    0    0 -0.43545846019E+02  0.54573766819E+02  0.20467573294E+03  0.23519875132E+03  0.92475727841E+02 0.  0.
         23    2    1    2    0    0  0.13768118201E+03  0.28878068560E+02 -0.17251524045E+02  0.16829463625E+03  0.90749208190E+02 0.  0.
        -11    1    4    4    0    0  0.13973850731E+03  0.27302288573E+01 -0.22447324917E+02  0.14155630319E+03  0.00000000000E+00 0.  1.
         11    1    4    4    0    0 -0.20573253054E+01  0.26147839703E+02  0.51958008720E+01  0.26738333068E+02  0.00000000000E+00 0. -1.
        -11    1    3    3    0    0 -0.24088104445E+02  0.61737469618E+02  0.20395530659E+03  0.21445167059E+03  0.00000000000E+00 0. -1.
         11    1    3    3    0    0 -0.19457741574E+02 -0.71637027987E+01  0.72042634655E+00  0.20747080736E+02  0.00000000000E+00 0.  1.
          2    1    1    2  501    0 -0.94135335990E+02 -0.83451835379E+02 -0.49657015918E+02  0.13524603336E+03  0.00000000000E+00 0. -1.
<scales pt_clust_5="13000.00000" pt_clust_6="13000.00000" pt_clust_7="13000.00000" pt_clust_8="13000.00000" pt_clust_9="13000.00000"></scales>
<clustering>
<clus scale="   90.749">  5  6 -1 -1</clus>
<clus scale="   92.476">  7  8 -1 -1</clus>
<clus scale="  115.872">  1  7  2 -1</clus>
<clus scale="  127.020">  5  9 -1 -1</clus>
<clus scale="  296.075">  2  5  1 -1</clus>
</clustering>
</event>
<event>
 9    1  0.3303741E-006  0.3096172E+03  0.7546771E-02  0.1108322E+00
          2   -1    0    0  502    0 -0.00000000000E+00  0.00000000000E+00  0.28602720936E+03  0.28602720936E+03  0.00000000000E+00 0. -1.
         21   -1    0    0  501  502  0.00000000000E+00 -0.00000000000E+00 -0.19131015072E+03  0.19131015072E+03  0.00000000000E+00 0. -1.
         23    2    1    2    0    0  0.73143520966E+02 -0.92056180600E+02 -0.11936905569E+02  0.14986543818E+03  0.92156631883E+02 0.  0.
         23    2    1    2    0    0 -0.14169384376E+03  0.64996085259E+02  0.15273149073E+03  0.24055509980E+03  0.10118404679E+03 0.  0.
        -11    1    4    4    0    0 -0.47019573482E+01  0.46335203111E+02  0.27959340900E+02  0.54321121065E+02  0.00000000000E+00 0.  1.
         11    1    4    4    0    0 -0.13699188641E+03  0.18660882148E+02  0.12477214983E+03  0.18623397874E+03  0.00000000000E+00 0. -1.
        -13    1    3    3    0    0  0.91036424479E+02 -0.50812438252E+02 -0.11657596219E+02  0.10490678726E+03  0.00000000000E+00 0.  1.
         13    1    3    3    0    0 -0.17892903513E+02 -0.41243742348E+02 -0.27930935002E+00  0.44958650921E+02  0.00000000000E+00 0. -1.
          2    1    1    2  501    0  0.68550322791E+02  0.27060095341E+02 -0.46077526520E+02  0.86916822105E+02  0.00000000000E+00 0. -1.
<scales pt_clust_5="13000.00000" pt_clust_6="13000.00000" pt_clust_7="13000.00000" pt_clust_8="13000.00000" pt_clust_9="13000.00000"></scales>
<clustering>
<clus scale="   92.157">  7  8 -1 -1</clus>
<clus scale="  101.184">  5  6 -1 -1</clus>
<clus scale="   73.698">  5  9 -1 -1</clus>
<clus scale="  149.389">  1  7  2 -1</clus>
<clus scale="  309.617">  2  5  1 -1</clus>
</clustering>
</event>
<event>
 9    1  0.3303741E-006  0.2198980E+03  0.7546771E-02  0.1143815E+00
          2   -1    0    0  502    0 -0.00000000000E+00  0.00000000000E+00  0.80208879540E+02  0.80208879540E+02  0.00000000000E+00 0. -1.
         21   -1    0    0  501  502  0.00000000000E+00 -0.00000000000E+00 -0.66337597712E+03  0.66337597712E+03  0.00000000000E+00 0. -1.
         23    2    1    2    0    0 -0.70671519498E+02  0.12897850340E+03 -0.72984272089E+02  0.18802960236E+03  0.91643381557E+02 0.  0.
         23    2    1    2    0    0  0.24631612426E+02 -0.41787279432E+02 -0.19158990484E+03  0.22205348269E+03  0.10123321829E+03 0.  0.
        -11    1    4    4    0    0 -0.18463736873E+02 -0.35881924069E+02 -0.16757738247E+03  0.17236763376E+03  0.00000000000E+00 0. -1.
         11    1    4    4    0    0  0.43095349299E+02 -0.59053553628E+01 -0.24012522373E+02  0.49685848930E+02  0.00000000000E+00 0.  1.
        -11    1    3    3    0    0  0.62537887483E+01  0.34788104630E+02 -0.54591727953E+02  0.65035212450E+02  0.00000000000E+00 0.  1.
         11    1    3    3    0    0 -0.76925308246E+02  0.94190398767E+02 -0.18392544136E+02  0.12299438991E+03  0.00000000000E+00 0. -1.
          2    1    1    2  501    0  0.46039907071E+02 -0.87191223965E+02 -0.31859292065E+03  0.33350177161E+03  0.00000000000E+00 0. -1.
<scales pt_clust_5="13000.00000" pt_clust_6="13000.00000" pt_clust_7="13000.00000" pt_clust_8="13000.00000" pt_clust_9="13000.00000"></scales>
<clustering>
<clus scale="   91.643">  7  8 -1 -1</clus>
<clus scale="  101.233">  5  6 -1 -1</clus>
<clus scale="   98.600">  5  9 -1 -1</clus>
<clus scale="  173.287">  1  7  2 -1</clus>
<clus scale="  219.898">  2  5  1 -1</clus>
</clustering>
</event>
<event>
 9    1  0.3303741E-006  0.2279277E+03  0.7546771E-02  0.1165227E+00
          1   -1    0    0  502    0 -0.00000000000E+00  0.00000000000E+00  0.25154930694E+03  0.25154930694E+03  0.00000000000E+00 0. -1.
         21   -1    0    0  501  502  0.00000000000E+00 -0.00000000000E+00 -0.16548746610E+03  0.16548746610E+03  0.00000000000E+00 0. -1.
         23    2    1    2    0    0  0.15749532096E+02 -0.12403596366E+02  0.15289280506E+03  0.17951328196E+03  0.91907081325E+02 0.  0.
         23    2    1    2    0    0  0.74965930338E+02  0.13710625085E+02  0.79473076457E+01  0.11995311474E+03  0.92291484364E+02 0.  0.
        -11    1    3    3    0    0  0.18272473915E+02 -0.51025472685E+02  0.74990044713E+02  0.92525612518E+02  0.00000000000E+00 0. -1.
         11    1    3    3    0    0 -0.25229418188E+01  0.38621876319E+02  0.77902760344E+02  0.86987669442E+02  0.00000000000E+00 0.  1.
        -11    1    4    4    0    0 -0.27050860993E+01 -0.29468739377E+02  0.94782663122E+01  0.31073487470E+02  0.00000000000E+00 0.  1.
         11    1    4    4    0    0  0.77671016437E+02  0.43179364462E+02 -0.15309586665E+01  0.88879627273E+02  0.00000000000E+00 0. -1.
          1    1    1    2  501    0 -0.90715462434E+02 -0.13070287191E+01 -0.74778271866E+02  0.11757037634E+03  0.00000000000E+00 0. -1.
<scales pt_clust_5="13000.00000" pt_clust_6="13000.00000" pt_clust_7="13000.00000" pt_clust_8="13000.00000" pt_clust_9="13000.00000"></scales>
<clustering>
<clus scale="   91.907">  5  6 -1 -1</clus>
<clus scale="   92.291">  7  8 -1 -1</clus>
<clus scale="   90.725">  7  9 -1 -1</clus>
<clus scale="   94.068">  1  5  2 -1</clus>
<clus scale="  227.928">  2  5  1 -1</clus>
</clustering>
</event>
<event>
 9    1  0.3303741E-006  0.3512787E+03  0.7546771E-02  0.1105674E+00
         -3   -1    0    0    0  501 -0.00000000000E+00  0.00000000000E+00  0.80284170698E+03  0.80284170698E+03  0.00000000000E+00 0.  1.
         21   -1    0    0  501  502  0.00000000000E+00 -0.00000000000E+00 -0.68205458069E+02  0.68205458069E+02  0.00000000000E+00 0.  1.
         23    2    1    2    0    0  0.19673894628E+02  0.65880443134E+02  0.24590158272E+03  0.26916816801E+03  0.85185793215E+02 0.  0.
         23    2    1    2    0    0 -0.11718584073E+03  0.72793481624E+02  0.16328075022E+03  0.23491947822E+03  0.97443037812E+02 0.  0.
        -11    1    3    3    0    0 -0.30782713310E+02  0.13717348616E+02  0.11075132979E+03  0.11576527174E+03  0.00000000000E+00 0. -1.
         11    1    3    3    0    0  0.50456607938E+02  0.52163094518E+02  0.13515025294E+03  0.15340289627E+03  0.00000000000E+00 0.  1.
        -13    1    4    4    0    0 -0.11286846775E+03  0.22400251772E+02  0.91018595913E+02  0.14671553120E+03  0.00000000000E+00 0.  1.
         13    1    4    4    0    0 -0.43173729743E+01  0.50393229852E+02  0.72262154312E+02  0.88203947021E+02  0.00000000000E+00 0. -1.
         -3    1    1    2    0  502  0.97511946098E+02 -0.13867392476E+03  0.32545391597E+03  0.36695951883E+03  0.00000000000E+00 0.  1.
<scales pt_clust_5="13000.00000" pt_clust_6="13000.00000" pt_clust_7="13000.00000" pt_clust_8="13000.00000" pt_clust_9="13000.00000"></scales>
<clustering>
<clus scale="   85.186">  5  6 -1 -1</clus>
<clus scale="   97.443">  7  8 -1 -1</clus>
<clus scale="  109.471">  1  5  2 -1</clus>
<clus scale="  146.561">  7  9 -1 -1</clus>
<clus scale="  351.279">  2  5  1 -1</clus>
</clustering>
</event>
<event>
 9    1  0.3303741E-006  0.1282133E+03  0.7546771E-02  0.1241702E+00
         -4   -1    0    0    0  501 -0.00000000000E+00  0.00000000000E+00  0.51904316451E+03  0.51904316451E+03  0.00000000000E+00 0.  1.
         21   -1    0    0  501  502  0.00000000000E+00 -0.00000000000E+00 -0.39995229005E+02  0.39995229005E+02  0.00000000000E+00 0. -1.
         23    2    1    2    0    0 -0.35203093037E+02  0.35366562707E+02  0.39004778482E+03  0.40296254780E+03  0.88042540694E+02 0.  0.
         23    2    1    2    0    0 -0.33749704719E+01 -0.17804559635E+02  0.63256075374E+02  0.10648302013E+03  0.83719231567E+02 0.  0.
        -11    1    4    4    0    0 -0.41451388281E+02  0.41288518796E+00  0.19933118467E+02  0.45996926815E+02  0.00000000000E+00 0. -1.
         11    1    4    4    0    0  0.38076417809E+02 -0.18217444823E+02  0.43322956907E+02  0.60486093312E+02  0.00000000000E+00 0.  1.
        -13    1    3    3    0    0 -0.11950695197E+02 -0.28780064323E+02  0.89595827436E+02  0.94860547711E+02  0.00000000000E+00 0.  1.
         13    1    3    3    0    0 -0.23252397840E+02  0.64146627030E+02  0.30045195738E+03  0.30810200009E+03  0.00000000000E+00 0. -1.
         -4    1    1    2    0  502  0.38578063509E+02 -0.17562003072E+02  0.25744075316E+02  0.49592825589E+02  0.00000000000E+00 0.  1.
<scales pt_clust_5="13000.00000" pt_clust_6="13000.00000" pt_clust_7="13000.00000" pt_clust_8="13000.00000" pt_clust_9="13000.00000"></scales>
<clustering>
<clus scale="   83.719">  5  6 -1 -1</clus>
<clus scale="   42.387">  5  9 -1 -1</clus>
<clus scale="   88.043">  7  8 -1 -1</clus>
<clus scale="  101.200">  1  7  2 -1</clus>
<clus scale="  128.213">  2  5  1 -1</clus>
</clustering>
</event>
<event>
 9    1  0.3303741E-006  0.2253073E+03  0.7546771E-02  0.1156776E+00
         21   -1    0    0  501  502  0.00000000000E+00  0.00000000000E+00  0.12314525118E+04  0.12314525118E+04  0.00000000000E+00 0.  1.
         -1   -1    0    0    0  501 -0.00000000000E+00 -0.00000000000E+00 -0.56403971060E+02  0.56403971060E+02  0.00000000000E+00 0.  1.
         23    2    1    2    0    0  0.69304326777E+02  0.12170942644E+02  0.31934471432E+02  0.12274998500E+03  0.95375713873E+02 0.  0.
         23    2    1    2    0    0  0.25984931625E+01 -0.84200937936E+02  0.58704366610E+03  0.59979894523E+03  0.89676968476E+02 0.  0.
        -13    1    3    3    0    0 -0.48408100008E+01  0.33042747864E+02 -0.10243729914E+02  0.34931227153E+02  0.00000000000E+00 0. -1.
         13    1    3    3    0    0  0.74145136778E+02 -0.20871805220E+02  0.42178201346E+02  0.87818757846E+02  0.00000000000E+00 0.  1.
        -13    1    4    4    0    0  0.43528339755E+02 -0.63924812708E+02  0.37479039013E+03  0.38268647033E+03  0.00000000000E+00 0. -1.
         13    1    4    4    0    0 -0.40929846592E+02 -0.20276125229E+02  0.21225327597E+03  0.21711247490E+03  0.00000000000E+00 0.  1.
         -1    1    1    2    0  502 -0.71902819939E+02  0.72029995292E+02  0.55607040320E+03  0.56530755262E+03  0.00000000000E+00 0.  1.
<scales pt_clust_5="13000.00000" pt_clust_6="13000.00000" pt_clust_7="13000.00000" pt_clust_8="13000.00000" pt_clust_9="13000.00000"></scales>
<clustering>
<clus scale="   89.677">  7  8 -1 -1</clus>
<clus scale="   95.376">  5  6 -1 -1</clus>
<clus scale="  101.776">  7  9 -1 -1</clus>
<clus scale="  118.523">  2  5  1 -1</clus>
<clus scale="  225.307">  1  5  2 -1</clus>
</clustering>
</event>
<event>
 9    1  0.3303741E-006  0.2789640E+03  0.7546771E-02  0.1100831E+00
         21   -1    0    0  501  502  0.00000000000E+00  0.00000000000E+00  0.96863059553E+02  0.96863059553E+02  0.00000000000E+00 0. -1.
          3   -1    0    0  502    0 -0.00000000000E+00 -0.00000000000E+00 -0.91495845479E+03  0.91495845479E+03  0.00000000000E+00 0. -1.
         23    2    1    2    0    0  0.12999615591E+03 -0.19033841686E+03 -0.62574044748E+03  0.67296850880E+03  0.90596869394E+02 0.  0.
         23    2    1    2    0    0 -0.46733510550E+02  0.77706816367E+02 -0.13820031319E+03  0.18868220283E+03  0.90990531262E+02 0.  0.
        -11    1    3    3    0    0  0.67167618678E+02 -0.41167693685E+02 -0.28581327668E+03  0.29647174761E+03  0.00000000000E+00 0.  1.
         11    1    3    3    0    0  0.62828537229E+02 -0.14917072318E+03 -0.33992717080E+03  0.37649676120E+03  0.00000000000E+00 0. -1.
        -13    1    4    4    0    0 -0.61789820800E+02  0.43085242091E+02 -0.12969273945E+03  0.14998175458E+03  0.00000000000E+00 0.  1.
         13    1    4    4    0    0  0.15056310250E+02  0.34621574275E+02 -0.85075737419E+01  0.38700448248E+02  0.00000000000E+00 0. -1.
          3    1    1    2  501    0 -0.83262645357E+02  0.11263160050E+03 -0.54154634563E+02  0.15017080271E+03  0.00000000000E+00 0. -1.
<scales pt_clust_5="13000.00000" pt_clust_6="13000.00000" pt_clust_7="13000.00000" pt_clust_8="13000.00000" pt_clust_9="13000.00000"></scales>
<clustering>
<clus scale="   90.597">  5  6 -1 -1</clus>
<clus scale="   90.991">  7  8 -1 -1</clus>
<clus scale="  140.066">  7  9 -1 -1</clus>
<clus scale="  247.660">  2  5  1 -1</clus>
<clus scale="  278.964">  1  5  2 -1</clus>
</clustering>
</event>
<event>
 9    1  0.3303741E-006  0.3111316E+03  0.7546771E-02  0.1098444E+00
          1   -1    0    0  502    0 -0.00000000000E+00  0.00000000000E+00  0.81278937152E+03  0.81278937152E+03  0.00000000000E+00 0. -1.
         21   -1    0    0  501  502  0.00000000000E+00 -0.00000000000E+00 -0.12552725168E+03  0.12552725168E+03  0.00000000000E+00 0.  1.
         23    2    1    2    0    0 -0.16636705701E+03 -0.40958758977E+01  0.57824737277E+03  0.60863932943E+03  0.91526145742E+02 0.  0.
         23    2    1    2    0    0  0.21847594705E+03  0.45475280128E+02  0.10351267760E+03  0.26291005418E+03  0.92774358638E+02 0.  0.
        -11    1    4    4    0    0  0.17901278723E+03 -0.26602961759E+01  0.70123867985E+02  0.19227587480E+03  0.00000000000E+00 0.  1.
         11    1    4    4    0    0  0.39463159820E+02  0.48135576304E+02  0.33388809613E+02  0.70634179378E+02  0.00000000000E+00 0. -1.
        -11    1    3    3    0    0 -0.15134579344E+00 -0.20704550342E+02  0.39618423859E+02  0.44702581799E+02  0.00000000000E+00 0.  1.
         11    1    3    3    0    0 -0.16621571122E+03  0.16608674445E+02  0.53862894891E+03  0.56393674763E+03  0.00000000000E+00 0. -1.
          1    1    1    2  501    0 -0.52108890039E+02 -0.41379404230E+02  0.55020694691E+01  0.66767239601E+02  0.00000000000E+00 0. -1.
<scales pt_clust_5="13000.00000" pt_clust_6="13000.00000" pt_clust_7="13000.00000" pt_clust_8="13000.00000" pt_clust_9="13000.00000"></scales>
<clustering>
<clus scale="   91.526">  7  8 -1 -1</clus>
<clus scale="   92.774">  5  6 -1 -1</clus>
<clus scale="   66.540">  5  9 -1 -1</clus>
<clus scale="  189.926">  1  7  2 -1</clus>
<clus scale="  311.132">  2  5  1 -1</clus>
</clustering>
</event>
<event>
 9    1  0.3303741E-006  0.2793749E+03  0.7546771E-02  0.1126679E+00
          1   -1    0    0  502    0 -0.00000000000E+00  0.00000000000E+00  0.22394718307E+03  0.22394718307E+03  0.00000000000E+00 0. -1.
         21   -1    0    0  501  502  0.00000000000E+00 -0.00000000000E+00 -0.26139567683E+03  0.26139567683E+03  0.00000000000E+00 0. -1.
         23    2    1    2    0    0 -0.69652352250E+01  0.89414384517E+02  0.11045731422E+03  0.16923135260E+03  0.91624154990E+02 0.  0.
         23    2    1    2    0    0 -0.77230163166E+02 -0.71599927651E+02  0.34202497057E+01  0.14202590849E+03  0.95229264575E+02 0.  0.
        -13    1    4    4    0    0 -0.34313349617E+02  0.15276466393E+02  0.21758084432E+02  0.43407264663E+02  0.00000000000E+00 0.  1.
         13    1    4    4    0    0 -0.42916813549E+02 -0.86876394044E+02 -0.18337834727E+02  0.98618643824E+02  0.00000000000E+00 0. -1.
        -13    1    3    3    0    0  0.35345934860E+02  0.46163853689E+02  0.22221145131E+02  0.62243198741E+02  0.00000000000E+00 0.  1.
         13    1    3    3    0    0 -0.42311170085E+02  0.43250530828E+02  0.88236169085E+02  0.10698815386E+03  0.00000000000E+00 0. -1.
          1    1    1    2  501    0  0.84195398391E+02 -0.17814456866E+02 -0.15132605767E+03  0.17408559882E+03  0.00000000000E+00 0. -1.
<scales pt_clust_5="13000.00000" pt_clust_6="13000.00000" pt_clust_7="13000.00000" pt_clust_8="13000.00000" pt_clust_9="13000.00000"></scales>
<clustering>
<clus scale="   91.624">  7  8 -1 -1</clus>
<clus scale="   95.229">  5  6 -1 -1</clus>
<clus scale="   86.059">  5  9 -1 -1</clus>
<clus scale="  128.212">  1  7  2 -1</clus>
<clus scale="  279.375">  2  5  1 -1</clus>
</clustering>
</event>
<event>
 9    1  0.3303741E-006  0.5034738E+03  0.7546771E-02  0.1061535E+00
         21   -1    0    0  501  502  0.00000000000E+00  0.00000000000E+00  0.71778335481E+02  0.71778335481E+02  0.00000000000E+00 0. -1.
          2   -1    0    0  502    0 -0.00000000000E+00 -0.00000000000E+00 -0.16761454391E+04  0.16761454391E+04  0.00000000000E+00 0. -1.
         23    2    1    2    0    0 -0.34398639201E+02  0.71868349287E+02 -0.72134988174E+03  0.73145670319E+03  0.91295841841E+02 0.  0.
         23    2    1    2    0    0 -0.12488652890E+03  0.10982312958E+03 -0.66299561783E+03  0.68967498990E+03  0.91818503280E+02 0.  0.
        -11    1    3    3    0    0 -0.57071564556E+02  0.78914622369E+02 -0.58750293702E+03  0.59552026171E+03  0.00000000000E+00 0. -1.
         11    1    3    3    0    0  0.22672925355E+02 -0.70462730828E+01 -0.13384694473E+03  0.13593644147E+03  0.00000000000E+00 0.  1.
        -11    1    4    4    0    0 -0.12549751341E+03  0.61882609692E+02 -0.44549429767E+03  0.46695208802E+03  0.00000000000E+00 0. -1.
         11    1    4    4    0    0  0.61098451414E+00  0.47940519889E+02 -0.21750132016E+03  0.22272290188E+03  0.00000000000E+00 0.  1.
          2    1    1    2  501    0  0.15928516810E+03 -0.18169147887E+03 -0.22002160400E+03  0.32679208145E+03  0.00000000000E+00 0. -1.
<scales pt_clust_5="13000.00000" pt_clust_6="13000.00000" pt_clust_7="13000.00000" pt_clust_8="13000.00000" pt_clust_9="13000.00000"></scales>
<clustering>
<clus scale="   91.296">  5  6 -1 -1</clus>
<clus scale="   91.819">  7  8 -1 -1</clus>
<clus scale="  121.174">  2  5  1 -1</clus>
<clus scale="  219.629">  7  9 -1 -1</clus>
<clus scale="  503.474">  1  5  2 -1</clus>
</clustering>
</event>
<event>
 9    1  0.3303741E-006  0.2641116E+03  0.7546771E-02  0.1117336E+00
          2   -1    0    0  502    0 -0.00000000000E+00  0.00000000000E+00  0.18920437624E+04  0.18920437624E+04  0.00000000000E+00 0. -1.
         21   -1    0    0  501  502  0.00000000000E+00 -0.00000000000E+00 -0.27611868162E+02  0.27611868162E+02  0.00000000000E+00 0. -1.
         23    2    1    2    0    0 -0.94414932484E+02 -0.13423229258E+03  0.86119321413E+03  0.88223442245E+03  0.98748854448E+02 0.  0.
         23    2    1    2    0    0 -0.15043341100E+02  0.12049897995E+02  0.49545291074E+03  0.50379583504E+03  0.89247714225E+02 0.  0.
        -11    1    4    4    0    0 -0.34878459008E+02 -0.29154269056E+02  0.25973683233E+03  0.26368485049E+03  0.00000000000E+00 0.  1.
         11    1    4    4    0    0  0.19835117908E+02  0.41204167051E+02  0.23571607841E+03  0.24011098456E+03  0.00000000000E+00 0. -1.
        -13    1    3    3    0    0 -0.85893294265E+02 -0.47578179218E+02  0.34303893355E+03  0.35681514972E+03  0.00000000000E+00 0.  1.
         13    1    3    3    0    0 -0.85216382188E+01 -0.86654113360E+02  0.51815428057E+03  0.52541927273E+03  0.00000000000E+00 0. -1.
          2    1    1    2  501    0  0.10945827358E+03  0.12218239458E+03  0.50778576933E+03  0.53362537303E+03  0.00000000000E+00 0. -1.
<scales pt_clust_5="13000.00000" pt_clust_6="13000.00000" pt_clust_7="13000.00000" pt_clust_8="13000.00000" pt_clust_9="13000.00000"></scales>
<clustering>
<clus scale="   89.248">  5  6 -1 -1</clus>
<clus scale="   98.749">  7  8 -1 -1</clus>
<clus scale="  164.042">  5  9 -1 -1</clus>
<clus scale="  191.530">  1  7  2 -1</clus>
<clus scale="  264.112">  2  5  1 -1</clus>
</clustering>
</event>
<event>
 9    1  0.3303741E-006  0.2318287E+03  0.7546771E-02  0.1162671E+00
         21   -1    0    0  501  502  0.00000000000E+00  0.00000000000E+00  0.21325090141E+03  0.21325090141E+03  0.00000000000E+00 0. -1.
          4   -1    0    0  502    0 -0.00000000000E+00 -0.00000000000E+00 -0.13995587442E+03  0.13995587442E+03  0.00000000000E+00 0. -1.
         23    2    1    2    0    0  0.31250130682E+02 -0.35781589812E+02  0.75728921022E+02  0.12136526715E+03  0.82083894610E+02 0.  0.
         23    2    1    2    0    0  0.37377863722E+01  0.19648590307E+02 -0.93629219416E+02  0.13284143098E+03  0.92088961927E+02 0.  0.
        -11    1    3    3    0    0 -0.22304527906E+02 -0.62260136564E+01  0.49813454510E+02  0.54933008850E+02  0.00000000000E+00 0.  1.
         11    1    3    3    0    0  0.53554658588E+02 -0.29555576156E+02  0.25915466512E+02  0.66432258301E+02  0.00000000000E+00 0. -1.
        -11    1    4    4    0    0  0.26840491853E+02  0.33657765175E+02 -0.96503942562E+02  0.10567056397E+03  0.00000000000E+00 0. -1.
         11    1    4    4    0    0 -0.23102705481E+02 -0.14009174868E+02  0.28747231465E+01  0.27170867012E+02  0.00000000000E+00 0.  1.
          4    1    1    2  501    0 -0.34987917055E+02  0.16132999505E+02  0.91195325386E+02  0.99000077703E+02  0.00000000000E+00 0. -1.
<scales pt_clust_5="13000.00000" pt_clust_6="13000.00000" pt_clust_7="13000.00000" pt_clust_8="13000.00000" pt_clust_9="13000.00000"></scales>
<clustering>
<clus scale="   82.084">  5  6 -1 -1</clus>
<clus scale="   92.089">  7  8 -1 -1</clus>
<clus scale="   38.528">  7  9 -1 -1</clus>
<clus scale="   94.840">  2  5  1 -1</clus>
<clus scale="  231.829">  1  5  2 -1</clus>
</clustering>
</event>
<event>
 9    1  0.3303741E-006  0.3327040E+03  0.7546771E-02  0.1115288E+00
          1   -1    0    0  502    0 -0.00000000000E+00  0.00000000000E+00  0.68186880568E+03  0.68186880568E+03  0.00000000000E+00 0. -1.
         21   -1    0    0  501  502  0.00000000000E+00 -0.00000000000E+00 -0.80517432963E+02  0.80517432963E+02  0.00000000000E+00 0. -1.
         23    2    1    2    0    0  0.79582245692E+01 -0.43781930748E+02  0.28874544749E+03  0.30586194701E+03  0.90539529400E+02 0.  0.
         23    2    1    2    0    0  0.41131153736E+02 -0.38315006048E+01 -0.30580411894E+02  0.10659048662E+03  0.93380501395E+02 0.  0.
        -11    1    3    3    0    0 -0.23490299719E+02  0.16442305853E+02  0.50005313821E+02  0.57642649253E+02  0.00000000000E+00 0. -1.
         11    1    3    3    0    0  0.31448524288E+02 -0.60224236601E+02  0.23874013367E+03  0.24821929775E+03  0.00000000000E+00 0.  1.
        -13    1    4    4    0    0 -0.59578446845E+01  0.23940254213E+02  0.20269120763E+02  0.31929123721E+02  0.00000000000E+00 0.  1.
         13    1    4    4    0    0  0.47088998420E+02 -0.27771754818E+02 -0.50849532657E+02  0.74661362895E+02  0.00000000000E+00 0. -1.
          1    1    1    2  501    0 -0.49089378305E+02  0.47613431353E+02  0.34318633712E+03  0.34993380502E+03  0.00000000000E+00 0. -1.
<scales pt_clust_5="13000.00000" pt_clust_6="13000.00000" pt_clust_7="13000.00000" pt_clust_8="13000.00000" pt_clust_9="13000.00000"></scales>
<clustering>
<clus scale="   90.540">  5  6 -1 -1</clus>
<clus scale="   93.381">  7  8 -1 -1</clus>
<clus scale="   68.387">  7  9 -1 -1</clus>
<clus scale="  100.884">  1  5  2 -1</clus>
<clus scale="  332.704">  2  5  1 -1</clus>
</clustering>
</event>
<event>
 9    1  0.3303741E-006  0.2997272E+03  0.7546771E-02  0.1108004E+00
         -3   -1    0    0    0  501 -0.00000000000E+00  0.00000000000E+00  0.25651198194E+03  0.25651198194E+03  0.00000000000E+00 0.  1.
         21   -1    0    0  501  502  0.00000000000E+00 -0.00000000000E+00 -0.30971954939E+03  0.30971954939E+03  0.00000000000E+00 0.  1.
         23    2    1    2    0    0 -0.75364162791E+02  0.11983327544E+03  0.13356457665E+03  0.21307399426E+03  0.86725197945E+02 0.  0.
         23    2    1    2    0    0  0.49156079380E+02 -0.59759678955E+02  0.34003815448E+02  0.12285832965E+03  0.89164849190E+02 0.  0.
        -11    1    3    3    0    0 -0.37289635877E+02  0.37078711899E+02  0.14596019159E+01  0.52606827102E+02  0.00000000000E+00 0. -1.
         11    1    3    3    0    0 -0.38074526913E+02  0.82754563537E+02  0.13210497473E+03  0.16046716715E+03  0.00000000000E+00 0.  1.
        -13    1    4    4    0    0  0.34061998216E+02  0.18156751244E+02  0.88250260768E+01  0.39595055543E+02  0.00000000000E+00 0.  1.
         13    1    4    4    0    0  0.15094081164E+02 -0.77916430199E+02  0.25178789371E+02  0.83263274109E+02  0.00000000000E+00 0. -1.
         -3    1    1    2    0  502  0.26208083411E+02 -0.60073596481E+02 -0.22077595954E+03  0.23029920742E+03  0.00000000000E+00 0.  1.
<scales pt_clust_5="13000.00000" pt_clust_6="13000.00000" pt_clust_7="13000.00000" pt_clust_8="13000.00000" pt_clust_9="13000.00000"></scales>
<clustering>
<clus scale="   86.725">  5  6 -1 -1</clus>
<clus scale="   89.165">  7  8 -1 -1</clus>
<clus scale="   65.542">  7  9 -1 -1</clus>
<clus scale="  166.015">  1  5  2 -1</clus>
<clus scale="  299.727">  2  5  1 -1</clus>
</clustering>
</event>
<event>
 9    1  0.3303741E-006  0.2681653E+03  0.7546771E-02  0.1142007E+00
         21   -1    0    0  501  502  0.00000000000E+00  0.00000000000E+00  0.48388077204E+03  0.48388077204E+03  0.00000000000E+00 0.  1.
         -2   -1    0    0    0  501 -0.00000000000E+00 -0.00000000000E+00 -0.13581965323E+03  0.13581965323E+03  0.00000000000E+00 0.  1.
         23    2    1    2    0    0  0.30218134446E+02 -0.30651201080E+02 -0.70800228149E+02  0.12234999475E+03  0.90023425471E+02 0.  0.
         23    2    1    2    0    0 -0.76825849644E+02  0.11634591401E+03  0.30138638238E+03  0.34465390062E+03  0.92271213533E+02 0.  0.
        -11    1    4    4    0    0  0.14155197696E+02  0.34290345751E+02  0.12127418083E+03  0.12682122996E+03  0.00000000000E+00 0. -1.
         11    1    4    4    0    0 -0.90981047340E+02  0.82055568258E+02  0.18011220155E+03  0.21783267065E+03  0.00000000000E+00 0.  1.
        -13    1    3    3    0    0  0.14409536912E+02  0.25899948538E+02  0.92693398684E+00  0.29653014938E+02  0.00000000000E+00 0.  1.
         13    1    3    3    0    0  0.15808597534E+02 -0.56551149618E+02 -0.71727162136E+02  0.92696979817E+02  0.00000000000E+00 0. -1.
         -2    1    1    2    0  502  0.46607715198E+02 -0.85694712929E+02  0.11747496458E+03  0.15269652990E+03  0.00000000000E+00 0.  1.
<scales pt_clust_5="13000.00000" pt_clust_6="13000.00000" pt_clust_7="13000.00000" pt_clust_8="13000.00000" pt_clust_9="13000.00000"></scales>
<clustering>
<clus scale="   90.023">  7  8 -1 -1</clus>
<clus scale="   92.271">  5  6 -1 -1</clus>
<clus scale="   97.549">  5  9 -1 -1</clus>
<clus scale="   99.784">  2  7  1 -1</clus>
<clus scale="  268.165">  1  5  2 -1</clus>
</clustering>
</event>
<event>
 9    1  0.3303741E-006  0.1631037E+03  0.7546771E-02  0.1206877E+00
          2   -1    0    0  502    0 -0.00000000000E+00  0.00000000000E+00  0.62016156010E+03  0.62016156010E+03  0.00000000000E+00 0. -1.
         21   -1    0    0  501  502  0.00000000000E+00 -0.00000000000E+00 -0.31504203989E+02  0.31504203989E+02  0.00000000000E+00 0.  1.
         23    2    1    2    0    0  0.41772189428E+02  0.37755286506E+01  0.13084450475E+03  0.16566636285E+03  0.92552087659E+02 0.  0.
         23    2    1    2    0    0 -0.36506343567E+02 -0.36385702210E+02  0.43030631969E+03  0.44301380090E+03  0.91875277270E+02 0.  0.
        -11    1    4    4    0    0 -0.64453451914E+02 -0.72433695794E+01  0.27491173843E+03  0.28245916128E+03  0.00000000000E+00 0.  1.
         11    1    4    4    0    0  0.27947108347E+02 -0.29142332631E+02  0.15539458127E+03  0.16055463962E+03  0.00000000000E+00 0. -1.
        -11    1    3    3    0    0 -0.62671557855E+01  0.35235668549E+02  0.84864682744E+02  0.92102355871E+02  0.00000000000E+00 0. -1.
         11    1    3    3    0    0  0.48039345213E+02 -0.31460139899E+02  0.45979822009E+02  0.73564006980E+02  0.00000000000E+00 0.  1.
          2    1    1    2  501    0 -0.52658458608E+01  0.32610173560E+02  0.27506531662E+02  0.42985600337E+02  0.00000000000E+00 0. -1.
<scales pt_clust_5="13000.00000" pt_clust_6="13000.00000" pt_clust_7="13000.00000" pt_clust_8="13000.00000" pt_clust_9="13000.00000"></scales>
<clustering>
<clus scale="   91.875">  5  6 -1 -1</clus>
<clus scale="   33.033">  5  9 -1 -1</clus>
<clus scale="   92.552">  7  8 -1 -1</clus>
<clus scale="  101.612">  1  7  2 -1</clus>
<clus scale="  163.104">  2  5  1 -1</clus>
</clustering>
</event>
<event>
 9    1  0.3303741E-006  0.2705533E+03  0.7546771E-02  0.1133679E+00
          2   -1    0    0  502    0 -0.00000000000E+00  0.00000000000E+00  0.82859858529E+03  0.82859858529E+03  0.00000000000E+00 0. -1.
         21   -1    0    0  501  502  0.00000000000E+00 -0.00000000000E+00 -0.55718754664E+02  0.55718754664E+02  0.00000000000E+00 0.  1.
         23    2    1    2    0    0  0.66463144079E+02 -0.19143654750E+02  0.43776955590E+03  0.45362259949E+03  0.96682209627E+02 0.  0.
         23    2    1    2    0    0 -0.25643023416E+02  0.68182966501E+01  0.36626140269E+03  0.37788764364E+03  0.89149325832E+02 0.  0.
        -11    1    4    4    0    0 -0.58855787479E+02  0.95067858318E+01  0.24210397423E+03  0.24933655375E+03  0.00000000000E+00 0. -1.
         11    1    4    4    0    0  0.33212764063E+02 -0.26884891817E+01  0.12415742846E+03  0.12855108989E+03  0.00000000000E+00 0.  1.
        -13    1    3    3    0    0  0.70090708914E+02  0.21817379826E+02  0.21767765140E+03  0.22972214838E+03  0.00000000000E+00 0.  1.
         13    1    3    3    0    0 -0.36275648348E+01 -0.40961034576E+02  0.22009190450E+03  0.22390045111E+03  0.00000000000E+00 0. -1.
          2    1    1    2  501    0 -0.40820120663E+02  0.12325358100E+02 -0.31151127953E+02  0.52807096834E+02  0.00000000000E+00 0. -1.
<scales pt_clust_5="13000.00000" pt_clust_6="13000.00000" pt_clust_7="13000.00000" pt_clust_8="13000.00000" pt_clust_9="13000.00000"></scales>
<clustering>
<clus scale="   89.149">  5  6 -1 -1</clus>
<clus scale="   42.640">  5  9 -1 -1</clus>
<clus scale="   96.682">  7  8 -1 -1</clus>
<clus scale="  118.875">  1  7  2 -1</clus>
<clus scale="  270.553">  2  5  1 -1</clus>
</clustering>
</event>
<event>
 9    1  0.3303741E-006  0.5233142E+03  0.7546771E-02  0.1058980E+00
         21   -1    0    0  501  502  0.00000000000E+00  0.00000000000E+00  0.15602928626E+03  0.15602928626E+03  0.00000000000E+00 0. -1.
          1   -1    0    0  502    0 -0.00000000000E+00 -0.00000000000E+00 -0.73181532497E+03  0.73181532497E+03  0.00000000000E+00 0. -1.
         23    2    1    2    0    0 -0.30991713954E+02 -0.65645927591E+02 -0.23873062268E+03  0.26537847999E+03  0.90352384000E+02 0.  0.
         23    2    1    2    0    0 -0.19006315620E+03 -0.13297977979E+02 -0.32480452741E+03  0.38741830606E+03  0.91072077410E+02 0.  0.
        -11    1    3    3    0    0  0.18009916378E+02 -0.26294041947E+02 -0.19603421980E+02  0.37416946470E+02  0.00000000000E+00 0.  1.
         11    1    3    3    0    0 -0.49001630332E+02 -0.39351885644E+02 -0.21912720070E+03  0.22796153352E+03  0.00000000000E+00 0. -1.
        -13    1    4    4    0    0 -0.11587473243E+03 -0.52527139323E+02 -0.19255266082E+03  0.23078687391E+03  0.00000000000E+00 0.  1.
         13    1    4    4    0    0 -0.74188423771E+02  0.39229161344E+02 -0.13225186658E+03  0.15663143215E+03  0.00000000000E+00 0. -1.
          1    1    1    2  501    0  0.22105487016E+03  0.78943905570E+02 -0.12250888625E+02  0.23504782517E+03  0.00000000000E+00 0. -1.
<scales pt_clust_5="13000.00000" pt_clust_6="13000.00000" pt_clust_7="13000.00000" pt_clust_8="13000.00000" pt_clust_9="13000.00000"></scales>
<clustering>
<clus scale="   90.352">  5  6 -1 -1</clus>
<clus scale="   91.072">  7  8 -1 -1</clus>
<clus scale="  115.903">  2  5  1 -1</clus>
<clus scale="  221.912">  7  9 -1 -1</clus>
<clus scale="  523.314">  1  5  2 -1</clus>
</clustering>
</event>
<event>
 9    1  0.3303741E-006  0.1944068E+03  0.7546771E-02  0.1165754E+00
         -4   -1    0    0    0  501 -0.00000000000E+00  0.00000000000E+00  0.99917606999E+02  0.99917606999E+02  0.00000000000E+00 0.  1.
         21   -1    0    0  501  502  0.00000000000E+00 -0.00000000000E+00 -0.31186971666E+03  0.31186971666E+03  0.00000000000E+00 0.  1.
         23    2    1    2    0    0 -0.10325520025E+03  0.60869736260E+02 -0.47410212737E+02  0.15709528532E+03  0.89802222842E+02 0.  0.
         23    2    1    2    0    0  0.43284711661E+02 -0.21998231627E+02 -0.43960347687E+02  0.11452298543E+03  0.93944204535E+02 0.  0.
        -13    1    4    4    0    0  0.72160788296E+02 -0.19131590512E+02 -0.41468708166E+02  0.85398190145E+02  0.00000000000E+00 0. -1.
         13    1    4    4    0    0 -0.28876076636E+02 -0.28666411148E+01 -0.24916395210E+01  0.29124795289E+02  0.00000000000E+00 0.  1.
        -13    1    3    3    0    0 -0.83333270172E+02  0.81486085009E+02 -0.52749415641E+02  0.12793325142E+03  0.00000000000E+00 0.  1.
         13    1    3    3    0    0 -0.19921930082E+02 -0.20616348749E+02  0.53392029041E+01  0.29162033907E+02  0.00000000000E+00 0. -1.
         -4    1    1    2    0  502  0.59970488594E+02 -0.38871504633E+02 -0.12058154924E+03  0.14016905290E+03  0.00000000000E+00 0.  1.
<scales pt_clust_5="13000.00000" pt_clust_6="13000.00000" pt_clust_7="13000.00000" pt_clust_8="13000.00000" pt_clust_9="13000.00000"></scales>
<clustering>
<clus scale="   89.802">  7  8 -1 -1</clus>
<clus scale="   93.944">  5  6 -1 -1</clus>
<clus scale="   71.466">  5  9 -1 -1</clus>
<clus scale="  149.770">  1  7  2 -1</clus>
<clus scale="  194.407">  2  5  1 -1</clus>
</clustering>
</event>
<event>
 9    1  0.3303741E-006  0.1731349E+03  0.7546771E-02  0.1188237E+00
         -4   -1    0    0    0  501 -0.00000000000E+00  0.00000000000E+00  0.19146644801E+03  0.19146644801E+03  0.00000000000E+00 0.  1.
         21   -1    0    0  501  502  0.00000000000E+00 -0.00000000000E+00 -0.11937336378E+03  0.11937336378E+03  0.00000000000E+00 0.  1.
         23    2    1    2    0    0  0.46759948381E+02  0.77528949746E+02  0.14571293885E+02  0.12839950609E+03  0.89871462313E+02 0.  0.
         23    2    1    2    0    0  0.53741652957E+01 -0.18312564173E+02  0.31181232486E+02  0.99263559447E+02  0.92286257457E+02 0.  0.
        -11    1    3    3    0    0  0.69480224022E+02  0.44141261555E+02  0.26180118626E+02  0.86379112713E+02  0.00000000000E+00 0.  1.
         11    1    3    3    0    0 -0.22720275641E+02  0.33387688191E+02 -0.11608824742E+02  0.42020393380E+02  0.00000000000E+00 0. -1.
        -11    1    4    4    0    0  0.29186095296E+02  0.35268848619E+01 -0.22218174443E+02  0.36849889430E+02  0.00000000000E+00 0.  1.
         11    1    4    4    0    0 -0.23811930001E+02 -0.21839449035E+02  0.53399406929E+02  0.62413670016E+02  0.00000000000E+00 0. -1.
         -4    1    1    2    0  502 -0.52134113676E+02 -0.59216385573E+02  0.26340557855E+02  0.83176746253E+02  0.00000000000E+00 0.  1.
<scales pt_clust_5="13000.00000" pt_clust_6="13000.00000" pt_clust_7="13000.00000" pt_clust_8="13000.00000" pt_clust_9="13000.00000"></scales>
<clustering>
<clus scale="   89.871">  5  6 -1 -1</clus>
<clus scale="   92.286">  7  8 -1 -1</clus>
<clus scale="   78.896">  7  9 -1 -1</clus>
<clus scale="  127.570">  1  5  2 -1</clus>
<clus scale="  173.135">  2  5  1 -1</clus>
</clustering>
</event>
<event>
 9    1  0.3303741E-006  0.3322172E+03  0.7546771E-02  0.1104207E+00
         21   -1    0    0  501  502  0.00000000000E+00  0.00000000000E+00  0.10481346727E+03  0.10481346727E+03  0.00000000000E+00 0. -1.
          1   -1    0    0  502    0 -0.00000000000E+00 -0.00000000000E+00 -0.52520804954E+03  0.52520804954E+03  0.00000000000E+00 0. -1.
         23    2    1    2    0    0  0.25560997207E+02  0.95502732997E+02 -0.91802467620E+02  0.16275175306E+03  0.91029135301E+02 0.  0.
         23    2    1    2    0    0  0.16580435063E+02  0.44176063144E+02 -0.30226883984E+03  0.31901666530E+03  0.90436418636E+02 0.  0.
        -13    1    3    3    0    0  0.39458341220E+02  0.64293437863E+02 -0.12581316493E+02  0.76478077701E+02  0.00000000000E+00 0. -1.
         13    1    3    3    0    0 -0.13897344013E+02  0.31209295134E+02 -0.79221151127E+02  0.86273675355E+02  0.00000000000E+00 0.  1.
        -13    1    4    4    0    0 -0.33776659795E+02  0.10543320840E+02 -0.63547012043E+02  0.72734084863E+02  0.00000000000E+00 0.  1.
         13    1    4    4    0    0  0.50357094858E+02  0.33632742305E+02 -0.23872182780E+03  0.24628258043E+03  0.00000000000E+00 0. -1.
          1    1    1    2  501    0 -0.42141432270E+02 -0.13967879614E+03 -0.26323274811E+02  0.14825309846E+03  0.00000000000E+00 0. -1.
<scales pt_clust_5="13000.00000" pt_clust_6="13000.00000" pt_clust_7="13000.00000" pt_clust_8="13000.00000" pt_clust_9="13000.00000"></scales>
<clustering>
<clus scale="   90.436">  7  8 -1 -1</clus>
<clus scale="   91.029">  5  6 -1 -1</clus>
<clus scale="  134.389">  2  5  1 -1</clus>
<clus scale="  124.224">  7  9 -1 -1</clus>
<clus scale="  332.217">  1  5  2 -1</clus>
</clustering>
</event>
<event>
 9    1  0.3303741E-006  0.2364232E+03  0.7546771E-02  0.1156694E+00
         21   -1    0    0  501  502  0.00000000000E+00  0.00000000000E+00  0.10572260406E+03  0.10572260406E+03  0.00000000000E+00 0.  1.
         -2   -1    0    0    0  501 -0.00000000000E+00 -0.00000000000E+00 -0.31025889699E+03  0.31025889699E+03  0.00000000000E+00 0.  1.
         23    2    1    2    0    0  0.40144709759E+01 -0.46222950678E+02  0.89067066428E+00  0.10277842345E+03  0.91705691680E+02 0.  0.
         23    2    1    2    0    0 -0.13251098882E+02 -0.55211967350E+02 -0.17827347937E+03  0.20779117317E+03  0.90397927172E+02 0.  0.
        -11    1    4    4    0    0 -0.28010406476E+02 -0.73182005584E+02 -0.10566340932E+03  0.13154826066E+03  0.00000000000E+00 0.  1.
         11    1    4    4    0    0  0.14759307594E+02  0.17970038234E+02 -0.72610070051E+02  0.76242912508E+02  0.00000000000E+00 0. -1.
        -13    1    3    3    0    0 -0.30451046390E+02 -0.51719452054E+02 -0.18561274780E+02  0.62822677979E+02  0.00000000000E+00 0.  1.
         13    1    3    3    0    0  0.34465517366E+02  0.54965013763E+01  0.19451945445E+02  0.39955745473E+02  0.00000000000E+00 0. -1.
         -2    1    1    2    0  502  0.92366279062E+01  0.10143491803E+03 -0.27153484218E+02  0.10541190443E+03  0.00000000000E+00 0.  1.
<scales pt_clust_5="13000.00000" pt_clust_6="13000.00000" pt_clust_7="13000.00000" pt_clust_8="13000.00000" pt_clust_9="13000.00000"></scales>
<clustering>
<clus scale="   90.398">  5  6 -1 -1</clus>
<clus scale="   91.706">  7  8 -1 -1</clus>
<clus scale="  101.855">  5  9 -1 -1</clus>
<clus scale="  102.775">  2  7  1 -1</clus>
<clus scale="  236.423">  1  5  2 -1</clus>
</clustering>
</event>
<event>
 9    1  0.3303741E-006  0.3874667E+03  0.7546771E-02  0.1098025E+00
          1   -1    0    0  502    0 -0.00000000000E+00  0.00000000000E+00  0.10116298992E+04  0.10116298992E+04  0.00000000000E+00 0. -1.
         21   -1    0    0  501  502  0.00000000000E+00 -0.00000000000E+00 -0.64666970925E+02  0.64666970925E+02  0.00000000000E+00 0. -1.
         23    2    1    2    0    0  0.17108769148E+02 -0.34096093524E+02  0.35613474906E+03  0.36975007231E+03  0.91803610537E+02 0.  0.
         23    2    1    2    0    0 -0.10987610830E+03 -0.17842182945E+02  0.58221358842E+03  0.59988108193E+03  0.92160442957E+02 0.  0.
        -11    1    3    3    0    0  0.16484174289E+02  0.30250954565E+02  0.14439775315E+03  0.14845052835E+03  0.00000000000E+00 0.  1.
         11    1    3    3    0    0  0.62459485983E+00 -0.64347048089E+02  0.21173699592E+03  0.22129954396E+03  0.00000000000E+00 0. -1.
        -13    1    4    4    0    0 -0.19648618808E+01  0.27421420167E+02  0.11245610244E+03  0.11576774137E+03  0.00000000000E+00 0.  1.
         13    1    4    4    0    0 -0.10791124642E+03 -0.45263603112E+02  0.46975748598E+03  0.48411334056E+03  0.00000000000E+00 0. -1.
          1    1    1    2  501    0  0.92767339149E+02  0.51938276469E+02  0.86145908121E+01  0.10666571591E+03  0.00000000000E+00 0. -1.
<scales pt_clust_5="13000.00000" pt_clust_6="13000.00000" pt_clust_7="13000.00000" pt_clust_8="13000.00000" pt_clust_9="13000.00000"></scales>
<clustering>
<clus scale="   91.804">  5  6 -1 -1</clus>
<clus scale="   92.160">  7  8 -1 -1</clus>
<clus scale="   99.414">  1  5  2 -1</clus>
<clus scale="  106.218">  7  9 -1 -1</clus>
<clus scale="  387.467">  2  5  1 -1</clus>
</clustering>
</event>
<event>
 9    1  0.3303741E-006  0.1772457E+03  0.7546771E-02  0.1182308E+00
         21   -1    0    0  501  502  0.00000000000E+00  0.00000000000E+00  0.13711718585E+03  0.13711718585E+03  0.00000000000E+00 0. -1.
          1   -1    0    0  502    0 -0.00000000000E+00 -0.00000000000E+00 -0.19438316161E+03  0.19438316161E+03  0.00000000000E+00 0. -1.
         23    2    1    2    0    0  0.27549228002E+02 -0.95974273073E+02 -0.72069755940E+02  0.15363753169E+03  0.91871760436E+02 0.  0.
         23    2    1    2    0    0 -0.31004557737E+02  0.48561815376E+02 -0.32979919667E+02  0.11045983053E+03  0.88284577059E+02 0.  0.
        -11    1    4    4    0    0 -0.53968284735E+01  0.71100542096E+02 -0.21938666676E+02  0.74603739447E+02  0.00000000000E+00 0. -1.
         11    1    4    4    0    0 -0.25607729263E+02 -0.22538726720E+02 -0.11041252991E+02  0.35856091083E+02  0.00000000000E+00 0.  1.
        -13    1    3    3    0    0 -0.97254668321E-02 -0.10611138616E+03 -0.52866888901E+02  0.11855182120E+03  0.00000000000E+00 0. -1.
         13    1    3    3    0    0  0.27558953469E+02  0.10137113084E+02 -0.19202867039E+02  0.35085710489E+02  0.00000000000E+00 0.  1.
          1    1    1    2  501    0  0.34553297341E+01  0.47412457697E+02  0.47783699843E+02  0.67402985239E+02  0.00000000000E+00 0. -1.
<scales pt_clust_5="13000.00000" pt_clust_6="13000.00000" pt_clust_7="13000.00000" pt_clust_8="13000.00000" pt_clust_9="13000.00000"></scales>
<clustering>
<clus scale="   88.285">  5  6 -1 -1</clus>
<clus scale="   47.538">  5  9 -1 -1</clus>
<clus scale="   91.872">  7  8 -1 -1</clus>
<clus scale="  135.685">  2  7  1 -1</clus>
<clus scale="  177.246">  1  5  2 -1</clus>
</clustering>
</event>
<event>
 9    1  0.3303741E-006  0.3770390E+03  0.7546771E-02  0.1074702E+00
          2   -1    0    0  502    0 -0.00000000000E+00  0.00000000000E+00  0.15737360480E+04  0.15737360480E+04  0.00000000000E+00 0. -1.
         21   -1    0    0  501  502  0.00000000000E+00 -0.00000000000E+00 -0.71967970947E+02  0.71967970947E+02  0.00000000000E+00 0. -1.
         23    2    1    2    0    0  0.14577747285E+03 -0.10375258342E+03  0.98941278648E+03  0.10095701104E+04  0.90986128716E+02 0.  0.
         23    2    1    2    0    0 -0.12277438603E+03  0.64055569771E+02  0.55142007350E+03  0.57587569610E+03  0.91608154743E+02 0.  0.
        -11    1    4    4    0    0 -0.87189880693E+02  0.33494505050E+02  0.48875475265E+03  0.49759940253E+03  0.00000000000E+00 0. -1.
         11    1    4    4    0    0 -0.35584505340E+02  0.30561064721E+02  0.62665320847E+02  0.78276293563E+02  0.00000000000E+00 0.  1.
        -13    1    3    3    0    0  0.71592341860E+02 -0.42280029840E+01  0.26182496891E+03  0.27146943432E+03  0.00000000000E+00 0.  1.
         13    1    3    3    0    0  0.74185130990E+02 -0.99524580438E+02  0.72758781756E+03  0.73810067609E+03  0.00000000000E+00 0. -1.
          2    1    1    2  501    0 -0.23003086817E+02  0.39697013651E+02 -0.39064782954E+02  0.60258212413E+02  0.00000000000E+00 0. -1.
<scales pt_clust_5="13000.00000" pt_clust_6="13000.00000" pt_clust_7="13000.00000" pt_clust_8="13000.00000" pt_clust_9="13000.00000"></scales>
<clustering>
<clus scale="   90.986">  7  8 -1 -1</clus>
<clus scale="   91.608">  5  6 -1 -1</clus>
<clus scale="   45.880">  5  9 -1 -1</clus>
<clus scale="  200.734">  1  7  2 -1</clus>
<clus scale="  377.039">  2  5  1 -1</clus>
</clustering>
</event>
<event>
 9    1  0.3303741E-006  0.2332598E+03  0.7546771E-02  0.1159626E+00
          3   -1    0    0  502    0 -0.00000000000E+00  0.00000000000E+00  0.64872566300E+03  0.64872566300E+03  0.00000000000E+00 0. -1.
         21   -1    0    0  501  502  0.00000000000E+00 -0.00000000000E+00 -0.43279837015E+02  0.43279837015E+02  0.00000000000E+00 0. -1.
         23    2    1    2    0    0 -0.40232456632E+02 -0.59366348399E+01  0.14893675289E+03  0.17935485586E+03  0.91280412797E+02 0.  0.
         23    2    1    2    0    0 -0.23977638048E+02 -0.76089670044E+02  0.19238551345E+03  0.22872722893E+03  0.94548370976E+02 0.  0.
        -11    1    3    3    0    0 -0.49576616701E+02  0.33165961437E+02  0.92443057948E+02  0.11001609375E+03  0.00000000000E+00 0.  1.
         11    1    3    3    0    0  0.93441600685E+01 -0.39102596277E+02  0.56493694939E+02  0.69338762109E+02  0.00000000000E+00 0. -1.
        -13    1    4    4    0    0 -0.53502836677E+02 -0.26836516196E+02  0.61606227531E+02  0.85895747302E+02  0.00000000000E+00 0. -1.
         13    1    4    4    0    0  0.29525198629E+02 -0.49253153848E+02  0.13077928592E+03  0.14283148162E+03  0.00000000000E+00 0.  1.
          3    1    1    2  501    0  0.64210094680E+02  0.82026304884E+02  0.26412355965E+03  0.28392341523E+03  0.00000000000E+00 0. -1.
<scales pt_clust_5="13000.00000" pt_clust_6="13000.00000" pt_clust_7="13000.00000" pt_clust_8="13000.00000" pt_clust_9="13000.00000"></scales>
<clustering>
<clus scale="   91.280">  5  6 -1 -1</clus>
<clus scale="   94.548">  7  8 -1 -1</clus>
<clus scale="   99.930">  1  5  2 -1</clus>
<clus scale="   88.925">  7  9 -1 -1</clus>
<clus scale="  233.260">  2  5  1 -1</clus>
</clustering>
</event>
<event>
 9    1  0.3303741E-006  0.1409672E+03  0.7546771E-02  0.1226107E+00
         -2   -1    0    0    0  501 -0.00000000000E+00  0.00000000000E+00  0.17491105945E+03  0.17491105945E+03  0.00000000000E+00 0.  1.
         21   -1    0    0  501  502  0.00000000000E+00 -0.00000000000E+00 -0.90945400458E+02  0.90945400458E+02  0.00000000000E+00 0.  1.
         23    2    1    2    0    0 -0.12000640446E+02  0.46304180909E+02  0.65635813726E+02  0.12370253582E+03  0.93306831389E+02 0.  0.
         23    2    1    2    0    0 -0.17330656744E+02 -0.12814776995E+02  0.22095778095E+01  0.94807031982E+02  0.92298000556E+02 0.  0.
        -11    1    4    4    0    0  0.51674476059E+01  0.33227067230E+02 -0.19814312637E+02  0.39030084509E+02  0.00000000000E+00 0.  1.
         11    1    4    4    0    0 -0.22498104350E+02 -0.46041844225E+02  0.22023890447E+02  0.55776947473E+02  0.00000000000E+00 0. -1.
        -11    1    3    3    0    0 -0.30785335219E+02  0.68696247483E+02  0.51698817356E+02  0.91321842945E+02  0.00000000000E+00 0.  1.
         11    1    3    3    0    0  0.18784694773E+02 -0.22392066574E+02  0.13936996370E+02  0.32380692874E+02  0.00000000000E+00 0. -1.
         -2    1    1    2    0  502  0.29331297190E+02 -0.33489403914E+02  0.16120267458E+02  0.47346892108E+02  0.00000000000E+00 0.  1.
<scales pt_clust_5="13000.00000" pt_clust_6="13000.00000" pt_clust_7="13000.00000" pt_clust_8="13000.00000" pt_clust_9="13000.00000"></scales>
<clustering>
<clus scale="   92.298">  5  6 -1 -1</clus>
<clus scale="   44.518">  5  9 -1 -1</clus>
<clus scale="   93.307">  7  8 -1 -1</clus>
<clus scale="  104.854">  1  7  2 -1</clus>
<clus scale="  140.967">  2  5  1 -1</clus>
</clustering>
</event>
<event>
 9    1  0.3303741E-006  0.3263931E+03  0.7546771E-02  0.1121513E+00
          2   -1    0    0  502    0 -0.00000000000E+00  0.00000000000E+00  0.36830791159E+03  0.36830791159E+03  0.00000000000E+00 0. -1.
         21   -1    0    0  501  502  0.00000000000E+00 -0.00000000000E+00 -0.11850937778E+03  0.11850937778E+03  0.00000000000E+00 0. -1.
         23    2    1    2    0    0  0.10071713995E+01  0.57612285442E+01  0.51713959420E+02  0.10501898702E+03  0.91216489120E+02 0.  0.
         23    2    1    2    0    0  0.63341492887E+02  0.25121851455E+02  0.26283811758E+03  0.28542643622E+03  0.87983647898E+02 0.  0.
        -11    1    4    4    0    0  0.36770744156E+02 -0.25131608175E+02  0.17666383482E+03  0.18219164605E+03  0.00000000000E+00 0.  1.
         11    1    4    4    0    0  0.26570748731E+02  0.50253459630E+02  0.86174282760E+02  0.10323479017E+03  0.00000000000E+00 0. -1.
        -13    1    3    3    0    0  0.36503422654E+02  0.19175831967E+02  0.52878287729E+02  0.67054647194E+02  0.00000000000E+00 0. -1.
         13    1    3    3    0    0 -0.35496251255E+02 -0.13414603422E+02 -0.11643283093E+01  0.37964339827E+02  0.00000000000E+00 0.  1.
          2    1    1    2  501    0 -0.64348664286E+02 -0.30883079999E+02 -0.64753543186E+02  0.96371866127E+02  0.00000000000E+00 0. -1.
<scales pt_clust_5="13000.00000" pt_clust_6="13000.00000" pt_clust_7="13000.00000" pt_clust_8="13000.00000" pt_clust_9="13000.00000"></scales>
<clustering>
<clus scale="   87.984">  5  6 -1 -1</clus>
<clus scale="   71.376">  5  9 -1 -1</clus>
<clus scale="   91.216">  7  8 -1 -1</clus>
<clus scale="   91.404">  1  7  2 -1</clus>
<clus scale="  326.393">  2  5  1 -1</clus>
</clustering>
</event>
<event>
 9    1  0.3303741E-006  0.1832576E+03  0.7546771E-02  0.1171891E+00
          1   -1    0    0  502    0 -0.00000000000E+00  0.00000000000E+00  0.91089139653E+03  0.91089139653E+03  0.00000000000E+00 0. -1.
         21   -1    0    0  501  502  0.00000000000E+00 -0.00000000000E+00 -0.34760227509E+02  0.34760227509E+02  0.00000000000E+00 0. -1.
         23    2    1    2    0    0  0.29534384461E+02 -0.12231330854E+03  0.26026747226E+03  0.30310089203E+03  0.91094282599E+02 0.  0.
         23    2    1    2    0    0 -0.20868407301E+02  0.64489977491E+02  0.28059689762E+03  0.30222373722E+03  0.89499278016E+02 0.  0.
        -11    1    3    3    0    0  0.58734467641E+02 -0.10310998124E+03  0.21847195501E+03  0.24861898770E+03  0.00000000000E+00 0. -1.
         11    1    3    3    0    0 -0.29200083180E+02 -0.19203327304E+02  0.41795517251E+02  0.54481904331E+02  0.00000000000E+00 0.  1.
        -11    1    4    4    0    0  0.31822619105E+02  0.86807928248E+01  0.57451985254E+02  0.66247761172E+02  0.00000000000E+00 0.  1.
         11    1    4    4    0    0 -0.52691026406E+02  0.55809184666E+02  0.22314491237E+03  0.23597597605E+03  0.00000000000E+00 0. -1.
          1    1    1    2  501    0 -0.86659771598E+01  0.57823331053E+02  0.33526679914E+03  0.34032699478E+03  0.00000000000E+00 0. -1.
<scales pt_clust_5="13000.00000" pt_clust_6="13000.00000" pt_clust_7="13000.00000" pt_clust_8="13000.00000" pt_clust_9="13000.00000"></scales>
<clustering>
<clus scale="   89.499">  7  8 -1 -1</clus>
<clus scale="   58.469">  7  9 -1 -1</clus>
<clus scale="   91.094">  5  6 -1 -1</clus>
<clus scale="  155.342">  1  5  2 -1</clus>
<clus scale="  183.258">  2  5  1 -1</clus>
</clustering>
</event>
<event>
 9    1  0.3303741E-006  0.2620537E+03  0.7546771E-02  0.1146969E+00
         -3   -1    0    0    0  501 -0.00000000000E+00  0.00000000000E+00  0.18333799181E+03  0.18333799181E+03  0.00000000000E+00 0.  1.
         21   -1    0    0  501  502  0.00000000000E+00 -0.00000000000E+00 -0.17380225118E+03  0.17380225118E+03  0.00000000000E+00 0.  1.
         23    2    1    2    0    0 -0.18181790082E+02  0.21635035298E+02  0.23052733960E+01  0.94986807471E+02  0.90656092267E+02 0.  0.
         23    2    1    2    0    0 -0.36103696397E+02 -0.26466211549E+02  0.10663949479E+03  0.14878496960E+03  0.93600470533E+02 0.  0.
        -13    1    4    4    0    0  0.76611519394E+01 -0.51297526533E+02  0.41214273058E+02  0.66247609626E+02  0.00000000000E+00 0.  1.
         13    1    4    4    0    0 -0.43764848337E+02  0.24831314984E+02  0.65425221730E+02  0.82537359978E+02  0.00000000000E+00 0. -1.
        -13    1    3    3    0    0 -0.48772068446E+02  0.15717338626E+02 -0.21706951998E+02  0.55650167646E+02  0.00000000000E+00 0.  1.
         13    1    3    3    0    0  0.30590278365E+02  0.59176966726E+01  0.24012225394E+02  0.39336639825E+02  0.00000000000E+00 0. -1.
         -3    1    1    2    0  502  0.54285486479E+02  0.48311762510E+01 -0.99409027555E+02  0.11336846592E+03  0.00000000000E+00 0.  1.
<scales pt_clust_5="13000.00000" pt_clust_6="13000.00000" pt_clust_7="13000.00000" pt_clust_8="13000.00000" pt_clust_9="13000.00000"></scales>
<clustering>
<clus scale="   90.656">  7  8 -1 -1</clus>
<clus scale="   93.600">  5  6 -1 -1</clus>
<clus scale="   54.500">  5  9 -1 -1</clus>
<clus scale="   94.959">  1  7  2 -1</clus>
<clus scale="  262.054">  2  5  1 -1</clus>
</clustering>
</event>
<event>
 9    1  0.3303741E-006  0.2680519E+03  0.7546771E-02  0.1139692E+00
         21   -1    0    0  501  502  0.00000000000E+00  0.00000000000E+00  0.85460242229E+02  0.85460242229E+02  0.00000000000E+00 0. -1.
          1   -1    0    0  502    0 -0.00000000000E+00 -0.00000000000E+00 -0.50054066858E+03  0.50054066858E+03  0.00000000000E+00 0. -1.
         23    2    1    2    0    0  0.35588441828E+02 -0.38936820491E+02 -0.24947151834E+03  0.27091655169E+03  0.91526642763E+02 0.  0.
         23    2    1    2    0    0  0.97688765540E+01  0.56918390140E+02 -0.21560163118E+03  0.24522810996E+03  0.10157572773E+03 0.  0.
        -11    1    4    4    0    0  0.51466445682E+02  0.54483676802E+02 -0.14388086901E+03  0.16223122553E+03  0.00000000000E+00 0.  1.
         11    1    4    4    0    0 -0.41697569128E+02  0.24347133377E+01 -0.71720762168E+02  0.82996884436E+02  0.00000000000E+00 0. -1.
        -13    1    3    3    0    0  0.26791759647E+02  0.19779035506E+02 -0.16074453678E+03  0.16415789574E+03  0.00000000000E+00 0. -1.
         13    1    3    3    0    0  0.87966821810E+01 -0.58715855997E+02 -0.88726981561E+02  0.10675865595E+03  0.00000000000E+00 0.  1.
          1    1    1    2  501    0 -0.45357318382E+02 -0.17981569649E+02  0.49992723161E+02  0.69856249161E+02  0.00000000000E+00 0. -1.
<scales pt_clust_5="13000.00000" pt_clust_6="13000.00000" pt_clust_7="13000.00000" pt_clust_8="13000.00000" pt_clust_9="13000.00000"></scales>
<clustering>
<clus scale="   91.527">  7  8 -1 -1</clus>
<clus scale="  101.576">  5  6 -1 -1</clus>
<clus scale="   48.792">  5  9 -1 -1</clus>
<clus scale="  105.640">  2  7  1 -1</clus>
<clus scale="  268.052">  1  5  2 -1</clus>
</clustering>
</event>
<event>
 9    1  0.3303741E-006  0.3217066E+03  0.7546771E-02  0.1107751E+00
          4   -1    0    0  502    0 -0.00000000000E+00  0.00000000000E+00  0.90600045346E+03  0.90600045346E+03  0.00000000000E+00 0. -1.
         21   -1    0    0  501  502  0.00000000000E+00 -0.00000000000E+00 -0.60571167172E+02  0.60571167172E+02  0.00000000000E+00 0.  1.
         23    2    1    2    0    0 -0.67775077071E+02  0.72830432167E+02  0.35695107507E+03  0.38167327642E+03  0.91447728310E+02 0.  0.
         23    2    1    2    0    0  0.66710667921E+02 -0.17990747271E+03  0.35521289898E+03  0.41394142268E+03  0.91401782545E+02 0.  0.
        -11    1    3    3    0    0  0.31399021767E+00  0.37338368043E+02  0.36737146153E+02  0.52381964696E+02  0.00000000000E+00 0.  1.
         11    1    3    3    0    0 -0.68089067289E+02  0.35492064124E+02  0.32021392892E+03  0.32929131172E+03  0.00000000000E+00 0. -1.
        -13    1    4    4    0    0 -0.15534083022E+02 -0.27269000955E+02  0.22029048934E+02  0.38342993432E+02  0.00000000000E+00 0. -1.
         13    1    4    4    0    0  0.82244750944E+02 -0.15263847176E+03  0.33318385005E+03  0.37559842924E+03  0.00000000000E+00 0.  1.
          4    1    1    2  501    0  0.10644091495E+01  0.10707704054E+03  0.13326531224E+03  0.17095692154E+03  0.00000000000E+00 0. -1.
<scales pt_clust_5="13000.00000" pt_clust_6="13000.00000" pt_clust_7="13000.00000" pt_clust_8="13000.00000" pt_clust_9="13000.00000"></scales>
<clustering>
<clus scale="   91.402">  7  8 -1 -1</clus>
<clus scale="   91.448">  5  6 -1 -1</clus>
<clus scale="  107.082">  7  9 -1 -1</clus>
<clus scale="  135.131">  1  5  2 -1</clus>
<clus scale="  321.707">  2  5  1 -1</clus>
</clustering>
</event>
<event>
 9    1  0.3303741E-006  0.2575301E+03  0.7546771E-02  0.1137544E+00
         21   -1    0    0  501  502  0.00000000000E+00  0.00000000000E+00  0.21518380728E+03  0.21518380728E+03  0.00000000000E+00 0.  1.
         -1   -1    0    0    0  501 -0.00000000000E+00 -0.00000000000E+00 -0.17461336763E+03  0.17461336763E+03  0.00000000000E+00 0.  1.
         23    2    1    2    0    0  0.85730981379E+02 -0.67139124661E+01 -0.14912564394E+02  0.12635819351E+03  0.91373577694E+02 0.  0.
         23    2    1    2    0    0  0.40243071816E+02  0.21116815643E+02 -0.33266061090E+02  0.10867043724E+03  0.92936582558E+02 0.  0.
        -11    1    3    3    0    0  0.84776585647E+02  0.24526890888E+02  0.64675024913E+01  0.88489922811E+02  0.00000000000E+00 0.  1.
         11    1    3    3    0    0  0.95439573180E+00 -0.31240803354E+02 -0.21380066885E+02  0.37868270695E+02  0.00000000000E+00 0. -1.
        -13    1    4    4    0    0  0.52623379100E+02 -0.20029638976E+02 -0.33849680732E+02  0.65697848908E+02  0.00000000000E+00 0. -1.
         13    1    4    4    0    0 -0.12380307284E+02  0.41146454619E+02  0.58361964193E+00  0.42972588333E+02  0.00000000000E+00 0.  1.
         -1    1    1    2    0  502 -0.12597405319E+03 -0.14402903177E+02  0.88749065134E+02  0.15476854416E+03  0.00000000000E+00 0.  1.
<scales pt_clust_5="13000.00000" pt_clust_6="13000.00000" pt_clust_7="13000.00000" pt_clust_8="13000.00000" pt_clust_9="13000.00000"></scales>
<clustering>
<clus scale="   91.374">  5  6 -1 -1</clus>
<clus scale="   92.937">  7  8 -1 -1</clus>
<clus scale="  125.475">  2  5  1 -1</clus>
<clus scale="  100.132">  7  9 -1 -1</clus>
<clus scale="  257.530">  1  5  2 -1</clus>
</clustering>
</event>
<event>
 9    1  0.3303741E-006  0.1770436E+03  0.7546771E-02  0.1194082E+00
         21   -1    0    0  501  502  0.00000000000E+00  0.00000000000E+00  0.94000295336E+02  0.94000295336E+02  0.00000000000E+00 0.  1.
         -2   -1    0    0    0  501 -0.00000000000E+00 -0.00000000000E+00 -0.33179376473E+03  0.33179376473E+03  0.00000000000E+00 0.  1.
         23    2    1    2    0    0  0.19987506019E+02 -0.53593793170E+02 -0.22505427859E+03  0.24829270581E+03  0.87909296334E+02 0.  0.
         23    2    1    2    0    0 -0.45941932988E+02 -0.29050824367E-01 -0.47892665170E+02  0.10832904450E+03  0.85620163833E+02 0.  0.
        -13    1    3    3    0    0 -0.84039258094E+01 -0.67849683221E+02 -0.18460786579E+03  0.19686104133E+03  0.00000000000E+00 0.  1.
         13    1    3    3    0    0  0.28391431828E+02  0.14255890051E+02 -0.40446412800E+02  0.51431664476E+02  0.00000000000E+00 0. -1.
        -13    1    4    4    0    0 -0.21826196794E+02  0.37168445213E+02 -0.47301058129E+02  0.63994267604E+02  0.00000000000E+00 0. -1.
         13    1    4    4    0    0 -0.24115736194E+02 -0.37197496037E+02 -0.59160704055E+00  0.44334776897E+02  0.00000000000E+00 0.  1.
         -2    1    1    2    0  502  0.25954426969E+02  0.53622843994E+02  0.35153474367E+02  0.69172309759E+02  0.00000000000E+00 0.  1.
<scales pt_clust_5="13000.00000" pt_clust_6="13000.00000" pt_clust_7="13000.00000" pt_clust_8="13000.00000" pt_clust_9="13000.00000"></scales>
<clustering>
<clus scale="   85.620">  7  8 -1 -1</clus>
<clus scale="   59.574">  7  9 -1 -1</clus>
<clus scale="   87.909">  5  6 -1 -1</clus>
<clus scale="  104.880">  2  5  1 -1</clus>
<clus scale="  177.044">  1  5  2 -1</clus>
</clustering>
</event>
<event>
 9    1  0.3303741E-006  0.1530515E+03  0.7546771E-02  0.1217954E+00
          2   -1    0    0  502    0 -0.00000000000E+00  0.00000000000E+00  0.44352390514E+03  0.44352390514E+03  0.00000000000E+00 0. -1.
         21   -1    0    0  501  502  0.00000000000E+00 -0.00000000000E+00 -0.83158694731E+02  0.83158694731E+02  0.00000000000E+00 0.  1.
         23    2    1    2    0    0 -0.81847751919E+01 -0.34987994183E+02  0.36077500825E+03  0.37363059587E+03  0.90277712161E+02 0.  0.
         23    2    1    2    0    0  0.19244930243E+02 -0.11615476850E+02  0.25605576092E+02  0.98545029913E+02  0.92467241502E+02 0.  0.
        -11    1    3    3    0    0  0.33138312145E+02  0.10433513339E+02  0.10547074646E+03  0.11104541544E+03  0.00000000000E+00 0.  1.
         11    1    3    3    0    0 -0.41323087337E+02 -0.45421507522E+02  0.25530426179E+03  0.26258518043E+03  0.00000000000E+00 0. -1.
        -11    1    4    4    0    0 -0.36436474404E+02 -0.41052670231E+01  0.20796344404E+02  0.42153977569E+02  0.00000000000E+00 0. -1.
         11    1    4    4    0    0  0.55681404647E+02 -0.75102098272E+01  0.48092316885E+01  0.56391052344E+02  0.00000000000E+00 0.  1.
          2    1    1    2  501    0 -0.11060155051E+02  0.46603471033E+02 -0.26015373940E+02  0.54506974079E+02  0.00000000000E+00 0. -1.
<scales pt_clust_5="13000.00000" pt_clust_6="13000.00000" pt_clust_7="13000.00000" pt_clust_8="13000.00000" pt_clust_9="13000.00000"></scales>
<clustering>
<clus scale="   90.278">  5  6 -1 -1</clus>
<clus scale="   92.467">  7  8 -1 -1</clus>
<clus scale="   47.898">  7  9 -1 -1</clus>
<clus scale="   97.166">  1  5  2 -1</clus>
<clus scale="  153.051">  2  5  1 -1</clus>
</clustering>
</event>
<event>
 9    1  0.3303741E-006  0.2511436E+03  0.7546771E-02  0.1140444E+00
         21   -1    0    0  501  502  0.00000000000E+00  0.00000000000E+00  0.27549513001E+03  0.27549513001E+03  0.00000000000E+00 0.  1.
         -3   -1    0    0    0  501 -0.00000000000E+00 -0.00000000000E+00 -0.13050041277E+03  0.13050041277E+03  0.00000000000E+00 0.  1.
         23    2    1    2    0    0 -0.60220944857E+02 -0.58968320246E+02  0.29350736332E+02  0.12950569770E+03  0.93842607710E+02 0.  0.
         23    2    1    2    0    0 -0.50765857831E+02  0.17336510333E+02 -0.68172016695E+01  0.10605505049E+03  0.91233067386E+02 0.  0.
        -13    1    4    4    0    0 -0.59869321557E+02 -0.21374512772E+02 -0.15317163107E+02  0.65389761780E+02  0.00000000000E+00 0.  1.
         13    1    4    4    0    0  0.91034637263E+01  0.38711023105E+02  0.84999614377E+01  0.40665288713E+02  0.00000000000E+00 0. -1.
        -13    1    3    3    0    0 -0.15950644133E+02 -0.66951824620E+02 -0.10236679245E+02  0.69582752677E+02  0.00000000000E+00 0. -1.
         13    1    3    3    0    0 -0.44270300724E+02  0.79835043735E+01  0.39587415577E+02  0.59922945024E+02  0.00000000000E+00 0.  1.
         -3    1    1    2    0  502  0.11098680269E+03  0.41631809914E+02  0.12246118257E+03  0.17043479458E+03  0.00000000000E+00 0.  1.
<scales pt_clust_5="13000.00000" pt_clust_6="13000.00000" pt_clust_7="13000.00000" pt_clust_8="13000.00000" pt_clust_9="13000.00000"></scales>
<clustering>
<clus scale="   91.233">  5  6 -1 -1</clus>
<clus scale="   93.843">  7  8 -1 -1</clus>
<clus scale="  118.538">  5  9 -1 -1</clus>
<clus scale="  126.136">  2  7  1 -1</clus>
<clus scale="  251.144">  1  5  2 -1</clus>
</clustering>
</event>
<event>
 9    1  0.3303741E-006  0.2545156E+03  0.7546771E-02  0.1146046E+00
         21   -1    0    0  501  502  0.00000000000E+00  0.00000000000E+00  0.93566989569E+02  0.93566989569E+02  0.00000000000E+00 0.  1.
         -1   -1    0    0    0  501 -0.00000000000E+00 -0.00000000000E+00 -0.44556091151E+03  0.44556091151E+03  0.00000000000E+00 0.  1.
         23    2    1    2    0    0  0.11434199610E+02  0.52090353513E+02 -0.23746571371E+03  0.26003133181E+03  0.91554259780E+02 0.  0.
         23    2    1    2    0    0 -0.75880496013E+01  0.34766140736E+02 -0.15490041127E+03  0.18323855844E+03  0.91191934129E+02 0.  0.
        -11    1    3    3    0    0  0.38463136505E+02  0.53190761833E+02 -0.21522139960E+03  0.22500871286E+03  0.00000000000E+00 0. -1.
         11    1    3    3    0    0 -0.27028936895E+02 -0.11004083201E+01 -0.22244314110E+02  0.35022618954E+02  0.00000000000E+00 0.  1.
        -13    1    4    4    0    0  0.22704016771E+02  0.39203991142E+02 -0.29281820987E+02  0.53943028645E+02  0.00000000000E+00 0.  1.
         13    1    4    4    0    0 -0.30292066372E+02 -0.44378504069E+01 -0.12561859028E+03  0.12929552980E+03  0.00000000000E+00 0. -1.
         -1    1    1    2    0  502 -0.38461500087E+01 -0.86856494249E+02  0.40372203034E+02  0.95858010833E+02  0.00000000000E+00 0.  1.
<scales pt_clust_5="13000.00000" pt_clust_6="13000.00000" pt_clust_7="13000.00000" pt_clust_8="13000.00000" pt_clust_9="13000.00000"></scales>
<clustering>
<clus scale="   91.192">  7  8 -1 -1</clus>
<clus scale="   86.942">  7  9 -1 -1</clus>
<clus scale="   91.554">  5  6 -1 -1</clus>
<clus scale="  105.954">  2  5  1 -1</clus>
<clus scale="  254.516">  1  5  2 -1</clus>
</clustering>
</event>
<event>
 9    1  0.3303741E-006  0.1551940E+03  0.7546771E-02  0.1209419E+00
         21   -1    0    0  501  502  0.00000000000E+00  0.00000000000E+00  0.13381927525E+03  0.13381927525E+03  0.00000000000E+00 0. -1.
         -1   -1    0    0    0  501 -0.00000000000E+00 -0.00000000000E+00 -0.14871062850E+03  0.14871062850E+03  0.00000000000E+00 0.  1.
         23    2    1    2    0    0 -0.68673314408E+02  0.12404913035E+02 -0.51613232808E+02  0.12305048332E+03  0.87221497724E+02 0.  0.
         23    2    1    2    0    0  0.21889327009E+02 -0.25968675892E+02  0.17677508732E+01  0.99525202460E+02  0.93534091203E+02 0.  0.
        -11    1    3    3    0    0 -0.55482449010E+02  0.28604722032E+02 -0.71007994902E+02  0.94544527132E+02  0.00000000000E+00 0. -1.
         11    1    3    3    0    0 -0.13190865398E+02 -0.16199808997E+02  0.19394762094E+02  0.28505956188E+02  0.00000000000E+00 0.  1.
        -13    1    4    4    0    0 -0.17470341070E+02 -0.50292416615E+02  0.91193974328E+00  0.53248207671E+02  0.00000000000E+00 0. -1.
         13    1    4    4    0    0  0.39359668079E+02  0.24323740723E+02  0.85581112995E+00  0.46276994790E+02  0.00000000000E+00 0.  1.
         -1    1    1    2    0  502  0.46783987399E+02  0.13563762857E+02  0.34954128687E+02  0.59954217967E+02  0.00000000000E+00 0.  1.
<scales pt_clust_5="13000.00000" pt_clust_6="13000.00000" pt_clust_7="13000.00000" pt_clust_8="13000.00000" pt_clust_9="13000.00000"></scales>
<clustering>
<clus scale="   87.221">  5  6 -1 -1</clus>
<clus scale="   93.534">  7  8 -1 -1</clus>
<clus scale="   48.711">  7  9 -1 -1</clus>
<clus scale="  111.703">  2  5  1 -1</clus>
<clus scale="  155.194">  1  5  2 -1</clus>
</clustering>
</event>
<event>
 9    1  0.3303741E-006  0.1838703E+03  0.7546771E-02  0.1185712E+00
         -3   -1    0    0    0  501 -0.00000000000E+00  0.00000000000E+00  0.43054856347E+02  0.43054856347E+02  0.00000000000E+00 0.  1.
         21   -1    0    0  501  502  0.00000000000E+00 -0.00000000000E+00 -0.88117198173E+03  0.88117198173E+03  0.00000000000E+00 0.  1.
         23    2    1    2    0    0  0.65581323743E+02 -0.12763611889E+02 -0.66084818156E+02  0.13060086538E+03  0.90694889794E+02 0.  0.
         23    2    1    2    0    0 -0.41277343254E+02 -0.38727918043E+02 -0.31546387634E+03  0.33352077472E+03  0.92276644893E+02 0.  0.
        -11    1    3    3    0    0  0.59674159127E+02  0.31814887477E+02 -0.41658215790E+02  0.79426691203E+02  0.00000000000E+00 0.  1.
         11    1    3    3    0    0  0.59071646158E+01 -0.44578499365E+02 -0.24426602366E+02  0.51174174176E+02  0.00000000000E+00 0. -1.
        -13    1    4    4    0    0 -0.63095157648E+02 -0.27883698564E+02 -0.29073210642E+03  0.29880371026E+03  0.00000000000E+00 0.  1.
         13    1    4    4    0    0  0.21817814394E+02 -0.10844219479E+02 -0.24731769917E+02  0.34717064454E+02  0.00000000000E+00 0. -1.
         -3    1    1    2    0  502 -0.24303980489E+02  0.51491529932E+02 -0.45656843089E+03  0.46010519797E+03  0.00000000000E+00 0.  1.
<scales pt_clust_5="13000.00000" pt_clust_6="13000.00000" pt_clust_7="13000.00000" pt_clust_8="13000.00000" pt_clust_9="13000.00000"></scales>
<clustering>
<clus scale="   90.695">  5  6 -1 -1</clus>
<clus scale="   92.277">  7  8 -1 -1</clus>
<clus scale="   56.939">  7  9 -1 -1</clus>
<clus scale="  112.647">  1  5  2 -1</clus>
<clus scale="  183.870">  2  5  1 -1</clus>
</clustering>
</event>
<event>
 9    1  0.3303741E-006  0.4612780E+03  0.7546771E-02  0.1070676E+00
          1   -1    0    0  502    0 -0.00000000000E+00  0.00000000000E+00  0.11191657588E+04  0.11191657588E+04  0.00000000000E+00 0. -1.
         21   -1    0    0  501  502  0.00000000000E+00 -0.00000000000E+00 -0.76406448084E+02  0.76406448084E+02  0.00000000000E+00 0. -1.
         23    2    1    2    0    0  0.72724071188E+02 -0.34614830255E+02  0.18861768886E+03  0.22483265801E+03  0.92120109387E+02 0.  0.
         23    2    1    2    0    0  0.10947442101E+03 -0.14471180224E+03  0.32961534644E+03  0.38723106968E+03  0.91517594809E+02 0.  0.
        -11    1    3    3    0    0  0.87554724561E+02 -0.49219731139E+02  0.14365733644E+03  0.17528788332E+03  0.00000000000E+00 0. -1.
         11    1    3    3    0    0 -0.14830653373E+02  0.14604900883E+02  0.44960352421E+02  0.49544774690E+02  0.00000000000E+00 0.  1.
        -11    1    4    4    0    0  0.29568532454E+02 -0.35472665180E+02  0.17845369564E+03  0.18433211758E+03  0.00000000000E+00 0.  1.
         11    1    4    4    0    0  0.79905888553E+02 -0.10923913706E+03  0.15116165080E+03  0.20289895210E+03  0.00000000000E+00 0. -1.
          1    1    1    2  501    0 -0.18219849220E+03  0.17932663249E+03  0.52452627541E+03  0.58350847918E+03  0.00000000000E+00 0. -1.
<scales pt_clust_5="13000.00000" pt_clust_6="13000.00000" pt_clust_7="13000.00000" pt_clust_8="13000.00000" pt_clust_9="13000.00000"></scales>
<clustering>
<clus scale="   91.518">  7  8 -1 -1</clus>
<clus scale="   92.120">  5  6 -1 -1</clus>
<clus scale="  122.365">  1  5  2 -1</clus>
<clus scale="  210.041">  7  9 -1 -1</clus>
<clus scale="  461.278">  2  5  1 -1</clus>
</clustering>
</event>
<event>
 9    1  0.3303741E-006  0.2747806E+03  0.7546771E-02  0.1114894E+00
          1   -1    0    0  502    0 -0.00000000000E+00  0.00000000000E+00  0.33212325502E+03  0.33212325502E+03  0.00000000000E+00 0. -1.
         21   -1    0    0  501  502  0.00000000000E+00 -0.00000000000E+00 -0.79284162001E+03  0.79284162001E+03  0.00000000000E+00 0.  1.
         23    2    1    2    0    0  0.15008299806E+03 -0.43296471436E+02 -0.72289309994E+03  0.74517550695E+03  0.91173523899E+02 0.  0.
         23    2    1    2    0    0  0.24815777430E+02  0.12682809135E+01  0.53672123376E+02  0.10441818313E+03  0.86052476978E+02 0.  0.
        -13    1    4    4    0    0 -0.52305149869E+01  0.29947135833E+02  0.55020036767E+02  0.62860111975E+02  0.00000000000E+00 0.  1.
         13    1    4    4    0    0  0.30046292417E+02 -0.28678854919E+02 -0.13479133915E+01  0.41558071153E+02  0.00000000000E+00 0. -1.
        -13    1    3    3    0    0  0.13599543653E+03 -0.69871307136E+00 -0.54455418705E+03  0.56127935076E+03  0.00000000000E+00 0.  1.
         13    1    3    3    0    0  0.14087561532E+02 -0.42597758365E+02 -0.17833891290E+03  0.18389615619E+03  0.00000000000E+00 0. -1.
          1    1    1    2  501    0 -0.17489877549E+03  0.42028190523E+02  0.20850261158E+03  0.27537118495E+03  0.00000000000E+00 0. -1.
<scales pt_clust_5="13000.00000" pt_clust_6="13000.00000" pt_clust_7="13000.00000" pt_clust_8="13000.00000" pt_clust_9="13000.00000"></scales>
<clustering>
<clus scale="   86.052">  5  6 -1 -1</clus>
<clus scale="   91.174">  7  8 -1 -1</clus>
<clus scale="  179.878">  5  9 -1 -1</clus>
<clus scale="  180.865">  1  7  2 -1</clus>
<clus scale="  274.781">  2  5  1 -1</clus>
</clustering>
</event>
<event>
 9    1  0.3303741E-006  0.1778979E+03  0.7546771E-02  0.1198450E+00
          1   -1    0    0  502    0 -0.00000000000E+00  0.00000000000E+00  0.25513529408E+03  0.25513529408E+03  0.00000000000E+00 0. -1.
         21   -1    0    0  501  502  0.00000000000E+00 -0.00000000000E+00 -0.80956055807E+02  0.80956055807E+02  0.00000000000E+00 0. -1.
         23    2    1    2    0    0 -0.23876755312E+02  0.34820238382E+01  0.10846218174E+02  0.94584966788E+02  0.90809974999E+02 0.  0.
         23    2    1    2    0    0  0.32794447429E+02  0.61750521843E+02  0.11779408704E+03  0.16145262196E+03  0.85457003610E+02 0.  0.
        -13    1    3    3    0    0  0.12260013035E+02  0.16802229058E+02 -0.31243544914E+02  0.37533743747E+02  0.00000000000E+00 0. -1.
         13    1    3    3    0    0 -0.36136768347E+02 -0.13320205219E+02  0.42089763088E+02  0.57051223040E+02  0.00000000000E+00 0.  1.
        -13    1    4    4    0    0  0.72046473191E+01 -0.21758882181E+02  0.28023384998E+02  0.36203121461E+02  0.00000000000E+00 0.  1.
         13    1    4    4    0    0  0.25589800110E+02  0.83509404024E+02  0.89770702046E+02  0.12524950050E+03  0.00000000000E+00 0. -1.
          1    1    1    2  501    0 -0.89176921172E+01 -0.65232545681E+02  0.45538933059E+02  0.80053761141E+02  0.00000000000E+00 0. -1.
<scales pt_clust_5="13000.00000" pt_clust_6="13000.00000" pt_clust_7="13000.00000" pt_clust_8="13000.00000" pt_clust_9="13000.00000"></scales>
<clustering>
<clus scale="   85.457">  7  8 -1 -1</clus>
<clus scale="   65.839">  7  9 -1 -1</clus>
<clus scale="   90.810">  5  6 -1 -1</clus>
<clus scale="   93.961">  1  5  2 -1</clus>
<clus scale="  177.898">  2  5  1 -1</clus>
</clustering>
</event>
<event>
 9    1  0.3303741E-006  0.1823714E+03  0.7546771E-02  0.1195384E+00
         21   -1    0    0  501  502  0.00000000000E+00  0.00000000000E+00  0.34593826970E+02  0.34593826970E+02  0.00000000000E+00 0. -1.
         -1   -1    0    0    0  501 -0.00000000000E+00 -0.00000000000E+00 -0.56881505605E+03  0.56881505605E+03  0.00000000000E+00 0.  1.
         23    2    1    2    0    0  0.14898118340E+01 -0.14354471171E+02 -0.13037204811E+03  0.16029094963E+03  0.92130598740E+02 0.  0.
         23    2    1    2    0    0  0.67078976117E+02  0.21000383863E+01 -0.22208009422E+03  0.24845964124E+03  0.88930455285E+02 0.  0.
        -11    1    3    3    0    0 -0.19324896085E+02  0.34393723283E+02 -0.66136920647E+02  0.77009558385E+02  0.00000000000E+00 0.  1.
         11    1    3    3    0    0  0.20814707919E+02 -0.48748194453E+02 -0.64235127463E+02  0.83281391249E+02  0.00000000000E+00 0. -1.
        -13    1    4    4    0    0  0.49080870245E+02 -0.39714245121E+02 -0.15525977303E+03  0.16760593727E+03  0.00000000000E+00 0. -1.
         13    1    4    4    0    0  0.17998105872E+02  0.41814283507E+02 -0.66820321196E+02  0.80853703965E+02  0.00000000000E+00 0.  1.
         -1    1    1    2    0  502 -0.68568787951E+02  0.12254432784E+02 -0.18176908675E+03  0.19465829215E+03  0.00000000000E+00 0.  1.
<scales pt_clust_5="13000.00000" pt_clust_6="13000.00000" pt_clust_7="13000.00000" pt_clust_8="13000.00000" pt_clust_9="13000.00000"></scales>
<clustering>
<clus scale="   88.930">  7  8 -1 -1</clus>
<clus scale="   69.655">  7  9 -1 -1</clus>
<clus scale="   92.131">  5  6 -1 -1</clus>
<clus scale="   93.254">  2  5  1 -1</clus>
<clus scale="  182.371">  1  5  2 -1</clus>
</clustering>
</event>
<event>
 9    1  0.3303741E-006  0.1959410E+03  0.7546771E-02  0.1176138E+00
          1   -1    0    0  502    0 -0.00000000000E+00  0.00000000000E+00  0.59374733477E+03  0.59374733477E+03  0.00000000000E+00 0. -1.
         21   -1    0    0  501  502  0.00000000000E+00 -0.00000000000E+00 -0.41116926135E+02  0.41116926135E+02  0.00000000000E+00 0. -1.
         23    2    1    2    0    0  0.70757899500E+02  0.23313327018E+02  0.23170351887E+03  0.25884972431E+03  0.88127564122E+02 0.  0.
         23    2    1    2    0    0  0.25650782233E+02  0.13540474853E+02  0.15441321852E+03  0.18010731534E+03  0.88056208753E+02 0.  0.
        -11    1    4    4    0    0  0.28666376239E+02 -0.31561914998E+02  0.10397444186E+03  0.11237704465E+03  0.00000000000E+00 0.  1.
         11    1    4    4    0    0 -0.30155940058E+01  0.45102389850E+02  0.50438776656E+02  0.67730270692E+02  0.00000000000E+00 0. -1.
        -13    1    3    3    0    0  0.33743620409E+02 -0.30065865959E+02  0.58904736296E+02  0.74245243432E+02  0.00000000000E+00 0. -1.
         13    1    3    3    0    0  0.37014279091E+02  0.53379192977E+02  0.17279878258E+03  0.18460448088E+03  0.00000000000E+00 0.  1.
          1    1    1    2  501    0 -0.96408681734E+02 -0.36853801871E+02  0.16651367124E+03  0.19590722125E+03  0.00000000000E+00 0. -1.
<scales pt_clust_5="13000.00000" pt_clust_6="13000.00000" pt_clust_7="13000.00000" pt_clust_8="13000.00000" pt_clust_9="13000.00000"></scales>
<clustering>
<clus scale="   88.056">  5  6 -1 -1</clus>
<clus scale="   88.128">  7  8 -1 -1</clus>
<clus scale="  103.213">  5  9 -1 -1</clus>
<clus scale="  115.398">  1  7  2 -1</clus>
<clus scale="  195.941">  2  5  1 -1</clus>
</clustering>
</event>
<event>
 9    1  0.3303741E-006  0.2455653E+03  0.7546771E-02  0.1151571E+00
         -2   -1    0    0    0  501 -0.00000000000E+00  0.00000000000E+00  0.12043538535E+03  0.12043538535E+03  0.00000000000E+00 0.  1.
         21   -1    0    0  501  502  0.00000000000E+00 -0.00000000000E+00 -0.25559224193E+03  0.25559224193E+03  0.00000000000E+00 0.  1.
         23    2    1    2    0    0  0.33092762866E+02 -0.34699675372E+02 -0.58071670923E+02  0.11864763267E+03  0.91682841090E+02 0.  0.
         23    2    1    2    0    0 -0.45235048493E+02  0.11984876990E+03 -0.33984963904E+02  0.16117483615E+03  0.91719206158E+02 0.  0.
        -11    1    4    4    0    0  0.27971155402E+02  0.32814816516E+02 -0.26049516559E+01  0.43197031040E+02  0.00000000000E+00 0.  1.
         11    1    4    4    0    0 -0.73206203895E+02  0.87033953379E+02 -0.31380012248E+02  0.11797780511E+03  0.00000000000E+00 0. -1.
        -13    1    3    3    0    0  0.15382832169E+02 -0.65854407203E+02 -0.37714513755E+02  0.77432674120E+02  0.00000000000E+00 0.  1.
         13    1    3    3    0    0  0.17709930697E+02  0.31154731830E+02 -0.20357157168E+02  0.41214958555E+02  0.00000000000E+00 0. -1.
         -2    1    1    2    0  502  0.12142285627E+02 -0.85149094523E+02 -0.43100221757E+02  0.96205158458E+02  0.00000000000E+00 0.  1.
<scales pt_clust_5="13000.00000" pt_clust_6="13000.00000" pt_clust_7="13000.00000" pt_clust_8="13000.00000" pt_clust_9="13000.00000"></scales>
<clustering>
<clus scale="   91.683">  7  8 -1 -1</clus>
<clus scale="   91.719">  5  6 -1 -1</clus>
<clus scale="   86.011">  5  9 -1 -1</clus>
<clus scale="  103.465">  1  7  2 -1</clus>
<clus scale="  245.565">  2  5  1 -1</clus>
</clustering>
</event>
<event>
 9    1  0.3303741E-006  0.1548442E+03  0.7546771E-02  0.1209738E+00
         -1   -1    0    0    0  501 -0.00000000000E+00  0.00000000000E+00  0.36391088616E+03  0.36391088616E+03  0.00000000000E+00 0.  1.
         21   -1    0    0  501  502  0.00000000000E+00 -0.00000000000E+00 -0.49100013945E+02  0.49100013945E+02  0.00000000000E+00 0. -1.
         23    2    1    2    0    0 -0.55731733522E+02  0.38740417608E+02  0.14785463472E+03  0.18530250330E+03  0.88708391057E+02 0.  0.
         23    2    1    2    0    0  0.10356230609E+02 -0.90890525525E+01  0.12490426157E+03  0.15910439988E+03  0.97587258978E+02 0.  0.
        -11    1    3    3    0    0  0.18527746423E+02 -0.91915195407E+01  0.46064778135E+02  0.50494803729E+02  0.00000000000E+00 0.  1.
         11    1    3    3    0    0 -0.74259479945E+02  0.47931937149E+02  0.10178985659E+03  0.13480769958E+03  0.00000000000E+00 0. -1.
        -13    1    4    4    0    0  0.21345642561E+02 -0.49996326819E+02  0.85084242691E+02  0.10096829951E+03  0.00000000000E+00 0.  1.
         13    1    4    4    0    0 -0.10989411952E+02  0.40907274266E+02  0.39820018876E+02  0.58136100370E+02  0.00000000000E+00 0. -1.
         -1    1    1    2    0  502  0.45375502913E+02 -0.29651365056E+02  0.42051975923E+02  0.68603996919E+02  0.00000000000E+00 0.  1.
<scales pt_clust_5="13000.00000" pt_clust_6="13000.00000" pt_clust_7="13000.00000" pt_clust_8="13000.00000" pt_clust_9="13000.00000"></scales>
<clustering>
<clus scale="   88.708">  5  6 -1 -1</clus>
<clus scale="   97.587">  7  8 -1 -1</clus>
<clus scale="   54.205">  7  9 -1 -1</clus>
<clus scale="  111.696">  1  5  2 -1</clus>
<clus scale="  154.844">  2  5  1 -1</clus>
</clustering>
</event>
<event>
 9    1  0.3303741E-006  0.2798542E+03  0.7546771E-02  0.1128830E+00
         21   -1    0    0  501  502  0.00000000000E+00  0.00000000000E+00  0.11571179360E+03  0.11571179360E+03  0.00000000000E+00 0.  1.
          2   -1    0    0  502    0 -0.00000000000E+00 -0.00000000000E+00 -0.48211474593E+03  0.48211474593E+03  0.00000000000E+00 0. -1.
         23    2    1    2    0    0  0.19829379366E+02  0.77739275951E+02 -0.27988038072E+03  0.30490246115E+03  0.90531121685E+02 0.  0.
         23    2    1    2    0    0 -0.27742895345E+02 -0.16434566154E+03 -0.56244493043E+02  0.20083688164E+03  0.96916692676E+02 0.  0.
        -11    1    4    4    0    0 -0.13555025144E+02 -0.14833063990E+02 -0.46125363040E+02  0.50312102019E+02  0.00000000000E+00 0. -1.
         11    1    4    4    0    0 -0.14187870201E+02 -0.14951259755E+03 -0.10119130002E+02  0.15052477962E+03  0.00000000000E+00 0.  1.
        -13    1    3    3    0    0 -0.27004607781E+02  0.29138814577E+02 -0.18015946183E+03  0.18448780730E+03  0.00000000000E+00 0.  1.
         13    1    3    3    0    0  0.46833987146E+02  0.48600461374E+02 -0.99720918896E+02  0.12041465386E+03  0.00000000000E+00 0. -1.
          2    1    1    2  501    0  0.79135159792E+01  0.86606385594E+02 -0.30278078557E+02  0.92087196732E+02  0.00000000000E+00 0. -1.
<scales pt_clust_5="13000.00000" pt_clust_6="13000.00000" pt_clust_7="13000.00000" pt_clust_8="13000.00000" pt_clust_9="13000.00000"></scales>
<clustering>
<clus scale="   90.531">  7  8 -1 -1</clus>
<clus scale="   96.917">  5  6 -1 -1</clus>
<clus scale="   86.967">  5  9 -1 -1</clus>
<clus scale="  120.965">  2  7  1 -1</clus>
<clus scale="  279.854">  1  5  2 -1</clus>
</clustering>
</event>
<event>
 9    1  0.3303741E-006  0.1161812E+03  0.7546771E-02  0.1258910E+00
         21   -1    0    0  501  502  0.00000000000E+00  0.00000000000E+00  0.17433669288E+03  0.17433669288E+03  0.00000000000E+00 0.  1.
          1   -1    0    0  502    0 -0.00000000000E+00 -0.00000000000E+00 -0.68761666035E+02  0.68761666035E+02  0.00000000000E+00 0. -1.
         23    2    1    2    0    0 -0.38090959661E+02  0.89896541768E+01  0.19259696191E+02  0.98362742884E+02  0.88162113179E+02 0.  0.
         23    2    1    2    0    0  0.22935890422E+02  0.41337357971E+01  0.79938018800E+02  0.12369827793E+03  0.91476960331E+02 0.  0.
        -11    1    3    3    0    0 -0.34142091824E+02 -0.33414217793E+02  0.27300724916E+02  0.55022922185E+02  0.00000000000E+00 0.  1.
         11    1    3    3    0    0 -0.39488678375E+01  0.42403871970E+02 -0.80410287256E+01  0.43339820699E+02  0.00000000000E+00 0. -1.
        -13    1    4    4    0    0 -0.25897701437E+02 -0.50879552389E+01 -0.34572668896E+01  0.26618244168E+02  0.00000000000E+00 0. -1.
         13    1    4    4    0    0  0.48833591859E+02  0.92216910360E+01  0.83395285690E+02  0.97080033759E+02  0.00000000000E+00 0.  1.
          1    1    1    2  501    0  0.15155069239E+02 -0.13123389974E+02  0.63773118545E+01  0.21037338105E+02  0.00000000000E+00 0. -1.
<scales pt_clust_5="13000.00000" pt_clust_6="13000.00000" pt_clust_7="13000.00000" pt_clust_8="13000.00000" pt_clust_9="13000.00000"></scales>
<clustering>
<clus scale="   88.162">  5  6 -1 -1</clus>
<clus scale="   91.477">  7  8 -1 -1</clus>
<clus scale="   20.047">  7  9 -1 -1</clus>
<clus scale="   96.459">  2  5  1 -1</clus>
<clus scale="  116.181">  1  5  2 -1</clus>
</clustering>
</event>
<event>
 9    1  0.3303741E-006  0.2240419E+03  0.7546771E-02  0.1159662E+00
          1   -1    0    0  502    0 -0.00000000000E+00  0.00000000000E+00  0.74955995823E+03  0.74955995823E+03  0.00000000000E+00 0. -1.
         21   -1    0    0  501  502  0.00000000000E+00 -0.00000000000E+00 -0.63256184483E+02  0.63256184483E+02  0.00000000000E+00 0. -1.
         23    2    1    2    0    0 -0.45172039882E+02 -0.47993449211E+02  0.52446760944E+03  0.53643651723E+03  0.91400105689E+02 0.  0.
         23    2    1    2    0    0  0.20483425972E+02  0.43707813445E+02  0.20491427607E+03  0.22654371430E+03  0.83679449430E+02 0.  0.
        -11    1    4    4    0    0  0.28994131262E+02 -0.97064871671E+00  0.16004978476E+03  0.16265772471E+03  0.00000000000E+00 0. -1.
         11    1    4    4    0    0 -0.85107052901E+01  0.44678462162E+02  0.44864491315E+02  0.63885989596E+02  0.00000000000E+00 0.  1.
        -13    1    3    3    0    0 -0.31245726504E+02 -0.74357559096E+02  0.42542573496E+03  0.43300392375E+03  0.00000000000E+00 0. -1.
         13    1    3    3    0    0 -0.13926313379E+02  0.26364109885E+02  0.99041874477E+02  0.10343259348E+03  0.00000000000E+00 0.  1.
          1    1    1    2  501    0  0.24688613911E+02  0.42856357656E+01 -0.43078111756E+02  0.49835911180E+02  0.00000000000E+00 0. -1.
<scales pt_clust_5="13000.00000" pt_clust_6="13000.00000" pt_clust_7="13000.00000" pt_clust_8="13000.00000" pt_clust_9="13000.00000"></scales>
<clustering>
<clus scale="   83.679">  5  6 -1 -1</clus>
<clus scale="   25.058">  5  9 -1 -1</clus>
<clus scale="   91.400">  7  8 -1 -1</clus>
<clus scale="  112.685">  1  7  2 -1</clus>
<clus scale="  224.042">  2  5  1 -1</clus>
</clustering>
</event>
<event>
 9    1  0.3303741E-006  0.2405031E+03  0.7546771E-02  0.1120509E+00
         -1   -1    0    0    0  501 -0.00000000000E+00  0.00000000000E+00  0.90241481284E+02  0.90241481284E+02  0.00000000000E+00 0.  1.
         21   -1    0    0  501  502  0.00000000000E+00 -0.00000000000E+00 -0.78880846851E+03  0.78880846851E+03  0.00000000000E+00 0. -1.
         23    2    1    2    0    0  0.17332001558E+03  0.12966930942E+03 -0.54626668880E+03  0.59437972910E+03  0.89587998438E+02 0.  0.
         23    2    1    2    0    0 -0.13666134188E+03 -0.10587247166E+03 -0.12762919842E+03  0.23448246303E+03  0.93848338059E+02 0.  0.
        -11    1    4    4    0    0 -0.10921974890E+03 -0.72321275980E+02 -0.40406927098E+02  0.13708406277E+03  0.00000000000E+00 0.  1.
         11    1    4    4    0    0 -0.27441592986E+02 -0.33551195682E+02 -0.87222271325E+02  0.97398400256E+02  0.00000000000E+00 0. -1.
        -13    1    3    3    0    0  0.61546851765E+02  0.10291955927E+02 -0.88573709467E+02  0.10834777952E+03  0.00000000000E+00 0. -1.
         13    1    3    3    0    0  0.11177316381E+03  0.11937735349E+03 -0.45769297934E+03  0.48603194958E+03  0.00000000000E+00 0.  1.
         -1    1    1    2    0  502 -0.36658673694E+02 -0.23796837759E+02 -0.24671100001E+02  0.50187757667E+02  0.00000000000E+00 0.  1.
<scales pt_clust_5="13000.00000" pt_clust_6="13000.00000" pt_clust_7="13000.00000" pt_clust_8="13000.00000" pt_clust_9="13000.00000"></scales>
<clustering>
<clus scale="   89.588">  7  8 -1 -1</clus>
<clus scale="   93.848">  5  6 -1 -1</clus>
<clus scale="   43.705">  5  9 -1 -1</clus>
<clus scale="  234.265">  1  7  2 -1</clus>
<clus scale="  240.503">  2  5  1 -1</clus>
</clustering>
</event>
<event>
 9    1  0.3303741E-006  0.2876009E+03  0.7546771E-02  0.1125514E+00
         -2   -1    0    0    0  501 -0.00000000000E+00  0.00000000000E+00  0.19712784205E+03  0.19712784205E+03  0.00000000000E+00 0.  1.
         21   -1    0    0  501  502  0.00000000000E+00 -0.00000000000E+00 -0.21360844516E+03  0.21360844516E+03  0.00000000000E+00 0.  1.
         23    2    1    2    0    0 -0.80799893963E+02 -0.19395260265E+02  0.12873393305E+02  0.12164128951E+03  0.87898123270E+02 0.  0.
         23    2    1    2    0    0 -0.53654123421E+02  0.79353270057E+02  0.17700822407E+02  0.13454079456E+03  0.92801938876E+02 0.  0.
        -11    1    3    3    0    0 -0.51600574936E+02  0.31154055577E+02 -0.52809895829E+01  0.60506886910E+02  0.00000000000E+00 0.  1.
         11    1    3    3    0    0 -0.29199319027E+02 -0.50549315842E+02  0.18154382887E+02  0.61134402604E+02  0.00000000000E+00 0. -1.
        -11    1    4    4    0    0 -0.49334839114E+01  0.77576438146E+02  0.31499123774E+02  0.83872747764E+02  0.00000000000E+00 0.  1.
         11    1    4    4    0    0 -0.48720639510E+02  0.17768319104E+01 -0.13798301367E+02  0.50668046800E+02  0.00000000000E+00 0. -1.
         -2    1    1    2    0  502  0.13445401738E+03 -0.59958009792E+02 -0.47054818822E+02  0.15455420312E+03  0.00000000000E+00 0.  1.
<scales pt_clust_5="13000.00000" pt_clust_6="13000.00000" pt_clust_7="13000.00000" pt_clust_8="13000.00000" pt_clust_9="13000.00000"></scales>
<clustering>
<clus scale="   87.898">  5  6 -1 -1</clus>
<clus scale="   92.802">  7  8 -1 -1</clus>
<clus scale="  120.958">  1  5  2 -1</clus>
<clus scale="  121.761">  7  9 -1 -1</clus>
<clus scale="  287.601">  2  5  1 -1</clus>
</clustering>
</event>
<event>
 9    1  0.3303741E-006  0.1586261E+03  0.7546771E-02  0.1215731E+00
         21   -1    0    0  501  502  0.00000000000E+00  0.00000000000E+00  0.29160256526E+03  0.29160256526E+03  0.00000000000E+00 0.  1.
          3   -1    0    0  502    0 -0.00000000000E+00 -0.00000000000E+00 -0.56273844222E+02  0.56273844222E+02  0.00000000000E+00 0. -1.
         23    2    1    2    0    0 -0.11086440587E+02 -0.14029487054E+02  0.12397586117E+03  0.15406799781E+03  0.89706176634E+02 0.  0.
         23    2    1    2    0    0  0.32012099682E+02  0.31023183143E+02  0.32309681203E+02  0.11029498156E+03  0.95571204024E+02 0.  0.
        -11    1    4    4    0    0  0.44834129494E+02  0.58857837297E+02  0.29006679210E+02  0.79471577419E+02  0.00000000000E+00 0.  1.
         11    1    4    4    0    0 -0.12822029812E+02 -0.27834654154E+02  0.33030019923E+01  0.30823404136E+02  0.00000000000E+00 0. -1.
        -11    1    3    3    0    0  0.21753159961E+02  0.94532984301E+01  0.10812517366E+03  0.11069606135E+03  0.00000000000E+00 0.  1.
         11    1    3    3    0    0 -0.32839600548E+02 -0.23482785485E+02  0.15850687509E+02  0.43371936466E+02  0.00000000000E+00 0. -1.
          3    1    1    2  501    0 -0.20925659095E+02 -0.16993696088E+02  0.79043178670E+02  0.83513430115E+02  0.00000000000E+00 0. -1.
<scales pt_clust_5="13000.00000" pt_clust_6="13000.00000" pt_clust_7="13000.00000" pt_clust_8="13000.00000" pt_clust_9="13000.00000"></scales>
<clustering>
<clus scale="   89.706">  7  8 -1 -1</clus>
<clus scale="   91.471">  2  7  1 -1</clus>
<clus scale="   95.571">  5  6 -1 -1</clus>
<clus scale="   27.904">  5  9 -1 -1</clus>
<clus scale="  158.626">  1  5  2 -1</clus>
</clustering>
</event>
<event>
 9    1  0.3303741E-006  0.1850571E+03  0.7546771E-02  0.1183091E+00
         21   -1    0    0  501  502  0.00000000000E+00  0.00000000000E+00  0.14960662725E+03  0.14960662725E+03  0.00000000000E+00 0. -1.
          3   -1    0    0  502    0 -0.00000000000E+00 -0.00000000000E+00 -0.15301839158E+03  0.15301839158E+03  0.00000000000E+00 0. -1.
         23    2    1    2    0    0 -0.72434048646E+02 -0.30214697879E+01  0.62599790693E+01  0.11731539775E+03  0.92021163477E+02 0.  0.
         23    2    1    2    0    0  0.34482050766E+02  0.11939983778E+02  0.53605363078E+02  0.11098676968E+03  0.90071932678E+02 0.  0.
        -11    1    4    4    0    0  0.48734866935E+02 -0.23744081621E+02  0.47504761610E+02  0.72080309675E+02  0.00000000000E+00 0.  1.
         11    1    4    4    0    0 -0.14252816169E+02  0.35684065399E+02  0.61006014681E+01  0.38906460009E+02  0.00000000000E+00 0. -1.
        -11    1    3    3    0    0  0.98215295798E+01  0.25312893030E+02 -0.97626228430E+01  0.28853315262E+02  0.00000000000E+00 0.  1.
         11    1    3    3    0    0 -0.82255578226E+02 -0.28334362818E+02  0.16022601912E+02  0.88462082485E+02  0.00000000000E+00 0. -1.
          3    1    1    2  501    0  0.37951997881E+02 -0.89185139896E+01 -0.63277106482E+02  0.74322851396E+02  0.00000000000E+00 0. -1.
<scales pt_clust_5="13000.00000" pt_clust_6="13000.00000" pt_clust_7="13000.00000" pt_clust_8="13000.00000" pt_clust_9="13000.00000"></scales>
<clustering>
<clus scale="   90.072">  5  6 -1 -1</clus>
<clus scale="   38.986">  5  9 -1 -1</clus>
<clus scale="   92.021">  7  8 -1 -1</clus>
<clus scale="  117.148">  2  7  1 -1</clus>
<clus scale="  185.057">  1  5  2 -1</clus>
</clustering>
</event>
<event>
 9    1  0.3303741E-006  0.4894616E+03  0.7546771E-02  0.1038977E+00
          1   -1    0    0  502    0 -0.00000000000E+00  0.00000000000E+00  0.91256734226E+03  0.91256734226E+03  0.00000000000E+00 0. -1.
         21   -1    0    0  501  502  0.00000000000E+00 -0.00000000000E+00 -0.16965034402E+03  0.16965034402E+03  0.00000000000E+00 0. -1.
         23    2    1    2    0    0  0.19610796137E+03 -0.12712438566E+03  0.90870587787E+02  0.26690353330E+03  0.91438998365E+02 0.  0.
         23    2    1    2    0    0  0.62969873496E+02  0.10912341149E+03  0.47624464778E+03  0.50170353558E+03  0.94996574499E+02 0.  0.
        -11    1    3    3    0    0  0.11438984293E+03 -0.11549592056E+03  0.32406201316E+02  0.16575435353E+03  0.00000000000E+00 0.  1.
         11    1    3    3    0    0  0.81718118442E+02 -0.11628465098E+02  0.58464386472E+02  0.10114917977E+03  0.00000000000E+00 0. -1.
        -11    1    4    4    0    0  0.86799256202E+02  0.68047337524E+02  0.33529884800E+03  0.35297290050E+03  0.00000000000E+00 0. -1.
         11    1    4    4    0    0 -0.23829382706E+02  0.41076073967E+02  0.14094579979E+03  0.14873063508E+03  0.00000000000E+00 0.  1.
          1    1    1    2  501    0 -0.25907783486E+03  0.18000974168E+02  0.17580176267E+03  0.31361061740E+03  0.00000000000E+00 0. -1.
<scales pt_clust_5="13000.00000" pt_clust_6="13000.00000" pt_clust_7="13000.00000" pt_clust_8="13000.00000" pt_clust_9="13000.00000"></scales>
<clustering>
<clus scale="   91.439">  5  6 -1 -1</clus>
<clus scale="   94.997">  7  8 -1 -1</clus>
<clus scale="  250.958">  1  5  2 -1</clus>
<clus scale="  195.200">  7  9 -1 -1</clus>
<clus scale="  489.462">  2  5  1 -1</clus>
</clustering>
</event>
<event>
 9    1  0.3303741E-006  0.2718854E+03  0.7546771E-02  0.1140307E+00
          1   -1    0    0  502    0 -0.00000000000E+00  0.00000000000E+00  0.93447795384E+03  0.93447795384E+03  0.00000000000E+00 0. -1.
         21   -1    0    0  501  502  0.00000000000E+00 -0.00000000000E+00 -0.36971692428E+02  0.36971692428E+02  0.00000000000E+00 0.  1.
         23    2    1    2    0    0  0.18110824115E+01  0.38565598898E+02  0.25189462957E+03  0.27092407757E+03  0.91969375135E+02 0.  0.
         23    2    1    2    0    0  0.57428521432E+02  0.77807528396E+02  0.40951391786E+03  0.43072162884E+03  0.92018618079E+02 0.  0.
        -11    1    3    3    0    0  0.33513303650E+02  0.21454273881E+02  0.41604636881E+02  0.57570593182E+02  0.00000000000E+00 0.  1.
         11    1    3    3    0    0 -0.31702221238E+02  0.17111325017E+02  0.21028999269E+03  0.21335348439E+03  0.00000000000E+00 0. -1.
        -13    1    4    4    0    0  0.42835962748E+02  0.97609393208E+02  0.29697918073E+03  0.31552994650E+03  0.00000000000E+00 0.  1.
         13    1    4    4    0    0  0.14592558684E+02 -0.19801864812E+02  0.11253473713E+03  0.11519168234E+03  0.00000000000E+00 0. -1.
          1    1    1    2  501    0 -0.59239603844E+02 -0.11637312729E+03  0.23609771398E+03  0.26980393986E+03  0.00000000000E+00 0. -1.
<scales pt_clust_5="13000.00000" pt_clust_6="13000.00000" pt_clust_7="13000.00000" pt_clust_8="13000.00000" pt_clust_9="13000.00000"></scales>
<clustering>
<clus scale="   91.969">  5  6 -1 -1</clus>
<clus scale="   92.019">  7  8 -1 -1</clus>
<clus scale="   99.744">  1  5  2 -1</clus>
<clus scale="  117.510">  7  9 -1 -1</clus>
<clus scale="  271.885">  2  5  1 -1</clus>
</clustering>
</event>
<event>
 9    1  0.3303741E-006  0.3428209E+03  0.7546771E-02  0.1113763E+00
         21   -1    0    0  501  502  0.00000000000E+00  0.00000000000E+00  0.26578323660E+02  0.26578323660E+02  0.00000000000E+00 0.  1.
          2   -1    0    0  502    0 -0.00000000000E+00 -0.00000000000E+00 -0.18268036972E+04  0.18268036972E+04  0.00000000000E+00 0. -1.
         23    2    1    2    0    0  0.18252033905E+02 -0.86008762628E+01 -0.32422272184E+03  0.33808996883E+03  0.93687469022E+02 0.  0.
         23    2    1    2    0    0  0.80162571340E+02  0.10171961505E+03 -0.40347816109E+03  0.43424380288E+03  0.94869046232E+02 0.  0.
        -11    1    4    4    0    0  0.81714185295E+02  0.30255612168E+02 -0.18782615233E+03  0.20705379408E+03  0.00000000000E+00 0.  1.
         11    1    4    4    0    0 -0.15516139549E+01  0.71464002878E+02 -0.21565200877E+03  0.22719000880E+03  0.00000000000E+00 0. -1.
        -13    1    3    3    0    0  0.54885789233E+02 -0.10710432912E+02 -0.23610983007E+03  0.24264174226E+03  0.00000000000E+00 0.  1.
         13    1    3    3    0    0 -0.36633755327E+02  0.21095566490E+01 -0.88112891772E+02  0.95448226569E+02  0.00000000000E+00 0. -1.
          2    1    1    2  501    0 -0.98414605245E+02 -0.93118738783E+02 -0.10725244906E+04  0.10810482492E+04  0.00000000000E+00 0. -1.
<scales pt_clust_5="13000.00000" pt_clust_6="13000.00000" pt_clust_7="13000.00000" pt_clust_8="13000.00000" pt_clust_9="13000.00000"></scales>
<clustering>
<clus scale="   93.687">  7  8 -1 -1</clus>
<clus scale="   94.869">  5  6 -1 -1</clus>
<clus scale="   95.836">  2  7  1 -1</clus>
<clus scale="  130.898">  5  9 -1 -1</clus>
<clus scale="  342.821">  1  5  2 -1</clus>
</clustering>
</event>
<event>
 9    1  0.3303741E-006  0.3295436E+03  0.7546771E-02  0.1110618E+00
         21   -1    0    0  501  502  0.00000000000E+00  0.00000000000E+00  0.12696084273E+03  0.12696084273E+03  0.00000000000E+00 0. -1.
          2   -1    0    0  502    0 -0.00000000000E+00 -0.00000000000E+00 -0.39554278404E+03  0.39554278404E+03  0.00000000000E+00 0. -1.
         23    2    1    2    0    0  0.43786770230E+02 -0.53874481569E+02 -0.50265909627E+02  0.12720519998E+03  0.93993405198E+02 0.  0.
         23    2    1    2    0    0  0.58060472729E+02  0.89124629191E+02 -0.24794491823E+03  0.28352497411E+03  0.87152225713E+02 0.  0.
        -11    1    4    4    0    0  0.12912223517E+02  0.51038788938E+02 -0.20184437569E+03  0.20859730461E+03  0.00000000000E+00 0.  1.
         11    1    4    4    0    0  0.45148249213E+02  0.38085840254E+02 -0.46100542544E+02  0.74927669506E+02  0.00000000000E+00 0. -1.
        -13    1    3    3    0    0 -0.19478549295E+01 -0.68728829601E+02 -0.30380353120E+02  0.75169222511E+02  0.00000000000E+00 0.  1.
         13    1    3    3    0    0  0.45734625159E+02  0.14854348032E+02 -0.19885556507E+02  0.52035977472E+02  0.00000000000E+00 0. -1.
          2    1    1    2  501    0 -0.10184724296E+03 -0.35250147622E+02  0.29628886550E+02  0.11177345268E+03  0.00000000000E+00 0. -1.
<scales pt_clust_5="13000.00000" pt_clust_6="13000.00000" pt_clust_7="13000.00000" pt_clust_8="13000.00000" pt_clust_9="13000.00000"></scales>
<clustering>
<clus scale="   87.152">  5  6 -1 -1</clus>
<clus scale="   93.993">  7  8 -1 -1</clus>
<clus scale="  107.775">  5  9 -1 -1</clus>
<clus scale="  116.853">  2  7  1 -1</clus>
<clus scale="  329.544">  1  5  2 -1</clus>
</clustering>
</event>
<event>
 9    1  0.3303741E-006  0.2544232E+03  0.7546771E-02  0.1149481E+00
          2   -1    0    0  502    0 -0.00000000000E+00  0.00000000000E+00  0.16046811336E+03  0.16046811336E+03  0.00000000000E+00 0. -1.
         21   -1    0    0  501  502  0.00000000000E+00 -0.00000000000E+00 -0.20724539541E+03  0.20724539541E+03  0.00000000000E+00 0.  1.
         23    2    1    2    0    0  0.20247711699E+02 -0.27926761767E+02  0.29500208549E+02  0.10210210646E+03  0.91458755661E+02 0.  0.
         23    2    1    2    0    0  0.41256104056E+02 -0.49269356477E+02  0.34278856918E+02  0.11740659133E+03  0.92085460560E+02 0.  0.
        -11    1    4    4    0    0  0.32253703802E+02 -0.69693123324E+02  0.35123740554E+00  0.76795548148E+02  0.00000000000E+00 0.  1.
         11    1    4    4    0    0  0.90024002546E+01  0.20423766847E+02  0.33927619512E+02  0.40611043182E+02  0.00000000000E+00 0. -1.
        -13    1    3    3    0    0  0.47550432802E+02 -0.27204384149E+02  0.44825024137E+02  0.70784214098E+02  0.00000000000E+00 0.  1.
         13    1    3    3    0    0 -0.27302721103E+02 -0.72237761850E+00 -0.15324815589E+02  0.31317892360E+02  0.00000000000E+00 0. -1.
          2    1    1    2  501    0 -0.61503815755E+02  0.77196118245E+02 -0.11055634751E+03  0.14820481099E+03  0.00000000000E+00 0. -1.
<scales pt_clust_5="13000.00000" pt_clust_6="13000.00000" pt_clust_7="13000.00000" pt_clust_8="13000.00000" pt_clust_9="13000.00000"></scales>
<clustering>
<clus scale="   91.459">  7  8 -1 -1</clus>
<clus scale="   92.085">  5  6 -1 -1</clus>
<clus scale="   97.748">  1  7  2 -1</clus>
<clus scale="   91.850">  5  9 -1 -1</clus>
<clus scale="  254.423">  2  5  1 -1</clus>
</clustering>
</event>
<event>
 9    1  0.3303741E-006  0.4100608E+03  0.7546771E-02  0.1087719E+00
          3   -1    0    0  502    0 -0.00000000000E+00  0.00000000000E+00  0.29364946935E+03  0.29364946935E+03  0.00000000000E+00 0. -1.
         21   -1    0    0  501  502  0.00000000000E+00 -0.00000000000E+00 -0.23113072655E+03  0.23113072655E+03  0.00000000000E+00 0. -1.
         23    2    1    2    0    0  0.33664831250E+02 -0.50617063114E+02 -0.25420153111E-01  0.10997709043E+03  0.91649068909E+02 0.  0.
         23    2    1    2    0    0 -0.46936327599E+02  0.71377458671E+02  0.22129026470E+03  0.25415612772E+03  0.91258947789E+02 0.  0.
        -11    1    3    3    0    0 -0.17345259103E+02 -0.40309107631E+02  0.26810057854E+02  0.51424326670E+02  0.00000000000E+00 0. -1.
         11    1    3    3    0    0  0.51010090353E+02 -0.10307955483E+02 -0.26835478007E+02  0.58552763760E+02  0.00000000000E+00 0.  1.
        -11    1    4    4    0    0 -0.45395591731E+01 -0.21595034059E+02  0.29462957102E+02  0.36810581831E+02  0.00000000000E+00 0.  1.
         11    1    4    4    0    0 -0.42396768426E+02  0.92972492730E+02  0.19182730760E+03  0.21734554589E+03  0.00000000000E+00 0. -1.
          3    1    1    2  501    0  0.13271496349E+02 -0.20760395557E+02 -0.15874610175E+03  0.16064697774E+03  0.00000000000E+00 0. -1.
<scales pt_clust_5="13000.00000" pt_clust_6="13000.00000" pt_clust_7="13000.00000" pt_clust_8="13000.00000" pt_clust_9="13000.00000"></scales>
<clustering>
<clus scale="   91.259">  7  8 -1 -1</clus>
<clus scale="   24.640">  7  9 -1 -1</clus>
<clus scale="   91.649">  5  6 -1 -1</clus>
<clus scale="  109.977">  1  5  2 -1</clus>
<clus scale="  410.061">  2  5  1 -1</clus>
</clustering>
</event>
<event>
 9    1  0.3303741E-006  0.3176181E+03  0.7546771E-02  0.1104983E+00
          1   -1    0    0  502    0 -0.00000000000E+00  0.00000000000E+00  0.46239955477E+03  0.46239955477E+03  0.00000000000E+00 0. -1.
         21   -1    0    0  501  502  0.00000000000E+00 -0.00000000000E+00 -0.18514870648E+03  0.18514870648E+03  0.00000000000E+00 0. -1.
         23    2    1    2    0    0  0.10747516230E+03  0.55768132594E+02  0.29303659919E+03  0.32953807409E+03  0.89799213156E+02 0.  0.
         23    2    1    2    0    0 -0.25617200077E+02 -0.15638307776E+03  0.16405578063E+02  0.18436747381E+03  0.92791780125E+02 0.  0.
        -11    1    4    4    0    0 -0.11914651618E+02 -0.39254016384E+02  0.47150211235E+02  0.62497833122E+02  0.00000000000E+00 0.  1.
         11    1    4    4    0    0 -0.13702548460E+02 -0.11712906138E+03 -0.30744633171E+02  0.12186964069E+03  0.00000000000E+00 0. -1.
        -13    1    3    3    0    0  0.73750141610E+02  0.13950648467E+02  0.24902149948E+03  0.26008731454E+03  0.00000000000E+00 0. -1.
         13    1    3    3    0    0  0.33725020695E+02  0.41817484127E+02  0.44015099708E+02  0.69450759549E+02  0.00000000000E+00 0.  1.
          1    1    1    2  501    0 -0.81857962227E+02  0.10061494517E+03 -0.32191328968E+02  0.13364271335E+03  0.00000000000E+00 0. -1.
<scales pt_clust_5="13000.00000" pt_clust_6="13000.00000" pt_clust_7="13000.00000" pt_clust_8="13000.00000" pt_clust_9="13000.00000"></scales>
<clustering>
<clus scale="   89.799">  7  8 -1 -1</clus>
<clus scale="   92.792">  5  6 -1 -1</clus>
<clus scale="  129.708">  5  9 -1 -1</clus>
<clus scale="  150.748">  1  7  2 -1</clus>
<clus scale="  317.618">  2  5  1 -1</clus>
</clustering>
</event>
<event>
 9    1  0.3303741E-006  0.2868403E+03  0.7546771E-02  0.1102199E+00
         21   -1    0    0  501  502  0.00000000000E+00  0.00000000000E+00  0.72733376087E+02  0.72733376087E+02  0.00000000000E+00 0. -1.
          3   -1    0    0  502    0 -0.00000000000E+00 -0.00000000000E+00 -0.12835858094E+04  0.12835858094E+04  0.00000000000E+00 0. -1.
         23    2    1    2    0    0  0.98420125923E+02 -0.17681050050E+03 -0.92718364907E+03  0.95290214046E+03  0.86049380689E+02 0.  0.
         23    2    1    2    0    0 -0.39265419805E+02  0.10207881790E+03 -0.27182566480E+03  0.30737349697E+03  0.92883886320E+02 0.  0.
        -13    1    3    3    0    0  0.16541884840E+02 -0.74816595002E+02 -0.20253647342E+03  0.21654602261E+03  0.00000000000E+00 0.  1.
         13    1    3    3    0    0  0.81878241083E+02 -0.10199390550E+03 -0.72464717565E+03  0.73635611785E+03  0.00000000000E+00 0. -1.
        -13    1    4    4    0    0 -0.69669742780E+02  0.66338048423E+02 -0.19275993962E+03  0.21543213328E+03  0.00000000000E+00 0. -1.
         13    1    4    4    0    0  0.30404322975E+02  0.35740769477E+02 -0.79065725178E+02  0.91941363686E+02  0.00000000000E+00 0.  1.
          3    1    1    2  501    0 -0.59154706118E+02  0.74731682604E+02 -0.11843119415E+02  0.96043548031E+02  0.00000000000E+00 0. -1.
<scales pt_clust_5="13000.00000" pt_clust_6="13000.00000" pt_clust_7="13000.00000" pt_clust_8="13000.00000" pt_clust_9="13000.00000"></scales>
<clustering>
<clus scale="   86.049">  5  6 -1 -1</clus>
<clus scale="   92.884">  7  8 -1 -1</clus>
<clus scale="   95.311">  7  9 -1 -1</clus>
<clus scale="  219.893">  2  5  1 -1</clus>
<clus scale="  286.840">  1  5  2 -1</clus>
</clustering>
</event>
<event>
 9    1  0.3303741E-006  0.2323294E+03  0.7546771E-02  0.1161512E+00
         -2   -1    0    0    0  501 -0.00000000000E+00  0.00000000000E+00  0.11189417962E+03  0.11189417962E+03  0.00000000000E+00 0.  1.
         21   -1    0    0  501  502  0.00000000000E+00 -0.00000000000E+00 -0.24838404803E+03  0.24838404803E+03  0.00000000000E+00 0.  1.
         23    2    1    2    0    0 -0.10238000297E+02  0.28217854087E+02 -0.14524203448E+02  0.97880498840E+02  0.92024864183E+02 0.  0.
         23    2    1    2    0    0  0.26543072386E+02 -0.47150357326E+01  0.36526056966E+02  0.10134536538E+03  0.90608851622E+02 0.  0.
        -11    1    3    3    0    0 -0.40988985120E+02  0.45492965921E+02 -0.12856706736E+02  0.62569974888E+02  0.00000000000E+00 0.  1.
         11    1    3    3    0    0  0.30750984823E+02 -0.17275111834E+02 -0.16674967125E+01  0.35310523951E+02  0.00000000000E+00 0. -1.
        -13    1    4    4    0    0  0.20123866651E+02 -0.38395311777E+02 -0.90784230399E+01  0.44289815311E+02  0.00000000000E+00 0. -1.
         13    1    4    4    0    0  0.64192057342E+01  0.33680276044E+02  0.45604480005E+02  0.57055550065E+02  0.00000000000E+00 0.  1.
         -2    1    1    2    0  502 -0.16305072088E+02 -0.23502818355E+02 -0.15849172193E+03  0.16105236343E+03  0.00000000000E+00 0.  1.
<scales pt_clust_5="13000.00000" pt_clust_6="13000.00000" pt_clust_7="13000.00000" pt_clust_8="13000.00000" pt_clust_9="13000.00000"></scales>
<clustering>
<clus scale="   90.609">  7  8 -1 -1</clus>
<clus scale="   28.605">  7  9 -1 -1</clus>
<clus scale="   92.025">  5  6 -1 -1</clus>
<clus scale="   96.797">  1  5  2 -1</clus>
<clus scale="  232.329">  2  5  1 -1</clus>
</clustering>
</event>
<event>
 9    1  0.3303741E-006  0.1472615E+03  0.7546771E-02  0.1214122E+00
         21   -1    0    0  501  502  0.00000000000E+00  0.00000000000E+00  0.23672646439E+02  0.23672646439E+02  0.00000000000E+00 0.  1.
          3   -1    0    0  502    0 -0.00000000000E+00 -0.00000000000E+00 -0.81801598983E+03  0.81801598983E+03  0.00000000000E+00 0. -1.
         23    2    1    2    0    0  0.30471429120E+02 -0.73464706911E+02 -0.23240585074E+03  0.26077583251E+03  0.87555606392E+02 0.  0.
         23    2    1    2    0    0 -0.10138737759E+02  0.72353758347E+02 -0.53131062148E+03  0.54413430756E+03  0.91941871939E+02 0.  0.
        -11    1    4    4    0    0 -0.22694483673E+02 -0.15363187918E+02 -0.92884604048E+02  0.96843258936E+02  0.00000000000E+00 0.  1.
         11    1    4    4    0    0  0.12555745913E+02  0.87716946265E+02 -0.43842601743E+03  0.44729104862E+03  0.00000000000E+00 0. -1.
        -11    1    3    3    0    0  0.54882113815E+02 -0.18248163285E+02 -0.11844155032E+03  0.13180835604E+03  0.00000000000E+00 0. -1.
         11    1    3    3    0    0 -0.24410684695E+02 -0.55216543626E+02 -0.11396430042E+03  0.12896747647E+03  0.00000000000E+00 0.  1.
          3    1    1    2  501    0 -0.20332691361E+02  0.11109485645E+01 -0.30626871169E+02  0.36778496194E+02  0.00000000000E+00 0. -1.
<scales pt_clust_5="13000.00000" pt_clust_6="13000.00000" pt_clust_7="13000.00000" pt_clust_8="13000.00000" pt_clust_9="13000.00000"></scales>
<clustering>
<clus scale="   87.556">  7  8 -1 -1</clus>
<clus scale="   91.942">  5  6 -1 -1</clus>
<clus scale="   20.363">  5  9 -1 -1</clus>
<clus scale="  118.286">  2  7  1 -1</clus>
<clus scale="  147.261">  1  5  2 -1</clus>
</clustering>
</event>
<event>
 9    1  0.3303741E-006  0.1333670E+03  0.7546771E-02  0.1233141E+00
         21   -1    0    0  501  502  0.00000000000E+00  0.00000000000E+00  0.51383531829E+02  0.51383531829E+02  0.00000000000E+00 0.  1.
          3   -1    0    0  502    0 -0.00000000000E+00 -0.00000000000E+00 -0.30594508817E+03  0.30594508817E+03  0.00000000000E+00 0. -1.
         23    2    1    2    0    0 -0.35250185935E+02  0.45232224396E+02 -0.64023180190E+02  0.12475253650E+03  0.90419566635E+02 0.  0.
         23    2    1    2    0    0  0.29091805664E+02 -0.93902003174E+01 -0.15034383966E+03  0.17837112891E+03  0.90986155464E+02 0.  0.
        -11    1    4    4    0    0  0.62170781208E+02 -0.62236927703E+01 -0.91618144272E+02  0.11089555784E+03  0.00000000000E+00 0.  1.
         11    1    4    4    0    0 -0.33078975544E+02 -0.31665075471E+01 -0.58725695387E+02  0.67475571075E+02  0.00000000000E+00 0. -1.
        -13    1    3    3    0    0  0.18835833367E+02  0.43616769032E+02 -0.10527528625E+02  0.48662511427E+02  0.00000000000E+00 0.  1.
         13    1    3    3    0    0 -0.54086019302E+02  0.16154553639E+01 -0.53495651565E+02  0.76090025077E+02  0.00000000000E+00 0. -1.
          3    1    1    2  501    0  0.61583802707E+01 -0.35842024079E+02 -0.40194536491E+02  0.54204954583E+02  0.00000000000E+00 0. -1.
<scales pt_clust_5="13000.00000" pt_clust_6="13000.00000" pt_clust_7="13000.00000" pt_clust_8="13000.00000" pt_clust_9="13000.00000"></scales>
<clustering>
<clus scale="   90.420">  7  8 -1 -1</clus>
<clus scale="   90.986">  5  6 -1 -1</clus>
<clus scale="   36.367">  5  9 -1 -1</clus>
<clus scale="  107.071">  2  7  1 -1</clus>
<clus scale="  133.367">  1  5  2 -1</clus>
</clustering>
</event>
<event>
 9    1  0.3303741E-006  0.4768698E+03  0.7546771E-02  0.1076145E+00
          2   -1    0    0  502    0 -0.00000000000E+00  0.00000000000E+00  0.11341455490E+04  0.11341455490E+04  0.00000000000E+00 0.  1.
         21   -1    0    0  501  502  0.00000000000E+00 -0.00000000000E+00 -0.95792447238E+02  0.95792447238E+02  0.00000000000E+00 0.  1.
         23    2    1    2    0    0  0.21497243657E+02 -0.96569042584E+01  0.94145166076E+01  0.95865955659E+02  0.92445989890E+02 0.  0.
         23    2    1    2    0    0  0.11539002343E+03  0.18638311535E+03  0.67590050519E+03  0.71621301712E+03  0.89811300967E+02 0.  0.
        -13    1    4    4    0    0  0.79941528308E+02  0.56272001796E+02  0.35292896792E+03  0.36621857208E+03  0.00000000000E+00 0.  1.
         13    1    4    4    0    0  0.35448495117E+02  0.13011111355E+03  0.32297153727E+03  0.34999444504E+03  0.00000000000E+00 0. -1.
        -13    1    3    3    0    0  0.13411574440E+01 -0.50150111638E+02  0.46298815811E+01  0.50381228687E+02  0.00000000000E+00 0. -1.
         13    1    3    3    0    0  0.20156086213E+02  0.40493207380E+02  0.47846350264E+01  0.45484726971E+02  0.00000000000E+00 0.  1.
          2    1    1    2  501    0 -0.13688726708E+03 -0.17672621109E+03  0.35303807992E+03  0.41785902342E+03  0.00000000000E+00 0.  1.
<scales pt_clust_5="13000.00000" pt_clust_6="13000.00000" pt_clust_7="13000.00000" pt_clust_8="13000.00000" pt_clust_9="13000.00000"></scales>
<clustering>
<clus scale="   89.811">  5  6 -1 -1</clus>
<clus scale="   92.446">  7  8 -1 -1</clus>
<clus scale="   95.403">  1  7  2 -1</clus>
<clus scale="  221.720">  5  9 -1 -1</clus>
<clus scale="  476.870">  2  5  1 -1</clus>
</clustering>
</event>
<event>
 9    1  0.3303741E-006  0.1201512E+03  0.7546771E-02  0.1251960E+00
         21   -1    0    0  501  502  0.00000000000E+00  0.00000000000E+00  0.59951584880E+02  0.59951584880E+02  0.00000000000E+00 0.  1.
          1   -1    0    0  502    0 -0.00000000000E+00 -0.00000000000E+00 -0.21204210979E+03  0.21204210979E+03  0.00000000000E+00 0. -1.
         23    2    1    2    0    0 -0.36595928773E+02 -0.15697005095E+02 -0.98548006679E+02  0.14045239660E+03  0.91812352762E+02 0.  0.
         23    2    1    2    0    0  0.39507943722E+02 -0.42677864024E+01 -0.48115816832E+02  0.11064819349E+03  0.91371764106E+02 0.  0.
        -11    1    3    3    0    0  0.10005856247E+02 -0.33654531467E+02 -0.79666592478E+02  0.87060384817E+02  0.00000000000E+00 0. -1.
         11    1    3    3    0    0 -0.46601785020E+02  0.17957526371E+02 -0.18881414201E+02  0.53392011787E+02  0.00000000000E+00 0.  1.
        -13    1    4    4    0    0 -0.25108612147E+02  0.73394892625E+00  0.64414893186E+01  0.25932101142E+02  0.00000000000E+00 0.  1.
         13    1    4    4    0    0  0.64616555870E+02 -0.50017353287E+01 -0.54557306150E+02  0.84716092351E+02  0.00000000000E+00 0. -1.
          1    1    1    2  501    0 -0.29120149490E+01  0.19964791498E+02 -0.54267013994E+01  0.20893104573E+02  0.00000000000E+00 0. -1.
<scales pt_clust_5="13000.00000" pt_clust_6="13000.00000" pt_clust_7="13000.00000" pt_clust_8="13000.00000" pt_clust_9="13000.00000"></scales>
<clustering>
<clus scale="   91.372">  7  8 -1 -1</clus>
<clus scale="   20.176">  7  9 -1 -1</clus>
<clus scale="   91.812">  5  6 -1 -1</clus>
<clus scale="  100.076">  2  5  1 -1</clus>
<clus scale="  120.151">  1  5  2 -1</clus>
</clustering>
</event>
<event>
 9    1  0.3303741E-006  0.1882981E+03  0.7546771E-02  0.1187006E+00
         -3   -1    0    0    0  501 -0.00000000000E+00  0.00000000000E+00  0.20537177142E+03  0.20537177142E+03  0.00000000000E+00 0.  1.
         21   -1    0    0  501  502  0.00000000000E+00 -0.00000000000E+00 -0.11215758109E+03  0.11215758109E+03  0.00000000000E+00 0.  1.
         23    2    1    2    0    0  0.34108150735E+02 -0.30107972553E+02  0.78531588648E+02  0.12865970823E+03  0.91193498391E+02 0.  0.
         23    2    1    2    0    0  0.10749297204E+02  0.13492471795E+02  0.70250720247E+02  0.11554787874E+03  0.90103021036E+02 0.  0.
        -11    1    4    4    0    0  0.18876092745E+02  0.50020565072E+02  0.33463782281E+02  0.63072882699E+02  0.00000000000E+00 0.  1.
         11    1    4    4    0    0 -0.81267955414E+01 -0.36528093277E+02  0.36786937966E+02  0.52474996037E+02  0.00000000000E+00 0. -1.
        -11    1    3    3    0    0  0.43147649268E+02 -0.98900874267E+01  0.92450796638E+02  0.10250211347E+03  0.00000000000E+00 0.  1.
         11    1    3    3    0    0 -0.90394985331E+01 -0.20217885126E+02 -0.13919207990E+02  0.26157594763E+02  0.00000000000E+00 0. -1.
         -3    1    1    2    0  502 -0.44857447938E+02  0.16615500758E+02 -0.55568118564E+02  0.73321765539E+02  0.00000000000E+00 0.  1.
<scales pt_clust_5="13000.00000" pt_clust_6="13000.00000" pt_clust_7="13000.00000" pt_clust_8="13000.00000" pt_clust_9="13000.00000"></scales>
<clustering>
<clus scale="   90.103">  5  6 -1 -1</clus>
<clus scale="   47.836">  5  9 -1 -1</clus>
<clus scale="   91.193">  7  8 -1 -1</clus>
<clus scale="  101.912">  1  7  2 -1</clus>
<clus scale="  188.298">  2  5  1 -1</clus>
</clustering>
</event>
<event>
 9    1  0.3303741E-006  0.1289889E+04  0.7546771E-02  0.9430781E-01
         21   -1    0    0  501  502  0.00000000000E+00  0.00000000000E+00  0.20951434890E+04  0.20951434890E+04  0.00000000000E+00 0. -1.
          2   -1    0    0  502    0 -0.00000000000E+00 -0.00000000000E+00 -0.30696232293E+03  0.30696232293E+03  0.00000000000E+00 0. -1.
         23    2    1    2    0    0 -0.80060467931E+02 -0.27519748436E+03  0.47129831391E+03  0.55874067831E+03  0.89026462223E+02 0.  0.
         23    2    1    2    0    0 -0.13271805317E+03  0.28598811334E+03 -0.15018139983E+03  0.36091154037E+03  0.91101067570E+02 0.  0.
        -11    1    3    3    0    0 -0.21780478577E+01 -0.10637865521E+03  0.23583728511E+03  0.25872840437E+03  0.00000000000E+00 0.  1.
         11    1    3    3    0    0 -0.77882420073E+02 -0.16881882915E+03  0.23546102880E+03  0.30001227394E+03  0.00000000000E+00 0. -1.
        -13    1    4    4    0    0 -0.86678637312E+02  0.23340081851E+03 -0.15067044747E+03  0.29101668678E+03  0.00000000000E+00 0. -1.
         13    1    4    4    0    0 -0.46039415863E+02  0.52587294830E+02  0.48904764585E+00  0.69894853588E+02  0.00000000000E+00 0.  1.
          2    1    1    2  501    0  0.21277852110E+03 -0.10790628980E+02  0.14670642519E+04  0.14824535932E+04  0.00000000000E+00 0. -1.
<scales pt_clust_5="13000.00000" pt_clust_6="13000.00000" pt_clust_7="13000.00000" pt_clust_8="13000.00000" pt_clust_9="13000.00000"></scales>
<clustering>
<clus scale="   89.026">  5  6 -1 -1</clus>
<clus scale="   91.101">  7  8 -1 -1</clus>
<clus scale="  213.052">  7  9 -1 -1</clus>
<clus scale="  300.115">  2  5  1 -1</clus>
<clus scale=" 1289.889">  1  5  2 -1</clus>
</clustering>
</event>
<event>
 9    1  0.3303741E-006  0.2155219E+03  0.7546771E-02  0.1169980E+00
          1   -1    0    0  502    0 -0.00000000000E+00  0.00000000000E+00  0.98755134158E+03  0.98755134158E+03  0.00000000000E+00 0. -1.
         21   -1    0    0  501  502  0.00000000000E+00 -0.00000000000E+00 -0.32325860290E+02  0.32325860290E+02  0.00000000000E+00 0. -1.
         23    2    1    2    0    0 -0.32102377161E+02  0.24229015356E+02  0.11401222299E+03  0.15149396045E+03  0.91290882659E+02 0.  0.
         23    2    1    2    0    0  0.66732414672E+02 -0.83966017705E+02  0.64796064486E+03  0.66316549962E+03  0.91825787804E+02 0.  0.
        -11    1    3    3    0    0  0.14293192789E+02  0.39999193096E+02  0.23437820436E+02  0.48513526312E+02  0.00000000000E+00 0.  1.
         11    1    3    3    0    0 -0.46395569950E+02 -0.15770177740E+02  0.90574402558E+02  0.10298043414E+03  0.00000000000E+00 0. -1.
        -11    1    4    4    0    0  0.28660667688E+02 -0.93091723449E+02  0.53004585946E+03  0.53892125211E+03  0.00000000000E+00 0. -1.
         11    1    4    4    0    0  0.38071746984E+02  0.91257057439E+01  0.11791478540E+03  0.12424424751E+03  0.00000000000E+00 0.  1.
          1    1    1    2  501    0 -0.34630037512E+02  0.59737002349E+02  0.19325261343E+03  0.20521774179E+03  0.00000000000E+00 0. -1.
<scales pt_clust_5="13000.00000" pt_clust_6="13000.00000" pt_clust_7="13000.00000" pt_clust_8="13000.00000" pt_clust_9="13000.00000"></scales>
<clustering>
<clus scale="   91.291">  5  6 -1 -1</clus>
<clus scale="   91.826">  7  8 -1 -1</clus>
<clus scale="   69.049">  7  9 -1 -1</clus>
<clus scale="   99.758">  1  5  2 -1</clus>
<clus scale="  215.522">  2  5  1 -1</clus>
</clustering>
</event>
<event>
 9    1  0.3303741E-006  0.3457717E+03  0.7546771E-02  0.1114667E+00
         21   -1    0    0  501  502  0.00000000000E+00  0.00000000000E+00  0.90154322753E+02  0.90154322753E+02  0.00000000000E+00 0.  1.
          2   -1    0    0  502    0 -0.00000000000E+00 -0.00000000000E+00 -0.53342997393E+03  0.53342997393E+03  0.00000000000E+00 0. -1.
         23    2    1    2    0    0  0.56370898620E+01  0.12352040016E+02 -0.11467468573E+03  0.14657629007E+03  0.90277215237E+02 0.  0.
         23    2    1    2    0    0  0.56960066619E+02 -0.49476683841E+00 -0.38036290566E+03  0.39492087375E+03  0.89676432442E+02 0.  0.
        -11    1    4    4    0    0  0.60299132743E+02 -0.32506512958E+02 -0.19260709877E+03  0.20442640067E+03  0.00000000000E+00 0. -1.
         11    1    4    4    0    0 -0.33390661235E+01  0.32011746119E+02 -0.18775580688E+03  0.19049447307E+03  0.00000000000E+00 0.  1.
        -11    1    3    3    0    0  0.25511131252E+02  0.27339228250E+02 -0.96170454884E+01  0.38610086545E+02  0.00000000000E+00 0.  1.
         11    1    3    3    0    0 -0.19874041390E+02 -0.14987188233E+02 -0.10505764024E+03  0.10796620353E+03  0.00000000000E+00 0. -1.
          2    1    1    2  501    0 -0.62597156481E+02 -0.11857273178E+02  0.51761940211E+02  0.82087132860E+02  0.00000000000E+00 0. -1.
<scales pt_clust_5="13000.00000" pt_clust_6="13000.00000" pt_clust_7="13000.00000" pt_clust_8="13000.00000" pt_clust_9="13000.00000"></scales>
<clustering>
<clus scale="   89.676">  5  6 -1 -1</clus>
<clus scale="   63.710">  5  9 -1 -1</clus>
<clus scale="   90.277">  7  8 -1 -1</clus>
<clus scale="   91.293">  2  7  1 -1</clus>
<clus scale="  345.772">  1  5  2 -1</clus>
</clustering>
</event>
<event>
 9    1  0.3303741E-006  0.1981668E+03  0.7546771E-02  0.1171578E+00
          4   -1    0    0  502    0 -0.00000000000E+00  0.00000000000E+00  0.30229031909E+03  0.30229031909E+03  0.00000000000E+00 0.  1.
         21   -1    0    0  501  502  0.00000000000E+00 -0.00000000000E+00 -0.86733072046E+02  0.86733072046E+02  0.00000000000E+00 0. -1.
         23    2    1    2    0    0 -0.54902953901E+02  0.62207483815E+02  0.62431074716E+02  0.13858832200E+03  0.91787681724E+02 0.  0.
         23    2    1    2    0    0 -0.55578321338E+01  0.27415155020E+02  0.72173446866E+02  0.11537557188E+03  0.85557208523E+02 0.  0.
        -11    1    3    3    0    0  0.60547946598E+01  0.52726265216E+02  0.55034217206E+02  0.76455769210E+02  0.00000000000E+00 0.  1.
         11    1    3    3    0    0 -0.60957748561E+02  0.94812185982E+01  0.73968575104E+01  0.62132552795E+02  0.00000000000E+00 0. -1.
        -13    1    4    4    0    0  0.27365015278E+02  0.38515412135E+02  0.17075595498E+02  0.50238003491E+02  0.00000000000E+00 0.  1.
         13    1    4    4    0    0 -0.32922847412E+02 -0.11100257115E+02  0.55097851368E+02  0.65137568385E+02  0.00000000000E+00 0. -1.
          4    1    1    2  501    0  0.60460786035E+02 -0.89622638835E+02  0.80952725465E+02  0.13505949726E+03  0.00000000000E+00 0.  1.
<scales pt_clust_5="13000.00000" pt_clust_6="13000.00000" pt_clust_7="13000.00000" pt_clust_8="13000.00000" pt_clust_9="13000.00000"></scales>
<clustering>
<clus scale="   85.557">  7  8 -1 -1</clus>
<clus scale="   91.788">  5  6 -1 -1</clus>
<clus scale="  108.110">  7  9 -1 -1</clus>
<clus scale="  123.730">  1  5  2 -1</clus>
<clus scale="  198.167">  2  5  1 -1</clus>
</clustering>
</event>
<event>
 9    1  0.3303741E-006  0.2164472E+03  0.7546771E-02  0.1170074E+00
         21   -1    0    0  501  502  0.00000000000E+00  0.00000000000E+00  0.18456245567E+03  0.18456245567E+03  0.00000000000E+00 0. -1.
         -1   -1    0    0    0  501 -0.00000000000E+00 -0.00000000000E+00 -0.23255534412E+03  0.23255534412E+03  0.00000000000E+00 0.  1.
         23    2    1    2    0    0  0.35000873011E+02  0.52861776768E+01 -0.14881905965E+03  0.17833900541E+03  0.91677061193E+02 0.  0.
         23    2    1    2    0    0 -0.19632397660E+02 -0.72487557717E+02  0.11901928746E+03  0.16748219563E+03  0.90800980198E+02 0.  0.
        -11    1    3    3    0    0 -0.30950893346E+01  0.29125467155E+02 -0.77683654453E+01  0.30302143764E+02  0.00000000000E+00 0.  1.
         11    1    3    3    0    0  0.38095962346E+02 -0.23839289478E+02 -0.14105069421E+03  0.14803686165E+03  0.00000000000E+00 0. -1.
        -13    1    4    4    0    0 -0.97402444054E+01  0.18057690183E+02  0.42346583748E+01  0.20949579169E+02  0.00000000000E+00 0.  1.
         13    1    4    4    0    0 -0.98921532546E+01 -0.90545247900E+02  0.11478462909E+03  0.14653261646E+03  0.00000000000E+00 0. -1.
         -1    1    1    2    0  502 -0.15368475351E+02  0.67201380040E+02 -0.18193116264E+02  0.71296598750E+02  0.00000000000E+00 0.  1.
<scales pt_clust_5="13000.00000" pt_clust_6="13000.00000" pt_clust_7="13000.00000" pt_clust_8="13000.00000" pt_clust_9="13000.00000"></scales>
<clustering>
<clus scale="   90.801">  7  8 -1 -1</clus>
<clus scale="   68.936">  7  9 -1 -1</clus>
<clus scale="   91.677">  5  6 -1 -1</clus>
<clus scale="   98.274">  2  5  1 -1</clus>
<clus scale="  216.447">  1  5  2 -1</clus>
</clustering>
</event>
<event>
 9    1  0.3303741E-006  0.2799718E+03  0.7546771E-02  0.1124120E+00
         21   -1    0    0  501  502  0.00000000000E+00  0.00000000000E+00  0.14493131283E+04  0.14493131283E+04  0.00000000000E+00 0.  1.
         -2   -1    0    0    0  501 -0.00000000000E+00 -0.00000000000E+00 -0.29864775706E+02  0.29864775706E+02  0.00000000000E+00 0.  1.
         23    2    1    2    0    0 -0.23906461597E+02  0.94756924370E+02  0.49407744676E+03  0.51238137472E+03  0.94190000180E+02 0.  0.
         23    2    1    2    0    0  0.55817272696E+02  0.42059575395E+02  0.22129987453E+03  0.24884592403E+03  0.89811378046E+02 0.  0.
        -11    1    4    4    0    0  0.18273846301E+02 -0.28422307461E+02  0.60009160681E+02  0.68868428076E+02  0.00000000000E+00 0.  1.
         11    1    4    4    0    0  0.37543426394E+02  0.70481882856E+02  0.16129071385E+03  0.17997749595E+03  0.00000000000E+00 0. -1.
        -13    1    3    3    0    0 -0.49971789154E+02  0.26718168129E+02  0.14290145349E+03  0.15372659376E+03  0.00000000000E+00 0. -1.
         13    1    3    3    0    0  0.26065327557E+02  0.68038756241E+02  0.35117599327E+03  0.35865478096E+03  0.00000000000E+00 0.  1.
         -2    1    1    2    0  502 -0.31910811098E+02 -0.13681649977E+03  0.70407103126E+03  0.71795060521E+03  0.00000000000E+00 0.  1.
<scales pt_clust_5="13000.00000" pt_clust_6="13000.00000" pt_clust_7="13000.00000" pt_clust_8="13000.00000" pt_clust_9="13000.00000"></scales>
<clustering>
<clus scale="   89.811">  5  6 -1 -1</clus>
<clus scale="   94.190">  7  8 -1 -1</clus>
<clus scale="  135.728">  2  7  1 -1</clus>
<clus scale="  112.397">  5  9 -1 -1</clus>
<clus scale="  279.972">  1  5  2 -1</clus>
</clustering>
</event>
<event>
 9    1  0.3303741E-006  0.2928150E+03  0.7546771E-02  0.1126298E+00
          2   -1    0    0  502    0 -0.00000000000E+00  0.00000000000E+00  0.30140011766E+03  0.30140011766E+03  0.00000000000E+00 0. -1.
         21   -1    0    0  501  502  0.00000000000E+00 -0.00000000000E+00 -0.21960582283E+03  0.21960582283E+03  0.00000000000E+00 0.  1.
         23    2    1    2    0    0 -0.82199946941E+01 -0.65492265539E+02  0.17995291803E+03  0.21217626619E+03  0.90988516134E+02 0.  0.
         23    2    1    2    0    0  0.12212230806E+03  0.48570779243E+02 -0.49548839318E+01  0.16068443913E+03  0.92314459218E+02 0.  0.
        -11    1    3    3    0    0  0.16557513891E+02 -0.80970001928E+02  0.12332560843E+03  0.14845705835E+03  0.00000000000E+00 0.  1.
         11    1    3    3    0    0 -0.24777508585E+02  0.15477736390E+02  0.56627309605E+02  0.63719207846E+02  0.00000000000E+00 0. -1.
        -13    1    4    4    0    0  0.76290215226E+02 -0.14473606380E+02 -0.22390478074E+02  0.80814699958E+02  0.00000000000E+00 0.  1.
         13    1    4    4    0    0  0.45832092839E+02  0.63044385623E+02  0.17435594142E+02  0.79869739173E+02  0.00000000000E+00 0. -1.
          2    1    1    2  501    0 -0.11390231337E+03  0.16921486296E+02 -0.93203739270E+02  0.14814523517E+03  0.00000000000E+00 0. -1.
<scales pt_clust_5="13000.00000" pt_clust_6="13000.00000" pt_clust_7="13000.00000" pt_clust_8="13000.00000" pt_clust_9="13000.00000"></scales>
<clustering>
<clus scale="   90.989">  5  6 -1 -1</clus>
<clus scale="   92.314">  7  8 -1 -1</clus>
<clus scale="  112.409">  1  5  2 -1</clus>
<clus scale="  116.046">  7  9 -1 -1</clus>
<clus scale="  292.815">  2  5  1 -1</clus>
</clustering>
</event>
<event>
 9    1  0.3303741E-006  0.3594400E+03  0.7546771E-02  0.1090304E+00
         21   -1    0    0  501  502  0.00000000000E+00  0.00000000000E+00  0.81967581040E+02  0.81967581040E+02  0.00000000000E+00 0. -1.
          1   -1    0    0  502    0 -0.00000000000E+00 -0.00000000000E+00 -0.80093951711E+03  0.80093951711E+03  0.00000000000E+00 0. -1.
         23    2    1    2    0    0  0.11586920806E+03 -0.42050015554E+02 -0.23271390470E+03  0.27822203829E+03  0.89765605691E+02 0.  0.
         23    2    1    2    0    0  0.77692797519E+02 -0.54841046033E+02 -0.25556748691E+03  0.28834306910E+03  0.93719122988E+02 0.  0.
        -13    1    3    3    0    0  0.10806451804E+03 -0.18318211733E+02 -0.22774922773E+03  0.25275127630E+03  0.00000000000E+00 0. -1.
         13    1    3    3    0    0  0.78046900146E+01 -0.23731803821E+02 -0.49646769724E+01  0.25470761989E+02  0.00000000000E+00 0.  1.
        -13    1    4    4    0    0  0.65210636674E+02 -0.80047183898E+02 -0.17725413122E+03  0.20513167922E+03  0.00000000000E+00 0. -1.
         13    1    4    4    0    0  0.12482160845E+02  0.25206137866E+02 -0.78313355688E+02  0.83211389873E+02  0.00000000000E+00 0.  1.
          1    1    1    2  501    0 -0.19356200558E+03  0.96891061587E+02 -0.23069054446E+03  0.31634199076E+03  0.00000000000E+00 0. -1.
<scales pt_clust_5="13000.00000" pt_clust_6="13000.00000" pt_clust_7="13000.00000" pt_clust_8="13000.00000" pt_clust_9="13000.00000"></scales>
<clustering>
<clus scale="   89.766">  5  6 -1 -1</clus>
<clus scale="   93.719">  7  8 -1 -1</clus>
<clus scale="  152.485">  2  5  1 -1</clus>
<clus scale="  155.230">  7  9 -1 -1</clus>
<clus scale="  359.440">  1  5  2 -1</clus>
</clustering>
</event>
<event>
 9    1  0.3303741E-006  0.7304372E+03  0.7546771E-02  0.1029827E+00
         21   -1    0    0  501  502  0.00000000000E+00  0.00000000000E+00  0.48538301678E+03  0.48538301678E+03  0.00000000000E+00 0. -1.
          2   -1    0    0  502    0 -0.00000000000E+00 -0.00000000000E+00 -0.36031188495E+03  0.36031188495E+03  0.00000000000E+00 0. -1.
         23    2    1    2    0    0  0.36284939882E+02  0.18098031903E+02  0.51813915078E+02  0.11159331094E+03  0.90134619489E+02 0.  0.
         23    2    1    2    0    0 -0.22565572537E+03 -0.27166418623E+03 -0.93364446541E+02  0.37644272022E+03  0.90940998790E+02 0.  0.
        -11    1    4    4    0    0 -0.57790131162E+02 -0.47031761321E+02 -0.56700639915E+02  0.93630381818E+02  0.00000000000E+00 0.  1.
         11    1    4    4    0    0 -0.16786559421E+03 -0.22463242491E+03 -0.36663806626E+02  0.28281233840E+03  0.00000000000E+00 0. -1.
        -13    1    3    3    0    0  0.60724037589E+02 -0.65360958411E+01  0.19329146231E+02  0.64060480673E+02  0.00000000000E+00 0.  1.
         13    1    3    3    0    0 -0.24439097707E+02  0.24634127744E+02  0.32484768847E+02  0.47532830270E+02  0.00000000000E+00 0. -1.
          2    1    1    2  501    0  0.18937078549E+03  0.25356615432E+03  0.16662166329E+03  0.35765887056E+03  0.00000000000E+00 0. -1.
<scales pt_clust_5="13000.00000" pt_clust_6="13000.00000" pt_clust_7="13000.00000" pt_clust_8="13000.00000" pt_clust_9="13000.00000"></scales>
<clustering>
<clus scale="   90.135">  7  8 -1 -1</clus>
<clus scale="   90.941">  5  6 -1 -1</clus>
<clus scale="   98.835">  2  7  1 -1</clus>
<clus scale="  326.987">  5  9 -1 -1</clus>
<clus scale="  730.437">  1  5  2 -1</clus>
</clustering>
</event>
<event>
 9    1  0.3303741E-006  0.4057165E+03  0.7546771E-02  0.1056028E+00
          1   -1    0    0  502    0 -0.00000000000E+00  0.00000000000E+00  0.12539479808E+04  0.12539479808E+04  0.00000000000E+00 0. -1.
         21   -1    0    0  501  502  0.00000000000E+00 -0.00000000000E+00 -0.10442442587E+03  0.10442442587E+03  0.00000000000E+00 0.  1.
         23    2    1    2    0    0 -0.20840715421E+03 -0.14601977821E+03  0.71260888510E+03  0.76213393261E+03  0.91002145878E+02 0.  0.
         23    2    1    2    0    0 -0.18858519647E+01 -0.57950869847E+02  0.16583981083E+03  0.19710346818E+03  0.89359244401E+02 0.  0.
        -11    1    4    4    0    0 -0.28644098326E+02 -0.34267489036E+02  0.23740854255E+02  0.50580365108E+02  0.00000000000E+00 0.  1.
         11    1    4    4    0    0  0.26758246361E+02 -0.23683380811E+02  0.14209895657E+03  0.14652310307E+03  0.00000000000E+00 0. -1.
        -13    1    3    3    0    0 -0.68000772966E+02 -0.91690734401E+02  0.38541731704E+03  0.40196741680E+03  0.00000000000E+00 0. -1.
         13    1    3    3    0    0 -0.14040638125E+03 -0.54329043811E+02  0.32719156806E+03  0.36016651580E+03  0.00000000000E+00 0.  1.
          1    1    1    2  501    0  0.21029300618E+03  0.20397064806E+03  0.27107485896E+03  0.39913500583E+03  0.00000000000E+00 0. -1.
<scales pt_clust_5="13000.00000" pt_clust_6="13000.00000" pt_clust_7="13000.00000" pt_clust_8="13000.00000" pt_clust_9="13000.00000"></scales>
<clustering>
<clus scale="   89.359">  5  6 -1 -1</clus>
<clus scale="   91.002">  7  8 -1 -1</clus>
<clus scale="  270.253">  1  7  2 -1</clus>
<clus scale="  132.570">  5  9 -1 -1</clus>
<clus scale="  405.717">  2  5  1 -1</clus>
</clustering>
</event>
<event>
 9    1  0.3303741E-006  0.2641873E+03  0.7546771E-02  0.1146777E+00
         21   -1    0    0  501  502  0.00000000000E+00  0.00000000000E+00  0.13442812896E+03  0.13442812896E+03  0.00000000000E+00 0.  1.
         -1   -1    0    0    0  501 -0.00000000000E+00 -0.00000000000E+00 -0.25699272519E+03  0.25699272519E+03  0.00000000000E+00 0.  1.
         23    2    1    2    0    0  0.12844745682E+02  0.11725858504E+02 -0.82144764577E+02  0.12415935680E+03  0.91462015530E+02 0.  0.
         23    2    1    2    0    0  0.10778510979E+03 -0.20830430485E+02 -0.35968075529E+02  0.14620666103E+03  0.89616675597E+02 0.  0.
        -11    1    4    4    0    0  0.98032167364E+02  0.18641942522E+02 -0.34278023893E+02  0.10551213571E+03  0.00000000000E+00 0.  1.
         11    1    4    4    0    0  0.97529424273E+01 -0.39472373007E+02 -0.16900516360E+01  0.40694525324E+02  0.00000000000E+00 0. -1.
        -11    1    3    3    0    0 -0.21976788981E+02  0.21763564935E+02  0.35349528643E+01  0.31130819205E+02  0.00000000000E+00 0. -1.
         11    1    3    3    0    0  0.34821534663E+02 -0.10037706431E+02 -0.85679717442E+02  0.93028537598E+02  0.00000000000E+00 0.  1.
         -1    1    1    2    0  502 -0.12062985547E+03  0.91045719807E+01 -0.44517561268E+01  0.12105483631E+03  0.00000000000E+00 0.  1.
<scales pt_clust_5="13000.00000" pt_clust_6="13000.00000" pt_clust_7="13000.00000" pt_clust_8="13000.00000" pt_clust_9="13000.00000"></scales>
<clustering>
<clus scale="   89.617">  5  6 -1 -1</clus>
<clus scale="   91.462">  7  8 -1 -1</clus>
<clus scale="   93.101">  2  7  1 -1</clus>
<clus scale="  116.223">  5  9 -1 -1</clus>
<clus scale="  264.187">  1  5  2 -1</clus>
</clustering>
</event>
<event>
 9    1  0.3303741E-006  0.5931238E+03  0.7546771E-02  0.1038878E+00
         21   -1    0    0  501  502  0.00000000000E+00  0.00000000000E+00  0.47807274330E+03  0.47807274330E+03  0.00000000000E+00 0. -1.
          1   -1    0    0  502    0 -0.00000000000E+00 -0.00000000000E+00 -0.56835569191E+03  0.56835569191E+03  0.00000000000E+00 0. -1.
         23    2    1    2    0    0 -0.36415170716E+02 -0.10238220290E+03 -0.36597949398E+03  0.39236080814E+03  0.90541888779E+02 0.  0.
         23    2    1    2    0    0 -0.11243349004E+03  0.30482641373E+02 -0.14236978618E+03  0.20450680990E+03  0.89349863848E+02 0.  0.
        -11    1    4    4    0    0 -0.49130352634E+02  0.59133485196E+02 -0.82725251078E+02  0.11293373184E+03  0.00000000000E+00 0.  1.
         11    1    4    4    0    0 -0.63303137410E+02 -0.28650843823E+02 -0.59644535107E+02  0.91573078062E+02  0.00000000000E+00 0. -1.
        -13    1    3    3    0    0 -0.18001437236E+02 -0.11613478963E+03 -0.28770655296E+03  0.31078352871E+03  0.00000000000E+00 0. -1.
         13    1    3    3    0    0 -0.18413733480E+02  0.13752586733E+02 -0.78272941022E+02  0.81577279427E+02  0.00000000000E+00 0.  1.
          1    1    1    2  501    0  0.14884866076E+03  0.71899561529E+02  0.41806633155E+03  0.44956081717E+03  0.00000000000E+00 0. -1.
<scales pt_clust_5="13000.00000" pt_clust_6="13000.00000" pt_clust_7="13000.00000" pt_clust_8="13000.00000" pt_clust_9="13000.00000"></scales>
<clustering>
<clus scale="   89.350">  5  6 -1 -1</clus>
<clus scale="   90.542">  7  8 -1 -1</clus>
<clus scale="  141.443">  2  7  1 -1</clus>
<clus scale="  158.995">  5  9 -1 -1</clus>
<clus scale="  593.124">  1  5  2 -1</clus>
</clustering>
</event>
<event>
 9    1  0.3303741E-006  0.1679485E+03  0.7546771E-02  0.1201881E+00
         21   -1    0    0  501  502  0.00000000000E+00  0.00000000000E+00  0.99905746455E+02  0.99905746455E+02  0.00000000000E+00 0.  1.
          2   -1    0    0  502    0 -0.00000000000E+00 -0.00000000000E+00 -0.29361171054E+03  0.29361171054E+03  0.00000000000E+00 0. -1.
         23    2    1    2    0    0 -0.73781392755E+01 -0.46286203358E+02 -0.20020129420E+03  0.22544337858E+03  0.92451658650E+02 0.  0.
         23    2    1    2    0    0  0.53065506801E+02  0.11649962163E+02 -0.53012709943E+01  0.10954063026E+03  0.94970398399E+02 0.  0.
        -11    1    3    3    0    0  0.33355035254E+02  0.92908642733E+01 -0.72224889450E+02  0.80095650268E+02  0.00000000000E+00 0.  1.
         11    1    3    3    0    0 -0.40733174529E+02 -0.55577067631E+02 -0.12797640475E+03  0.14534772832E+03  0.00000000000E+00 0. -1.
        -11    1    4    4    0    0 -0.19540979530E+02 -0.17907551464E+02  0.12263175470E+02  0.29204721417E+02  0.00000000000E+00 0.  1.
         11    1    4    4    0    0  0.72606486331E+02  0.29557513627E+02 -0.17564446465E+02  0.80335908838E+02  0.00000000000E+00 0. -1.
          2    1    1    2  501    0 -0.45687367526E+02  0.34636241195E+02  0.11796601108E+02  0.58533448158E+02  0.00000000000E+00 0. -1.
<scales pt_clust_5="13000.00000" pt_clust_6="13000.00000" pt_clust_7="13000.00000" pt_clust_8="13000.00000" pt_clust_9="13000.00000"></scales>
<clustering>
<clus scale="   92.452">  5  6 -1 -1</clus>
<clus scale="   94.970">  7  8 -1 -1</clus>
<clus scale="   57.332">  7  9 -1 -1</clus>
<clus scale="  103.654">  2  5  1 -1</clus>
<clus scale="  167.949">  1  5  2 -1</clus>
</clustering>
</event>
<event>
 9    1  0.3303741E-006  0.1100315E+03  0.7546771E-02  0.1269647E+00
         21   -1    0    0  501  502  0.00000000000E+00  0.00000000000E+00  0.35148062350E+02  0.35148062350E+02  0.00000000000E+00 0. -1.
          2   -1    0    0  502    0 -0.00000000000E+00 -0.00000000000E+00 -0.48359222137E+03  0.48359222137E+03  0.00000000000E+00 0. -1.
         23    2    1    2    0    0 -0.16789197272E+02 -0.38737831306E+01 -0.48776276099E+02  0.10420276475E+03  0.90455556663E+02 0.  0.
         23    2    1    2    0    0 -0.97883953877E+01  0.42360300928E+01 -0.29786398149E+03  0.30932091381E+03  0.82720732683E+02 0.  0.
        -13    1    3    3    0    0 -0.53407428880E+02 -0.11568914487E+02 -0.27942006915E+02  0.61375475496E+02  0.00000000000E+00 0. -1.
         13    1    3    3    0    0  0.36618231607E+02  0.76951313560E+01 -0.20834269184E+02  0.42827289257E+02  0.00000000000E+00 0.  1.
        -13    1    4    4    0    0 -0.43293756654E+02  0.13164483797E+02 -0.21088104402E+03  0.21568140329E+03  0.00000000000E+00 0. -1.
         13    1    4    4    0    0  0.33505361266E+02 -0.89284537046E+01 -0.86982937469E+02  0.93639510517E+02  0.00000000000E+00 0.  1.
          2    1    1    2  501    0  0.26577592660E+02 -0.36224696223E+00 -0.10180390143E+03  0.10521660516E+03  0.00000000000E+00 0. -1.
<scales pt_clust_5="13000.00000" pt_clust_6="13000.00000" pt_clust_7="13000.00000" pt_clust_8="13000.00000" pt_clust_9="13000.00000"></scales>
<clustering>
<clus scale="   82.721">  7  8 -1 -1</clus>
<clus scale="   26.580">  7  9 -1 -1</clus>
<clus scale="   90.456">  5  6 -1 -1</clus>
<clus scale="   92.082">  2  5  1 -1</clus>
<clus scale="  110.032">  1  5  2 -1</clus>
</clustering>
</event>
<event>
 9    1  0.3303741E-006  0.1843707E+03  0.7546771E-02  0.1186429E+00
          4   -1    0    0  502    0 -0.00000000000E+00  0.00000000000E+00  0.32368152476E+03  0.32368152476E+03  0.00000000000E+00 0. -1.
         21   -1    0    0  501  502  0.00000000000E+00 -0.00000000000E+00 -0.75188021995E+02  0.75188021995E+02  0.00000000000E+00 0. -1.
         23    2    1    2    0    0 -0.52631713025E+02  0.28031197981E+02  0.16054907487E+03  0.19459824425E+03  0.92393863160E+02 0.  0.
         23    2    1    2    0    0  0.76045278170E+02 -0.77709929501E+01  0.11361865466E+03  0.16404895969E+03  0.90330447951E+02 0.  0.
        -11    1    4    4    0    0 -0.30295437457E+01 -0.33815678077E+02  0.43641999168E+02  0.55292877575E+02  0.00000000000E+00 0. -1.
         11    1    4    4    0    0  0.79074821916E+02  0.26044685127E+02  0.69976655488E+02  0.10875608212E+03  0.00000000000E+00 0.  1.
        -11    1    3    3    0    0  0.21154573947E+02  0.82372027515E+01  0.81445945907E+01  0.24118497654E+02  0.00000000000E+00 0.  1.
         11    1    3    3    0    0 -0.73786286971E+02  0.19793995229E+02  0.15240448028E+03  0.17047974660E+03  0.00000000000E+00 0. -1.
          4    1    1    2  501    0 -0.23413565146E+02 -0.20260205031E+02 -0.25674226764E+02  0.40222342804E+02  0.00000000000E+00 0. -1.
<scales pt_clust_5="13000.00000" pt_clust_6="13000.00000" pt_clust_7="13000.00000" pt_clust_8="13000.00000" pt_clust_9="13000.00000"></scales>
<clustering>
<clus scale="   90.330">  5  6 -1 -1</clus>
<clus scale="   30.962">  5  9 -1 -1</clus>
<clus scale="   92.394">  7  8 -1 -1</clus>
<clus scale="  109.966">  1  7  2 -1</clus>
<clus scale="  184.371">  2  5  1 -1</clus>
</clustering>
</event>
<event>
 9    1  0.3303741E-006  0.2803694E+03  0.7546771E-02  0.1133571E+00
         -4   -1    0    0    0  501 -0.00000000000E+00  0.00000000000E+00  0.12059865561E+03  0.12059865561E+03  0.00000000000E+00 0.  1.
         21   -1    0    0  501  502  0.00000000000E+00 -0.00000000000E+00 -0.32233504981E+03  0.32233504981E+03  0.00000000000E+00 0. -1.
         23    2    1    2    0    0  0.42034059077E+02 -0.35062440165E+02 -0.20393739239E+02  0.10902929289E+03  0.92061095343E+02 0.  0.
         23    2    1    2    0    0  0.75784458093E+02  0.48799955956E+02 -0.17287052727E+03  0.21498553567E+03  0.90608176000E+02 0.  0.
        -11    1    4    4    0    0  0.38431730725E+02 -0.18559451765E+02 -0.10096683214E+03  0.10961638732E+03  0.00000000000E+00 0. -1.
         11    1    4    4    0    0  0.37352727368E+02  0.67359407721E+02 -0.71903695125E+02  0.10536914835E+03  0.00000000000E+00 0.  1.
        -13    1    3    3    0    0  0.31865470451E+01 -0.58528137549E+02  0.15125183038E+01  0.58634330205E+02  0.00000000000E+00 0. -1.
         13    1    3    3    0    0  0.38847512032E+02  0.23465697383E+02 -0.21906257543E+02  0.50394962688E+02  0.00000000000E+00 0.  1.
         -4    1    1    2    0  502 -0.11781851717E+03 -0.13737515791E+02 -0.84721276933E+01  0.11891887687E+03  0.00000000000E+00 0.  1.
<scales pt_clust_5="13000.00000" pt_clust_6="13000.00000" pt_clust_7="13000.00000" pt_clust_8="13000.00000" pt_clust_9="13000.00000"></scales>
<clustering>
<clus scale="   90.608">  5  6 -1 -1</clus>
<clus scale="   92.061">  7  8 -1 -1</clus>
<clus scale="  107.105">  1  7  2 -1</clus>
<clus scale="   95.745">  5  9 -1 -1</clus>
<clus scale="  280.369">  2  5  1 -1</clus>
</clustering>
</event>
<event>
 9    1  0.3303741E-006  0.1981899E+03  0.7546771E-02  0.1176808E+00
          1   -1    0    0  502    0 -0.00000000000E+00  0.00000000000E+00  0.69578770416E+03  0.69578770416E+03  0.00000000000E+00 0. -1.
         21   -1    0    0  501  502  0.00000000000E+00 -0.00000000000E+00 -0.39811962912E+02  0.39811962912E+02  0.00000000000E+00 0.  1.
         23    2    1    2    0    0 -0.33917688539E+02  0.49829800321E+02  0.38185083122E+03  0.39733396215E+03  0.91819396522E+02 0.  0.
         23    2    1    2    0    0  0.29282173587E+02  0.12084135631E+02  0.25743540437E+03  0.27397446864E+03  0.88235763828E+02 0.  0.
        -13    1    3    3    0    0  0.29204027313E+02 -0.15656561903E+00  0.93761409273E+02  0.98204386831E+02  0.00000000000E+00 0. -1.
         13    1    3    3    0    0 -0.63121715851E+02  0.49986365940E+02  0.28808942195E+03  0.29912957532E+03  0.00000000000E+00 0.  1.
        -13    1    4    4    0    0  0.32579554561E+02 -0.31631157992E+02  0.17270151724E+03  0.17857147473E+03  0.00000000000E+00 0. -1.
         13    1    4    4    0    0 -0.32973809742E+01  0.43715293623E+02  0.84733887129E+02  0.95402993904E+02  0.00000000000E+00 0.  1.
          1    1    1    2  501    0  0.46355149520E+01 -0.61913935952E+02  0.16689505658E+02  0.64291236285E+02  0.00000000000E+00 0. -1.
<scales pt_clust_5="13000.00000" pt_clust_6="13000.00000" pt_clust_7="13000.00000" pt_clust_8="13000.00000" pt_clust_9="13000.00000"></scales>
<clustering>
<clus scale="   88.236">  7  8 -1 -1</clus>
<clus scale="   62.087">  7  9 -1 -1</clus>
<clus scale="   91.819">  5  6 -1 -1</clus>
<clus scale="  109.837">  1  5  2 -1</clus>
<clus scale="  198.190">  2  5  1 -1</clus>
</clustering>
</event>
<event>
 9    1  0.3303741E-006  0.2207902E+03  0.7546771E-02  0.1151419E+00
         21   -1    0    0  501  502  0.00000000000E+00  0.00000000000E+00  0.15530064626E+03  0.15530064626E+03  0.00000000000E+00 0.  1.
          1   -1    0    0  502    0 -0.00000000000E+00 -0.00000000000E+00 -0.24151507754E+03  0.24151507754E+03  0.00000000000E+00 0. -1.
         23    2    1    2    0    0 -0.77532941241E+01 -0.11005754954E+03 -0.10188582052E+03  0.17547002431E+03  0.90753684369E+02 0.  0.
         23    2    1    2    0    0 -0.12095878308E+02  0.74382429061E+01  0.59349719661E+02  0.10806503791E+03  0.89185343326E+02 0.  0.
        -11    1    3    3    0    0  0.25071450618E+02 -0.33077396024E+02 -0.78141401590E+02  0.88480339094E+02  0.00000000000E+00 0. -1.
         11    1    3    3    0    0 -0.32824744742E+02 -0.76980153518E+02 -0.23744418926E+02  0.86989685211E+02  0.00000000000E+00 0.  1.
        -13    1    4    4    0    0 -0.46801275884E+02  0.15365253615E+02  0.52166943032E+02  0.71748452167E+02  0.00000000000E+00 0. -1.
         13    1    4    4    0    0  0.34705397575E+02 -0.79270107090E+01  0.71827766283E+01  0.36316585739E+02  0.00000000000E+00 0.  1.
          1    1    1    2  501    0  0.19849172432E+02  0.10261930664E+03 -0.43678330432E+02  0.11328066159E+03  0.00000000000E+00 0. -1.
<scales pt_clust_5="13000.00000" pt_clust_6="13000.00000" pt_clust_7="13000.00000" pt_clust_8="13000.00000" pt_clust_9="13000.00000"></scales>
<clustering>
<clus scale="   89.185">  7  8 -1 -1</clus>
<clus scale="   90.754">  5  6 -1 -1</clus>
<clus scale="  104.521">  7  9 -1 -1</clus>
<clus scale="  142.860">  2  5  1 -1</clus>
<clus scale="  220.790">  1  5  2 -1</clus>
</clustering>
</event>
<event>
 9    1  0.3303741E-006  0.1902533E+03  0.7546771E-02  0.1180607E+00
          3   -1    0    0  502    0 -0.00000000000E+00  0.00000000000E+00  0.53234948250E+03  0.53234948250E+03  0.00000000000E+00 0. -1.
         21   -1    0    0  501  502  0.00000000000E+00 -0.00000000000E+00 -0.46129888837E+02  0.46129888837E+02  0.00000000000E+00 0. -1.
         23    2    1    2    0    0  0.36646038720E+01  0.68436643249E+02  0.25308644939E+03  0.27756844695E+03  0.91074082020E+02 0.  0.
         23    2    1    2    0    0 -0.41138397926E+02  0.14133493007E+02  0.13151262331E+03  0.16471678750E+03  0.89128707978E+02 0.  0.
        -11    1    4    4    0    0  0.20386947893E+02 -0.12960753630E+02  0.10619912586E+02  0.26389227393E+02  0.00000000000E+00 0.  1.
         11    1    4    4    0    0 -0.61525345819E+02  0.27094246637E+02  0.12089271073E+03  0.13832756011E+03  0.00000000000E+00 0. -1.
        -13    1    3    3    0    0 -0.13561038969E+02  0.19419970652E+02  0.51405984711E+01  0.24237631705E+02  0.00000000000E+00 0.  1.
         13    1    3    3    0    0  0.17225642841E+02  0.49016672597E+02  0.24794585092E+03  0.25333081525E+03  0.00000000000E+00 0. -1.
          3    1    1    2  501    0  0.37473794054E+02 -0.82570136257E+02  0.10162052096E+03  0.13619413688E+03  0.00000000000E+00 0. -1.
<scales pt_clust_5="13000.00000" pt_clust_6="13000.00000" pt_clust_7="13000.00000" pt_clust_8="13000.00000" pt_clust_9="13000.00000"></scales>
<clustering>
<clus scale="   89.129">  5  6 -1 -1</clus>
<clus scale="   90.676">  5  9 -1 -1</clus>
<clus scale="   91.074">  7  8 -1 -1</clus>
<clus scale="  113.980">  1  7  2 -1</clus>
<clus scale="  190.253">  2  5  1 -1</clus>
</clustering>
</event>
<event>
 9    1  0.3303741E-006  0.2603643E+03  0.7546771E-02  0.1133952E+00
         21   -1    0    0  501  502  0.00000000000E+00  0.00000000000E+00  0.76540289396E+02  0.76540289396E+02  0.00000000000E+00 0. -1.
          1   -1    0    0  502    0 -0.00000000000E+00 -0.00000000000E+00 -0.55000065134E+03  0.55000065134E+03  0.00000000000E+00 0. -1.
         23    2    1    2    0    0 -0.13612453602E+02 -0.95079575035E+02 -0.25208045479E+03  0.28478280013E+03  0.91275752960E+02 0.  0.
         23    2    1    2    0    0  0.14442944856E+01 -0.41262847427E+01  0.92354597095E+01  0.90415119733E+02  0.89835894541E+02 0.  0.
        -11    1    4    4    0    0 -0.30769549003E+02 -0.71945583182E+01 -0.27193296554E+02  0.41689353470E+02  0.00000000000E+00 0.  1.
         11    1    4    4    0    0  0.32213843489E+02  0.30682735755E+01  0.36428756263E+02  0.48725766263E+02  0.00000000000E+00 0. -1.
        -13    1    3    3    0    0  0.18328776199E+02  0.10613004126E+02 -0.29435704403E+02  0.36263488349E+02  0.00000000000E+00 0.  1.
         13    1    3    3    0    0 -0.31941229802E+02 -0.10569257916E+03 -0.22264475039E+03  0.24851931178E+03  0.00000000000E+00 0. -1.
          1    1    1    2  501    0  0.12168159117E+02  0.99205859778E+02 -0.23061536686E+03  0.25134302088E+03  0.00000000000E+00 0. -1.
<scales pt_clust_5="13000.00000" pt_clust_6="13000.00000" pt_clust_7="13000.00000" pt_clust_8="13000.00000" pt_clust_9="13000.00000"></scales>
<clustering>
<clus scale="   89.836">  5  6 -1 -1</clus>
<clus scale="   91.276">  7  8 -1 -1</clus>
<clus scale="   99.949">  5  9 -1 -1</clus>
<clus scale="  132.502">  2  7  1 -1</clus>
<clus scale="  260.364">  1  5  2 -1</clus>
</clustering>
</event>
<event>
 9    1  0.3303741E-006  0.2211740E+03  0.7546771E-02  0.1168559E+00
         -1   -1    0    0    0  501 -0.00000000000E+00  0.00000000000E+00  0.28391767721E+03  0.28391767721E+03  0.00000000000E+00 0.  1.
         21   -1    0    0  501  502  0.00000000000E+00 -0.00000000000E+00 -0.10249038035E+03  0.10249038035E+03  0.00000000000E+00 0. -1.
         23    2    1    2    0    0 -0.11904128287E+02  0.22379414025E+02  0.12668023339E+03  0.15855900608E+03  0.91926766693E+02 0.  0.
         23    2    1    2    0    0 -0.55382258577E+02 -0.69540451797E+02  0.11577049215E+02  0.13503056479E+03  0.10097601873E+03 0.  0.
        -11    1    4    4    0    0 -0.42149741664E+02 -0.89559318913E+02  0.31465566473E+02  0.10386315131E+03  0.00000000000E+00 0.  1.
         11    1    4    4    0    0 -0.13232516914E+02  0.20018867115E+02 -0.19888517257E+02  0.31167413482E+02  0.00000000000E+00 0. -1.
        -11    1    3    3    0    0  0.14391781742E+02  0.31958510351E+02  0.12576506223E+03  0.13055772916E+03  0.00000000000E+00 0.  1.
         11    1    3    3    0    0 -0.26295910029E+02 -0.95790963262E+01  0.91517115637E+00  0.28001276916E+02  0.00000000000E+00 0. -1.
         -1    1    1    2    0  502  0.67286386864E+02  0.47161037772E+02  0.43170014250E+02  0.92818486690E+02  0.00000000000E+00 0.  1.
<scales pt_clust_5="13000.00000" pt_clust_6="13000.00000" pt_clust_7="13000.00000" pt_clust_8="13000.00000" pt_clust_9="13000.00000"></scales>
<clustering>
<clus scale="   91.927">  7  8 -1 -1</clus>
<clus scale="   95.358">  1  7  2 -1</clus>
<clus scale="  100.976">  5  6 -1 -1</clus>
<clus scale="   84.530">  5  9 -1 -1</clus>
<clus scale="  221.174">  2  5  1 -1</clus>
</clustering>
</event>
<event>
 9    1  0.3303741E-006  0.1675818E+03  0.7546771E-02  0.1203688E+00
          1   -1    0    0  502    0 -0.00000000000E+00  0.00000000000E+00  0.15780105005E+03  0.15780105005E+03  0.00000000000E+00 0. -1.
         21   -1    0    0  501  502  0.00000000000E+00 -0.00000000000E+00 -0.11374714508E+03  0.11374714508E+03  0.00000000000E+00 0.  1.
         23    2    1    2    0    0  0.63991645498E+01  0.43315671843E+02  0.14533269586E+02  0.10138612802E+03  0.90281417225E+02 0.  0.
         23    2    1    2    0    0 -0.80076938002E+01  0.41564760611E+01  0.63616199377E+02  0.11169241962E+03  0.91360693546E+02 0.  0.
        -11    1    3    3    0    0  0.24358001026E+02 -0.23513951735E+00 -0.28562526473E+02  0.37539118571E+02  0.00000000000E+00 0. -1.
         11    1    3    3    0    0 -0.17958836476E+02  0.43550811361E+02  0.43095796059E+02  0.63847009450E+02  0.00000000000E+00 0.  1.
        -11    1    4    4    0    0 -0.41835388960E+02 -0.23608839352E+02  0.33844749307E+02  0.58762608185E+02  0.00000000000E+00 0.  1.
         11    1    4    4    0    0  0.33827695160E+02  0.27765315413E+02  0.29771450069E+02  0.52929811440E+02  0.00000000000E+00 0. -1.
          1    1    1    2  501    0  0.16085292504E+01 -0.47472147904E+02 -0.34095563986E+02  0.58469647481E+02  0.00000000000E+00 0. -1.
<scales pt_clust_5="13000.00000" pt_clust_6="13000.00000" pt_clust_7="13000.00000" pt_clust_8="13000.00000" pt_clust_9="13000.00000"></scales>
<clustering>
<clus scale="   90.281">  5  6 -1 -1</clus>
<clus scale="   91.361">  7  8 -1 -1</clus>
<clus scale="   47.499">  7  9 -1 -1</clus>
<clus scale="  100.339">  1  5  2 -1</clus>
<clus scale="  167.582">  2  5  1 -1</clus>
</clustering>
</event>
<event>
 9    1  0.3303741E-006  0.1489015E+03  0.7546771E-02  0.1221586E+00
          1   -1    0    0  502    0 -0.00000000000E+00  0.00000000000E+00  0.72455175179E+03  0.72455175179E+03  0.00000000000E+00 0. -1.
         21   -1    0    0  501  502  0.00000000000E+00 -0.00000000000E+00 -0.21054709095E+02  0.21054709095E+02  0.00000000000E+00 0. -1.
         23    2    1    2    0    0  0.70840667449E+01  0.37973749881E+02  0.29856688145E+03  0.31416691604E+03  0.89813577812E+02 0.  0.
         23    2    1    2    0    0 -0.18864679278E+02 -0.10087677988E+02  0.17027054220E+03  0.19483533387E+03  0.92255690397E+02 0.  0.
        -11    1    4    4    0    0 -0.56160060501E+02 -0.10713458059E+02  0.10959112115E+03  0.12360802730E+03  0.00000000000E+00 0. -1.
         11    1    4    4    0    0  0.37295381223E+02  0.62578007091E+00  0.60679421051E+02  0.71227306564E+02  0.00000000000E+00 0.  1.
        -11    1    3    3    0    0  0.27406565438E+02  0.57206205976E+02  0.25181783325E+03  0.25968421395E+03  0.00000000000E+00 0. -1.
         11    1    3    3    0    0 -0.20322498693E+02 -0.19232456095E+02  0.46749048196E+02  0.54482702097E+02  0.00000000000E+00 0.  1.
          1    1    1    2  501    0  0.11780612533E+02 -0.27886071893E+02  0.23465961905E+03  0.23660421097E+03  0.00000000000E+00 0. -1.
<scales pt_clust_5="13000.00000" pt_clust_6="13000.00000" pt_clust_7="13000.00000" pt_clust_8="13000.00000" pt_clust_9="13000.00000"></scales>
<clustering>
<clus scale="   89.814">  7  8 -1 -1</clus>
<clus scale="   92.256">  5  6 -1 -1</clus>
<clus scale="   30.272">  5  9 -1 -1</clus>
<clus scale="   97.768">  1  7  2 -1</clus>
<clus scale="  148.901">  2  5  1 -1</clus>
</clustering>
</event>
<event>
 9    1  0.3303741E-006  0.7796775E+03  0.7546771E-02  0.9634359E-01
         21   -1    0    0  501  502  0.00000000000E+00  0.00000000000E+00  0.64309975171E+03  0.64309975171E+03  0.00000000000E+00 0.  1.
          1   -1    0    0  502    0 -0.00000000000E+00 -0.00000000000E+00 -0.93832927077E+03  0.93832927077E+03  0.00000000000E+00 0. -1.
         23    2    1    2    0    0  0.44437714478E+03 -0.49284209167E+03  0.14600574753E+03  0.68555763725E+03  0.91143960651E+02 0.  0.
         23    2    1    2    0    0 -0.19599191562E+03  0.18135394233E+03 -0.40931714731E+03  0.49619794906E+03  0.85847505355E+02 0.  0.
        -13    1    3    3    0    0  0.66607049700E+02 -0.36673713780E+02  0.31522736486E+02  0.82311258450E+02  0.00000000000E+00 0. -1.
         13    1    3    3    0    0  0.37777009508E+03 -0.45616837789E+03  0.11448301105E+03  0.60324637880E+03  0.00000000000E+00 0.  1.
        -13    1    4    4    0    0 -0.14506802732E+03  0.17519389140E+03 -0.35381992670E+03  0.42062592961E+03  0.00000000000E+00 0. -1.
         13    1    4    4    0    0 -0.50923888298E+02  0.61600509367E+01 -0.55497220615E+02  0.75572019445E+02  0.00000000000E+00 0.  1.
          1    1    1    2  501    0 -0.24838522916E+03  0.31148814934E+03 -0.31918119272E+02  0.39967343617E+03  0.00000000000E+00 0. -1.
<scales pt_clust_5="13000.00000" pt_clust_6="13000.00000" pt_clust_7="13000.00000" pt_clust_8="13000.00000" pt_clust_9="13000.00000"></scales>
<clustering>
<clus scale="   85.848">  7  8 -1 -1</clus>
<clus scale="   91.144">  5  6 -1 -1</clus>
<clus scale="  398.397">  7  9 -1 -1</clus>
<clus scale="  669.830">  2  5  1 -1</clus>
<clus scale="  779.677">  1  5  2 -1</clus>
</clustering>
</event>
<event>
 9    1  0.3303741E-006  0.4168333E+03  0.7546771E-02  0.1091595E+00
         21   -1    0    0  501  502  0.00000000000E+00  0.00000000000E+00  0.30865620951E+03  0.30865620951E+03  0.00000000000E+00 0. -1.
          4   -1    0    0  502    0 -0.00000000000E+00 -0.00000000000E+00 -0.25560400809E+03  0.25560400809E+03  0.00000000000E+00 0. -1.
         23    2    1    2    0    0 -0.26197626132E+02  0.96325433310E+01 -0.83010886950E+02  0.12578202850E+03  0.90284050830E+02 0.  0.
         23    2    1    2    0    0 -0.10528463937E+03  0.13631638259E+03 -0.76830272661E+01  0.19506163076E+03  0.91230474269E+02 0.  0.
        -11    1    4    4    0    0 -0.96569946202E+02  0.51117863726E+02 -0.47907506795E+01  0.10936974807E+03  0.00000000000E+00 0. -1.
         11    1    4    4    0    0 -0.87146931661E+01  0.85198518866E+02 -0.28922765866E+01  0.85691882683E+02  0.00000000000E+00 0.  1.
        -13    1    3    3    0    0  0.57245572901E+01  0.42670932781E+02 -0.19166802174E+02  0.47126907029E+02  0.00000000000E+00 0.  1.
         13    1    3    3    0    0 -0.31922183422E+02 -0.33038389450E+02 -0.63844084777E+02  0.78655121466E+02  0.00000000000E+00 0. -1.
          4    1    1    2  501    0  0.13148226550E+03 -0.14594892592E+03  0.14374611564E+03  0.24341655835E+03  0.00000000000E+00 0. -1.
<scales pt_clust_5="13000.00000" pt_clust_6="13000.00000" pt_clust_7="13000.00000" pt_clust_8="13000.00000" pt_clust_9="13000.00000"></scales>
<clustering>
<clus scale="   90.284">  7  8 -1 -1</clus>
<clus scale="   91.230">  5  6 -1 -1</clus>
<clus scale="   94.500">  2  7  1 -1</clus>
<clus scale="  188.351">  5  9 -1 -1</clus>
<clus scale="  416.833">  1  5  2 -1</clus>
</clustering>
</event>
<event>
 9    1  0.3331153E-006  0.5191540E+03  0.7546771E-02  0.1021035E+00
         21   -1    0    0  501  502  0.00000000000E+00  0.00000000000E+00  0.35012707080E+03  0.35012707080E+03  0.00000000000E+00 0.  1.
         -1   -1    0    0    0  501 -0.00000000000E+00 -0.00000000000E+00 -0.62295954970E+03  0.62295954970E+03  0.00000000000E+00 0.  1.
         23    2    1    2    0    0  0.24499238580E+03  0.24833758936E+03 -0.27880094032E+03  0.45389827938E+03  0.81245654133E+02 0.  0.
         23    2    1    2    0    0 -0.93675607625E+02  0.32892847499E+02 -0.10373974088E+03  0.18151510317E+03  0.11103485921E+03 0.  0.
        -11    1    4    4    0    0  0.25228429200E+02 -0.56345792727E+00 -0.21157668164E+02  0.32930806957E+02  0.00000000000E+00 0. -1.
         11    1    4    4    0    0 -0.11890403682E+03  0.33456305426E+02 -0.82582072717E+02  0.14858429621E+03  0.00000000000E+00 0.  1.
        -11    1    3    3    0    0  0.21365118728E+03  0.18697423685E+03 -0.19052794544E+03  0.34191679261E+03  0.00000000000E+00 0.  1.
         11    1    3    3    0    0  0.31341198516E+02  0.61363352513E+02 -0.88272994880E+02  0.11198148678E+03  0.00000000000E+00 0. -1.
         -1    1    1    2    0  502 -0.15131677817E+03 -0.28123043686E+03  0.10970820230E+03  0.33767323794E+03  0.00000000000E+00 0.  1.
<scales pt_clust_5="13000.00000" pt_clust_6="13000.00000" pt_clust_7="13000.00000" pt_clust_8="13000.00000" pt_clust_9="13000.00000"></scales>
<clustering>
<clus scale="   81.246">  7  8 -1 -1</clus>
<clus scale="  111.035">  5  6 -1 -1</clus>
<clus scale="  319.355">  5  9 -1 -1</clus>
<clus scale="  358.181">  2  7  1 -1</clus>
<clus scale="  519.154">  1  5  2 -1</clus>
</clustering>
</event>
<event>
 9    1  0.3303741E-006  0.1468870E+03  0.7546771E-02  0.1225027E+00
          2   -1    0    0  502    0 -0.00000000000E+00  0.00000000000E+00  0.32267879879E+03  0.32267879879E+03  0.00000000000E+00 0. -1.
         21   -1    0    0  501  502  0.00000000000E+00 -0.00000000000E+00 -0.12207650729E+03  0.12207650729E+03  0.00000000000E+00 0. -1.
         23    2    1    2    0    0 -0.78961871320E+01  0.26167216415E+02  0.26717198670E+03  0.28348750689E+03  0.90759148832E+02 0.  0.
         23    2    1    2    0    0 -0.27555285644E+02 -0.40788848303E+02 -0.68126474482E+02  0.12288782261E+03  0.89650301212E+02 0.  0.
        -13    1    3    3    0    0 -0.40052734326E+02  0.34430864613E+02  0.21692231523E+03  0.22325993104E+03  0.00000000000E+00 0. -1.
         13    1    3    3    0    0  0.32156547194E+02 -0.82636481981E+01  0.50249671475E+02  0.60227575847E+02  0.00000000000E+00 0.  1.
        -13    1    4    4    0    0 -0.47467890828E+02 -0.44565963660E+02 -0.76935231169E+02  0.10078866787E+03  0.00000000000E+00 0. -1.
         13    1    4    4    0    0  0.19912605185E+02  0.37771153565E+01  0.88087566872E+01  0.22099154736E+02  0.00000000000E+00 0.  1.
          2    1    1    2  501    0  0.35451472776E+02  0.14621631888E+02  0.15567792819E+01  0.38379976586E+02  0.00000000000E+00 0. -1.
<scales pt_clust_5="13000.00000" pt_clust_6="13000.00000" pt_clust_7="13000.00000" pt_clust_8="13000.00000" pt_clust_9="13000.00000"></scales>
<clustering>
<clus scale="   89.650">  7  8 -1 -1</clus>
<clus scale="   38.348">  7  9 -1 -1</clus>
<clus scale="   90.759">  5  6 -1 -1</clus>
<clus scale="   94.786">  1  5  2 -1</clus>
<clus scale="  146.887">  2  5  1 -1</clus>
</clustering>
</event>
<event>
 9    1  0.3303741E-006  0.3478673E+03  0.7546771E-02  0.1111948E+00
          2   -1    0    0  502    0 -0.00000000000E+00  0.00000000000E+00  0.10172932973E+04  0.10172932973E+04  0.00000000000E+00 0. -1.
         21   -1    0    0  501  502  0.00000000000E+00 -0.00000000000E+00 -0.50637648452E+02  0.50637648452E+02  0.00000000000E+00 0. -1.
         23    2    1    2    0    0  0.30335057758E+02  0.12557538947E+02  0.31395496149E+03  0.32831626265E+03  0.90254877796E+02 0.  0.
         23    2    1    2    0    0  0.13552356312E+03 -0.37098655508E+02  0.42541905037E+03  0.45718187510E+03  0.91054665442E+02 0.  0.
        -11    1    3    3    0    0  0.34343886923E+02  0.48227497347E+02  0.17248153285E+03  0.18236028417E+03  0.00000000000E+00 0.  1.
         11    1    3    3    0    0 -0.40088291656E+01 -0.35669958400E+02  0.14147342864E+03  0.14595597848E+03  0.00000000000E+00 0. -1.
        -13    1    4    4    0    0  0.12020077874E+03 -0.88682912824E+01  0.23534445173E+03  0.26441233852E+03  0.00000000000E+00 0. -1.
         13    1    4    4    0    0  0.15322784380E+02 -0.28230364226E+02  0.19007459864E+03  0.19276953658E+03  0.00000000000E+00 0.  1.
          2    1    1    2  501    0 -0.16585862087E+03  0.24541116561E+02  0.22728163696E+03  0.28243280797E+03  0.00000000000E+00 0. -1.
<scales pt_clust_5="13000.00000" pt_clust_6="13000.00000" pt_clust_7="13000.00000" pt_clust_8="13000.00000" pt_clust_9="13000.00000"></scales>
<clustering>
<clus scale="   90.255">  5  6 -1 -1</clus>
<clus scale="   91.055">  7  8 -1 -1</clus>
<clus scale="   96.041">  1  5  2 -1</clus>
<clus scale="  157.473">  7  9 -1 -1</clus>
<clus scale="  347.867">  2  5  1 -1</clus>
</clustering>
</event>
<event>
 9    1  0.3303741E-006  0.3901016E+03  0.7546771E-02  0.1092536E+00
         -2   -1    0    0    0  501 -0.00000000000E+00  0.00000000000E+00  0.44261912264E+03  0.44261912264E+03  0.00000000000E+00 0. -1.
         21   -1    0    0  501  502  0.00000000000E+00 -0.00000000000E+00 -0.14521625078E+03  0.14521625078E+03  0.00000000000E+00 0. -1.
         23    2    1    2    0    0 -0.67911707972E+01  0.66027696109E+02  0.35364053556E+02  0.11789538033E+03  0.90790570905E+02 0.  0.
         23    2    1    2    0    0 -0.19565700526E+01 -0.14701793131E+03  0.32427398468E+03  0.36742581309E+03  0.90719406384E+02 0.  0.
        -11    1    4    4    0    0  0.24099282338E+02 -0.12180675078E+03  0.18004455472E+03  0.21870917134E+03  0.00000000000E+00 0. -1.
         11    1    4    4    0    0 -0.26055852391E+02 -0.25211180530E+02  0.14422942996E+03  0.14871664175E+03  0.00000000000E+00 0.  1.
        -11    1    3    3    0    0 -0.37907841631E+01 -0.19816925846E+02 -0.79616648269E+01  0.21690290487E+02  0.00000000000E+00 0.  1.
         11    1    3    3    0    0 -0.30003866341E+01  0.85844621956E+02  0.43325718383E+02  0.96205089845E+02  0.00000000000E+00 0. -1.
         -2    1    1    2    0  502  0.87477408498E+01  0.80990235202E+02 -0.62235166365E+02  0.10251418000E+03  0.00000000000E+00 0. -1.
<scales pt_clust_5="13000.00000" pt_clust_6="13000.00000" pt_clust_7="13000.00000" pt_clust_8="13000.00000" pt_clust_9="13000.00000"></scales>
<clustering>
<clus scale="   90.719">  5  6 -1 -1</clus>
<clus scale="   81.461">  5  9 -1 -1</clus>
<clus scale="   90.791">  7  8 -1 -1</clus>
<clus scale="  112.467">  1  7  2 -1</clus>
<clus scale="  390.102">  2  5  1 -1</clus>
</clustering>
</event>
<event>
 9    1  0.3303741E-006  0.1746445E+03  0.7546771E-02  0.1187982E+00
         21   -1    0    0  501  502  0.00000000000E+00  0.00000000000E+00  0.29845543502E+03  0.29845543502E+03  0.00000000000E+00 0.  1.
         -2   -1    0    0    0  501 -0.00000000000E+00 -0.00000000000E+00 -0.92003336551E+02  0.92003336551E+02  0.00000000000E+00 0.  1.
         23    2    1    2    0    0  0.44549768615E+02 -0.71079864359E+02  0.67688564015E+01  0.12517760117E+03  0.92663830142E+02 0.  0.
         23    2    1    2    0    0 -0.17024251885E+02  0.60290545451E+02  0.69806784364E+02  0.13208222994E+03  0.92994372413E+02 0.  0.
        -11    1    4    4    0    0 -0.43440180074E+02 -0.26927453085E+01  0.31967929985E+02  0.54002302448E+02  0.00000000000E+00 0.  1.
         11    1    4    4    0    0  0.26415928188E+02  0.62983290760E+02  0.37838854379E+02  0.78079927496E+02  0.00000000000E+00 0. -1.
        -13    1    3    3    0    0  0.54360812960E+02 -0.44774085409E+02 -0.31963380957E+02  0.77339992449E+02  0.00000000000E+00 0.  1.
         13    1    3    3    0    0 -0.98110443454E+01 -0.26305778951E+02  0.38732237358E+02  0.47837608721E+02  0.00000000000E+00 0. -1.
         -2    1    1    2    0  502 -0.27525516730E+02  0.10789318908E+02  0.12987645770E+03  0.13319894046E+03  0.00000000000E+00 0.  1.
<scales pt_clust_5="13000.00000" pt_clust_6="13000.00000" pt_clust_7="13000.00000" pt_clust_8="13000.00000" pt_clust_9="13000.00000"></scales>
<clustering>
<clus scale="   92.664">  7  8 -1 -1</clus>
<clus scale="   92.994">  5  6 -1 -1</clus>
<clus scale="   29.565">  5  9 -1 -1</clus>
<clus scale="  124.994">  2  7  1 -1</clus>
<clus scale="  174.645">  1  5  2 -1</clus>
</clustering>
</event>
<event>
 9    1  0.3303741E-006  0.3153215E+03  0.7546771E-02  0.1122597E+00
         21   -1    0    0  501  502  0.00000000000E+00  0.00000000000E+00  0.42716900142E+03  0.42716900142E+03  0.00000000000E+00 0. -1.
         -3   -1    0    0    0  501 -0.00000000000E+00 -0.00000000000E+00 -0.10497450610E+03  0.10497450610E+03  0.00000000000E+00 0.  1.
         23    2    1    2    0    0 -0.26739010558E+02  0.18118138768E+02  0.32328437983E+02  0.10383287509E+03  0.93235703514E+02 0.  0.
         23    2    1    2    0    0  0.39807072053E+02 -0.10993417131E+03  0.58032929812E+02  0.17861570440E+03  0.12192466490E+03 0.  0.
        -11    1    4    4    0    0 -0.25129071290E+02  0.13976814795E+02  0.61160348942E+01  0.29397745807E+02  0.00000000000E+00 0.  1.
         11    1    4    4    0    0  0.64936143343E+02 -0.12391098611E+03  0.51916894917E+02  0.14921795860E+03  0.00000000000E+00 0. -1.
        -11    1    3    3    0    0 -0.52870945815E+02 -0.15903014827E+02  0.12679450052E+02  0.56648135412E+02  0.00000000000E+00 0.  1.
         11    1    3    3    0    0  0.26131935257E+02  0.34021153595E+02  0.19648987931E+02  0.47184739682E+02  0.00000000000E+00 0. -1.
         -3    1    1    2    0  502 -0.13068061495E+02  0.91816032543E+02  0.23183312752E+03  0.24969492802E+03  0.00000000000E+00 0.  1.
<scales pt_clust_5="13000.00000" pt_clust_6="13000.00000" pt_clust_7="13000.00000" pt_clust_8="13000.00000" pt_clust_9="13000.00000"></scales>
<clustering>
<clus scale="   93.236">  7  8 -1 -1</clus>
<clus scale="   98.672">  2  7  1 -1</clus>
<clus scale="  121.925">  5  6 -1 -1</clus>
<clus scale="   95.592">  5  9 -1 -1</clus>
<clus scale="  315.322">  1  5  2 -1</clus>
</clustering>
</event>
<event>
 9    1  0.3303741E-006  0.2541147E+03  0.7546771E-02  0.1126298E+00
          3   -1    0    0  502    0 -0.00000000000E+00  0.00000000000E+00  0.18918390374E+03  0.18918390374E+03  0.00000000000E+00 0. -1.
         21   -1    0    0  501  502  0.00000000000E+00 -0.00000000000E+00 -0.24098591483E+03  0.24098591483E+03  0.00000000000E+00 0.  1.
         23    2    1    2    0    0  0.10967097842E+03 -0.96205414090E+02 -0.69265316339E+01  0.17212318101E+03  0.91078029144E+02 0.  0.
         23    2    1    2    0    0  0.23177299094E+02  0.38111927598E+02  0.10309727810E+02  0.10290500835E+03  0.92159883019E+02 0.  0.
        -13    1    4    4    0    0  0.28446598051E+02 -0.22005576347E+02  0.20956773007E+02  0.41625000491E+02  0.00000000000E+00 0. -1.
         13    1    4    4    0    0 -0.52692989570E+01  0.60117503945E+02 -0.10647045198E+02  0.61280007861E+02  0.00000000000E+00 0.  1.
        -13    1    3    3    0    0 -0.15270702448E+02 -0.13806739504E+02  0.71578343613E+01  0.21795756508E+02  0.00000000000E+00 0. -1.
         13    1    3    3    0    0  0.12494168087E+03 -0.82398674586E+02 -0.14084365995E+02  0.15032742450E+03  0.00000000000E+00 0.  1.
          3    1    1    2  501    0 -0.13284827752E+03  0.58093486492E+02 -0.55185207270E+02  0.15514162921E+03  0.00000000000E+00 0. -1.
<scales pt_clust_5="13000.00000" pt_clust_6="13000.00000" pt_clust_7="13000.00000" pt_clust_8="13000.00000" pt_clust_9="13000.00000"></scales>
<clustering>
<clus scale="   91.078">  7  8 -1 -1</clus>
<clus scale="   92.160">  5  6 -1 -1</clus>
<clus scale="  144.995">  5  9 -1 -1</clus>
<clus scale="  171.984">  1  7  2 -1</clus>
<clus scale="  254.115">  2  5  1 -1</clus>
</clustering>
</event>
<event>
 9    1  0.3303741E-006  0.3032026E+03  0.7546771E-02  0.1126477E+00
          2   -1    0    0  502    0 -0.00000000000E+00  0.00000000000E+00  0.27062958036E+03  0.27062958036E+03  0.00000000000E+00 0. -1.
         21   -1    0    0  501  502  0.00000000000E+00 -0.00000000000E+00 -0.34991869118E+03  0.34991869118E+03  0.00000000000E+00 0. -1.
         23    2    1    2    0    0 -0.15041305259E+02  0.30984641566E+02  0.18996286227E+03  0.21505051898E+03  0.94734089940E+02 0.  0.
         23    2    1    2    0    0  0.84010829010E+02  0.56793752928E+02 -0.25996485653E+03  0.29347948494E+03  0.90912769645E+02 0.  0.
        -11    1    3    3    0    0  0.20446823148E+02  0.39532820129E+02  0.16482660807E+03  0.17072998323E+03  0.00000000000E+00 0. -1.
         11    1    3    3    0    0 -0.35488128407E+02 -0.85481785625E+01  0.25136254195E+02  0.44320535754E+02  0.00000000000E+00 0.  1.
        -13    1    4    4    0    0  0.59035733583E+02  0.73453420640E+02 -0.13292636522E+03  0.16294183445E+03  0.00000000000E+00 0. -1.
         13    1    4    4    0    0  0.24975095427E+02 -0.16659667712E+02 -0.12703849131E+03  0.13053765048E+03  0.00000000000E+00 0.  1.
          2    1    1    2  501    0 -0.68969523752E+02 -0.87778394495E+02 -0.92871165519E+01  0.11201826762E+03  0.00000000000E+00 0. -1.
<scales pt_clust_5="13000.00000" pt_clust_6="13000.00000" pt_clust_7="13000.00000" pt_clust_8="13000.00000" pt_clust_9="13000.00000"></scales>
<clustering>
<clus scale="   90.913">  7  8 -1 -1</clus>
<clus scale="   94.734">  5  6 -1 -1</clus>
<clus scale="  100.801">  1  5  2 -1</clus>
<clus scale="  102.952">  7  9 -1 -1</clus>
<clus scale="  303.203">  2  5  1 -1</clus>
</clustering>
</event>
<event>
 9    1  0.3303741E-006  0.2559295E+03  0.7546771E-02  0.1134404E+00
          2   -1    0    0  502    0 -0.00000000000E+00  0.00000000000E+00  0.88239131273E+02  0.88239131273E+02  0.00000000000E+00 0. -1.
         21   -1    0    0  501  502  0.00000000000E+00 -0.00000000000E+00 -0.44059617815E+03  0.44059617815E+03  0.00000000000E+00 0.  1.
         23    2    1    2    0    0 -0.84977216815E+02 -0.58083837708E+02 -0.11163882013E+03  0.17748766987E+03  0.91890082236E+02 0.  0.
         23    2    1    2    0    0  0.39479108435E+02  0.37912409171E+02 -0.93535956588E+00  0.10645421827E+03  0.91299917410E+02 0.  0.
        -13    1    4    4    0    0 -0.74034754948E+01  0.23186369166E+02  0.37059655013E+02  0.44337762621E+02  0.00000000000E+00 0. -1.
         13    1    4    4    0    0  0.46882583929E+02  0.14726040005E+02 -0.37995014579E+02  0.62116455654E+02  0.00000000000E+00 0.  1.
        -13    1    3    3    0    0 -0.64087636018E+02 -0.51565360976E+02 -0.12660219506E+03  0.15097790348E+03  0.00000000000E+00 0.  1.
         13    1    3    3    0    0 -0.20889580797E+02 -0.65184767323E+01  0.14963374930E+02  0.26509766391E+02  0.00000000000E+00 0. -1.
          2    1    1    2  501    0  0.45498108380E+02  0.20171428537E+02 -0.23978286717E+03  0.24489342128E+03  0.00000000000E+00 0. -1.
<scales pt_clust_5="13000.00000" pt_clust_6="13000.00000" pt_clust_7="13000.00000" pt_clust_8="13000.00000" pt_clust_9="13000.00000"></scales>
<clustering>
<clus scale="   91.300">  5  6 -1 -1</clus>
<clus scale="   49.769">  5  9 -1 -1</clus>
<clus scale="   91.890">  7  8 -1 -1</clus>
<clus scale="  137.981">  1  7  2 -1</clus>
<clus scale="  255.929">  2  5  1 -1</clus>
</clustering>
</event>
<event>
 9    1  0.3303741E-006  0.2279135E+03  0.7546771E-02  0.1154507E+00
          2   -1    0    0  502    0 -0.00000000000E+00  0.00000000000E+00  0.32141033787E+03  0.32141033787E+03  0.00000000000E+00 0. -1.
         21   -1    0    0  501  502  0.00000000000E+00 -0.00000000000E+00 -0.14621928533E+03  0.14621928533E+03  0.00000000000E+00 0. -1.
         23    2    1    2    0    0  0.52711468121E+02 -0.59466192979E+02  0.20484797121E+03  0.23779471852E+03  0.90933546432E+02 0.  0.
         23    2    1    2    0    0 -0.20022050342E+02  0.12031300558E+03  0.30240227409E+01  0.15342170837E+03  0.93021363542E+02 0.  0.
        -11    1    4    4    0    0 -0.47063234211E+02  0.42151704631E+02 -0.22179418289E+02  0.66959994126E+02  0.00000000000E+00 0.  1.
         11    1    4    4    0    0  0.27041183869E+02  0.78161300949E+02  0.25203441030E+02  0.86461714249E+02  0.00000000000E+00 0. -1.
        -11    1    3    3    0    0  0.39297387844E+02  0.11838747836E+02  0.11622889919E+03  0.12326231236E+03  0.00000000000E+00 0.  1.
         11    1    3    3    0    0  0.13414080276E+02 -0.71304940815E+02  0.88619072024E+02  0.11453240616E+03  0.00000000000E+00 0. -1.
          2    1    1    2  501    0 -0.32689417779E+02 -0.60846812602E+02 -0.32680941416E+02  0.76413196310E+02  0.00000000000E+00 0. -1.
<scales pt_clust_5="13000.00000" pt_clust_6="13000.00000" pt_clust_7="13000.00000" pt_clust_8="13000.00000" pt_clust_9="13000.00000"></scales>
<clustering>
<clus scale="   90.934">  7  8 -1 -1</clus>
<clus scale="   93.021">  5  6 -1 -1</clus>
<clus scale="   69.072">  5  9 -1 -1</clus>
<clus scale="  120.763">  1  7  2 -1</clus>
<clus scale="  227.913">  2  5  1 -1</clus>
</clustering>
</event>
<event>
 9    1  0.3303741E-006  0.2625096E+03  0.7546771E-02  0.1111624E+00
         21   -1    0    0  501  502  0.00000000000E+00  0.00000000000E+00  0.38027149156E+03  0.38027149156E+03  0.00000000000E+00 0.  1.
          1   -1    0    0  502    0 -0.00000000000E+00 -0.00000000000E+00 -0.21775113553E+03  0.21775113553E+03  0.00000000000E+00 0. -1.
         23    2    1    2    0    0  0.82581866582E+02 -0.18632980922E+03  0.23511359348E+03  0.32566060706E+03  0.96113821366E+02 0.  0.
         23    2    1    2    0    0 -0.22692217104E+02  0.17960196604E+03 -0.55530831979E+02  0.20972688877E+03  0.90165911793E+02 0.  0.
        -11    1    3    3    0    0 -0.18483388061E+02 -0.20627553278E+02  0.12708768303E+02  0.30473666997E+02  0.00000000000E+00 0. -1.
         11    1    3    3    0    0  0.10106525464E+03 -0.16570225594E+03  0.22240482518E+03  0.29518694006E+03  0.00000000000E+00 0.  1.
        -11    1    4    4    0    0  0.23747129082E+02  0.13587494048E+03 -0.44917819042E+02  0.14506390336E+03  0.00000000000E+00 0.  1.
         11    1    4    4    0    0 -0.46439346185E+02  0.43727025559E+02 -0.10613012937E+02  0.64662985408E+02  0.00000000000E+00 0. -1.
          1    1    1    2  501    0 -0.59889649478E+02  0.67278431772E+01 -0.17062405481E+02  0.62635131270E+02  0.00000000000E+00 0. -1.
<scales pt_clust_5="13000.00000" pt_clust_6="13000.00000" pt_clust_7="13000.00000" pt_clust_8="13000.00000" pt_clust_9="13000.00000"></scales>
<clustering>
<clus scale="   90.166">  7  8 -1 -1</clus>
<clus scale="   60.266">  7  9 -1 -1</clus>
<clus scale="   96.114">  5  6 -1 -1</clus>
<clus scale="  225.336">  2  5  1 -1</clus>
<clus scale="  262.510">  1  5  2 -1</clus>
</clustering>
</event>
<event>
 9    1  0.3303741E-006  0.3854784E+03  0.7546771E-02  0.1096925E+00
          1   -1    0    0  502    0 -0.00000000000E+00  0.00000000000E+00  0.12013115261E+03  0.12013115261E+03  0.00000000000E+00 0. -1.
         21   -1    0    0  501  502  0.00000000000E+00 -0.00000000000E+00 -0.10899986816E+04  0.10899986816E+04  0.00000000000E+00 0.  1.
         23    2    1    2    0    0 -0.31281018296E+02  0.23472440828E+02  0.53288035523E+02  0.11676764159E+03  0.96258037636E+02 0.  0.
         23    2    1    2    0    0 -0.23848111468E+02 -0.17436001905E+03 -0.75990668344E+03  0.78496917128E+03  0.88024335656E+02 0.  0.
        -11    1    3    3    0    0  0.21230645977E+02  0.93270357637E+00 -0.16257050608E+02  0.26756344276E+02  0.00000000000E+00 0.  1.
         11    1    3    3    0    0 -0.52511664273E+02  0.22539737252E+02  0.69545086131E+02  0.90011297319E+02  0.00000000000E+00 0. -1.
        -11    1    4    4    0    0  0.31652691915E+02 -0.74098733750E+02 -0.26565551914E+03  0.27760650226E+03  0.00000000000E+00 0. -1.
         11    1    4    4    0    0 -0.55500803383E+02 -0.10026128530E+03 -0.49425116430E+03  0.50736266902E+03  0.00000000000E+00 0.  1.
          1    1    1    2  501    0  0.55129129764E+02  0.15088757823E+03 -0.26324888104E+03  0.30839302129E+03  0.00000000000E+00 0. -1.
<scales pt_clust_5="13000.00000" pt_clust_6="13000.00000" pt_clust_7="13000.00000" pt_clust_8="13000.00000" pt_clust_9="13000.00000"></scales>
<clustering>
<clus scale="   88.024">  7  8 -1 -1</clus>
<clus scale="   96.258">  5  6 -1 -1</clus>
<clus scale="  103.899">  1  5  2 -1</clus>
<clus scale="  169.634">  7  9 -1 -1</clus>
<clus scale="  385.478">  2  5  1 -1</clus>
</clustering>
</event>
<event>
 9    1  0.3303741E-006  0.3430557E+03  0.7546771E-02  0.1088430E+00
          1   -1    0    0  502    0 -0.00000000000E+00  0.00000000000E+00  0.72135927760E+03  0.72135927760E+03  0.00000000000E+00 0. -1.
         21   -1    0    0  501  502  0.00000000000E+00 -0.00000000000E+00 -0.10134733195E+03  0.10134733195E+03  0.00000000000E+00 0. -1.
         23    2    1    2    0    0  0.11331512211E+03 -0.10657999365E+03  0.30825184486E+03  0.35915337008E+03  0.98855103209E+02 0.  0.
         23    2    1    2    0    0 -0.10167415905E+02 -0.84423627158E+02  0.13350885189E+03  0.18267009618E+03  0.91175793587E+02 0.  0.
        -11    1    4    4    0    0 -0.42076885676E+02 -0.56680286735E+02  0.42703848992E+02  0.82502957106E+02  0.00000000000E+00 0. -1.
         11    1    4    4    0    0  0.31909469770E+02 -0.27743340423E+02  0.90805002893E+02  0.10016713907E+03  0.00000000000E+00 0.  1.
        -13    1    3    3    0    0  0.86039707754E+02 -0.13236156707E+02  0.14325960909E+03  0.16763455119E+03  0.00000000000E+00 0.  1.
         13    1    3    3    0    0  0.27275414355E+02 -0.93343836945E+02  0.16499223577E+03  0.19151881889E+03  0.00000000000E+00 0. -1.
          1    1    1    2  501    0 -0.10314770620E+03  0.19100362081E+03  0.17825124890E+03  0.28088314330E+03  0.00000000000E+00 0. -1.
<scales pt_clust_5="13000.00000" pt_clust_6="13000.00000" pt_clust_7="13000.00000" pt_clust_8="13000.00000" pt_clust_9="13000.00000"></scales>
<clustering>
<clus scale="   91.176">  5  6 -1 -1</clus>
<clus scale="   98.855">  7  8 -1 -1</clus>
<clus scale="  184.315">  1  7  2 -1</clus>
<clus scale="  132.870">  5  9 -1 -1</clus>
<clus scale="  343.056">  2  5  1 -1</clus>
</clustering>
</event>
<event>
 9    1  0.3303741E-006  0.2956879E+03  0.7546771E-02  0.1118267E+00
          1   -1    0    0  502    0 -0.00000000000E+00  0.00000000000E+00  0.34135005516E+03  0.34135005516E+03  0.00000000000E+00 0. -1.
         21   -1    0    0  501  502  0.00000000000E+00 -0.00000000000E+00 -0.18861244025E+03  0.18861244025E+03  0.00000000000E+00 0. -1.
         23    2    1    2    0    0  0.93830917152E+02 -0.13251908355E+02  0.18980825914E+03  0.23195984341E+03  0.93799464973E+02 0.  0.
         23    2    1    2    0    0 -0.30858394957E+02 -0.86796516115E+01  0.10489990529E+03  0.14115186685E+03  0.88838519212E+02 0.  0.
        -11    1    4    4    0    0  0.24987020295E+02 -0.21557026050E+02  0.59494648511E+02  0.68034327782E+02  0.00000000000E+00 0.  1.
         11    1    4    4    0    0 -0.55845415252E+02  0.12877374438E+02  0.45405256774E+02  0.73117539071E+02  0.00000000000E+00 0. -1.
        -13    1    3    3    0    0 -0.12631235158E+02 -0.20417935610E+02  0.55158842677E+02  0.60157610671E+02  0.00000000000E+00 0.  1.
         13    1    3    3    0    0  0.10646215231E+03  0.71660272543E+01  0.13464941646E+03  0.17180223274E+03  0.00000000000E+00 0. -1.
          1    1    1    2  501    0 -0.62972522194E+02  0.21931559967E+02 -0.14197054951E+03  0.15685078515E+03  0.00000000000E+00 0. -1.
<scales pt_clust_5="13000.00000" pt_clust_6="13000.00000" pt_clust_7="13000.00000" pt_clust_8="13000.00000" pt_clust_9="13000.00000"></scales>
<clustering>
<clus scale="   88.839">  5  6 -1 -1</clus>
<clus scale="   66.682">  5  9 -1 -1</clus>
<clus scale="   93.799">  7  8 -1 -1</clus>
<clus scale="  133.335">  1  7  2 -1</clus>
<clus scale="  295.688">  2  5  1 -1</clus>
</clustering>
</event>
<event>
 9    1  0.3303741E-006  0.1382272E+03  0.7546771E-02  0.1233634E+00
         21   -1    0    0  501  502  0.00000000000E+00  0.00000000000E+00  0.68035128543E+03  0.68035128543E+03  0.00000000000E+00 0. -1.
         -2   -1    0    0    0  501 -0.00000000000E+00 -0.00000000000E+00 -0.23300383824E+02  0.23300383824E+02  0.00000000000E+00 0.  1.
         23    2    1    2    0    0 -0.26030838529E+02  0.91594209678E+00  0.14645866923E+03  0.17467984641E+03  0.91566715813E+02 0.  0.
         23    2    1    2    0    0  0.10456419992E+02  0.26954166918E+02  0.38729934787E+03  0.40161232827E+03  0.10225367241E+03 0.  0.
        -11    1    4    4    0    0 -0.38087799782E+02 -0.15434292232E+02  0.12862221483E+03  0.13502804160E+03  0.00000000000E+00 0.  1.
         11    1    4    4    0    0  0.48544219774E+02  0.42388459150E+02  0.25867713304E+03  0.26658428667E+03  0.00000000000E+00 0. -1.
        -13    1    3    3    0    0 -0.45438696231E+02  0.18501135092E+02  0.35204906024E+02  0.60385035588E+02  0.00000000000E+00 0.  1.
         13    1    3    3    0    0  0.19407857702E+02 -0.17585192995E+02  0.11125376321E+03  0.11429481082E+03  0.00000000000E+00 0. -1.
         -2    1    1    2    0  502  0.15574418537E+02 -0.27870109015E+02  0.12329288450E+03  0.12735949458E+03  0.00000000000E+00 0.  1.
<scales pt_clust_5="13000.00000" pt_clust_6="13000.00000" pt_clust_7="13000.00000" pt_clust_8="13000.00000" pt_clust_9="13000.00000"></scales>
<clustering>
<clus scale="   91.567">  7  8 -1 -1</clus>
<clus scale="   95.199">  2  7  1 -1</clus>
<clus scale="  102.254">  5  6 -1 -1</clus>
<clus scale="   29.357">  5  9 -1 -1</clus>
<clus scale="  138.227">  1  5  2 -1</clus>
</clustering>
</event>
<event>
 9    1  0.3303741E-006  0.1440553E+03  0.7546771E-02  0.1228541E+00
          2   -1    0    0  502    0 -0.00000000000E+00  0.00000000000E+00  0.82956234774E+02  0.82956234774E+02  0.00000000000E+00 0. -1.
         21   -1    0    0  501  502  0.00000000000E+00 -0.00000000000E+00 -0.19948779323E+03  0.19948779323E+03  0.00000000000E+00 0.  1.
         23    2    1    2    0    0 -0.20376705696E+02 -0.69981876053E+01 -0.10096319704E+03  0.13754993854E+03  0.90896829819E+02 0.  0.
         23    2    1    2    0    0  0.42971301290E+02 -0.23358182979E+02 -0.23178427013E+02  0.10629437337E+03  0.91482877544E+02 0.  0.
        -11    1    3    3    0    0 -0.44838460785E+02  0.20980679871E+02 -0.82105636037E+02  0.95874980899E+02  0.00000000000E+00 0.  1.
         11    1    3    3    0    0  0.24461755088E+02 -0.27978867476E+02 -0.18857560998E+02  0.41674957637E+02  0.00000000000E+00 0. -1.
        -11    1    4    4    0    0  0.51993413570E+02 -0.41567394891E+02  0.10072953144E+02  0.67324793039E+02  0.00000000000E+00 0. -1.
         11    1    4    4    0    0 -0.90221122800E+01  0.18209211913E+02 -0.33251380157E+02  0.38969580327E+02  0.00000000000E+00 0.  1.
          2    1    1    2  501    0 -0.22594595594E+02  0.30356370584E+02  0.76100655897E+01  0.38599716105E+02  0.00000000000E+00 0. -1.
<scales pt_clust_5="13000.00000" pt_clust_6="13000.00000" pt_clust_7="13000.00000" pt_clust_8="13000.00000" pt_clust_9="13000.00000"></scales>
<clustering>
<clus scale="   90.897">  5  6 -1 -1</clus>
<clus scale="   91.483">  7  8 -1 -1</clus>
<clus scale="   37.842">  7  9 -1 -1</clus>
<clus scale="   93.415">  1  5  2 -1</clus>
<clus scale="  144.055">  2  5  1 -1</clus>
</clustering>
</event>
<event>
 9    1  0.3303741E-006  0.2770282E+03  0.7546771E-02  0.1131631E+00
         21   -1    0    0  501  502  0.00000000000E+00  0.00000000000E+00  0.26574728941E+03  0.26574728941E+03  0.00000000000E+00 0. -1.
          1   -1    0    0  502    0 -0.00000000000E+00 -0.00000000000E+00 -0.14617300605E+03  0.14617300605E+03  0.00000000000E+00 0. -1.
         23    2    1    2    0    0  0.60497095884E+02  0.31192118478E+02  0.23968786816E+02  0.11885882156E+03  0.94446121449E+02 0.  0.
         23    2    1    2    0    0 -0.14061597585E+03 -0.74524771543E+02  0.82005631236E+02  0.20096527373E+03  0.91297992595E+02 0.  0.
        -11    1    3    3    0    0  0.62817104027E+02  0.60317976423E+02  0.15681620901E+02  0.88488191711E+02  0.00000000000E+00 0.  1.
         11    1    3    3    0    0 -0.23200081428E+01 -0.29125857945E+02  0.82871659150E+01  0.30370629854E+02  0.00000000000E+00 0. -1.
        -13    1    4    4    0    0 -0.21513726276E+02  0.20324798796E+02  0.23742485891E+02  0.37942634341E+02  0.00000000000E+00 0.  1.
         13    1    4    4    0    0 -0.11910224957E+03 -0.94849570339E+02  0.58263145345E+02  0.16302263938E+03  0.00000000000E+00 0. -1.
          1    1    1    2  501    0  0.80118879964E+02  0.43332653065E+02  0.13599865307E+02  0.92096200164E+02  0.00000000000E+00 0. -1.
<scales pt_clust_5="13000.00000" pt_clust_6="13000.00000" pt_clust_7="13000.00000" pt_clust_8="13000.00000" pt_clust_9="13000.00000"></scales>
<clustering>
<clus scale="   91.298">  7  8 -1 -1</clus>
<clus scale="   91.087">  7  9 -1 -1</clus>
<clus scale="   94.446">  5  6 -1 -1</clus>
<clus scale="  116.417">  2  5  1 -1</clus>
<clus scale="  277.028">  1  5  2 -1</clus>
</clustering>
</event>
<event>
 9    1  0.3303741E-006  0.4255100E+03  0.7546771E-02  0.1082149E+00
         21   -1    0    0  501  502  0.00000000000E+00  0.00000000000E+00  0.15522419735E+03  0.15522419735E+03  0.00000000000E+00 0.  1.
         -4   -1    0    0    0  501 -0.00000000000E+00 -0.00000000000E+00 -0.55247400439E+03  0.55247400439E+03  0.00000000000E+00 0.  1.
         23    2    1    2    0    0 -0.20505447507E+02  0.26364432780E+02 -0.21774437159E+03  0.24587464609E+03  0.10920702148E+03 0.  0.
         23    2    1    2    0    0 -0.56275977222E+02  0.87837577367E+02  0.85364568389E+02  0.16333803633E+03  0.92248463224E+02 0.  0.
        -13    1    3    3    0    0  0.83361824227E+01 -0.36408693629E+02 -0.37868680197E+02  0.53189490024E+02  0.00000000000E+00 0.  1.
         13    1    3    3    0    0 -0.28841629930E+02  0.62773126409E+02 -0.17987569139E+03  0.19268515607E+03  0.00000000000E+00 0. -1.
        -13    1    4    4    0    0 -0.75169925545E+02  0.46444634586E+02  0.33892792529E+02  0.94637958419E+02  0.00000000000E+00 0.  1.
         13    1    4    4    0    0  0.18893948324E+02  0.41392942781E+02  0.51471775860E+02  0.68700077915E+02  0.00000000000E+00 0. -1.
         -4    1    1    2    0  502  0.76781424729E+02 -0.11420201015E+03 -0.26487000384E+03  0.29848551931E+03  0.00000000000E+00 0.  1.
<scales pt_clust_5="13000.00000" pt_clust_6="13000.00000" pt_clust_7="13000.00000" pt_clust_8="13000.00000" pt_clust_9="13000.00000"></scales>
<clustering>
<clus scale="   92.248">  7  8 -1 -1</clus>
<clus scale="  109.207">  5  6 -1 -1</clus>
<clus scale="  114.200">  2  5  1 -1</clus>
<clus scale="  108.363">  7  9 -1 -1</clus>
<clus scale="  425.510">  1  5  2 -1</clus>
</clustering>
</event>
<event>
 9    1  0.3303741E-006  0.1554004E+03  0.7546771E-02  0.1215533E+00
         -4   -1    0    0    0  501 -0.00000000000E+00  0.00000000000E+00  0.38859536041E+02  0.38859536041E+02  0.00000000000E+00 0.  1.
         21   -1    0    0  501  502  0.00000000000E+00 -0.00000000000E+00 -0.41431884606E+03  0.41431884606E+03  0.00000000000E+00 0.  1.
         23    2    1    2    0    0 -0.45242267762E+01 -0.33007731289E+02 -0.16129517278E+03  0.18857383360E+03  0.91836697476E+02 0.  0.
         23    2    1    2    0    0 -0.44999294676E+02  0.28297995544E+02 -0.15572685188E+03  0.18786031674E+03  0.90636268334E+02 0.  0.
        -11    1    4    4    0    0 -0.17463361227E+01  0.48512089426E+02 -0.40804105003E+02  0.63414883864E+02  0.00000000000E+00 0. -1.
         11    1    4    4    0    0 -0.43252958554E+02 -0.20214093882E+02 -0.11492274687E+03  0.12444543288E+03  0.00000000000E+00 0.  1.
        -13    1    3    3    0    0 -0.43544701242E+02  0.83202226503E+00 -0.53052282538E+02  0.68639478070E+02  0.00000000000E+00 0.  1.
         13    1    3    3    0    0  0.39020474465E+02 -0.33839753554E+02 -0.10824289025E+03  0.11993435553E+03  0.00000000000E+00 0. -1.
         -4    1    1    2    0  502  0.49523521453E+02  0.47097357449E+01 -0.58437285355E+02  0.76744231754E+02  0.00000000000E+00 0.  1.
<scales pt_clust_5="13000.00000" pt_clust_6="13000.00000" pt_clust_7="13000.00000" pt_clust_8="13000.00000" pt_clust_9="13000.00000"></scales>
<clustering>
<clus scale="   90.636">  5  6 -1 -1</clus>
<clus scale="   49.747">  5  9 -1 -1</clus>
<clus scale="   91.837">  7  8 -1 -1</clus>
<clus scale="   97.693">  1  7  2 -1</clus>
<clus scale="  155.400">  2  5  1 -1</clus>
</clustering>
</event>
<event>
 9    1  0.3303741E-006  0.4978575E+03  0.7546771E-02  0.1064210E+00
          4   -1    0    0  502    0 -0.00000000000E+00  0.00000000000E+00  0.57627004399E+03  0.57627004399E+03  0.00000000000E+00 0. -1.
         21   -1    0    0  501  502  0.00000000000E+00 -0.00000000000E+00 -0.21333773988E+03  0.21333773988E+03  0.00000000000E+00 0. -1.
         23    2    1    2    0    0 -0.74227197210E+02  0.68942096739E+00  0.25486030489E+03  0.28015548443E+03  0.89572140407E+02 0.  0.
         23    2    1    2    0    0  0.61518422997E+02  0.10722765179E+03  0.27223173945E+03  0.31258679244E+03  0.91203602831E+02 0.  0.
        -11    1    3    3    0    0  0.10201522827E+02 -0.24878002654E+02  0.43704370990E+02  0.51313332845E+02  0.00000000000E+00 0.  1.
         11    1    3    3    0    0 -0.84428720037E+02  0.25567423622E+02  0.21115593390E+03  0.22884215158E+03  0.00000000000E+00 0. -1.
        -13    1    4    4    0    0  0.25306940969E+02  0.10459466637E+03  0.14688058532E+03  0.18208347492E+03  0.00000000000E+00 0. -1.
         13    1    4    4    0    0  0.36211482028E+02  0.26329854163E+01  0.12535115413E+03  0.13050331753E+03  0.00000000000E+00 0.  1.
          4    1    1    2  501    0  0.12708774213E+02 -0.10791707275E+03 -0.16415974023E+03  0.19686550700E+03  0.00000000000E+00 0. -1.
<scales pt_clust_5="13000.00000" pt_clust_6="13000.00000" pt_clust_7="13000.00000" pt_clust_8="13000.00000" pt_clust_9="13000.00000"></scales>
<clustering>
<clus scale="   89.572">  5  6 -1 -1</clus>
<clus scale="   91.204">  7  8 -1 -1</clus>
<clus scale="  108.663">  7  9 -1 -1</clus>
<clus scale="  116.333">  1  5  2 -1</clus>
<clus scale="  497.857">  2  5  1 -1</clus>
</clustering>
</event>
<event>
 9    1  0.3303741E-006  0.2407435E+03  0.7546771E-02  0.1161433E+00
         21   -1    0    0  501  502  0.00000000000E+00  0.00000000000E+00  0.12177727544E+03  0.12177727544E+03  0.00000000000E+00 0. -1.
          2   -1    0    0  502    0 -0.00000000000E+00 -0.00000000000E+00 -0.22166572865E+03  0.22166572865E+03  0.00000000000E+00 0. -1.
         23    2    1    2    0    0  0.15233998699E+02 -0.23746754427E+02 -0.36523612842E+02  0.94500200575E+02  0.82464116751E+02 0.  0.
         23    2    1    2    0    0  0.19763185608E+02  0.94294477586E+02  0.19582933775E+02  0.13456571933E+03  0.91882585477E+02 0.  0.
        -11    1    4    4    0    0 -0.31514695678E+02  0.11644246791E+02 -0.56790381733E+01  0.34073684884E+02  0.00000000000E+00 0.  1.
         11    1    4    4    0    0  0.51277881286E+02  0.82650230795E+02  0.25261971948E+02  0.10049203444E+03  0.00000000000E+00 0. -1.
        -13    1    3    3    0    0 -0.11015524734E+02 -0.32218245256E+02 -0.52537197175E+02  0.62606023669E+02  0.00000000000E+00 0.  1.
         13    1    3    3    0    0  0.26249523433E+02  0.84714908288E+01  0.16013584333E+02  0.31894176907E+02  0.00000000000E+00 0. -1.
          2    1    1    2  501    0 -0.34997184307E+02 -0.70547723159E+02 -0.82947774137E+02  0.11437708418E+03  0.00000000000E+00 0. -1.
<scales pt_clust_5="13000.00000" pt_clust_6="13000.00000" pt_clust_7="13000.00000" pt_clust_8="13000.00000" pt_clust_9="13000.00000"></scales>
<clustering>
<clus scale="   82.464">  7  8 -1 -1</clus>
<clus scale="   87.157">  2  7  1 -1</clus>
<clus scale="   91.883">  5  6 -1 -1</clus>
<clus scale="   89.235">  5  9 -1 -1</clus>
<clus scale="  240.743">  1  5  2 -1</clus>
</clustering>
</event>
<event>
 9    1  0.3303741E-006  0.2084279E+03  0.7546771E-02  0.1170574E+00
         21   -1    0    0  501  502  0.00000000000E+00  0.00000000000E+00  0.14530275909E+03  0.14530275909E+03  0.00000000000E+00 0.  1.
         -1   -1    0    0    0  501 -0.00000000000E+00 -0.00000000000E+00 -0.37755949955E+03  0.37755949955E+03  0.00000000000E+00 0.  1.
         23    2    1    2    0    0  0.58476579440E+02 -0.15347298759E+02 -0.28736301429E+03  0.30727265897E+03  0.90465104015E+02 0.  0.
         23    2    1    2    0    0 -0.28382263879E+02  0.10570535930E+02 -0.48559552017E+02  0.10753827509E+03  0.91044831734E+02 0.  0.
        -11    1    4    4    0    0  0.19905238278E+02 -0.18058220415E+02 -0.43554549709E+02  0.51179259821E+02  0.00000000000E+00 0.  1.
         11    1    4    4    0    0 -0.48287502157E+02  0.28628756345E+02 -0.50050023078E+01  0.56359015273E+02  0.00000000000E+00 0. -1.
        -13    1    3    3    0    0  0.15090903803E+02 -0.50616211931E+02 -0.14535940285E+03  0.15465798487E+03  0.00000000000E+00 0. -1.
         13    1    3    3    0    0  0.43385675638E+02  0.35268913173E+02 -0.14200361144E+03  0.15261467410E+03  0.00000000000E+00 0.  1.
         -1    1    1    2    0  502 -0.30094315561E+02  0.47767628290E+01  0.10366582585E+03  0.10805132457E+03  0.00000000000E+00 0.  1.
<scales pt_clust_5="13000.00000" pt_clust_6="13000.00000" pt_clust_7="13000.00000" pt_clust_8="13000.00000" pt_clust_9="13000.00000"></scales>
<clustering>
<clus scale="   90.465">  7  8 -1 -1</clus>
<clus scale="   91.045">  5  6 -1 -1</clus>
<clus scale="   30.471">  5  9 -1 -1</clus>
<clus scale="  108.807">  2  7  1 -1</clus>
<clus scale="  208.428">  1  5  2 -1</clus>
</clustering>
</event>
<event>
 9    1  0.3303741E-006  0.4733761E+03  0.7546771E-02  0.1062495E+00
         21   -1    0    0  501  502  0.00000000000E+00  0.00000000000E+00  0.14262144335E+03  0.14262144335E+03  0.00000000000E+00 0. -1.
          1   -1    0    0  502    0 -0.00000000000E+00 -0.00000000000E+00 -0.68516780411E+03  0.68516780411E+03  0.00000000000E+00 0. -1.
         23    2    1    2    0    0  0.69598198631E+02  0.73069067275E+02 -0.67569853524E+02  0.15720172799E+03  0.99818336651E+02 0.  0.
         23    2    1    2    0    0 -0.76021931824E+02 -0.20289815409E+03 -0.48625308556E+03  0.54011140153E+03  0.91275778764E+02 0.  0.
        -11    1    4    4    0    0 -0.75167638641E+02 -0.73655210207E+02 -0.23799705051E+03  0.26022655503E+03  0.00000000000E+00 0.  1.
         11    1    4    4    0    0 -0.85429318371E+00 -0.12924294389E+03 -0.24825603505E+03  0.27988484650E+03  0.00000000000E+00 0. -1.
        -11    1    3    3    0    0  0.82356183383E+02  0.28299336220E+02 -0.68255667276E+02  0.11064460894E+03  0.00000000000E+00 0.  1.
         11    1    3    3    0    0 -0.12757984751E+02  0.44769731055E+02  0.68581375188E+00  0.46557119049E+02  0.00000000000E+00 0. -1.
          1    1    1    2  501    0  0.64237331930E+01  0.12982908682E+03  0.11276578330E+02  0.13047611793E+03  0.00000000000E+00 0. -1.
<scales pt_clust_5="13000.00000" pt_clust_6="13000.00000" pt_clust_7="13000.00000" pt_clust_8="13000.00000" pt_clust_9="13000.00000"></scales>
<clustering>
<clus scale="   91.276">  5  6 -1 -1</clus>
<clus scale="   99.818">  7  8 -1 -1</clus>
<clus scale="  129.988">  5  9 -1 -1</clus>
<clus scale="  141.939">  2  7  1 -1</clus>
<clus scale="  473.376">  1  5  2 -1</clus>
</clustering>
</event>
<event>
 9    1  0.3303741E-006  0.7648552E+03  0.7546771E-02  0.1000470E+00
         21   -1    0    0  501  502  0.00000000000E+00  0.00000000000E+00  0.30777227214E+03  0.30777227214E+03  0.00000000000E+00 0. -1.
         -3   -1    0    0    0  501 -0.00000000000E+00 -0.00000000000E+00 -0.77597374709E+03  0.77597374709E+03  0.00000000000E+00 0.  1.
         23    2    1    2    0    0  0.18771179954E+03  0.37587786726E+02 -0.12495616305E+03  0.24540188504E+03  0.89215924019E+02 0.  0.
         23    2    1    2    0    0 -0.16116156784E+02 -0.37261088316E+03 -0.12995791968E+03  0.40570450188E+03  0.92781901263E+02 0.  0.
        -13    1    4    4    0    0  0.16505737076E+02 -0.26978451234E+03 -0.59211359092E+02  0.27669858602E+03  0.00000000000E+00 0. -1.
         13    1    4    4    0    0 -0.32621893860E+02 -0.10282637082E+03 -0.70746560584E+02  0.12900591587E+03  0.00000000000E+00 0.  1.
        -13    1    3    3    0    0  0.40372008300E+02  0.14242654111E+02  0.10304047495E+02  0.44033233416E+02  0.00000000000E+00 0. -1.
         13    1    3    3    0    0  0.14733979124E+03  0.23345132614E+02 -0.13526021055E+03  0.20136865162E+03  0.00000000000E+00 0.  1.
         -3    1    1    2    0  502 -0.17159564275E+03  0.33502309644E+03 -0.21328739222E+03  0.43263963230E+03  0.00000000000E+00 0.  1.
<scales pt_clust_5="13000.00000" pt_clust_6="13000.00000" pt_clust_7="13000.00000" pt_clust_8="13000.00000" pt_clust_9="13000.00000"></scales>
<clustering>
<clus scale="   89.216">  7  8 -1 -1</clus>
<clus scale="   92.782">  5  6 -1 -1</clus>
<clus scale="  211.206">  2  7  1 -1</clus>
<clus scale="  362.200">  5  9 -1 -1</clus>
<clus scale="  764.855">  1  5  2 -1</clus>
</clustering>
</event>
<event>
 9    1  0.3303741E-006  0.2930386E+03  0.7546771E-02  0.1130127E+00
         21   -1    0    0  501  502  0.00000000000E+00  0.00000000000E+00  0.14181697441E+03  0.14181697441E+03  0.00000000000E+00 0. -1.
          2   -1    0    0  502    0 -0.00000000000E+00 -0.00000000000E+00 -0.56399878070E+03  0.56399878070E+03  0.00000000000E+00 0. -1.
         23    2    1    2    0    0  0.63918515220E+01 -0.41177332300E+02 -0.39901885619E+03  0.41186314801E+03  0.93159951871E+02 0.  0.
         23    2    1    2    0    0  0.51505753066E+01  0.18643114367E+02 -0.14331378477E+03  0.17116318710E+03  0.91563647658E+02 0.  0.
        -13    1    3    3    0    0  0.37407819489E+02 -0.45130931778E+02 -0.34055885938E+03  0.34556690042E+03  0.00000000000E+00 0. -1.
         13    1    3    3    0    0 -0.31015967967E+02  0.39535994774E+01 -0.58459996804E+02  0.66296247586E+02  0.00000000000E+00 0.  1.
        -13    1    4    4    0    0  0.36304269845E+02  0.33285908719E+02 -0.43972257672E+02  0.66026594437E+02  0.00000000000E+00 0.  1.
         13    1    4    4    0    0 -0.31153694538E+02 -0.14642794351E+02 -0.99341527098E+02  0.10513659266E+03  0.00000000000E+00 0. -1.
          2    1    1    2  501    0 -0.11542426829E+02  0.22534217933E+02  0.12015083466E+03  0.12278942001E+03  0.00000000000E+00 0. -1.
<scales pt_clust_5="13000.00000" pt_clust_6="13000.00000" pt_clust_7="13000.00000" pt_clust_8="13000.00000" pt_clust_9="13000.00000"></scales>
<clustering>
<clus scale="   91.564">  7  8 -1 -1</clus>
<clus scale="   25.318">  7  9 -1 -1</clus>
<clus scale="   93.160">  5  6 -1 -1</clus>
<clus scale="  102.055">  2  5  1 -1</clus>
<clus scale="  293.039">  1  5  2 -1</clus>
</clustering>
</event>
<event>
 9    1  0.3303741E-006  0.2420484E+03  0.7546771E-02  0.1152954E+00
          1   -1    0    0  502    0 -0.00000000000E+00  0.00000000000E+00  0.14071381208E+03  0.14071381208E+03  0.00000000000E+00 0. -1.
         21   -1    0    0  501  502  0.00000000000E+00 -0.00000000000E+00 -0.31746142020E+03  0.31746142020E+03  0.00000000000E+00 0.  1.
         23    2    1    2    0    0  0.15535483819E+02 -0.27840401052E+02  0.59190286233E+02  0.12016028466E+03  0.99591991827E+02 0.  0.
         23    2    1    2    0    0 -0.55724535300E+02  0.99546125759E+02 -0.96826699944E+02  0.17643278516E+03  0.93479745775E+02 0.  0.
        -11    1    3    3    0    0  0.47734440352E+02 -0.19029158523E+02  0.68379157148E+02  0.85535926967E+02  0.00000000000E+00 0. -1.
         11    1    3    3    0    0 -0.32198956532E+02 -0.88112425289E+01 -0.91888709156E+01  0.34624357689E+02  0.00000000000E+00 0.  1.
        -13    1    4    4    0    0 -0.73422427325E+02  0.80124191420E+02 -0.10268052722E+03  0.14951264012E+03  0.00000000000E+00 0.  1.
         13    1    4    4    0    0  0.17697892025E+02  0.19421934339E+02  0.58538272723E+01  0.26920145047E+02  0.00000000000E+00 0. -1.
          1    1    1    2  501    0  0.40189051481E+02 -0.71705724707E+02 -0.13911119441E+03  0.16158216246E+03  0.00000000000E+00 0. -1.
<scales pt_clust_5="13000.00000" pt_clust_6="13000.00000" pt_clust_7="13000.00000" pt_clust_8="13000.00000" pt_clust_9="13000.00000"></scales>
<clustering>
<clus scale="   93.480">  7  8 -1 -1</clus>
<clus scale="   82.200">  7  9 -1 -1</clus>
<clus scale="   99.592">  5  6 -1 -1</clus>
<clus scale="  104.571">  1  5  2 -1</clus>
<clus scale="  242.048">  2  5  1 -1</clus>
</clustering>
</event>
<event>
 9    1  0.3303741E-006  0.3142806E+03  0.7546771E-02  0.1123636E+00
         -4   -1    0    0    0  501 -0.00000000000E+00  0.00000000000E+00  0.78140843200E+02  0.78140843200E+02  0.00000000000E+00 0.  1.
         21   -1    0    0  501  502  0.00000000000E+00 -0.00000000000E+00 -0.54315043147E+03  0.54315043147E+03  0.00000000000E+00 0.  1.
         23    2    1    2    0    0  0.27402797197E+02 -0.29481504158E+02 -0.95487158247E+02  0.13619423827E+03  0.88379866298E+02 0.  0.
         23    2    1    2    0    0  0.50309811128E+02 -0.84309969673E+02 -0.94550124982E+02  0.17752994201E+03  0.11374491679E+03 0.  0.
        -11    1    4    4    0    0 -0.20497313534E+02  0.96102171774E+01  0.52905389139E+01  0.23248353453E+02  0.00000000000E+00 0. -1.
         11    1    4    4    0    0  0.70807124661E+02 -0.93920186850E+02 -0.99840663896E+02  0.15428158856E+03  0.00000000000E+00 0.  1.
        -11    1    3    3    0    0  0.44051781807E+02 -0.16417822958E+02 -0.10341217403E+03  0.11359657622E+03  0.00000000000E+00 0. -1.
         11    1    3    3    0    0 -0.16648984610E+02 -0.13063681200E+02  0.79250157846E+01  0.22597662052E+02  0.00000000000E+00 0.  1.
         -4    1    1    2    0  502 -0.77712608325E+02  0.11379147383E+03 -0.27497230504E+03  0.30756709438E+03  0.00000000000E+00 0.  1.
<scales pt_clust_5="13000.00000" pt_clust_6="13000.00000" pt_clust_7="13000.00000" pt_clust_8="13000.00000" pt_clust_9="13000.00000"></scales>
<clustering>
<clus scale="   88.380">  7  8 -1 -1</clus>
<clus scale="   97.114">  1  7  2 -1</clus>
<clus scale="  113.745">  5  6 -1 -1</clus>
<clus scale="  126.583">  5  9 -1 -1</clus>
<clus scale="  314.281">  2  5  1 -1</clus>
</clustering>
</event>
<event>
 9    1  0.3303741E-006  0.6520910E+03  0.7546771E-02  0.1020967E+00
         21   -1    0    0  501  502  0.00000000000E+00  0.00000000000E+00  0.17872281319E+03  0.17872281319E+03  0.00000000000E+00 0. -1.
          1   -1    0    0  502    0 -0.00000000000E+00 -0.00000000000E+00 -0.13517571721E+04  0.13517571721E+04  0.00000000000E+00 0. -1.
         23    2    1    2    0    0  0.44829670867E+02 -0.15005209816E+03 -0.70478569201E+03  0.72768518308E+03  0.90980890578E+02 0.  0.
         23    2    1    2    0    0  0.87138249151E+02  0.17711110604E+03 -0.58537878107E+03  0.62428097783E+03  0.89983351836E+02 0.  0.
        -13    1    4    4    0    0  0.26099346102E+02 -0.25165170176E+01 -0.92723957747E+02  0.96359955714E+02  0.00000000000E+00 0.  1.
         13    1    4    4    0    0  0.61038903049E+02  0.17962762306E+03 -0.49265482333E+03  0.52792102212E+03  0.00000000000E+00 0. -1.
        -13    1    3    3    0    0  0.12174281548E+02 -0.15981013040E+02 -0.17375062828E+02  0.26561225824E+02  0.00000000000E+00 0.  1.
         13    1    3    3    0    0  0.32655389319E+02 -0.13407108512E+03 -0.68741062918E+03  0.70112395725E+03  0.00000000000E+00 0. -1.
          1    1    1    2  501    0 -0.13196792002E+03 -0.27059007879E+02  0.11713011422E+03  0.17851382434E+03  0.00000000000E+00 0. -1.
<scales pt_clust_5="13000.00000" pt_clust_6="13000.00000" pt_clust_7="13000.00000" pt_clust_8="13000.00000" pt_clust_9="13000.00000"></scales>
<clustering>
<clus scale="   89.983">  5  6 -1 -1</clus>
<clus scale="   90.981">  7  8 -1 -1</clus>
<clus scale="  134.714">  5  9 -1 -1</clus>
<clus scale="  181.116">  2  7  1 -1</clus>
<clus scale="  652.091">  1  5  2 -1</clus>
</clustering>
</event>
<event>
 9    1  0.3303741E-006  0.5014690E+03  0.7546771E-02  0.1063268E+00
          1   -1    0    0  502    0 -0.00000000000E+00  0.00000000000E+00  0.16358085604E+03  0.16358085604E+03  0.00000000000E+00 0. -1.
         21   -1    0    0  501  502  0.00000000000E+00 -0.00000000000E+00 -0.12157884394E+04  0.12157884394E+04  0.00000000000E+00 0. -1.
         23    2    1    2    0    0  0.34761488769E+02  0.53571614854E+02  0.79636386148E+02  0.14141050654E+03  0.97860606692E+02 0.  0.
         23    2    1    2    0    0 -0.23286068047E+03 -0.55327995189E+02 -0.36575167227E+03  0.44666631295E+03  0.91930548741E+02 0.  0.
        -11    1    3    3    0    0 -0.24724568555E+02  0.45280211365E+02  0.16252672017E+02  0.54090213340E+02  0.00000000000E+00 0.  1.
         11    1    3    3    0    0  0.59486057323E+02  0.82914034882E+01  0.63383714130E+02  0.87320293200E+02  0.00000000000E+00 0. -1.
        -13    1    4    4    0    0 -0.92112687180E+02 -0.50620217031E+01 -0.21703205478E+03  0.23582468913E+03  0.00000000000E+00 0.  1.
         13    1    4    4    0    0 -0.14074799329E+03 -0.50265973486E+02 -0.14871961750E+03  0.21084162382E+03  0.00000000000E+00 0. -1.
          1    1    1    2  501    0  0.19809919170E+03  0.17563803357E+01 -0.76609229723E+03  0.79129247595E+03  0.00000000000E+00 0. -1.
<scales pt_clust_5="13000.00000" pt_clust_6="13000.00000" pt_clust_7="13000.00000" pt_clust_8="13000.00000" pt_clust_9="13000.00000"></scales>
<clustering>
<clus scale="   91.931">  7  8 -1 -1</clus>
<clus scale="   97.861">  5  6 -1 -1</clus>
<clus scale="  116.855">  1  5  2 -1</clus>
<clus scale="  206.862">  7  9 -1 -1</clus>
<clus scale="  501.469">  2  5  1 -1</clus>
</clustering>
</event>
<event>
 9    1  0.3303741E-006  0.2149893E+03  0.7546771E-02  0.1155755E+00
         -3   -1    0    0    0  501 -0.00000000000E+00  0.00000000000E+00  0.12583075771E+03  0.12583075771E+03  0.00000000000E+00 0.  1.
         21   -1    0    0  501  502  0.00000000000E+00 -0.00000000000E+00 -0.28439954496E+03  0.28439954496E+03  0.00000000000E+00 0.  1.
         23    2    1    2    0    0  0.96808211605E+02 -0.34102646657E+02  0.54362805435E+01  0.13982675179E+03  0.94800564484E+02 0.  0.
         23    2    1    2    0    0  0.43605883032E+01 -0.43222667666E+00 -0.23437950147E+02  0.93805424860E+02  0.90724410584E+02 0.  0.
        -11    1    4    4    0    0 -0.33494838730E+02  0.25779671331E+02 -0.28590882554E+00  0.42267924238E+02  0.00000000000E+00 0. -1.
         11    1    4    4    0    0  0.37855427034E+02 -0.26211898008E+02 -0.23152041321E+02  0.51537500622E+02  0.00000000000E+00 0.  1.
        -13    1    3    3    0    0  0.40469710800E+02  0.29700475755E+02 -0.14804763689E+02  0.52336381038E+02  0.00000000000E+00 0. -1.
         13    1    3    3    0    0  0.56338500805E+02 -0.63803122412E+02  0.20241044232E+02  0.87490370750E+02  0.00000000000E+00 0.  1.
         -3    1    1    2    0  502 -0.10116879991E+03  0.34534873333E+02 -0.14056711764E+03  0.17659812602E+03  0.00000000000E+00 0.  1.
<scales pt_clust_5="13000.00000" pt_clust_6="13000.00000" pt_clust_7="13000.00000" pt_clust_8="13000.00000" pt_clust_9="13000.00000"></scales>
<clustering>
<clus scale="   90.724">  5  6 -1 -1</clus>
<clus scale="   94.801">  7  8 -1 -1</clus>
<clus scale="  106.901">  5  9 -1 -1</clus>
<clus scale="  139.721">  1  7  2 -1</clus>
<clus scale="  214.989">  2  5  1 -1</clus>
</clustering>
</event>
<event>
 9    1  0.3303741E-006  0.1546706E+03  0.7546771E-02  0.1212029E+00
         21   -1    0    0  501  502  0.00000000000E+00  0.00000000000E+00  0.19009681437E+03  0.19009681437E+03  0.00000000000E+00 0.  1.
          4   -1    0    0  502    0 -0.00000000000E+00 -0.00000000000E+00 -0.13072836984E+03  0.13072836984E+03  0.00000000000E+00 0. -1.
         23    2    1    2    0    0 -0.15678631314E+02  0.52717971434E+02 -0.62702853258E+02  0.12378611494E+03  0.91467756360E+02 0.  0.
         23    2    1    2    0    0 -0.27257554105E+02 -0.40423756368E+02  0.56113079178E+02  0.11738261728E+03  0.90845731047E+02 0.  0.
        -11    1    4    4    0    0 -0.80863934522E+01 -0.56747761923E+02  0.16091534384E+01  0.57343592642E+02  0.00000000000E+00 0. -1.
         11    1    4    4    0    0 -0.19171160652E+02  0.16324005555E+02  0.54503925740E+02  0.60039024635E+02  0.00000000000E+00 0.  1.
        -13    1    3    3    0    0 -0.51910150466E+02  0.14485485185E+02 -0.28280505705E+02  0.60862796562E+02  0.00000000000E+00 0. -1.
         13    1    3    3    0    0  0.36231519151E+02  0.38232486249E+02 -0.34422347553E+02  0.62923318379E+02  0.00000000000E+00 0.  1.
          4    1    1    2  501    0  0.42936185419E+02 -0.12294215066E+02  0.65958218603E+02  0.79656451991E+02  0.00000000000E+00 0. -1.
<scales pt_clust_5="13000.00000" pt_clust_6="13000.00000" pt_clust_7="13000.00000" pt_clust_8="13000.00000" pt_clust_9="13000.00000"></scales>
<clustering>
<clus scale="   90.846">  5  6 -1 -1</clus>
<clus scale="   44.662">  5  9 -1 -1</clus>
<clus scale="   91.468">  7  8 -1 -1</clus>
<clus scale="  106.730">  2  7  1 -1</clus>
<clus scale="  154.671">  1  5  2 -1</clus>
</clustering>
</event>
<event>
 9    1  0.3303741E-006  0.1470503E+03  0.7546771E-02  0.1226770E+00
          3   -1    0    0  502    0 -0.00000000000E+00  0.00000000000E+00  0.16889003676E+03  0.16889003676E+03  0.00000000000E+00 0. -1.
         21   -1    0    0  501  502  0.00000000000E+00 -0.00000000000E+00 -0.95871314698E+02  0.95871314698E+02  0.00000000000E+00 0. -1.
         23    2    1    2    0    0 -0.15343146536E+01  0.26598712003E+02 -0.16523325419E+02  0.92594106905E+02  0.87125213049E+02 0.  0.
         23    2    1    2    0    0 -0.10187672020E+02 -0.43378569105E+02  0.10520741395E+03  0.14639182443E+03  0.91523097579E+02 0.  0.
        -11    1    3    3    0    0  0.10318739953E+01 -0.32173388137E+02 -0.38825398806E+01  0.32423229081E+02  0.00000000000E+00 0. -1.
         11    1    3    3    0    0 -0.25661886489E+01  0.58772100140E+02 -0.12640785538E+02  0.60170877823E+02  0.00000000000E+00 0.  1.
        -11    1    4    4    0    0  0.20730365604E+02 -0.61981711762E+02  0.61837859372E+02  0.89974449166E+02  0.00000000000E+00 0.  1.
         11    1    4    4    0    0 -0.30918037623E+02  0.18603142657E+02  0.43369554577E+02  0.56417375261E+02  0.00000000000E+00 0. -1.
          3    1    1    2  501    0  0.11721986673E+02  0.16779857102E+02 -0.15665366470E+02  0.25775420124E+02  0.00000000000E+00 0. -1.
<scales pt_clust_5="13000.00000" pt_clust_6="13000.00000" pt_clust_7="13000.00000" pt_clust_8="13000.00000" pt_clust_9="13000.00000"></scales>
<clustering>
<clus scale="   87.125">  5  6 -1 -1</clus>
<clus scale="   91.108">  1  5  2 -1</clus>
<clus scale="   91.523">  7  8 -1 -1</clus>
<clus scale="   21.287">  7  9 -1 -1</clus>
<clus scale="  147.050">  2  5  1 -1</clus>
</clustering>
</event>
<event>
 9    1  0.3303741E-006  0.2488234E+03  0.7546771E-02  0.1154995E+00
         21   -1    0    0  501  502  0.00000000000E+00  0.00000000000E+00  0.15641584731E+03  0.15641584731E+03  0.00000000000E+00 0. -1.
          2   -1    0    0  502    0 -0.00000000000E+00 -0.00000000000E+00 -0.33515916799E+03  0.33515916799E+03  0.00000000000E+00 0. -1.
         23    2    1    2    0    0 -0.28492103483E+01  0.17355295186E+02 -0.22090990718E+03  0.23920405784E+03  0.90044821767E+02 0.  0.
         23    2    1    2    0    0 -0.97829968270E+02  0.29361589102E+02  0.32122910014E+02  0.14092752013E+03  0.91629029113E+02 0.  0.
        -11    1    3    3    0    0  0.39041797500E+02  0.22502504974E+02 -0.76835120548E+02  0.89074465655E+02  0.00000000000E+00 0.  1.
         11    1    3    3    0    0 -0.41891007848E+02 -0.51472097874E+01 -0.14407478663E+03  0.15012959219E+03  0.00000000000E+00 0. -1.
        -11    1    4    4    0    0 -0.58653342046E+02  0.61730108038E+02  0.29221392342E+02  0.90026165874E+02  0.00000000000E+00 0. -1.
         11    1    4    4    0    0 -0.39176626224E+02 -0.32368518936E+02  0.29015176718E+01  0.50901354257E+02  0.00000000000E+00 0.  1.
          2    1    1    2  501    0  0.10067917862E+03 -0.46716884288E+02  0.10043676481E+02  0.11144343732E+03  0.00000000000E+00 0. -1.
<scales pt_clust_5="13000.00000" pt_clust_6="13000.00000" pt_clust_7="13000.00000" pt_clust_8="13000.00000" pt_clust_9="13000.00000"></scales>
<clustering>
<clus scale="   90.045">  5  6 -1 -1</clus>
<clus scale="   91.629">  7  8 -1 -1</clus>
<clus scale="   91.746">  2  5  1 -1</clus>
<clus scale="  106.451">  7  9 -1 -1</clus>
<clus scale="  248.823">  1  5  2 -1</clus>
</clustering>
</event>
<event>
 9    1  0.3303741E-006  0.2170415E+03  0.7546771E-02  0.1164207E+00
         21   -1    0    0  501  502  0.00000000000E+00  0.00000000000E+00  0.18851205716E+03  0.18851205716E+03  0.00000000000E+00 0.  1.
         -2   -1    0    0    0  501 -0.00000000000E+00 -0.00000000000E+00 -0.23731763402E+03  0.23731763402E+03  0.00000000000E+00 0.  1.
         23    2    1    2    0    0  0.57014027016E+02  0.30570511296E+02 -0.14953462229E+03  0.18655295891E+03  0.90863896985E+02 0.  0.
         23    2    1    2    0    0  0.37939427079E+02  0.25141196667E+02  0.13067604507E+02  0.98548337572E+02  0.86426458066E+02 0.  0.
        -11    1    4    4    0    0 -0.22621554283E+02 -0.86461941450E+00 -0.14739853097E+02  0.27013803032E+02  0.00000000000E+00 0. -1.
         11    1    4    4    0    0  0.60560981362E+02  0.26005816081E+02  0.27807457604E+02  0.71534534540E+02  0.00000000000E+00 0.  1.
        -13    1    3    3    0    0  0.39670351146E+02 -0.12581440764E+02 -0.15052236261E+02  0.44256064310E+02  0.00000000000E+00 0. -1.
         13    1    3    3    0    0  0.17343675871E+02  0.43151952060E+02 -0.13448238603E+03  0.14229689460E+03  0.00000000000E+00 0.  1.
         -2    1    1    2    0  502 -0.94953454095E+02 -0.55711707963E+02  0.87661440929E+02  0.14072839470E+03  0.00000000000E+00 0.  1.
<scales pt_clust_5="13000.00000" pt_clust_6="13000.00000" pt_clust_7="13000.00000" pt_clust_8="13000.00000" pt_clust_9="13000.00000"></scales>
<clustering>
<clus scale="   86.426">  5  6 -1 -1</clus>
<clus scale="   90.864">  7  8 -1 -1</clus>
<clus scale="  110.091">  5  9 -1 -1</clus>
<clus scale="  111.541">  2  7  1 -1</clus>
<clus scale="  217.042">  1  5  2 -1</clus>
</clustering>
</event>
<event>
 9    1  0.3303741E-006  0.5167162E+03  0.7546771E-02  0.1063484E+00
          1   -1    0    0  502    0 -0.00000000000E+00  0.00000000000E+00  0.25511483486E+03  0.25511483486E+03  0.00000000000E+00 0. -1.
         21   -1    0    0  501  502  0.00000000000E+00 -0.00000000000E+00 -0.41497614499E+03  0.41497614499E+03  0.00000000000E+00 0. -1.
         23    2    1    2    0    0  0.26908168329E+02  0.43453384872E+02 -0.10690136790E+03  0.15066787335E+03  0.93062663936E+02 0.  0.
         23    2    1    2    0    0  0.14354020864E+03 -0.33303749170E+02  0.15942457965E+03  0.24691099769E+03  0.11762615773E+03 0.  0.
        -11    1    3    3    0    0 -0.13420091736E+02  0.59955877107E+02 -0.73295282154E+02  0.95639973065E+02  0.00000000000E+00 0.  1.
         11    1    3    3    0    0  0.40328260064E+02 -0.16502492235E+02 -0.33606085750E+02  0.55027900280E+02  0.00000000000E+00 0. -1.
        -13    1    4    4    0    0  0.97118063525E+02 -0.35320791094E+02  0.17028798495E+03  0.19919205397E+03  0.00000000000E+00 0. -1.
         13    1    4    4    0    0  0.46422145114E+02  0.20170419243E+01 -0.10863405305E+02  0.47718943722E+02  0.00000000000E+00 0.  1.
          1    1    1    2  501    0 -0.17044837697E+03 -0.10149635702E+02 -0.21238452188E+03  0.27251210881E+03  0.00000000000E+00 0. -1.
<scales pt_clust_5="13000.00000" pt_clust_6="13000.00000" pt_clust_7="13000.00000" pt_clust_8="13000.00000" pt_clust_9="13000.00000"></scales>
<clustering>
<clus scale="   93.063">  5  6 -1 -1</clus>
<clus scale="  106.174">  1  5  2 -1</clus>
<clus scale="  117.626">  7  8 -1 -1</clus>
<clus scale="  167.042">  7  9 -1 -1</clus>
<clus scale="  516.716">  2  5  1 -1</clus>
</clustering>
</event>
<event>
 9    1  0.3303741E-006  0.1921239E+03  0.7546771E-02  0.1169042E+00
          2   -1    0    0  502    0 -0.00000000000E+00  0.00000000000E+00  0.29116362577E+03  0.29116362577E+03  0.00000000000E+00 0. -1.
         21   -1    0    0  501  502  0.00000000000E+00 -0.00000000000E+00 -0.10254262590E+03  0.10254262590E+03  0.00000000000E+00 0.  1.
         23    2    1    2    0    0 -0.11209107261E+03  0.41070394758E+01  0.12707933794E+03  0.19196636466E+03  0.90114653078E+02 0.  0.
         23    2    1    2    0    0  0.10159547191E+03  0.14515660707E+02  0.91234908638E+02  0.16515230036E+03  0.91755814206E+02 0.  0.
        -11    1    4    4    0    0 -0.93026463724E+01  0.17868307851E+02 -0.19816808643E+01  0.20242102511E+02  0.00000000000E+00 0.  1.
         11    1    4    4    0    0  0.11089811828E+03 -0.33526471441E+01  0.93216589502E+02  0.14491019785E+03  0.00000000000E+00 0. -1.
        -13    1    3    3    0    0 -0.16853058012E+02  0.13022822212E+02 -0.11015551476E+02  0.23978361851E+02  0.00000000000E+00 0.  1.
         13    1    3    3    0    0 -0.95238014594E+02 -0.89157827366E+01  0.13809488942E+03  0.16798800281E+03  0.00000000000E+00 0. -1.
          2    1    1    2  501    0  0.10495600696E+02 -0.18622700183E+02 -0.29693246716E+02  0.36587586647E+02  0.00000000000E+00 0. -1.
<scales pt_clust_5="13000.00000" pt_clust_6="13000.00000" pt_clust_7="13000.00000" pt_clust_8="13000.00000" pt_clust_9="13000.00000"></scales>
<clustering>
<clus scale="   90.115">  7  8 -1 -1</clus>
<clus scale="   91.756">  5  6 -1 -1</clus>
<clus scale="   21.377">  5  9 -1 -1</clus>
<clus scale="  143.882">  1  7  2 -1</clus>
<clus scale="  192.124">  2  5  1 -1</clus>
</clustering>
</event>
<event>
 9    1  0.3303741E-006  0.3735290E+03  0.7546771E-02  0.1100708E+00
         21   -1    0    0  501  502  0.00000000000E+00  0.00000000000E+00  0.59716911027E+02  0.59716911027E+02  0.00000000000E+00 0. -1.
          1   -1    0    0  502    0 -0.00000000000E+00 -0.00000000000E+00 -0.10332984823E+04  0.10332984823E+04  0.00000000000E+00 0. -1.
         23    2    1    2    0    0 -0.88562113337E+01  0.45157474307E+02 -0.36091985148E+03  0.37546519739E+03  0.92700298269E+02 0.  0.
         23    2    1    2    0    0 -0.65105675140E+02  0.21741961528E+02 -0.60707642125E+03  0.61766480803E+03  0.90865681129E+02 0.  0.
        -11    1    4    4    0    0 -0.60894615414E+02 -0.25074868321E+02 -0.39393194851E+03  0.39939865205E+03  0.00000000000E+00 0. -1.
         11    1    4    4    0    0 -0.42110597260E+01  0.46816829849E+02 -0.21314447275E+03  0.21826615597E+03  0.00000000000E+00 0.  1.
        -13    1    3    3    0    0  0.38600994591E+02  0.40063586417E+02 -0.20360987036E+03  0.21107370052E+03  0.00000000000E+00 0.  1.
         13    1    3    3    0    0 -0.47457205925E+02  0.50938878899E+01 -0.15730998111E+03  0.16439149688E+03  0.00000000000E+00 0. -1.
          1    1    1    2  501    0  0.73961886474E+02 -0.66899435835E+02 -0.55852985874E+01  0.99885387951E+02  0.00000000000E+00 0. -1.
<scales pt_clust_5="13000.00000" pt_clust_6="13000.00000" pt_clust_7="13000.00000" pt_clust_8="13000.00000" pt_clust_9="13000.00000"></scales>
<clustering>
<clus scale="   90.866">  5  6 -1 -1</clus>
<clus scale="   92.700">  7  8 -1 -1</clus>
<clus scale="   99.729">  5  9 -1 -1</clus>
<clus scale="  103.494">  2  7  1 -1</clus>
<clus scale="  373.529">  1  5  2 -1</clus>
</clustering>
</event>
<event>
 9    1  0.3303741E-006  0.7304929E+03  0.7546771E-02  0.9971600E-01
          1   -1    0    0  502    0 -0.00000000000E+00  0.00000000000E+00  0.11124172358E+04  0.11124172358E+04  0.00000000000E+00 0. -1.
         21   -1    0    0  501  502  0.00000000000E+00 -0.00000000000E+00 -0.23428367566E+03  0.23428367566E+03  0.00000000000E+00 0. -1.
         23    2    1    2    0    0 -0.14701435331E+03 -0.20690641868E+03  0.36709193711E+03  0.45519462522E+03  0.89566569458E+02 0.  0.
         23    2    1    2    0    0  0.18327566912E+03  0.44249112432E+03  0.38218184728E+03  0.62054525884E+03  0.98107532220E+02 0.  0.
        -11    1    4    4    0    0  0.78428252335E+02  0.20169590853E+03  0.11169353693E+03  0.24353167447E+03  0.00000000000E+00 0.  1.
         11    1    4    4    0    0  0.10484741679E+03  0.24079521580E+03  0.27048831035E+03  0.37701358437E+03  0.00000000000E+00 0. -1.
        -13    1    3    3    0    0 -0.16546180314E+02 -0.80833241637E+02  0.15887989504E+03  0.17902684180E+03  0.00000000000E+00 0.  1.
         13    1    3    3    0    0 -0.13046817300E+03 -0.12607317704E+03  0.20821204207E+03  0.27616778342E+03  0.00000000000E+00 0. -1.
          1    1    1    2  501    0 -0.36261315811E+02 -0.23558470565E+03  0.12885977573E+03  0.27096102738E+03  0.00000000000E+00 0. -1.
<scales pt_clust_5="13000.00000" pt_clust_6="13000.00000" pt_clust_7="13000.00000" pt_clust_8="13000.00000" pt_clust_9="13000.00000"></scales>
<clustering>
<clus scale="   89.567">  7  8 -1 -1</clus>
<clus scale="   98.108">  5  6 -1 -1</clus>
<clus scale="  238.359">  5  9 -1 -1</clus>
<clus scale="  269.157">  1  7  2 -1</clus>
<clus scale="  730.493">  2  5  1 -1</clus>
</clustering>
</event>
<event>
 9    1  0.3303741E-006  0.2112270E+03  0.7546771E-02  0.1175117E+00
          2   -1    0    0  502    0 -0.00000000000E+00  0.00000000000E+00  0.19746279181E+03  0.19746279181E+03  0.00000000000E+00 0. -1.
         21   -1    0    0  501  502  0.00000000000E+00 -0.00000000000E+00 -0.57337765647E+03  0.57337765647E+03  0.00000000000E+00 0. -1.
         23    2    1    2    0    0  0.13292167099E+02  0.21160414396E+02  0.16506435759E+03  0.19008632826E+03  0.90896233148E+02 0.  0.
         23    2    1    2    0    0 -0.55463543732E+02  0.19685825011E+02 -0.15048564675E+03  0.18587176693E+03  0.91862111205E+02 0.  0.
        -11    1    4    4    0    0 -0.34192682223E+02  0.48684185118E+02 -0.45498804045E+02  0.74896131861E+02  0.00000000000E+00 0. -1.
         11    1    4    4    0    0 -0.21270861509E+02 -0.28998360107E+02 -0.10498684271E+03  0.11097563507E+03  0.00000000000E+00 0.  1.
        -11    1    3    3    0    0  0.44148501048E+02  0.18885483096E+02  0.14611878007E+03  0.15380653271E+03  0.00000000000E+00 0. -1.
         11    1    3    3    0    0 -0.30856333949E+02  0.22749312997E+01  0.18945577521E+02  0.36279795544E+02  0.00000000000E+00 0.  1.
          2    1    1    2  501    0  0.42171376633E+02 -0.40846239407E+02 -0.39049357550E+03  0.39488235310E+03  0.00000000000E+00 0. -1.
<scales pt_clust_5="13000.00000" pt_clust_6="13000.00000" pt_clust_7="13000.00000" pt_clust_8="13000.00000" pt_clust_9="13000.00000"></scales>
<clustering>
<clus scale="   90.896">  7  8 -1 -1</clus>
<clus scale="   91.862">  5  6 -1 -1</clus>
<clus scale="   58.710">  5  9 -1 -1</clus>
<clus scale="   94.269">  1  7  2 -1</clus>
<clus scale="  211.227">  2  5  1 -1</clus>
</clustering>
</event>
<event>
 9    1  0.3303741E-006  0.1742684E+03  0.7546771E-02  0.1197554E+00
         21   -1    0    0  501  502  0.00000000000E+00  0.00000000000E+00  0.30083370883E+03  0.30083370883E+03  0.00000000000E+00 0.  1.
         -1   -1    0    0    0  501 -0.00000000000E+00 -0.00000000000E+00 -0.10999124878E+03  0.10999124878E+03  0.00000000000E+00 0.  1.
         23    2    1    2    0    0 -0.50189648012E+02 -0.88346138988E+01 -0.50012806216E+02  0.11353595567E+03  0.88272766321E+02 0.  0.
         23    2    1    2    0    0 -0.39930009012E+01  0.50918922454E+02  0.15606286009E+03  0.18821746296E+03  0.91986500885E+02 0.  0.
        -11    1    4    4    0    0  0.41197100898E+02  0.32526218454E+02  0.10615563959E+03  0.11842371311E+03  0.00000000000E+00 0. -1.
         11    1    4    4    0    0 -0.45190101799E+02  0.18392704000E+02  0.49907220500E+02  0.69793749857E+02  0.00000000000E+00 0.  1.
        -13    1    3    3    0    0 -0.47570889587E+02 -0.41986399368E+02 -0.14901720443E+02  0.65175981314E+02  0.00000000000E+00 0.  1.
         13    1    3    3    0    0 -0.26187584249E+01  0.33151785470E+02 -0.35111085774E+02  0.48359974356E+02  0.00000000000E+00 0. -1.
         -1    1    1    2    0  502  0.54182648914E+02 -0.42084308555E+02  0.84792406177E+02  0.10907153898E+03  0.00000000000E+00 0.  1.
<scales pt_clust_5="13000.00000" pt_clust_6="13000.00000" pt_clust_7="13000.00000" pt_clust_8="13000.00000" pt_clust_9="13000.00000"></scales>
<clustering>
<clus scale="   88.273">  7  8 -1 -1</clus>
<clus scale="   91.987">  5  6 -1 -1</clus>
<clus scale="   68.607">  5  9 -1 -1</clus>
<clus scale="  101.927">  2  7  1 -1</clus>
<clus scale="  174.268">  1  5  2 -1</clus>
</clustering>
</event>
<event>
 9    1  0.3303741E-006  0.1736329E+03  0.7546771E-02  0.1190880E+00
          1   -1    0    0  502    0 -0.00000000000E+00  0.00000000000E+00  0.41226895427E+03  0.41226895427E+03  0.00000000000E+00 0. -1.
         21   -1    0    0  501  502  0.00000000000E+00 -0.00000000000E+00 -0.56076246065E+02  0.56076246065E+02  0.00000000000E+00 0.  1.
         23    2    1    2    0    0 -0.75102759649E+02 -0.18681487168E+02  0.20930453302E+03  0.24091497970E+03  0.90786658869E+02 0.  0.
         23    2    1    2    0    0  0.79134044904E+02  0.52964500959E+02  0.14034142770E+03  0.19229567641E+03  0.90633743235E+02 0.  0.
        -11    1    4    4    0    0  0.61162189724E+02 -0.10121898299E+02  0.45154958514E+02  0.76695740139E+02  0.00000000000E+00 0.  1.
         11    1    4    4    0    0  0.17971855180E+02  0.63086399258E+02  0.95186469189E+02  0.11559993627E+03  0.00000000000E+00 0. -1.
        -13    1    3    3    0    0 -0.27025636710E+02 -0.52858195159E+02  0.89866229937E+02  0.10770474975E+03  0.00000000000E+00 0.  1.
         13    1    3    3    0    0 -0.48077122939E+02  0.34176707990E+02  0.11943830308E+03  0.13321022995E+03  0.00000000000E+00 0. -1.
          1    1    1    2  501    0 -0.40312852550E+01 -0.34283013791E+02  0.65467474807E+01  0.35134544226E+02  0.00000000000E+00 0. -1.
<scales pt_clust_5="13000.00000" pt_clust_6="13000.00000" pt_clust_7="13000.00000" pt_clust_8="13000.00000" pt_clust_9="13000.00000"></scales>
<clustering>
<clus scale="   90.634">  5  6 -1 -1</clus>
<clus scale="   34.519">  5  9 -1 -1</clus>
<clus scale="   90.787">  7  8 -1 -1</clus>
<clus scale="  119.296">  1  7  2 -1</clus>
<clus scale="  173.633">  2  5  1 -1</clus>
</clustering>
</event>
<event>
 9    1  0.3303741E-006  0.1891011E+03  0.7546771E-02  0.1173526E+00
          1   -1    0    0  502    0 -0.00000000000E+00  0.00000000000E+00  0.94942486323E+03  0.94942486323E+03  0.00000000000E+00 0. -1.
         21   -1    0    0  501  502  0.00000000000E+00 -0.00000000000E+00 -0.28192003253E+02  0.28192003253E+02  0.00000000000E+00 0. -1.
         23    2    1    2    0    0  0.79290692703E+02  0.63946083476E+02  0.33480251271E+03  0.36145149125E+03  0.90434188587E+02 0.  0.
         23    2    1    2    0    0 -0.78485498455E+01 -0.45481854800E+02  0.42393410495E+03  0.43769987078E+03  0.98645084444E+02 0.  0.
        -11    1    4    4    0    0  0.72941496033E+01  0.26177157789E+02  0.52526161859E+02  0.59139207705E+02  0.00000000000E+00 0.  1.
         11    1    4    4    0    0 -0.15142699449E+02 -0.71659012589E+02  0.37140794310E+03  0.37856066307E+03  0.00000000000E+00 0. -1.
        -13    1    3    3    0    0  0.69306114495E+02  0.85633935788E+02  0.24687691637E+03  0.27034185821E+03  0.00000000000E+00 0. -1.
         13    1    3    3    0    0  0.99845782083E+01 -0.21687852312E+02  0.87925596339E+02  0.91109633033E+02  0.00000000000E+00 0.  1.
          1    1    1    2  501    0 -0.71442142857E+02 -0.18464228676E+02  0.16249624231E+03  0.17846550446E+03  0.00000000000E+00 0. -1.
<scales pt_clust_5="13000.00000" pt_clust_6="13000.00000" pt_clust_7="13000.00000" pt_clust_8="13000.00000" pt_clust_9="13000.00000"></scales>
<clustering>
<clus scale="   90.434">  7  8 -1 -1</clus>
<clus scale="   98.645">  5  6 -1 -1</clus>
<clus scale="   73.790">  5  9 -1 -1</clus>
<clus scale="  136.215">  1  7  2 -1</clus>
<clus scale="  189.101">  2  5  1 -1</clus>
</clustering>
</event>
<event>
 9    1  0.3303741E-006  0.1558358E+03  0.7546771E-02  0.1216611E+00
          4   -1    0    0  502    0 -0.00000000000E+00  0.00000000000E+00  0.47740202156E+02  0.47740202156E+02  0.00000000000E+00 0. -1.
         21   -1    0    0  501  502  0.00000000000E+00 -0.00000000000E+00 -0.37937490368E+03  0.37937490368E+03  0.00000000000E+00 0.  1.
         23    2    1    2    0    0  0.11498161633E+01 -0.26574709126E+02 -0.54735392540E+02  0.10937616720E+03  0.90882591912E+02 0.  0.
         23    2    1    2    0    0  0.38244926820E+02  0.40744799558E+02 -0.23808536681E+03  0.26064901531E+03  0.90169031151E+02 0.  0.
        -11    1    4    4    0    0  0.52842281450E+02  0.55225545327E+02 -0.22123042692E+03  0.23406210578E+03  0.00000000000E+00 0.  1.
         11    1    4    4    0    0 -0.14597354630E+02 -0.14480745769E+02 -0.16854939887E+02  0.26586909539E+02  0.00000000000E+00 0. -1.
        -11    1    3    3    0    0  0.39195453746E+02 -0.38349022217E+02 -0.30261782069E+02  0.62631514059E+02  0.00000000000E+00 0. -1.
         11    1    3    3    0    0 -0.38045637582E+02  0.11774313091E+02 -0.24473610471E+02  0.46744653141E+02  0.00000000000E+00 0.  1.
          4    1    1    2  501    0 -0.39394742984E+02 -0.14170090432E+02 -0.38813942184E+02  0.57089923327E+02  0.00000000000E+00 0. -1.
<scales pt_clust_5="13000.00000" pt_clust_6="13000.00000" pt_clust_7="13000.00000" pt_clust_8="13000.00000" pt_clust_9="13000.00000"></scales>
<clustering>
<clus scale="   90.169">  5  6 -1 -1</clus>
<clus scale="   41.866">  5  9 -1 -1</clus>
<clus scale="   90.883">  7  8 -1 -1</clus>
<clus scale="   94.695">  1  7  2 -1</clus>
<clus scale="  155.836">  2  5  1 -1</clus>
</clustering>
</event>
<event>
 9    1  0.3303741E-006  0.5584210E+03  0.7546771E-02  0.1058829E+00
         21   -1    0    0  501  502  0.00000000000E+00  0.00000000000E+00  0.11301324377E+03  0.11301324377E+03  0.00000000000E+00 0. -1.
          1   -1    0    0  502    0 -0.00000000000E+00 -0.00000000000E+00 -0.95881286807E+03  0.95881286807E+03  0.00000000000E+00 0. -1.
         23    2    1    2    0    0  0.23446412128E+02  0.16669831120E+02 -0.84888465966E+02  0.12799360083E+03  0.91371180840E+02 0.  0.
         23    2    1    2    0    0 -0.20780234151E+03  0.17330889657E+03 -0.47129850087E+03  0.55146212854E+03  0.93650496700E+02 0.  0.
        -13    1    3    3    0    0 -0.23979653983E+02  0.35010768068E+02 -0.24320680640E+02  0.48910869882E+02  0.00000000000E+00 0.  1.
         13    1    3    3    0    0  0.47426066111E+02 -0.18340936948E+02 -0.60567785326E+02  0.79082730948E+02  0.00000000000E+00 0. -1.
        -13    1    4    4    0    0 -0.88904023907E+02  0.43730531525E+02 -0.10077524230E+03  0.14132209422E+03  0.00000000000E+00 0.  1.
         13    1    4    4    0    0 -0.11889831760E+03  0.12957836504E+03 -0.37052325856E+03  0.41014003432E+03  0.00000000000E+00 0. -1.
          1    1    1    2  501    0  0.18435592938E+03 -0.18997872769E+03 -0.28961265747E+03  0.39237038247E+03  0.00000000000E+00 0. -1.
<scales pt_clust_5="13000.00000" pt_clust_6="13000.00000" pt_clust_7="13000.00000" pt_clust_8="13000.00000" pt_clust_9="13000.00000"></scales>
<clustering>
<clus scale="   91.371">  5  6 -1 -1</clus>
<clus scale="   93.650">  7  8 -1 -1</clus>
<clus scale="   95.793">  2  5  1 -1</clus>
<clus scale="  266.714">  7  9 -1 -1</clus>
<clus scale="  558.421">  1  5  2 -1</clus>
</clustering>
</event>
<event>
 9    1  0.5234246E-006  0.8835604E+03  0.7546771E-02  0.1012056E+00
          1   -1    0    0  502    0 -0.00000000000E+00  0.00000000000E+00  0.56843257881E+03  0.56843257881E+03  0.00000000000E+00 0. -1.
         21   -1    0    0  501  502  0.00000000000E+00 -0.00000000000E+00 -0.42657331492E+03  0.42657331492E+03  0.00000000000E+00 0. -1.
         23    2    1    2    0    0  0.19238773770E+02  0.58500477765E+01 -0.17690330984E+02  0.97155615815E+02  0.93391179449E+02 0.  0.
         23    2    1    2    0    0  0.16207374943E+03 -0.77642796148E+02  0.48133786053E+03  0.52158425804E+03  0.89820366324E+02 0.  0.
        -13    1    4    4    0    0  0.88816538808E+01 -0.41678930600E+02  0.12450166174E+03  0.13159286002E+03  0.00000000000E+00 0.  1.
         13    1    4    4    0    0  0.15319209555E+03 -0.35963865549E+02  0.35683619879E+03  0.38999139802E+03  0.00000000000E+00 0. -1.
        -13    1    3    3    0    0  0.51946209216E+02  0.24320559916E+02 -0.52980849071E+01  0.57601805443E+02  0.00000000000E+00 0. -1.
         13    1    3    3    0    0 -0.32707435446E+02 -0.18470512139E+02 -0.12392246077E+02  0.39553810372E+02  0.00000000000E+00 0.  1.
          1    1    1    2  501    0 -0.18131252320E+03  0.71792748372E+02 -0.32178826566E+03  0.37626601987E+03  0.00000000000E+00 0. -1.
<scales pt_clust_5="13000.00000" pt_clust_6="13000.00000" pt_clust_7="13000.00000" pt_clust_8="13000.00000" pt_clust_9="13000.00000"></scales>
<clustering>
<clus scale="   89.820">  5  6 -1 -1</clus>
<clus scale="   93.391">  7  8 -1 -1</clus>
<clus scale="   95.532">  1  7  2 -1</clus>
<clus scale="  194.199">  5  9 -1 -1</clus>
<clus scale="  883.560">  2  5  1 -1</clus>
</clustering>
</event>
<event>
 9    1  0.3303741E-006  0.2773380E+03  0.7546771E-02  0.1138864E+00
          1   -1    0    0  502    0 -0.00000000000E+00  0.00000000000E+00  0.39877796218E+03  0.39877796218E+03  0.00000000000E+00 0. -1.
         21   -1    0    0  501  502  0.00000000000E+00 -0.00000000000E+00 -0.12762098748E+03  0.12762098748E+03  0.00000000000E+00 0.  1.
         23    2    1    2    0    0  0.12716370880E+02  0.23057885801E+02  0.22514156129E+03  0.24526946504E+03  0.93675053648E+02 0.  0.
         23    2    1    2    0    0 -0.11728935750E+03 -0.51769407368E+02 -0.10960686652E+02  0.15862994592E+03  0.92770998536E+02 0.  0.
        -11    1    4    4    0    0 -0.13855362364E+01 -0.37569858638E+02  0.12317749511E+02  0.39561862213E+02  0.00000000000E+00 0. -1.
         11    1    4    4    0    0 -0.11590382127E+03 -0.14199548730E+02 -0.23278436164E+02  0.11906808371E+03  0.00000000000E+00 0.  1.
        -13    1    3    3    0    0 -0.25647982920E+02 -0.61231040498E+01  0.16439685675E+02  0.31073697819E+02  0.00000000000E+00 0.  1.
         13    1    3    3    0    0  0.38364353800E+02  0.29180989850E+02  0.20870187561E+03  0.21419576722E+03  0.00000000000E+00 0. -1.
          1    1    1    2  501    0  0.10457298662E+03  0.28711521568E+02  0.56976100061E+02  0.12249953869E+03  0.00000000000E+00 0. -1.
<scales pt_clust_5="13000.00000" pt_clust_6="13000.00000" pt_clust_7="13000.00000" pt_clust_8="13000.00000" pt_clust_9="13000.00000"></scales>
<clustering>
<clus scale="   92.771">  5  6 -1 -1</clus>
<clus scale="   93.675">  7  8 -1 -1</clus>
<clus scale="   97.306">  1  7  2 -1</clus>
<clus scale="  118.971">  5  9 -1 -1</clus>
<clus scale="  277.338">  2  5  1 -1</clus>
</clustering>
</event>
<event>
 9    1  0.3303741E-006  0.3155443E+03  0.7546771E-02  0.1121647E+00
         -1   -1    0    0    0  501 -0.00000000000E+00  0.00000000000E+00  0.16082554255E+03  0.16082554255E+03  0.00000000000E+00 0.  1.
         21   -1    0    0  501  502  0.00000000000E+00 -0.00000000000E+00 -0.28830755997E+03  0.28830755997E+03  0.00000000000E+00 0.  1.
         23    2    1    2    0    0 -0.26697643162E+02 -0.36987629606E+02  0.16723856080E+02  0.10219857455E+03  0.89911136036E+02 0.  0.
         23    2    1    2    0    0 -0.12367545816E+03  0.56261315601E+02 -0.66677054934E+02  0.17665751166E+03  0.91110329760E+02 0.  0.
        -11    1    4    4    0    0 -0.62261199947E+02  0.74731029592E+02 -0.54110475121E+02  0.11130645678E+03  0.00000000000E+00 0.  1.
         11    1    4    4    0    0 -0.61414258211E+02 -0.18469713991E+02 -0.12566579813E+02  0.65351054886E+02  0.00000000000E+00 0. -1.
        -13    1    3    3    0    0 -0.35566985746E+02 -0.62112344495E+02  0.22317488639E+02  0.74973489400E+02  0.00000000000E+00 0.  1.
         13    1    3    3    0    0  0.88693425840E+01  0.25124714889E+02 -0.55936325597E+01  0.27225085148E+02  0.00000000000E+00 0. -1.
         -1    1    1    2    0  502  0.15037310132E+03 -0.19273685995E+02 -0.77528818563E+02  0.17027701630E+03  0.00000000000E+00 0.  1.
<scales pt_clust_5="13000.00000" pt_clust_6="13000.00000" pt_clust_7="13000.00000" pt_clust_8="13000.00000" pt_clust_9="13000.00000"></scales>
<clustering>
<clus scale="   89.911">  7  8 -1 -1</clus>
<clus scale="   91.110">  5  6 -1 -1</clus>
<clus scale="  100.821">  1  7  2 -1</clus>
<clus scale="  142.822">  5  9 -1 -1</clus>
<clus scale="  315.544">  2  5  1 -1</clus>
</clustering>
</event>
<event>
 9    1  0.3303741E-006  0.1798848E+03  0.7546771E-02  0.1187610E+00
         21   -1    0    0  501  502  0.00000000000E+00  0.00000000000E+00  0.66982060596E+03  0.66982060596E+03  0.00000000000E+00 0.  1.
          1   -1    0    0  502    0 -0.00000000000E+00 -0.00000000000E+00 -0.37435939270E+02  0.37435939270E+02  0.00000000000E+00 0. -1.
         23    2    1    2    0    0  0.60950340143E+02  0.36404465417E+02  0.13077118490E+03  0.17436384467E+03  0.90892345447E+02 0.  0.
         23    2    1    2    0    0 -0.56402068369E+02 -0.78282705101E+02  0.41785542974E+03  0.43913831391E+03  0.94498271619E+02 0.  0.
        -11    1    3    3    0    0  0.45448891665E+02  0.59394407538E+02  0.52634484441E+02  0.91453192141E+02  0.00000000000E+00 0. -1.
         11    1    3    3    0    0  0.15501448477E+02 -0.22989942120E+02  0.78136700459E+02  0.82910652525E+02  0.00000000000E+00 0.  1.
        -13    1    4    4    0    0 -0.42641497665E+02 -0.10029682300E+03  0.33037790635E+03  0.34788979725E+03  0.00000000000E+00 0.  1.
         13    1    4    4    0    0 -0.13760570704E+02  0.22014117894E+02  0.87477523393E+02  0.91248516655E+02  0.00000000000E+00 0. -1.
          1    1    1    2  501    0 -0.45482717736E+01  0.41878239683E+02  0.83758052051E+02  0.93754386662E+02  0.00000000000E+00 0. -1.
<scales pt_clust_5="13000.00000" pt_clust_6="13000.00000" pt_clust_7="13000.00000" pt_clust_8="13000.00000" pt_clust_9="13000.00000"></scales>
<clustering>
<clus scale="   90.892">  5  6 -1 -1</clus>
<clus scale="   94.498">  7  8 -1 -1</clus>
<clus scale="   42.125">  7  9 -1 -1</clus>
<clus scale="  115.333">  2  5  1 -1</clus>
<clus scale="  179.885">  1  5  2 -1</clus>
</clustering>
</event>
<event>
 9    1  0.3303741E-006  0.1986619E+03  0.7546771E-02  0.1182055E+00
         21   -1    0    0  501  502  0.00000000000E+00  0.00000000000E+00  0.85205390745E+02  0.85205390745E+02  0.00000000000E+00 0.  1.
         -4   -1    0    0    0  501 -0.00000000000E+00 -0.00000000000E+00 -0.35011070870E+03  0.35011070870E+03  0.00000000000E+00 0.  1.
         23    2    1    2    0    0 -0.68851458332E+01  0.34984311255E+02 -0.20671884277E+03  0.22830834382E+03  0.90114996720E+02 0.  0.
         23    2    1    2    0    0 -0.32327508371E+02 -0.86269110930E+02 -0.21730809358E+02  0.13286749329E+03  0.93242240432E+02 0.  0.
        -11    1    4    4    0    0  0.31262351310E+02 -0.19292838922E+02  0.41096436133E+01  0.36965354235E+02  0.00000000000E+00 0. -1.
         11    1    4    4    0    0 -0.63589859681E+02 -0.66976272008E+02 -0.25840452971E+02  0.95902139059E+02  0.00000000000E+00 0.  1.
        -11    1    3    3    0    0 -0.32963489789E+02  0.48786080859E+02 -0.17655268967E+03  0.18611159441E+03  0.00000000000E+00 0.  1.
         11    1    3    3    0    0  0.26078343955E+02 -0.13801769604E+02 -0.30166153100E+02  0.42196749407E+02  0.00000000000E+00 0. -1.
         -4    1    1    2    0  502  0.39212654204E+02  0.51284799675E+02 -0.36455665824E+02  0.74140262329E+02  0.00000000000E+00 0.  1.
<scales pt_clust_5="13000.00000" pt_clust_6="13000.00000" pt_clust_7="13000.00000" pt_clust_8="13000.00000" pt_clust_9="13000.00000"></scales>
<clustering>
<clus scale="   90.115">  7  8 -1 -1</clus>
<clus scale="   93.242">  5  6 -1 -1</clus>
<clus scale="   64.558">  5  9 -1 -1</clus>
<clus scale="   96.912">  2  7  1 -1</clus>
<clus scale="  198.662">  1  5  2 -1</clus>
</clustering>
</event>
<event>
 9    1  0.3303741E-006  0.1791293E+03  0.7546771E-02  0.1196356E+00
          4   -1    0    0  502    0 -0.00000000000E+00  0.00000000000E+00  0.81314784218E+02  0.81314784218E+02  0.00000000000E+00 0. -1.
         21   -1    0    0  501  502  0.00000000000E+00 -0.00000000000E+00 -0.23883264535E+03  0.23883264535E+03  0.00000000000E+00 0. -1.
         23    2    1    2    0    0 -0.31631376657E+01 -0.27814562140E+01 -0.32373997248E+02  0.10163357776E+03  0.96247423303E+02 0.  0.
         23    2    1    2    0    0 -0.19497156151E+02 -0.14318657362E+02 -0.54226661991E+01  0.95472931883E+02  0.92198223232E+02 0.  0.
        -11    1    4    4    0    0 -0.25074893852E+02 -0.42118735482E+02  0.24029114385E+02  0.54590626653E+02  0.00000000000E+00 0. -1.
         11    1    4    4    0    0  0.55777377016E+01  0.27800078120E+02 -0.29451780584E+02  0.40882305230E+02  0.00000000000E+00 0.  1.
        -13    1    3    3    0    0 -0.37819321339E+02  0.28736798904E+02 -0.60039351392E+01  0.47876423372E+02  0.00000000000E+00 0.  1.
         13    1    3    3    0    0  0.34656183673E+02 -0.31518255118E+02 -0.26370062109E+02  0.53757154390E+02  0.00000000000E+00 0. -1.
          4    1    1    2  501    0  0.22660293816E+02  0.17100113576E+02 -0.11972119769E+03  0.12304091992E+03  0.00000000000E+00 0. -1.
<scales pt_clust_5="13000.00000" pt_clust_6="13000.00000" pt_clust_7="13000.00000" pt_clust_8="13000.00000" pt_clust_9="13000.00000"></scales>
<clustering>
<clus scale="   92.198">  5  6 -1 -1</clus>
<clus scale="   28.388">  5  9 -1 -1</clus>
<clus scale="   96.247">  7  8 -1 -1</clus>
<clus scale="   96.340">  1  7  2 -1</clus>
<clus scale="  179.129">  2  5  1 -1</clus>
</clustering>
</event>
<event>
 9    1  0.3303741E-006  0.4658457E+03  0.7546771E-02  0.1073937E+00
          3   -1    0    0  502    0 -0.00000000000E+00  0.00000000000E+00  0.12603440097E+04  0.12603440097E+04  0.00000000000E+00 0. -1.
         21   -1    0    0  501  502  0.00000000000E+00 -0.00000000000E+00 -0.69683592633E+02  0.69683592633E+02  0.00000000000E+00 0. -1.
         23    2    1    2    0    0 -0.80961609164E+01 -0.64258490155E+02  0.11711077351E+03  0.15976220831E+03  0.87260120065E+02 0.  0.
         23    2    1    2    0    0  0.11258268059E+03  0.21950187150E+03  0.77520976931E+03  0.81809409931E+03  0.86439790300E+02 0.  0.
        -11    1    4    4    0    0  0.26676344941E+02  0.22075243145E+01  0.10346173853E+03  0.10686829222E+03  0.00000000000E+00 0.  1.
         11    1    4    4    0    0  0.85906335647E+02  0.21729434718E+03  0.67174803077E+03  0.71122580709E+03  0.00000000000E+00 0. -1.
        -13    1    3    3    0    0 -0.20351493786E+02 -0.33285671753E+02  0.12013945642E+03  0.12631551066E+03  0.00000000000E+00 0.  1.
         13    1    3    3    0    0  0.12255332869E+02 -0.30972818402E+02 -0.30286829164E+01  0.33446697650E+02  0.00000000000E+00 0. -1.
          3    1    1    2  501    0 -0.10448651967E+03 -0.15524338134E+03  0.29833987421E+03  0.35217129467E+03  0.00000000000E+00 0. -1.
<scales pt_clust_5="13000.00000" pt_clust_6="13000.00000" pt_clust_7="13000.00000" pt_clust_8="13000.00000" pt_clust_9="13000.00000"></scales>
<clustering>
<clus scale="   86.440">  5  6 -1 -1</clus>
<clus scale="   87.260">  7  8 -1 -1</clus>
<clus scale="  108.669">  1  7  2 -1</clus>
<clus scale="  204.072">  5  9 -1 -1</clus>
<clus scale="  465.846">  2  5  1 -1</clus>
</clustering>
</event>
<event>
 9    1  0.3303741E-006  0.2321218E+03  0.7546771E-02  0.1147966E+00
         21   -1    0    0  501  502  0.00000000000E+00  0.00000000000E+00  0.34061870130E+02  0.34061870130E+02  0.00000000000E+00 0. -1.
          2   -1    0    0  502    0 -0.00000000000E+00 -0.00000000000E+00 -0.12795609910E+04  0.12795609910E+04  0.00000000000E+00 0. -1.
         23    2    1    2    0    0 -0.97025792024E+02  0.11904903920E+02 -0.18548411128E+03  0.22849044550E+03  0.90817383208E+02 0.  0.
         23    2    1    2    0    0 -0.30823460447E+02 -0.29686229426E+02 -0.52773791422E+03  0.53742764739E+03  0.92140176602E+02 0.  0.
        -11    1    3    3    0    0 -0.74601798045E+02 -0.24965586198E+02 -0.70354790214E+02  0.10553911726E+03  0.00000000000E+00 0. -1.
         11    1    3    3    0    0 -0.22423993979E+02  0.36870490118E+02 -0.11512932106E+03  0.12295132824E+03  0.00000000000E+00 0.  1.
        -13    1    4    4    0    0 -0.14402427325E+02  0.33293613659E+02 -0.20663403095E+03  0.20979398792E+03  0.00000000000E+00 0.  1.
         13    1    4    4    0    0 -0.16421033122E+02 -0.62979843085E+02 -0.32110388327E+03  0.32763365947E+03  0.00000000000E+00 0. -1.
          2    1    1    2  501    0  0.12784925247E+03  0.17781325506E+02 -0.53227709540E+03  0.54770476826E+03  0.00000000000E+00 0. -1.
<scales pt_clust_5="13000.00000" pt_clust_6="13000.00000" pt_clust_7="13000.00000" pt_clust_8="13000.00000" pt_clust_9="13000.00000"></scales>
<clustering>
<clus scale="   90.817">  5  6 -1 -1</clus>
<clus scale="   92.140">  7  8 -1 -1</clus>
<clus scale="  129.080">  7  9 -1 -1</clus>
<clus scale="  133.430">  2  5  1 -1</clus>
<clus scale="  232.122">  1  5  2 -1</clus>
</clustering>
</event>
<event>
 9    1  0.3303741E-006  0.1493931E+03  0.7546771E-02  0.1224122E+00
         21   -1    0    0  501  502  0.00000000000E+00  0.00000000000E+00  0.43707221011E+03  0.43707221011E+03  0.00000000000E+00 0.  1.
          1   -1    0    0  502    0 -0.00000000000E+00 -0.00000000000E+00 -0.48127631568E+02  0.48127631568E+02  0.00000000000E+00 0. -1.
         23    2    1    2    0    0 -0.15243906927E+02 -0.39940019434E+01  0.30291958429E+02  0.96676993233E+02  0.90446169213E+02 0.  0.
         23    2    1    2    0    0 -0.29961049907E+02  0.20521018568E+02  0.25991358525E+03  0.27867737786E+03  0.93740239073E+02 0.  0.
        -11    1    3    3    0    0 -0.42377219148E+02 -0.31703735060E+02  0.15218837380E+02  0.55068761841E+02  0.00000000000E+00 0.  1.
         11    1    3    3    0    0  0.27133312221E+02  0.27709733117E+02  0.15073121049E+02  0.41608231393E+02  0.00000000000E+00 0. -1.
        -13    1    4    4    0    0  0.24043326867E+02  0.12090749855E+02  0.22576894585E+02  0.35128107947E+02  0.00000000000E+00 0. -1.
         13    1    4    4    0    0 -0.54004376774E+02  0.84302687135E+01  0.23733669066E+03  0.24354926992E+03  0.00000000000E+00 0.  1.
          1    1    1    2  501    0  0.45204956834E+02 -0.16527016625E+02  0.98739034865E+02  0.10984547058E+03  0.00000000000E+00 0. -1.
<scales pt_clust_5="13000.00000" pt_clust_6="13000.00000" pt_clust_7="13000.00000" pt_clust_8="13000.00000" pt_clust_9="13000.00000"></scales>
<clustering>
<clus scale="   90.446">  5  6 -1 -1</clus>
<clus scale="   91.809">  2  5  1 -1</clus>
<clus scale="   93.740">  7  8 -1 -1</clus>
<clus scale="   43.447">  7  9 -1 -1</clus>
<clus scale="  149.393">  1  5  2 -1</clus>
</clustering>
</event>
<event>
 9    1  0.3303741E-006  0.7395759E+03  0.7546771E-02  0.1027426E+00
         21   -1    0    0  501  502  0.00000000000E+00  0.00000000000E+00  0.22667857913E+03  0.22667857913E+03  0.00000000000E+00 0. -1.
          2   -1    0    0  502    0 -0.00000000000E+00 -0.00000000000E+00 -0.10555845285E+04  0.10555845285E+04  0.00000000000E+00 0. -1.
         23    2    1    2    0    0  0.33078757281E+02  0.40939900476E+02 -0.42994459622E+03  0.44194017221E+03  0.87683980092E+02 0.  0.
         23    2    1    2    0    0 -0.19685212881E+03 -0.29187380373E+03 -0.30633095492E+02  0.36550165702E+03  0.93338078097E+02 0.  0.
        -11    1    4    4    0    0 -0.14791279646E+02 -0.54792901053E+02 -0.34759257788E+02  0.66552610477E+02  0.00000000000E+00 0.  1.
         11    1    4    4    0    0 -0.18206084916E+03 -0.23708090268E+03  0.41261622961E+01  0.29894904654E+03  0.00000000000E+00 0. -1.
        -13    1    3    3    0    0 -0.65014774148E+01  0.58544464636E+02 -0.25419396861E+03  0.26092967869E+03  0.00000000000E+00 0.  1.
         13    1    3    3    0    0  0.39580234695E+02 -0.17604564160E+02 -0.17575062761E+03  0.18101049352E+03  0.00000000000E+00 0. -1.
          2    1    1    2  501    0  0.16377337153E+03  0.25093390326E+03 -0.36832825770E+03  0.47482127843E+03  0.00000000000E+00 0. -1.
<scales pt_clust_5="13000.00000" pt_clust_6="13000.00000" pt_clust_7="13000.00000" pt_clust_8="13000.00000" pt_clust_9="13000.00000"></scales>
<clustering>
<clus scale="   87.684">  7  8 -1 -1</clus>
<clus scale="   93.338">  5  6 -1 -1</clus>
<clus scale="  102.268">  2  7  1 -1</clus>
<clus scale="  335.294">  5  9 -1 -1</clus>
<clus scale="  739.576">  1  5  2 -1</clus>
</clustering>
</event>
<event>
 9    1  0.3303741E-006  0.2201048E+03  0.7546771E-02  0.1152376E+00
         21   -1    0    0  501  502  0.00000000000E+00  0.00000000000E+00  0.10689115797E+03  0.10689115797E+03  0.00000000000E+00 0.  1.
         -4   -1    0    0    0  501 -0.00000000000E+00 -0.00000000000E+00 -0.37878695702E+03  0.37878695702E+03  0.00000000000E+00 0.  1.
         23    2    1    2    0    0  0.10454602206E+03  0.31538616007E+02 -0.21709603055E+03  0.25885409293E+03  0.89163893590E+02 0.  0.
         23    2    1    2    0    0  0.16937835429E+02 -0.10718175651E+02 -0.37762671708E+02  0.10239701119E+03  0.93044929829E+02 0.  0.
        -11    1    3    3    0    0  0.78106442322E+02 -0.20175678775E+02 -0.10305030929E+03  0.13087031975E+03  0.00000000000E+00 0.  1.
         11    1    3    3    0    0  0.26439579740E+02  0.51714294782E+02 -0.11404572125E+03  0.12798377318E+03  0.00000000000E+00 0. -1.
        -13    1    4    4    0    0 -0.11644921850E+02 -0.44493865729E+02 -0.35487371181E+02  0.58091839407E+02  0.00000000000E+00 0. -1.
         13    1    4    4    0    0  0.28582757279E+02  0.33775690077E+02 -0.22753005264E+01  0.44305171778E+02  0.00000000000E+00 0.  1.
         -4    1    1    2    0  502 -0.12148385749E+03 -0.20820440356E+02 -0.17037096795E+02  0.12442701087E+03  0.00000000000E+00 0.  1.
<scales pt_clust_5="13000.00000" pt_clust_6="13000.00000" pt_clust_7="13000.00000" pt_clust_8="13000.00000" pt_clust_9="13000.00000"></scales>
<clustering>
<clus scale="   89.164">  5  6 -1 -1</clus>
<clus scale="   93.045">  7  8 -1 -1</clus>
<clus scale="  123.255">  7  9 -1 -1</clus>
<clus scale="  140.978">  2  5  1 -1</clus>
<clus scale="  220.105">  1  5  2 -1</clus>
</clustering>
</event>
<event>
 9    1  0.3303741E-006  0.6670046E+03  0.7546771E-02  0.1038771E+00
          2   -1    0    0  502    0 -0.00000000000E+00  0.00000000000E+00  0.90922998566E+03  0.90922998566E+03  0.00000000000E+00 0. -1.
         21   -1    0    0  501  502  0.00000000000E+00 -0.00000000000E+00 -0.16635855715E+03  0.16635855715E+03  0.00000000000E+00 0. -1.
         23    2    1    2    0    0 -0.26764190933E+02  0.31413245777E+02  0.42563222774E+02  0.10846562873E+03  0.90829790025E+02 0.  0.
         23    2    1    2    0    0 -0.23717118663E+02 -0.32406910278E+03  0.22165354334E+03  0.40382361613E+03  0.91432677816E+02 0.  0.
        -13    1    4    4    0    0  0.20450887983E+02 -0.86841395720E+02  0.98538739155E+02  0.13292685938E+03  0.00000000000E+00 0.  1.
         13    1    4    4    0    0 -0.44168006646E+02 -0.23722770706E+03  0.12311480419E+03  0.27089675675E+03  0.00000000000E+00 0. -1.
        -13    1    3    3    0    0  0.13497868107E+02 -0.23738641777E+02 -0.12456988566E+01  0.27336190709E+02  0.00000000000E+00 0.  1.
         13    1    3    3    0    0 -0.40262059040E+02  0.55151887555E+02  0.43808921630E+02  0.81129438020E+02  0.00000000000E+00 0. -1.
          2    1    1    2  501    0  0.50481309596E+02  0.29265585700E+03  0.47865466239E+03  0.56329929796E+03  0.00000000000E+00 0. -1.
<scales pt_clust_5="13000.00000" pt_clust_6="13000.00000" pt_clust_7="13000.00000" pt_clust_8="13000.00000" pt_clust_9="13000.00000"></scales>
<clustering>
<clus scale="   90.830">  7  8 -1 -1</clus>
<clus scale="   91.433">  5  6 -1 -1</clus>
<clus scale="   99.766">  1  7  2 -1</clus>
<clus scale="  314.105">  5  9 -1 -1</clus>
<clus scale="  667.005">  2  5  1 -1</clus>
</clustering>
</event>
<event>
 9    1  0.3303741E-006  0.1737741E+03  0.7546771E-02  0.1201454E+00
          2   -1    0    0  502    0 -0.00000000000E+00  0.00000000000E+00  0.26441714424E+03  0.26441714424E+03  0.00000000000E+00 0. -1.
         21   -1    0    0  501  502  0.00000000000E+00 -0.00000000000E+00 -0.95928963333E+02  0.95928963333E+02  0.00000000000E+00 0.  1.
         23    2    1    2    0    0 -0.85892081885E+01 -0.25771151039E+02 -0.27546929769E+02  0.98378163635E+02  0.90451661219E+02 0.  0.
         23    2    1    2    0    0  0.44657041874E+02 -0.31123554330E+02  0.11594269975E+03  0.15731284175E+03  0.91332872129E+02 0.  0.
        -11    1    4    4    0    0  0.20620925064E+02 -0.55561032590E+02  0.33613430686E+02  0.68133058169E+02  0.00000000000E+00 0.  1.
         11    1    4    4    0    0  0.24036116810E+02  0.24437478260E+02  0.82329269065E+02  0.89179783582E+02  0.00000000000E+00 0. -1.
        -13    1    3    3    0    0 -0.28550064141E+02 -0.46211816706E+02 -0.39750482552E+02  0.67310764584E+02  0.00000000000E+00 0.  1.
         13    1    3    3    0    0  0.19960855953E+02  0.20440665666E+02  0.12203552784E+02  0.31067399051E+02  0.00000000000E+00 0. -1.
          2    1    1    2  501    0 -0.36067833685E+02  0.56894705370E+02  0.80092410926E+02  0.10465510219E+03  0.00000000000E+00 0. -1.
<scales pt_clust_5="13000.00000" pt_clust_6="13000.00000" pt_clust_7="13000.00000" pt_clust_8="13000.00000" pt_clust_9="13000.00000"></scales>
<clustering>
<clus scale="   90.452">  7  8 -1 -1</clus>
<clus scale="   91.333">  5  6 -1 -1</clus>
<clus scale="   67.364">  5  9 -1 -1</clus>
<clus scale="   94.443">  1  7  2 -1</clus>
<clus scale="  173.774">  2  5  1 -1</clus>
</clustering>
</event>
<event>
 9    1  0.3303741E-006  0.1577307E+03  0.7546771E-02  0.1207565E+00
         21   -1    0    0  501  502  0.00000000000E+00  0.00000000000E+00  0.40164051874E+02  0.40164051874E+02  0.00000000000E+00 0. -1.
          2   -1    0    0  502    0 -0.00000000000E+00 -0.00000000000E+00 -0.46193015931E+03  0.46193015931E+03  0.00000000000E+00 0. -1.
         23    2    1    2    0    0  0.41321548580E+01  0.60888357503E+02 -0.21712621838E+03  0.24372149914E+03  0.92368326025E+02 0.  0.
         23    2    1    2    0    0 -0.37055473293E+02  0.82842819894E+01 -0.93380213460E+02  0.12328935124E+03  0.70983536368E+02 0.  0.
        -11    1    4    4    0    0 -0.15613311661E+02 -0.24424199439E+02 -0.91104221653E+01  0.30386128600E+02  0.00000000000E+00 0.  1.
         11    1    4    4    0    0 -0.21442161632E+02  0.32708481428E+02 -0.84269791294E+02  0.92903222644E+02  0.00000000000E+00 0. -1.
        -13    1    3    3    0    0  0.16596470189E+02 -0.13395135048E+02 -0.10455054597E+02  0.23752486866E+02  0.00000000000E+00 0.  1.
         13    1    3    3    0    0 -0.12464315331E+02  0.74283492551E+02 -0.20667116378E+03  0.21996901227E+03  0.00000000000E+00 0. -1.
          2    1    1    2  501    0  0.32923318435E+02 -0.69172639492E+02 -0.11125967560E+03  0.13508336080E+03  0.00000000000E+00 0. -1.
<scales pt_clust_5="13000.00000" pt_clust_6="13000.00000" pt_clust_7="13000.00000" pt_clust_8="13000.00000" pt_clust_9="13000.00000"></scales>
<clustering>
<clus scale="   70.984">  5  6 -1 -1</clus>
<clus scale="   76.608">  5  9 -1 -1</clus>
<clus scale="   92.368">  7  8 -1 -1</clus>
<clus scale="  110.709">  2  7  1 -1</clus>
<clus scale="  157.731">  1  5  2 -1</clus>
</clustering>
</event>
<event>
 9    1  0.3303741E-006  0.2303176E+03  0.7546771E-02  0.1173256E+00
          3   -1    0    0  502    0 -0.00000000000E+00  0.00000000000E+00  0.12823373369E+03  0.12823373369E+03  0.00000000000E+00 0. -1.
         21   -1    0    0  501  502  0.00000000000E+00 -0.00000000000E+00 -0.21377818215E+03  0.21377818215E+03  0.00000000000E+00 0. -1.
         23    2    1    2    0    0  0.48026988552E+02  0.60280988349E+01 -0.81946228355E+02  0.11166621537E+03  0.58405733531E+02 0.  0.
         23    2    1    2    0    0 -0.77136107202E+02  0.66836940645E+02 -0.14820887589E+02  0.15108282749E+03  0.11040473896E+03 0.  0.
        -11    1    3    3    0    0  0.90202203524E+01  0.20831533401E+02 -0.60784212432E+02  0.64884802844E+02  0.00000000000E+00 0. -1.
         11    1    3    3    0    0  0.39006768200E+02 -0.14803434567E+02 -0.21162015922E+02  0.46781412530E+02  0.00000000000E+00 0.  1.
        -13    1    4    4    0    0 -0.17095781284E+02  0.34201718125E+02  0.45848959331E+02  0.59700505292E+02  0.00000000000E+00 0.  1.
         13    1    4    4    0    0 -0.60040325919E+02  0.32635222520E+02 -0.60669846920E+02  0.91382322200E+02  0.00000000000E+00 0. -1.
          3    1    1    2  501    0  0.29109118650E+02 -0.72865039480E+02  0.11222667489E+02  0.79262872977E+02  0.00000000000E+00 0. -1.
<scales pt_clust_5="13000.00000" pt_clust_6="13000.00000" pt_clust_7="13000.00000" pt_clust_8="13000.00000" pt_clust_9="13000.00000"></scales>
<clustering>
<clus scale="   58.406">  5  6 -1 -1</clus>
<clus scale="   75.856">  1  5  2 -1</clus>
<clus scale="  110.405">  7  8 -1 -1</clus>
<clus scale="   85.411">  7  9 -1 -1</clus>
<clus scale="  230.318">  2  5  1 -1</clus>
</clustering>
</event>
<event>
 9    1  0.3303741E-006  0.2653888E+03  0.7546771E-02  0.1112520E+00
         21   -1    0    0  501  502  0.00000000000E+00  0.00000000000E+00  0.60370813149E+03  0.60370813149E+03  0.00000000000E+00 0. -1.
          3   -1    0    0  502    0 -0.00000000000E+00 -0.00000000000E+00 -0.94841690121E+02  0.94841690121E+02  0.00000000000E+00 0. -1.
         23    2    1    2    0    0 -0.53177540609E+02  0.18013271972E+03  0.22613014127E+03  0.31077281770E+03  0.10084272851E+03 0.  0.
         23    2    1    2    0    0 -0.30723880794E+02 -0.54643500008E+02  0.86565181675E+02  0.14024902473E+03  0.90809632276E+02 0.  0.
        -11    1    3    3    0    0 -0.12623707546E+02  0.50979164563E+02  0.66984340122E+01  0.52944331425E+02  0.00000000000E+00 0.  1.
         11    1    3    3    0    0 -0.40553833063E+02  0.12915355515E+03  0.21943170726E+03  0.25782848628E+03  0.00000000000E+00 0. -1.
        -13    1    4    4    0    0 -0.33927369543E+02  0.15047400008E+02  0.47537346591E+02  0.60309949196E+02  0.00000000000E+00 0.  1.
         13    1    4    4    0    0  0.32034887493E+01 -0.69690900016E+02  0.39027835084E+02  0.79939075530E+02  0.00000000000E+00 0. -1.
          3    1    1    2  501    0  0.83901421403E+02 -0.12548921971E+03  0.19617111842E+03  0.24752797919E+03  0.00000000000E+00 0. -1.
<scales pt_clust_5="13000.00000" pt_clust_6="13000.00000" pt_clust_7="13000.00000" pt_clust_8="13000.00000" pt_clust_9="13000.00000"></scales>
<clustering>
<clus scale="   90.810">  7  8 -1 -1</clus>
<clus scale="  100.843">  5  6 -1 -1</clus>
<clus scale="  150.954">  7  9 -1 -1</clus>
<clus scale="  213.178">  2  5  1 -1</clus>
<clus scale="  265.389">  1  5  2 -1</clus>
</clustering>
</event>
<event>
 9    1  0.6672104E-006  0.6857861E+03  0.7546771E-02  0.1028930E+00
         21   -1    0    0  501  502  0.00000000000E+00  0.00000000000E+00  0.57057514312E+03  0.57057514312E+03  0.00000000000E+00 0. -1.
          3   -1    0    0  502    0 -0.00000000000E+00 -0.00000000000E+00 -0.29379110084E+03  0.29379110084E+03  0.00000000000E+00 0. -1.
         23    2    1    2    0    0  0.29462386397E+02 -0.56180521286E+02  0.94319954574E+02  0.15472149983E+03  0.10496764023E+03 0.  0.
         23    2    1    2    0    0  0.64510594656E+02  0.71454669053E+01 -0.24469746761E+03  0.26952845033E+03  0.92498974939E+02 0.  0.
        -11    1    4    4    0    0  0.44604650523E+02 -0.17287930400E+02 -0.22969593966E+03  0.23462453427E+03  0.00000000000E+00 0. -1.
         11    1    4    4    0    0  0.19905944133E+02  0.24433397305E+02 -0.15001527950E+02  0.34903916063E+02  0.00000000000E+00 0.  1.
        -13    1    3    3    0    0 -0.24083290444E+02  0.16187012723E+02  0.40548106228E+02  0.49861540070E+02  0.00000000000E+00 0. -1.
         13    1    3    3    0    0  0.53545676841E+02 -0.72367534009E+02  0.53771848346E+02  0.10485995976E+03  0.00000000000E+00 0.  1.
          3    1    1    2  501    0 -0.93972981054E+02  0.49035054381E+02  0.42716155531E+03  0.44011629379E+03  0.00000000000E+00 0. -1.
<scales pt_clust_5="13000.00000" pt_clust_6="13000.00000" pt_clust_7="13000.00000" pt_clust_8="13000.00000" pt_clust_9="13000.00000"></scales>
<clustering>
<clus scale="   92.499">  5  6 -1 -1</clus>
<clus scale="  104.968">  7  8 -1 -1</clus>
<clus scale="  105.997">  5  9 -1 -1</clus>
<clus scale="  122.648">  2  7  1 -1</clus>
<clus scale="  685.786">  1  5  2 -1</clus>
</clustering>
</event>
<event>
 9    1  0.3303741E-006  0.3272587E+03  0.7546771E-02  0.1087520E+00
         21   -1    0    0  501  502  0.00000000000E+00  0.00000000000E+00  0.12832800111E+03  0.12832800111E+03  0.00000000000E+00 0. -1.
          1   -1    0    0  502    0 -0.00000000000E+00 -0.00000000000E+00 -0.68664783495E+03  0.68664783495E+03  0.00000000000E+00 0. -1.
         23    2    1    2    0    0  0.18599615486E+03 -0.66129960264E+02 -0.39100369183E+03  0.44742590304E+03  0.91314349463E+02 0.  0.
         23    2    1    2    0    0  0.11512198865E+02 -0.19056276771E+01  0.11630860061E+02  0.92485539533E+02  0.91006241420E+02 0.  0.
        -11    1    4    4    0    0 -0.21296245455E+02 -0.23045592159E+01 -0.31623097125E+02  0.38195043336E+02  0.00000000000E+00 0.  1.
         11    1    4    4    0    0  0.32808444320E+02  0.39893153879E+00  0.43253957186E+02  0.54290496197E+02  0.00000000000E+00 0. -1.
        -13    1    3    3    0    0  0.12209464583E+03  0.20130928501E+01 -0.19127643598E+03  0.22693133332E+03  0.00000000000E+00 0. -1.
         13    1    3    3    0    0  0.63901509030E+02 -0.68143053114E+02 -0.19972725585E+03  0.22049456971E+03  0.00000000000E+00 0.  1.
          1    1    1    2  501    0 -0.19750835372E+03  0.68035587941E+02 -0.17894700207E+03  0.27506439350E+03  0.00000000000E+00 0. -1.
<scales pt_clust_5="13000.00000" pt_clust_6="13000.00000" pt_clust_7="13000.00000" pt_clust_8="13000.00000" pt_clust_9="13000.00000"></scales>
<clustering>
<clus scale="   91.006">  5  6 -1 -1</clus>
<clus scale="   91.314">  7  8 -1 -1</clus>
<clus scale="  208.898">  5  9 -1 -1</clus>
<clus scale="  217.500">  2  7  1 -1</clus>
<clus scale="  327.259">  1  5  2 -1</clus>
</clustering>
</event>
<event>
 9    1  0.3303741E-006  0.2091635E+03  0.7546771E-02  0.1150666E+00
          3   -1    0    0  502    0 -0.00000000000E+00  0.00000000000E+00  0.51542255385E+03  0.51542255385E+03  0.00000000000E+00 0. -1.
         21   -1    0    0  501  502  0.00000000000E+00 -0.00000000000E+00 -0.70886952245E+02  0.70886952245E+02  0.00000000000E+00 0. -1.
         23    2    1    2    0    0 -0.75660316583E+02 -0.12133293447E+03  0.16985883322E+03  0.24106073621E+03  0.93872737389E+02 0.  0.
         23    2    1    2    0    0  0.54741520255E+02  0.25462392932E+02  0.16686438005E+03  0.19946719405E+03  0.91095953145E+02 0.  0.
        -11    1    3    3    0    0  0.18415773356E+02 -0.33351689399E+02  0.18620592505E+02  0.42405216180E+02  0.00000000000E+00 0.  1.
         11    1    3    3    0    0 -0.94076089938E+02 -0.87981245074E+02  0.15123824072E+03  0.19865552003E+03  0.00000000000E+00 0. -1.
        -13    1    4    4    0    0 -0.68471627446E+01 -0.22136174053E+02  0.77826231376E+02  0.81202316036E+02  0.00000000000E+00 0.  1.
         13    1    4    4    0    0  0.61588682999E+02  0.47598566985E+02  0.89038148676E+02  0.11826487802E+03  0.00000000000E+00 0. -1.
          3    1    1    2  501    0  0.20918796328E+02  0.95870541541E+02  0.10781238833E+03  0.14578157583E+03  0.00000000000E+00 0. -1.
<scales pt_clust_5="13000.00000" pt_clust_6="13000.00000" pt_clust_7="13000.00000" pt_clust_8="13000.00000" pt_clust_9="13000.00000"></scales>
<clustering>
<clus scale="   91.096">  7  8 -1 -1</clus>
<clus scale="   93.873">  5  6 -1 -1</clus>
<clus scale="   98.126">  7  9 -1 -1</clus>
<clus scale="  171.051">  1  5  2 -1</clus>
<clus scale="  209.164">  2  5  1 -1</clus>
</clustering>
</event>
<event>
 9    1  0.3303741E-006  0.1756269E+03  0.7546771E-02  0.1197219E+00
         -2   -1    0    0    0  501 -0.00000000000E+00  0.00000000000E+00  0.21461665300E+03  0.21461665300E+03  0.00000000000E+00 0.  1.
         21   -1    0    0  501  502  0.00000000000E+00 -0.00000000000E+00 -0.11875101192E+03  0.11875101192E+03  0.00000000000E+00 0. -1.
         23    2    1    2    0    0 -0.40779993859E+02 -0.50501833121E+01  0.11965305252E+03  0.15613717508E+03  0.91506569244E+02 0.  0.
         23    2    1    2    0    0 -0.16203138867E-01  0.57044678426E+02 -0.21007432037E+02  0.11108303715E+03  0.92973293708E+02 0.  0.
        -11    1    4    4    0    0 -0.45856025121E+01  0.82749291601E+02 -0.13989693340E+02  0.84048703325E+02  0.00000000000E+00 0. -1.
         11    1    4    4    0    0  0.45693993733E+01 -0.25704613175E+02 -0.70177386975E+01  0.27034333828E+02  0.00000000000E+00 0.  1.
        -13    1    3    3    0    0 -0.63830507887E+02 -0.11429008794E+02  0.11462722296E+03  0.13169797350E+03  0.00000000000E+00 0.  1.
         13    1    3    3    0    0  0.23050514028E+02  0.63788254820E+01  0.50258295593E+01  0.24439201587E+02  0.00000000000E+00 0. -1.
         -2    1    1    2    0  502  0.40796196998E+02 -0.51994495114E+02 -0.27799793973E+01  0.66147452688E+02  0.00000000000E+00 0.  1.
<scales pt_clust_5="13000.00000" pt_clust_6="13000.00000" pt_clust_7="13000.00000" pt_clust_8="13000.00000" pt_clust_9="13000.00000"></scales>
<clustering>
<clus scale="   91.507">  7  8 -1 -1</clus>
<clus scale="   92.973">  5  6 -1 -1</clus>
<clus scale="   66.089">  5  9 -1 -1</clus>
<clus scale="  100.309">  1  7  2 -1</clus>
<clus scale="  175.627">  2  5  1 -1</clus>
</clustering>
</event>
<event>
 9    1  0.3303741E-006  0.3584746E+03  0.7546771E-02  0.1106436E+00
         21   -1    0    0  501  502  0.00000000000E+00  0.00000000000E+00  0.12789440924E+03  0.12789440924E+03  0.00000000000E+00 0. -1.
          2   -1    0    0  502    0 -0.00000000000E+00 -0.00000000000E+00 -0.41770413981E+03  0.41770413981E+03  0.00000000000E+00 0. -1.
         23    2    1    2    0    0  0.31445481703E+02  0.26134166401E+02 -0.89468162815E+02  0.13493958058E+03  0.92370586647E+02 0.  0.
         23    2    1    2    0    0  0.44589469266E+02 -0.16305848227E+03 -0.12067696515E+03  0.23494320096E+03  0.10981388050E+03 0.  0.
        -11    1    3    3    0    0  0.46302890982E+02 -0.18082333705E+02 -0.25778415717E+02  0.55995135703E+02  0.00000000000E+00 0. -1.
         11    1    3    3    0    0 -0.14857409279E+02  0.44216500106E+02 -0.63689747098E+02  0.78944444880E+02  0.00000000000E+00 0.  1.
        -11    1    4    4    0    0  0.36541175363E+02  0.17340951023E+01 -0.20963944612E+02  0.42163391188E+02  0.00000000000E+00 0.  1.
         11    1    4    4    0    0  0.80482939022E+01 -0.16479257737E+03 -0.99713020537E+02  0.19277980977E+03  0.00000000000E+00 0. -1.
          2    1    1    2  501    0 -0.76034950969E+02  0.13692431587E+03 -0.79664602603E+02  0.17571576751E+03  0.00000000000E+00 0. -1.
<scales pt_clust_5="13000.00000" pt_clust_6="13000.00000" pt_clust_7="13000.00000" pt_clust_8="13000.00000" pt_clust_9="13000.00000"></scales>
<clustering>
<clus scale="   92.371">  5  6 -1 -1</clus>
<clus scale="  101.016">  2  5  1 -1</clus>
<clus scale="  109.814">  7  8 -1 -1</clus>
<clus scale="  160.668">  7  9 -1 -1</clus>
<clus scale="  358.475">  1  5  2 -1</clus>
</clustering>
</event>
<event>
 9    1  0.3303741E-006  0.2727434E+03  0.7546771E-02  0.1111400E+00
         21   -1    0    0  501  502  0.00000000000E+00  0.00000000000E+00  0.15348406768E+03  0.15348406768E+03  0.00000000000E+00 0.  1.
         -2   -1    0    0    0  501 -0.00000000000E+00 -0.00000000000E+00 -0.41272080258E+03  0.41272080258E+03  0.00000000000E+00 0.  1.
         23    2    1    2    0    0 -0.15764775880E+03  0.78221009082E+02 -0.19359943040E+02  0.20298343451E+03  0.99278019607E+02 0.  0.
         23    2    1    2    0    0 -0.42932008062E+01 -0.47870188573E+02 -0.12510010472E+03  0.16242369021E+03  0.91768362821E+02 0.  0.
        -11    1    4    4    0    0 -0.15464711816E+02 -0.68316227962E+02 -0.56552627770E+02  0.90024796707E+02  0.00000000000E+00 0.  1.
         11    1    4    4    0    0  0.11171511010E+02  0.20446039389E+02 -0.68547476948E+02  0.72398893506E+02  0.00000000000E+00 0. -1.
        -13    1    3    3    0    0 -0.15711999164E+03  0.42205876469E+02 -0.13108695673E+01  0.16269525550E+03  0.00000000000E+00 0.  1.
         13    1    3    3    0    0 -0.52776715455E+00  0.36015132613E+02 -0.18049073473E+02  0.40288179017E+02  0.00000000000E+00 0. -1.
         -2    1    1    2    0  502  0.16194095960E+03 -0.30350820509E+02 -0.11477668713E+03  0.20079774553E+03  0.00000000000E+00 0.  1.
<scales pt_clust_5="13000.00000" pt_clust_6="13000.00000" pt_clust_7="13000.00000" pt_clust_8="13000.00000" pt_clust_9="13000.00000"></scales>
<clustering>
<clus scale="   91.768">  5  6 -1 -1</clus>
<clus scale="   99.278">  7  8 -1 -1</clus>
<clus scale="  164.761">  5  9 -1 -1</clus>
<clus scale="  202.058">  2  7  1 -1</clus>
<clus scale="  272.743">  1  5  2 -1</clus>
</clustering>
</event>
<event>
 9    1  0.3303741E-006  0.6972845E+03  0.7546771E-02  0.1027177E+00
          2   -1    0    0  502    0 -0.00000000000E+00  0.00000000000E+00  0.37619863991E+03  0.37619863991E+03  0.00000000000E+00 0. -1.
         21   -1    0    0  501  502  0.00000000000E+00 -0.00000000000E+00 -0.50657069228E+03  0.50657069228E+03  0.00000000000E+00 0. -1.
         23    2    1    2    0    0 -0.75901623883E+02  0.16920732436E+02  0.89024258862E+02  0.15178340073E+03  0.95212994787E+02 0.  0.
         23    2    1    2    0    0 -0.21740909622E+03 -0.23169383016E+02  0.13391114387E+03  0.27175137049E+03  0.90072623361E+02 0.  0.
        -11    1    4    4    0    0 -0.11842588664E+03 -0.21379360252E+01  0.21284964295E+02  0.12034247422E+03  0.00000000000E+00 0.  1.
         11    1    4    4    0    0 -0.98983209580E+02 -0.21031446990E+02  0.11262617958E+03  0.15140889626E+03  0.00000000000E+00 0. -1.
        -13    1    3    3    0    0  0.11815677198E+02 -0.23438097509E+02  0.21944014412E+02  0.34212489109E+02  0.00000000000E+00 0.  1.
         13    1    3    3    0    0 -0.87717301081E+02  0.40358829945E+02  0.67080244451E+02  0.11757091162E+03  0.00000000000E+00 0. -1.
          2    1    1    2  501    0  0.29331072011E+03  0.62486505800E+01 -0.35330745510E+03  0.45923456098E+03  0.00000000000E+00 0. -1.
<scales pt_clust_5="13000.00000" pt_clust_6="13000.00000" pt_clust_7="13000.00000" pt_clust_8="13000.00000" pt_clust_9="13000.00000"></scales>
<clustering>
<clus scale="   90.073">  5  6 -1 -1</clus>
<clus scale="   95.213">  7  8 -1 -1</clus>
<clus scale="  122.934">  1  7  2 -1</clus>
<clus scale="  277.766">  5  9 -1 -1</clus>
<clus scale="  697.285">  2  5  1 -1</clus>
</clustering>
</event>
<event>
 9    1  0.3774532E-006  0.4063638E+03  0.7546771E-02  0.1077158E+00
         -1   -1    0    0    0  501 -0.00000000000E+00  0.00000000000E+00  0.31841939933E+03  0.31841939933E+03  0.00000000000E+00 0.  1.
         21   -1    0    0  501  502  0.00000000000E+00 -0.00000000000E+00 -0.31372587244E+03  0.31372587244E+03  0.00000000000E+00 0.  1.
         23    2    1    2    0    0  0.53039481583E+02 -0.10570992250E+03  0.13865817331E+03  0.20426904086E+03  0.92260379944E+02 0.  0.
         23    2    1    2    0    0 -0.24443319636E+02  0.80810238102E+01  0.12033955674E+03  0.15397885947E+03  0.92547833180E+02 0.  0.
        -11    1    3    3    0    0  0.23296304909E+02 -0.25605872159E+02 -0.70745804169E+01  0.35333103452E+02  0.00000000000E+00 0. -1.
         11    1    3    3    0    0  0.29743176674E+02 -0.80104050339E+02  0.14573275373E+03  0.16893593741E+03  0.00000000000E+00 0.  1.
        -11    1    4    4    0    0  0.12703359259E+02 -0.28781492249E+02  0.85514283471E+02  0.91117738724E+02  0.00000000000E+00 0. -1.
         11    1    4    4    0    0 -0.37146678895E+02  0.36862516059E+02  0.34825273271E+02  0.62861120747E+02  0.00000000000E+00 0.  1.
         -1    1    1    2    0  502 -0.28596161947E+02  0.97628898688E+02 -0.25430420316E+03  0.27389737144E+03  0.00000000000E+00 0.  1.
<scales pt_clust_5="13000.00000" pt_clust_6="13000.00000" pt_clust_7="13000.00000" pt_clust_8="13000.00000" pt_clust_9="13000.00000"></scales>
<clustering>
<clus scale="   92.260">  5  6 -1 -1</clus>
<clus scale="   92.548">  7  8 -1 -1</clus>
<clus scale="  101.731">  7  9 -1 -1</clus>
<clus scale="  149.999">  1  5  2 -1</clus>
<clus scale="  406.364">  2  5  1 -1</clus>
</clustering>
</event>
<event>
 9    1  0.3303741E-006  0.3026210E+03  0.7546771E-02  0.1106947E+00
         -3   -1    0    0    0  501 -0.00000000000E+00  0.00000000000E+00  0.43714620126E+03  0.43714620126E+03  0.00000000000E+00 0.  1.
         21   -1    0    0  501  502  0.00000000000E+00 -0.00000000000E+00 -0.13945336665E+03  0.13945336665E+03  0.00000000000E+00 0.  1.
         23    2    1    2    0    0  0.11511234941E+03 -0.77930721088E+02  0.19751270094E+03  0.25782765412E+03  0.90220739969E+02 0.  0.
         23    2    1    2    0    0 -0.15461855938E+03  0.11849376811E+03  0.13647023408E+02  0.21535972601E+03  0.90806929001E+02 0.  0.
        -13    1    4    4    0    0 -0.15531135249E+03  0.92378526978E+02  0.31884269483E+02  0.18349935994E+03  0.00000000000E+00 0.  1.
         13    1    4    4    0    0  0.69279310936E+00  0.26115241137E+02 -0.18237246075E+02  0.31860366073E+02  0.00000000000E+00 0. -1.
        -13    1    3    3    0    0  0.45216924064E+02 -0.75807289164E+02  0.14736147085E+03  0.17177519729E+03  0.00000000000E+00 0.  1.
         13    1    3    3    0    0  0.69895425344E+02 -0.21234319237E+01  0.50151230090E+02  0.86052456831E+02  0.00000000000E+00 0. -1.
         -3    1    1    2    0  502  0.39506209968E+02 -0.40563047027E+02  0.86533110259E+02  0.10341218778E+03  0.00000000000E+00 0.  1.
<scales pt_clust_5="13000.00000" pt_clust_6="13000.00000" pt_clust_7="13000.00000" pt_clust_8="13000.00000" pt_clust_9="13000.00000"></scales>
<clustering>
<clus scale="   90.221">  7  8 -1 -1</clus>
<clus scale="   90.807">  5  6 -1 -1</clus>
<clus scale="   56.622">  5  9 -1 -1</clus>
<clus scale="  165.722">  1  7  2 -1</clus>
<clus scale="  302.621">  2  5  1 -1</clus>
</clustering>
</event>
<event>
 9    1  0.3303741E-006  0.1820476E+03  0.7546771E-02  0.1183722E+00
         21   -1    0    0  501  502  0.00000000000E+00  0.00000000000E+00  0.19974051026E+03  0.19974051026E+03  0.00000000000E+00 0.  1.
         -1   -1    0    0    0  501 -0.00000000000E+00 -0.00000000000E+00 -0.11625549572E+03  0.11625549572E+03  0.00000000000E+00 0.  1.
         23    2    1    2    0    0 -0.73466271042E+02  0.28979993426E+02  0.18699004445E+02  0.12276417810E+03  0.92110030169E+02 0.  0.
         23    2    1    2    0    0  0.94810427541E+01 -0.18143143065E+02 -0.10527927526E+02  0.93814847622E+02  0.90946822728E+02 0.  0.
        -11    1    4    4    0    0  0.83833362877E+01 -0.52562507554E+02  0.93661142563E+01  0.54044626226E+02  0.00000000000E+00 0.  1.
         11    1    4    4    0    0  0.10977064664E+01  0.34419364490E+02 -0.19894041783E+02  0.39770221395E+02  0.00000000000E+00 0. -1.
        -11    1    3    3    0    0 -0.86019572806E+02  0.48027845582E+02  0.15240657283E+02  0.99691115408E+02  0.00000000000E+00 0.  1.
         11    1    3    3    0    0  0.12553301763E+02 -0.19047852156E+02  0.34583471621E+01  0.23073062692E+02  0.00000000000E+00 0. -1.
         -1    1    1    2    0  502  0.63985228288E+02 -0.10836850361E+02  0.75313937622E+02  0.99416980265E+02  0.00000000000E+00 0.  1.
<scales pt_clust_5="13000.00000" pt_clust_6="13000.00000" pt_clust_7="13000.00000" pt_clust_8="13000.00000" pt_clust_9="13000.00000"></scales>
<clustering>
<clus scale="   90.947">  5  6 -1 -1</clus>
<clus scale="   64.896">  5  9 -1 -1</clus>
<clus scale="   92.110">  7  8 -1 -1</clus>
<clus scale="  121.332">  2  7  1 -1</clus>
<clus scale="  182.048">  1  5  2 -1</clus>
</clustering>
</event>
<event>
 9    1  0.3303741E-006  0.1792573E+03  0.7546771E-02  0.1195362E+00
         21   -1    0    0  501  502  0.00000000000E+00  0.00000000000E+00  0.94628890716E+02  0.94628890716E+02  0.00000000000E+00 0.  1.
         -1   -1    0    0    0  501 -0.00000000000E+00 -0.00000000000E+00 -0.26801168409E+03  0.26801168409E+03  0.00000000000E+00 0.  1.
         23    2    1    2    0    0  0.18329641268E+02 -0.32760056907E+02 -0.15354776608E+03  0.18228921594E+03  0.90792316330E+02 0.  0.
         23    2    1    2    0    0 -0.54984465128E+02  0.40767462269E+01 -0.57282741065E+02  0.12061326641E+03  0.90699152943E+02 0.  0.
        -11    1    3    3    0    0 -0.18318533461E+01 -0.52015458855E+02 -0.14351195962E+03  0.15265859360E+03  0.00000000000E+00 0.  1.
         11    1    3    3    0    0  0.20161494614E+02  0.19255401948E+02 -0.10035806461E+02  0.29630622345E+02  0.00000000000E+00 0. -1.
        -11    1    4    4    0    0 -0.30349337497E+02 -0.32328508365E+02 -0.62193943530E+02  0.76382598486E+02  0.00000000000E+00 0.  1.
         11    1    4    4    0    0 -0.24635127631E+02  0.36405254591E+02  0.49112024646E+01  0.44230667923E+02  0.00000000000E+00 0. -1.
         -1    1    1    2    0  502  0.36654823860E+02  0.28683310680E+02  0.37447713767E+02  0.59738092455E+02  0.00000000000E+00 0.  1.
<scales pt_clust_5="13000.00000" pt_clust_6="13000.00000" pt_clust_7="13000.00000" pt_clust_8="13000.00000" pt_clust_9="13000.00000"></scales>
<clustering>
<clus scale="   90.699">  7  8 -1 -1</clus>
<clus scale="   46.544">  7  9 -1 -1</clus>
<clus scale="   90.792">  5  6 -1 -1</clus>
<clus scale="   98.247">  2  5  1 -1</clus>
<clus scale="  179.257">  1  5  2 -1</clus>
</clustering>
</event>
<event>
 9    1  0.3303741E-006  0.4340615E+03  0.7546771E-02  0.1049676E+00
         21   -1    0    0  501  502  0.00000000000E+00  0.00000000000E+00  0.32551816168E+03  0.32551816168E+03  0.00000000000E+00 0. -1.
          2   -1    0    0  502    0 -0.00000000000E+00 -0.00000000000E+00 -0.37462004793E+03  0.37462004793E+03  0.00000000000E+00 0. -1.
         23    2    1    2    0    0 -0.57789528833E+02  0.24147007781E+03 -0.13410413580E+02  0.26461181399E+03  0.90510467849E+02 0.  0.
         23    2    1    2    0    0  0.73448110751E+02 -0.10473548412E+03 -0.17738220988E+03  0.23799714383E+03  0.93883148028E+02 0.  0.
        -11    1    4    4    0    0 -0.50847458587E+01 -0.38527322022E+02 -0.10603437536E+03  0.11293138598E+03  0.00000000000E+00 0.  1.
         11    1    4    4    0    0  0.78532856610E+02 -0.66208162095E+02 -0.71347834527E+02  0.12506575785E+03  0.00000000000E+00 0. -1.
        -11    1    3    3    0    0 -0.58825999188E+02  0.17664899068E+03 -0.46386242699E+02  0.19187768917E+03  0.00000000000E+00 0. -1.
         11    1    3    3    0    0  0.10364703551E+01  0.64821087126E+02  0.32975829119E+02  0.72734124818E+02  0.00000000000E+00 0.  1.
          2    1    1    2  501    0 -0.15658581918E+02 -0.13673459369E+03  0.14169073721E+03  0.19752925178E+03  0.00000000000E+00 0. -1.
<scales pt_clust_5="13000.00000" pt_clust_6="13000.00000" pt_clust_7="13000.00000" pt_clust_8="13000.00000" pt_clust_9="13000.00000"></scales>
<clustering>
<clus scale="   90.510">  7  8 -1 -1</clus>
<clus scale="   93.883">  5  6 -1 -1</clus>
<clus scale="  137.628">  5  9 -1 -1</clus>
<clus scale="  264.272">  2  7  1 -1</clus>
<clus scale="  434.061">  1  5  2 -1</clus>
</clustering>
</event>
<event>
 9    1  0.3303741E-006  0.1646877E+03  0.7546771E-02  0.1190762E+00
         21   -1    0    0  501  502  0.00000000000E+00  0.00000000000E+00  0.31174894313E+03  0.31174894313E+03  0.00000000000E+00 0.  1.
          3   -1    0    0  502    0 -0.00000000000E+00 -0.00000000000E+00 -0.80530259343E+02  0.80530259343E+02  0.00000000000E+00 0. -1.
         23    2    1    2    0    0  0.82647160744E+02  0.66363025217E+02  0.53640691685E+02  0.15008926198E+03  0.91732537643E+02 0.  0.
         23    2    1    2    0    0 -0.63487301122E+02 -0.73051708211E+02  0.11598033141E+03  0.17733540708E+03  0.92893594261E+02 0.  0.
        -11    1    3    3    0    0  0.10284707546E+03  0.55007843222E+02  0.40592853183E+02  0.12349560104E+03  0.00000000000E+00 0.  1.
         11    1    3    3    0    0 -0.20199914716E+02  0.11355181994E+02  0.13047838502E+02  0.26593660941E+02  0.00000000000E+00 0. -1.
        -13    1    4    4    0    0 -0.19876393424E+02  0.12722292656E+02 -0.35732601154E+01  0.23868303958E+02  0.00000000000E+00 0. -1.
         13    1    4    4    0    0 -0.43610907698E+02 -0.85774000867E+02  0.11955359152E+03  0.15346710312E+03  0.00000000000E+00 0.  1.
          3    1    1    2  501    0 -0.19159859623E+02  0.66886829943E+01  0.61597660692E+02  0.64854533409E+02  0.00000000000E+00 0. -1.
<scales pt_clust_5="13000.00000" pt_clust_6="13000.00000" pt_clust_7="13000.00000" pt_clust_8="13000.00000" pt_clust_9="13000.00000"></scales>
<clustering>
<clus scale="   91.733">  5  6 -1 -1</clus>
<clus scale="   92.894">  7  8 -1 -1</clus>
<clus scale="   20.294">  7  9 -1 -1</clus>
<clus scale="  140.177">  2  5  1 -1</clus>
<clus scale="  164.688">  1  5  2 -1</clus>
</clustering>
</event>
<event>
 9    1  0.3303741E-006  0.2998179E+03  0.7546771E-02  0.1129604E+00
          1   -1    0    0  502    0 -0.00000000000E+00  0.00000000000E+00  0.80633871177E+03  0.80633871177E+03  0.00000000000E+00 0. -1.
         21   -1    0    0  501  502  0.00000000000E+00 -0.00000000000E+00 -0.50827726565E+02  0.50827726565E+02  0.00000000000E+00 0. -1.
         23    2    1    2    0    0 -0.14850386109E+02 -0.34534509410E+02  0.11630605850E+03  0.15113974059E+03  0.88898569366E+02 0.  0.
         23    2    1    2    0    0  0.41538964742E+02  0.76018648652E+02  0.64247369386E+03  0.65659089212E+03  0.10409049801E+03 0.  0.
        -11    1    3    3    0    0  0.30599495015E+02 -0.47164119034E+01  0.79973154526E+02  0.85757093475E+02  0.00000000000E+00 0. -1.
         11    1    3    3    0    0 -0.45449881124E+02 -0.29818097507E+02  0.36332903971E+02  0.65382647117E+02  0.00000000000E+00 0.  1.
        -13    1    4    4    0    0  0.25706031846E+02 -0.23179880598E+02  0.18620359506E+03  0.18939346807E+03  0.00000000000E+00 0.  1.
         13    1    4    4    0    0  0.15832932896E+02  0.99198529250E+02  0.45627009881E+03  0.46719742405E+03  0.00000000000E+00 0. -1.
          1    1    1    2  501    0 -0.26688578634E+02 -0.41484139242E+02 -0.32687671614E+01  0.49435805616E+02  0.00000000000E+00 0. -1.
<scales pt_clust_5="13000.00000" pt_clust_6="13000.00000" pt_clust_7="13000.00000" pt_clust_8="13000.00000" pt_clust_9="13000.00000"></scales>
<clustering>
<clus scale="   88.899">  5  6 -1 -1</clus>
<clus scale="   96.520">  1  5  2 -1</clus>
<clus scale="  104.090">  7  8 -1 -1</clus>
<clus scale="   50.601">  7  9 -1 -1</clus>
<clus scale="  299.818">  2  5  1 -1</clus>
</clustering>
</event>
<event>
 9    1  0.3303741E-006  0.3231622E+03  0.7546771E-02  0.1107947E+00
          1   -1    0    0  502    0 -0.00000000000E+00  0.00000000000E+00  0.12454015007E+03  0.12454015007E+03  0.00000000000E+00 0. -1.
         21   -1    0    0  501  502  0.00000000000E+00 -0.00000000000E+00 -0.57370970160E+03  0.57370970160E+03  0.00000000000E+00 0. -1.
         23    2    1    2    0    0  0.70942344732E+02 -0.56795647061E+02  0.14106610168E+02  0.13339712185E+03  0.96629363379E+02 0.  0.
         23    2    1    2    0    0 -0.32647772757E+02  0.10902981848E+03 -0.61445110541E+02  0.15783543709E+03  0.90460738488E+02 0.  0.
        -11    1    3    3    0    0  0.82119903224E+02 -0.24107058385E+02  0.35617392483E+02  0.92700741187E+02  0.00000000000E+00 0. -1.
         11    1    3    3    0    0 -0.11177558492E+02 -0.32688588676E+02 -0.21510782315E+02  0.40696380665E+02  0.00000000000E+00 0.  1.
        -13    1    4    4    0    0  0.99223422332E+01  0.91470480836E+02 -0.16475088036E+02  0.93470478043E+02  0.00000000000E+00 0. -1.
         13    1    4    4    0    0 -0.42570114991E+02  0.17559337643E+02 -0.44970022506E+02  0.64364959046E+02  0.00000000000E+00 0.  1.
          1    1    1    2  501    0 -0.38294571974E+02 -0.52234171418E+02 -0.40183105116E+03  0.40701729273E+03  0.00000000000E+00 0. -1.
<scales pt_clust_5="13000.00000" pt_clust_6="13000.00000" pt_clust_7="13000.00000" pt_clust_8="13000.00000" pt_clust_9="13000.00000"></scales>
<clustering>
<clus scale="   90.461">  7  8 -1 -1</clus>
<clus scale="   64.768">  7  9 -1 -1</clus>
<clus scale="   96.629">  5  6 -1 -1</clus>
<clus scale="  132.649">  1  5  2 -1</clus>
<clus scale="  323.162">  2  5  1 -1</clus>
</clustering>
</event>
<event>
 9    1  0.3303741E-006  0.1618425E+03  0.7546771E-02  0.1211184E+00
          1   -1    0    0  502    0 -0.00000000000E+00  0.00000000000E+00  0.56711475033E+03  0.56711475033E+03  0.00000000000E+00 0. -1.
         21   -1    0    0  501  502  0.00000000000E+00 -0.00000000000E+00 -0.30249295702E+02  0.30249295702E+02  0.00000000000E+00 0. -1.
         23    2    1    2    0    0 -0.15749129137E+02 -0.16183726998E+02  0.25872495366E+03  0.27556419285E+03  0.92125320311E+02 0.  0.
         23    2    1    2    0    0 -0.78119605734E+01  0.27887491401E+02  0.27886917402E+03  0.29548191227E+03  0.93288827595E+02 0.  0.
        -13    1    4    4    0    0 -0.60463346700E+00 -0.29225176204E+02  0.16835405874E+03  0.17087295163E+03  0.00000000000E+00 0. -1.
         13    1    4    4    0    0 -0.72073271064E+01  0.57112667605E+02  0.11051511529E+03  0.12460896064E+03  0.00000000000E+00 0.  1.
        -13    1    3    3    0    0  0.18645022660E+02  0.31173246983E+02  0.99122444788E+02  0.10556830613E+03  0.00000000000E+00 0.  1.
         13    1    3    3    0    0 -0.34394151797E+02 -0.47356973981E+02  0.15960250888E+03  0.16999588672E+03  0.00000000000E+00 0. -1.
          1    1    1    2  501    0  0.23561089710E+02 -0.11703764403E+02 -0.72867306007E+00  0.26317940914E+02  0.00000000000E+00 0. -1.
<scales pt_clust_5="13000.00000" pt_clust_6="13000.00000" pt_clust_7="13000.00000" pt_clust_8="13000.00000" pt_clust_9="13000.00000"></scales>
<clustering>
<clus scale="   92.125">  7  8 -1 -1</clus>
<clus scale="   93.289">  5  6 -1 -1</clus>
<clus scale="   26.308">  5  9 -1 -1</clus>
<clus scale="   94.853">  1  7  2 -1</clus>
<clus scale="  161.843">  2  5  1 -1</clus>
</clustering>
</event>
<event>
 9    1  0.3303741E-006  0.2050230E+03  0.7546771E-02  0.1149505E+00
          1   -1    0    0  502    0 -0.00000000000E+00  0.00000000000E+00  0.88942812066E+03  0.88942812066E+03  0.00000000000E+00 0. -1.
         21   -1    0    0  501  502  0.00000000000E+00 -0.00000000000E+00 -0.59210013272E+02  0.59210013272E+02  0.00000000000E+00 0. -1.
         23    2    1    2    0    0 -0.12400780373E+03  0.10474408287E+03  0.64795173771E+03  0.67431086241E+03  0.92219447417E+02 0.  0.
         23    2    1    2    0    0  0.74090059696E+02 -0.65402334125E+02  0.15232331273E+03  0.20406959562E+03  0.93140785907E+02 0.  0.
        -11    1    4    4    0    0 -0.20586122926E+02 -0.33484709541E+01  0.13084405694E+02  0.24621177616E+02  0.00000000000E+00 0. -1.
         11    1    4    4    0    0  0.94676182621E+02 -0.62053863171E+02  0.13923890704E+03  0.17944841800E+03  0.00000000000E+00 0.  1.
        -13    1    3    3    0    0  0.12573505923E+02  0.20710009709E+02  0.55878469688E+02  0.60904851433E+02  0.00000000000E+00 0.  1.
         13    1    3    3    0    0 -0.13658130965E+03  0.84034073165E+02  0.59207326802E+03  0.61340601097E+03  0.00000000000E+00 0. -1.
          1    1    1    2  501    0  0.49917744032E+02 -0.39341748749E+02  0.29943056944E+02  0.70257675901E+02  0.00000000000E+00 0. -1.
<scales pt_clust_5="13000.00000" pt_clust_6="13000.00000" pt_clust_7="13000.00000" pt_clust_8="13000.00000" pt_clust_9="13000.00000"></scales>
<clustering>
<clus scale="   92.219">  7  8 -1 -1</clus>
<clus scale="   93.141">  5  6 -1 -1</clus>
<clus scale="   63.558">  5  9 -1 -1</clus>
<clus scale="  186.691">  1  7  2 -1</clus>
<clus scale="  205.023">  2  5  1 -1</clus>
</clustering>
</event>
<event>
 9    1  0.3303741E-006  0.2321097E+03  0.7546771E-02  0.1162162E+00
         -1   -1    0    0    0  501 -0.00000000000E+00  0.00000000000E+00  0.15113960706E+03  0.15113960706E+03  0.00000000000E+00 0.  1.
         21   -1    0    0  501  502  0.00000000000E+00 -0.00000000000E+00 -0.35783176657E+03  0.35783176657E+03  0.00000000000E+00 0. -1.
         23    2    1    2    0    0 -0.22784498584E+02  0.82810896451E+01  0.90652309874E+02  0.13175969708E+03  0.92493603385E+02 0.  0.
         23    2    1    2    0    0  0.98831976498E+02  0.24620245088E+02 -0.12795916826E+03  0.18864578100E+03  0.94020029264E+02 0.  0.
        -11    1    4    4    0    0  0.10210538728E+03 -0.67723521053E+01 -0.74544499221E+02  0.12660275364E+03  0.00000000000E+00 0. -1.
         11    1    4    4    0    0 -0.32734107798E+01  0.31392597194E+02 -0.53414669037E+02  0.62043027368E+02  0.00000000000E+00 0.  1.
        -13    1    3    3    0    0  0.19296967911E+02  0.10634040375E+02 -0.88152473425E+01  0.23731084488E+02  0.00000000000E+00 0. -1.
         13    1    3    3    0    0 -0.42081466495E+02 -0.23529507295E+01  0.99467557217E+02  0.10802861259E+03  0.00000000000E+00 0.  1.
         -1    1    1    2    0  502 -0.76047477913E+02 -0.32901334733E+02 -0.16938530113E+03  0.18856589555E+03  0.00000000000E+00 0.  1.
<scales pt_clust_5="13000.00000" pt_clust_6="13000.00000" pt_clust_7="13000.00000" pt_clust_8="13000.00000" pt_clust_9="13000.00000"></scales>
<clustering>
<clus scale="   92.494">  7  8 -1 -1</clus>
<clus scale="   94.020">  5  6 -1 -1</clus>
<clus scale="   82.860">  5  9 -1 -1</clus>
<clus scale="   95.618">  1  7  2 -1</clus>
<clus scale="  232.110">  2  5  1 -1</clus>
</clustering>
</event>
<event>
 9    1  0.3303741E-006  0.3847933E+03  0.7546771E-02  0.1052334E+00
         21   -1    0    0  501  502  0.00000000000E+00  0.00000000000E+00  0.90531999397E+02  0.90531999397E+02  0.00000000000E+00 0.  1.
          2   -1    0    0  502    0 -0.00000000000E+00 -0.00000000000E+00 -0.17344461378E+04  0.17344461378E+04  0.00000000000E+00 0. -1.
         23    2    1    2    0    0  0.82550179039E+02  0.32963019576E+03 -0.45330602572E+03  0.57373332378E+03  0.90625470163E+02 0.  0.
         23    2    1    2    0    0 -0.31694485140E+01 -0.70552043319E+02 -0.36878982021E+03  0.38590782976E+03  0.89057764170E+02 0.  0.
        -11    1    4    4    0    0  0.36292377229E+02 -0.29457230050E+02 -0.90637527941E+02  0.10198052029E+03  0.00000000000E+00 0.  1.
         11    1    4    4    0    0 -0.39461825743E+02 -0.41094813268E+02 -0.27815229227E+03  0.28392730947E+03  0.00000000000E+00 0. -1.
        -11    1    3    3    0    0  0.76105304004E+02  0.17200319978E+03 -0.29774202305E+03  0.35217528352E+03  0.00000000000E+00 0.  1.
         11    1    3    3    0    0  0.64448750354E+01  0.15762699598E+03 -0.15556400267E+03  0.22155804026E+03  0.00000000000E+00 0. -1.
          2    1    1    2  501    0 -0.79380730525E+02 -0.25907815244E+03 -0.82181829251E+03  0.86533698370E+03  0.00000000000E+00 0. -1.
<scales pt_clust_5="13000.00000" pt_clust_6="13000.00000" pt_clust_7="13000.00000" pt_clust_8="13000.00000" pt_clust_9="13000.00000"></scales>
<clustering>
<clus scale="   89.058">  5  6 -1 -1</clus>
<clus scale="   90.625">  7  8 -1 -1</clus>
<clus scale="  270.967">  5  9 -1 -1</clus>
<clus scale="  351.687">  2  7  1 -1</clus>
<clus scale="  384.793">  1  5  2 -1</clus>
</clustering>
</event>
<event>
 9    1  0.3303741E-006  0.4254977E+03  0.7546771E-02  0.1073567E+00
         21   -1    0    0  501  502  0.00000000000E+00  0.00000000000E+00  0.13757014013E+04  0.13757014013E+04  0.00000000000E+00 0.  1.
         -1   -1    0    0    0  501 -0.00000000000E+00 -0.00000000000E+00 -0.61542392134E+02  0.61542392134E+02  0.00000000000E+00 0.  1.
         23    2    1    2    0    0  0.77432330762E+02  0.79860631118E+02  0.47517691783E+03  0.49653171351E+03  0.91526788582E+02 0.  0.
         23    2    1    2    0    0 -0.13110720848E+03  0.13005136967E+03  0.31639441903E+03  0.37498960750E+03  0.80058219229E+02 0.  0.
        -11    1    3    3    0    0  0.18267894759E+02  0.81717004452E+02  0.24725746065E+03  0.26105102306E+03  0.00000000000E+00 0.  1.
         11    1    3    3    0    0  0.59164436003E+02 -0.18563733339E+01  0.22791945719E+03  0.23548069045E+03  0.00000000000E+00 0. -1.
        -13    1    4    4    0    0 -0.48294875921E+02  0.14113306950E+02  0.13669850681E+03  0.14566421056E+03  0.00000000000E+00 0.  1.
         13    1    4    4    0    0 -0.82812332563E+02  0.11593806272E+03  0.17969591222E+03  0.22932539694E+03  0.00000000000E+00 0. -1.
         -1    1    1    2    0  502  0.53674877722E+02 -0.20991200079E+03  0.52258767234E+03  0.56572247247E+03  0.00000000000E+00 0.  1.
<scales pt_clust_5="13000.00000" pt_clust_6="13000.00000" pt_clust_7="13000.00000" pt_clust_8="13000.00000" pt_clust_9="13000.00000"></scales>
<clustering>
<clus scale="   80.058">  7  8 -1 -1</clus>
<clus scale="   91.527">  5  6 -1 -1</clus>
<clus scale="  144.051">  2  5  1 -1</clus>
<clus scale="  196.156">  7  9 -1 -1</clus>
<clus scale="  425.498">  1  5  2 -1</clus>
</clustering>
</event>
<event>
 9    1  0.3303741E-006  0.2501069E+03  0.7546771E-02  0.1138918E+00
          2   -1    0    0  502    0 -0.00000000000E+00  0.00000000000E+00  0.84993578218E+03  0.84993578218E+03  0.00000000000E+00 0. -1.
         21   -1    0    0  501  502  0.00000000000E+00 -0.00000000000E+00 -0.43103150191E+02  0.43103150191E+02  0.00000000000E+00 0. -1.
         23    2    1    2    0    0  0.94203179955E+02  0.13322665429E+02  0.29309442621E+03  0.32165430568E+03  0.92224818573E+02 0.  0.
         23    2    1    2    0    0 -0.37938164405E+02 -0.70851333000E+02  0.44649108626E+03  0.46651578169E+03  0.10873577496E+03 0.  0.
        -11    1    4    4    0    0 -0.63879447358E+02 -0.82549287556E+02  0.31035571274E+03  0.32743798971E+03  0.00000000000E+00 0. -1.
         11    1    4    4    0    0  0.25941282953E+02  0.11697954556E+02  0.13613537351E+03  0.13907779199E+03  0.00000000000E+00 0.  1.
        -11    1    3    3    0    0  0.85160243465E+02  0.47163626077E+02  0.20919786401E+03  0.23073885888E+03  0.00000000000E+00 0.  1.
         11    1    3    3    0    0  0.90429364901E+01 -0.33840960648E+02  0.83896562197E+02  0.90915446798E+02  0.00000000000E+00 0. -1.
          2    1    1    2  501    0 -0.56265015550E+02  0.57528667571E+02  0.67247119530E+02  0.10486884500E+03  0.00000000000E+00 0. -1.
<scales pt_clust_5="13000.00000" pt_clust_6="13000.00000" pt_clust_7="13000.00000" pt_clust_8="13000.00000" pt_clust_9="13000.00000"></scales>
<clustering>
<clus scale="   92.225">  7  8 -1 -1</clus>
<clus scale="  108.736">  5  6 -1 -1</clus>
<clus scale="   80.469">  5  9 -1 -1</clus>
<clus scale="  132.503">  1  7  2 -1</clus>
<clus scale="  250.107">  2  5  1 -1</clus>
</clustering>
</event>
<event>
 9    1  0.3303741E-006  0.1638213E+03  0.7546771E-02  0.1198681E+00
         21   -1    0    0  501  502  0.00000000000E+00  0.00000000000E+00  0.18971211459E+03  0.18971211459E+03  0.00000000000E+00 0.  1.
          1   -1    0    0  502    0 -0.00000000000E+00 -0.00000000000E+00 -0.14911716955E+03  0.14911716955E+03  0.00000000000E+00 0. -1.
         23    2    1    2    0    0 -0.61806294045E+02  0.45352834501E+02 -0.72316376216E+02  0.13986599990E+03  0.91956196515E+02 0.  0.
         23    2    1    2    0    0  0.15286131282E+02 -0.52517143929E+02  0.10763052215E+03  0.15159937696E+03  0.91686016282E+02 0.  0.
        -11    1    3    3    0    0 -0.86649910494E+01  0.28669155089E+02 -0.78313744094E+02  0.83845363840E+02  0.00000000000E+00 0. -1.
         11    1    3    3    0    0 -0.53141302996E+02  0.16683679412E+02  0.59973678787E+01  0.56020636057E+02  0.00000000000E+00 0.  1.
        -13    1    4    4    0    0  0.11466332138E+02 -0.79075945307E+02  0.82027379840E+02  0.11451188996E+03  0.00000000000E+00 0.  1.
         13    1    4    4    0    0  0.38197991446E+01  0.26558801378E+02  0.25603142307E+02  0.37087487002E+02  0.00000000000E+00 0. -1.
          1    1    1    2  501    0  0.46520162763E+02  0.71643094279E+01  0.52807991079E+01  0.47363907274E+02  0.00000000000E+00 0. -1.
<scales pt_clust_5="13000.00000" pt_clust_6="13000.00000" pt_clust_7="13000.00000" pt_clust_8="13000.00000" pt_clust_9="13000.00000"></scales>
<clustering>
<clus scale="   91.686">  7  8 -1 -1</clus>
<clus scale="   47.069">  7  9 -1 -1</clus>
<clus scale="   91.956">  5  6 -1 -1</clus>
<clus scale="  119.720">  2  5  1 -1</clus>
<clus scale="  163.821">  1  5  2 -1</clus>
</clustering>
</event>
<event>
 9    1  0.3303741E-006  0.3835919E+03  0.7546771E-02  0.1074348E+00
         -4   -1    0    0    0  501 -0.00000000000E+00  0.00000000000E+00  0.42875149267E+03  0.42875149267E+03  0.00000000000E+00 0.  1.
         21   -1    0    0  501  502  0.00000000000E+00 -0.00000000000E+00 -0.24119376996E+03  0.24119376996E+03  0.00000000000E+00 0.  1.
         23    2    1    2    0    0  0.15447438447E+03  0.69084783653E+02 -0.73413181751E+02  0.20599637804E+03  0.91705887058E+02 0.  0.
         23    2    1    2    0    0  0.23460319521E+02  0.77571583820E+02  0.18510743785E+03  0.22120598649E+03  0.89997709448E+02 0.  0.
        -11    1    3    3    0    0  0.15523399015E+03  0.36302676423E+02 -0.64836073764E+02  0.17210227330E+03  0.00000000000E+00 0.  1.
         11    1    3    3    0    0 -0.75960567267E+00  0.32782107230E+02 -0.85771079878E+01  0.33894104748E+02  0.00000000000E+00 0. -1.
        -13    1    4    4    0    0 -0.26328664203E+02  0.56100212872E+02  0.67107209093E+02  0.91344457715E+02  0.00000000000E+00 0. -1.
         13    1    4    4    0    0  0.49788983724E+02  0.21471370948E+02  0.11800022876E+03  0.12986152878E+03  0.00000000000E+00 0.  1.
         -4    1    1    2    0  502 -0.17793470400E+03 -0.14665636747E+03  0.75863466610E+02  0.24274289809E+03  0.00000000000E+00 0.  1.
<scales pt_clust_5="13000.00000" pt_clust_6="13000.00000" pt_clust_7="13000.00000" pt_clust_8="13000.00000" pt_clust_9="13000.00000"></scales>
<clustering>
<clus scale="   89.998">  7  8 -1 -1</clus>
<clus scale="   91.706">  5  6 -1 -1</clus>
<clus scale="  192.471">  1  5  2 -1</clus>
<clus scale="  160.105">  7  9 -1 -1</clus>
<clus scale="  383.592">  2  5  1 -1</clus>
</clustering>
</event>
<event>
 9    1  0.3303741E-006  0.3197321E+03  0.7546771E-02  0.1118411E+00
         21   -1    0    0  501  502  0.00000000000E+00  0.00000000000E+00  0.75005542469E+03  0.75005542469E+03  0.00000000000E+00 0. -1.
          1   -1    0    0  502    0 -0.00000000000E+00 -0.00000000000E+00 -0.40780991257E+03  0.40780991257E+03  0.00000000000E+00 0. -1.
         23    2    1    2    0    0 -0.34004247368E+02 -0.40246742183E+02 -0.36600410680E+03  0.38078994964E+03  0.90916942618E+02 0.  0.
         23    2    1    2    0    0  0.50358782538E+01  0.15624069790E+03  0.29049148222E+03  0.34254618843E+03  0.92282578054E+02 0.  0.
        -11    1    3    3    0    0 -0.52286411630E+02 -0.96594693613E+01 -0.30916649948E+03  0.31370543284E+03  0.00000000000E+00 0. -1.
         11    1    3    3    0    0  0.18282164261E+02 -0.30587272822E+02 -0.56837607320E+02  0.67084516802E+02  0.00000000000E+00 0.  1.
        -11    1    4    4    0    0  0.47843929215E+02  0.86408726269E+02  0.14219204666E+03  0.17313026215E+03  0.00000000000E+00 0.  1.
         11    1    4    4    0    0 -0.42808050961E+02  0.69831971633E+02  0.14829943556E+03  0.16941592628E+03  0.00000000000E+00 0. -1.
          1    1    1    2  501    0  0.28968369114E+02 -0.11599395572E+03  0.41775813671E+03  0.43452919920E+03  0.00000000000E+00 0. -1.
<scales pt_clust_5="13000.00000" pt_clust_6="13000.00000" pt_clust_7="13000.00000" pt_clust_8="13000.00000" pt_clust_9="13000.00000"></scales>
<clustering>
<clus scale="   90.917">  5  6 -1 -1</clus>
<clus scale="   92.283">  7  8 -1 -1</clus>
<clus scale="  105.081">  2  5  1 -1</clus>
<clus scale="  127.490">  7  9 -1 -1</clus>
<clus scale="  319.732">  1  5  2 -1</clus>
</clustering>
</event>
<event>
 9    1  0.3303741E-006  0.5132642E+03  0.7546771E-02  0.1059023E+00
         21   -1    0    0  501  502  0.00000000000E+00  0.00000000000E+00  0.37633275397E+03  0.37633275397E+03  0.00000000000E+00 0. -1.
         -1   -1    0    0    0  501 -0.00000000000E+00 -0.00000000000E+00 -0.28265610316E+03  0.28265610316E+03  0.00000000000E+00 0.  1.
         23    2    1    2    0    0  0.89013987545E+01  0.79374688251E+02 -0.39194487071E+02  0.12880507798E+03  0.93139488198E+02 0.  0.
         23    2    1    2    0    0  0.18638978672E+03  0.11399657392E+02  0.21695806830E+03  0.29899286061E+03  0.86341314070E+02 0.  0.
        -13    1    4    4    0    0  0.93475662469E+02  0.27734455253E+01  0.17117103696E+03  0.19505105836E+03  0.00000000000E+00 0. -1.
         13    1    4    4    0    0  0.92914124249E+02  0.86262118665E+01  0.45787031340E+02  0.10394180225E+03  0.00000000000E+00 0.  1.
        -13    1    3    3    0    0 -0.13485041189E+02  0.73282578486E+02 -0.61504757711E+02  0.96617896202E+02  0.00000000000E+00 0. -1.
         13    1    3    3    0    0  0.22386439943E+02  0.60921097655E+01  0.22310270640E+02  0.32187181777E+02  0.00000000000E+00 0.  1.
         -1    1    1    2    0  502 -0.19529118547E+03 -0.90774345643E+02 -0.84086930418E+02  0.23119091854E+03  0.00000000000E+00 0.  1.
<scales pt_clust_5="13000.00000" pt_clust_6="13000.00000" pt_clust_7="13000.00000" pt_clust_8="13000.00000" pt_clust_9="13000.00000"></scales>
<clustering>
<clus scale="   86.341">  5  6 -1 -1</clus>
<clus scale="   93.139">  7  8 -1 -1</clus>
<clus scale="  122.697">  2  7  1 -1</clus>
<clus scale="  190.268">  5  9 -1 -1</clus>
<clus scale="  513.264">  1  5  2 -1</clus>
</clustering>
</event>
<event>
 9    1  0.3303741E-006  0.3851149E+03  0.7546771E-02  0.1092595E+00
         -1   -1    0    0    0  501 -0.00000000000E+00  0.00000000000E+00  0.35111458167E+03  0.35111458167E+03  0.00000000000E+00 0.  1.
         21   -1    0    0  501  502  0.00000000000E+00 -0.00000000000E+00 -0.18292628706E+03  0.18292628706E+03  0.00000000000E+00 0.  1.
         23    2    1    2    0    0 -0.14990524804E+02  0.67996407766E+02  0.71870579702E+02  0.13706407979E+03  0.93664050942E+02 0.  0.
         23    2    1    2    0    0  0.64589053493E+02  0.20396599696E+02 -0.12160833500E+03  0.15663307455E+03  0.71816194500E+02 0.  0.
        -11    1    3    3    0    0  0.35329281304E+02  0.51137780173E+01  0.27886132626E+02  0.45298402135E+02  0.00000000000E+00 0. -1.
         11    1    3    3    0    0 -0.50319806108E+02  0.62882629749E+02  0.43984447076E+02  0.91765677655E+02  0.00000000000E+00 0.  1.
        -13    1    4    4    0    0  0.35781412289E+02  0.38403701344E+02 -0.33669382601E+02  0.62360091942E+02  0.00000000000E+00 0.  1.
         13    1    4    4    0    0  0.28807641204E+02 -0.18007101648E+02 -0.87938952399E+02  0.94272982612E+02  0.00000000000E+00 0. -1.
         -1    1    1    2    0  502 -0.49598528689E+02 -0.88393007462E+02  0.21792604990E+03  0.24034371438E+03  0.00000000000E+00 0.  1.
<scales pt_clust_5="13000.00000" pt_clust_6="13000.00000" pt_clust_7="13000.00000" pt_clust_8="13000.00000" pt_clust_9="13000.00000"></scales>
<clustering>
<clus scale="   71.816">  7  8 -1 -1</clus>
<clus scale="   93.664">  5  6 -1 -1</clus>
<clus scale="  101.358">  7  9 -1 -1</clus>
<clus scale="  116.710">  1  5  2 -1</clus>
<clus scale="  385.115">  2  5  1 -1</clus>
</clustering>
</event>
<event>
 9    1  0.3303741E-006  0.3277606E+03  0.7546771E-02  0.1081603E+00
          1   -1    0    0  502    0 -0.00000000000E+00  0.00000000000E+00  0.11278730942E+04  0.11278730942E+04  0.00000000000E+00 0. -1.
         21   -1    0    0  501  502  0.00000000000E+00 -0.00000000000E+00 -0.76077152485E+02  0.76077152485E+02  0.00000000000E+00 0. -1.
         23    2    1    2    0    0 -0.22918452953E+03  0.59324854269E+02  0.53384078173E+03  0.59100283655E+03  0.90848146164E+02 0.  0.
         23    2    1    2    0    0  0.31096661610E+02  0.27367311047E+02  0.18429946748E+03  0.21535408011E+03  0.10341718440E+03 0.  0.
        -11    1    4    4    0    0 -0.25423241091E+02  0.34436989462E+02  0.34133338505E+02  0.54747897022E+02  0.00000000000E+00 0.  1.
         11    1    4    4    0    0  0.56519902701E+02 -0.70696784144E+01  0.15016612898E+03  0.16060618309E+03  0.00000000000E+00 0. -1.
        -13    1    3    3    0    0 -0.92153904716E+02  0.70258634373E+02  0.23186945463E+03  0.25921431644E+03  0.00000000000E+00 0. -1.
         13    1    3    3    0    0 -0.13703062481E+03 -0.10933780104E+02  0.30197132710E+03  0.33178852011E+03  0.00000000000E+00 0.  1.
          1    1    1    2  501    0  0.19808786792E+03 -0.86692165317E+02  0.33365569250E+03  0.39759333002E+03  0.00000000000E+00 0. -1.
<scales pt_clust_5="13000.00000" pt_clust_6="13000.00000" pt_clust_7="13000.00000" pt_clust_8="13000.00000" pt_clust_9="13000.00000"></scales>
<clustering>
<clus scale="   90.848">  7  8 -1 -1</clus>
<clus scale="  103.417">  5  6 -1 -1</clus>
<clus scale="  216.228">  5  9 -1 -1</clus>
<clus scale="  253.571">  1  7  2 -1</clus>
<clus scale="  327.761">  2  5  1 -1</clus>
</clustering>
</event>
<event>
 9    1  0.3303741E-006  0.1232182E+03  0.7546771E-02  0.1247635E+00
         21   -1    0    0  501  502  0.00000000000E+00  0.00000000000E+00  0.23205716188E+02  0.23205716188E+02  0.00000000000E+00 0.  1.
          4   -1    0    0  502    0 -0.00000000000E+00 -0.00000000000E+00 -0.56202512469E+03  0.56202512469E+03  0.00000000000E+00 0. -1.
         23    2    1    2    0    0  0.33722291562E+02  0.19923093900E+02 -0.29826895245E+03  0.31495827955E+03  0.93275008660E+02 0.  0.
         23    2    1    2    0    0 -0.23273969561E+02 -0.38765694135E+02 -0.19818283429E+03  0.22274124124E+03  0.91064636603E+02 0.  0.
        -11    1    4    4    0    0 -0.47855803928E+02 -0.40480262510E+01 -0.15439579495E+03  0.16169299918E+03  0.00000000000E+00 0.  1.
         11    1    4    4    0    0  0.24581834367E+02 -0.34717667884E+02 -0.43787039349E+02  0.61048242064E+02  0.00000000000E+00 0. -1.
        -11    1    3    3    0    0  0.57673300253E+02  0.12061841508E+02 -0.27292383758E+03  0.27921160202E+03  0.00000000000E+00 0. -1.
         11    1    3    3    0    0 -0.23951008691E+02  0.78612523927E+01 -0.25345114873E+02  0.35746677530E+02  0.00000000000E+00 0.  1.
          4    1    1    2  501    0 -0.10448322001E+02  0.18842600234E+02 -0.42367621761E+02  0.47531320094E+02  0.00000000000E+00 0. -1.
<scales pt_clust_5="13000.00000" pt_clust_6="13000.00000" pt_clust_7="13000.00000" pt_clust_8="13000.00000" pt_clust_9="13000.00000"></scales>
<clustering>
<clus scale="   91.065">  5  6 -1 -1</clus>
<clus scale="   21.546">  5  9 -1 -1</clus>
<clus scale="   93.275">  7  8 -1 -1</clus>
<clus scale="  101.165">  2  7  1 -1</clus>
<clus scale="  123.218">  1  5  2 -1</clus>
</clustering>
</event>
<event>
 9    1  0.3303741E-006  0.1614458E+03  0.7546771E-02  0.1207174E+00
         21   -1    0    0  501  502  0.00000000000E+00  0.00000000000E+00  0.11201874023E+03  0.11201874023E+03  0.00000000000E+00 0.  1.
         -3   -1    0    0    0  501 -0.00000000000E+00 -0.00000000000E+00 -0.20622524231E+03  0.20622524231E+03  0.00000000000E+00 0.  1.
         23    2    1    2    0    0  0.45800309715E+02 -0.15256627367E+02  0.36707619532E+02  0.11039003349E+03  0.92239238465E+02 0.  0.
         23    2    1    2    0    0 -0.32943792043E+02  0.48579115677E+02 -0.13316321573E+03  0.17206656723E+03  0.91810879633E+02 0.  0.
        -11    1    4    4    0    0 -0.52864267083E+01 -0.27505092630E+02 -0.35044065769E+02  0.44861597982E+02  0.00000000000E+00 0. -1.
         11    1    4    4    0    0 -0.27657365334E+02  0.76084208307E+02 -0.98119149961E+02  0.12720496924E+03  0.00000000000E+00 0.  1.
        -13    1    3    3    0    0  0.42439572297E+02  0.34183275193E+02  0.21095896370E+02  0.58435010425E+02  0.00000000000E+00 0.  1.
         13    1    3    3    0    0  0.33607374173E+01 -0.49439902560E+02  0.15611723162E+02  0.51955023061E+02  0.00000000000E+00 0. -1.
         -3    1    1    2    0  502 -0.12856517672E+02 -0.33322488309E+02  0.22490941176E+01  0.35787381828E+02  0.00000000000E+00 0.  1.
<scales pt_clust_5="13000.00000" pt_clust_6="13000.00000" pt_clust_7="13000.00000" pt_clust_8="13000.00000" pt_clust_9="13000.00000"></scales>
<clustering>
<clus scale="   91.811">  5  6 -1 -1</clus>
<clus scale="   35.717">  5  9 -1 -1</clus>
<clus scale="   92.239">  7  8 -1 -1</clus>
<clus scale="  104.108">  2  7  1 -1</clus>
<clus scale="  161.446">  1  5  2 -1</clus>
</clustering>
</event>
<event>
 9    1  0.3424391E-006  0.4379183E+03  0.7546771E-02  0.1059779E+00
          1   -1    0    0  502    0 -0.00000000000E+00  0.00000000000E+00  0.52493251153E+03  0.52493251153E+03  0.00000000000E+00 0. -1.
         21   -1    0    0  501  502  0.00000000000E+00 -0.00000000000E+00 -0.34585529460E+03  0.34585529460E+03  0.00000000000E+00 0. -1.
         23    2    1    2    0    0  0.16848898438E+03 -0.37633525457E+02  0.35065255164E+03  0.40045757785E+03  0.87202291174E+02 0.  0.
         23    2    1    2    0    0 -0.43967721777E+01 -0.23768727259E+02  0.10618865890E+03  0.14192601561E+03  0.91009222760E+02 0.  0.
        -11    1    4    4    0    0 -0.33667576304E+02  0.21328932855E+02  0.52839777537E+02  0.66185127945E+02  0.00000000000E+00 0.  1.
         11    1    4    4    0    0  0.29270804126E+02 -0.45097660114E+02  0.53348881367E+02  0.75740887670E+02  0.00000000000E+00 0. -1.
        -13    1    3    3    0    0  0.72900708339E+02 -0.24824941675E+02  0.71390683957E+02  0.10501152680E+03  0.00000000000E+00 0.  1.
         13    1    3    3    0    0  0.95588276044E+02 -0.12808583782E+02  0.27926186769E+03  0.29544605105E+03  0.00000000000E+00 0. -1.
          1    1    1    2  501    0 -0.16409221221E+03  0.61402252715E+02 -0.27776399362E+03  0.32840421266E+03  0.00000000000E+00 0. -1.
<scales pt_clust_5="13000.00000" pt_clust_6="13000.00000" pt_clust_7="13000.00000" pt_clust_8="13000.00000" pt_clust_9="13000.00000"></scales>
<clustering>
<clus scale="   87.202">  7  8 -1 -1</clus>
<clus scale="   91.009">  5  6 -1 -1</clus>
<clus scale="  175.204">  5  9 -1 -1</clus>
<clus scale="  193.414">  1  7  2 -1</clus>
<clus scale="  437.918">  2  5  1 -1</clus>
</clustering>
</event>
<event>
 9    1  0.3303741E-006  0.2397936E+03  0.7546771E-02  0.1156869E+00
          4   -1    0    0  502    0 -0.00000000000E+00  0.00000000000E+00  0.62118323454E+02  0.62118323454E+02  0.00000000000E+00 0. -1.
         21   -1    0    0  501  502  0.00000000000E+00 -0.00000000000E+00 -0.52571429883E+03  0.52571429883E+03  0.00000000000E+00 0. -1.
         23    2    1    2    0    0 -0.36455703145E+02  0.12837206302E+02 -0.50872920143E+02  0.11050537591E+03  0.90164138900E+02 0.  0.
         23    2    1    2    0    0  0.72602927771E+02 -0.91454281270E+02 -0.30498357713E+03  0.33914236491E+03  0.91473989040E+02 0.  0.
        -11    1    3    3    0    0 -0.48959485986E+02 -0.10970833378E+02 -0.63389695281E+02  0.80843329476E+02  0.00000000000E+00 0. -1.
         11    1    3    3    0    0  0.12503782841E+02  0.23808039680E+02  0.12516775137E+02  0.29662046433E+02  0.00000000000E+00 0.  1.
        -13    1    4    4    0    0  0.84562188190E+02 -0.58244324058E+02 -0.27238022284E+03  0.29109130998E+03  0.00000000000E+00 0. -1.
         13    1    4    4    0    0 -0.11959260418E+02 -0.33209957212E+02 -0.32603354295E+02  0.48051054921E+02  0.00000000000E+00 0.  1.
          4    1    1    2  501    0 -0.36147224626E+02  0.78617074968E+02 -0.10773947810E+03  0.13818488147E+03  0.00000000000E+00 0. -1.
<scales pt_clust_5="13000.00000" pt_clust_6="13000.00000" pt_clust_7="13000.00000" pt_clust_8="13000.00000" pt_clust_9="13000.00000"></scales>
<clustering>
<clus scale="   90.164">  5  6 -1 -1</clus>
<clus scale="   91.474">  7  8 -1 -1</clus>
<clus scale="   86.529">  7  9 -1 -1</clus>
<clus scale="   98.099">  1  5  2 -1</clus>
<clus scale="  239.794">  2  5  1 -1</clus>
</clustering>
</event>
<event>
 9    1  0.3303741E-006  0.5083510E+03  0.7546771E-02  0.1062034E+00
          2   -1    0    0  502    0 -0.00000000000E+00  0.00000000000E+00  0.91921408300E+03  0.91921408300E+03  0.00000000000E+00 0. -1.
         21   -1    0    0  501  502  0.00000000000E+00 -0.00000000000E+00 -0.11512577942E+03  0.11512577942E+03  0.00000000000E+00 0. -1.
         23    2    1    2    0    0 -0.27884629849E+02 -0.64067834481E+02  0.28524782443E+03  0.30796792041E+03  0.92712882929E+02 0.  0.
         23    2    1    2    0    0 -0.13102143716E+02  0.26377534583E+03  0.18490026039E+03  0.33511873066E+03  0.91473264457E+02 0.  0.
        -11    1    4    4    0    0  0.11203288219E+02  0.98328667873E+02  0.12048451353E+03  0.15591843571E+03  0.00000000000E+00 0.  1.
         11    1    4    4    0    0 -0.24305431935E+02  0.16544667795E+03  0.64415746860E+02  0.17920029495E+03  0.00000000000E+00 0. -1.
        -13    1    3    3    0    0 -0.15893504065E+02  0.23133284953E+02  0.70289900070E+02  0.75686342203E+02  0.00000000000E+00 0.  1.
         13    1    3    3    0    0 -0.11991125784E+02 -0.87201119433E+02  0.21495792436E+03  0.23228157821E+03  0.00000000000E+00 0. -1.
          2    1    1    2  501    0  0.40986773565E+02 -0.19970751135E+03  0.33394021875E+03  0.39125321135E+03  0.00000000000E+00 0. -1.
<scales pt_clust_5="13000.00000" pt_clust_6="13000.00000" pt_clust_7="13000.00000" pt_clust_8="13000.00000" pt_clust_9="13000.00000"></scales>
<clustering>
<clus scale="   91.473">  5  6 -1 -1</clus>
<clus scale="   92.713">  7  8 -1 -1</clus>
<clus scale="  116.094">  1  7  2 -1</clus>
<clus scale="  238.308">  5  9 -1 -1</clus>
<clus scale="  508.351">  2  5  1 -1</clus>
</clustering>
</event>
<event>
 9    1  0.3303741E-006  0.3639679E+03  0.7546771E-02  0.1076508E+00
         21   -1    0    0  501  502  0.00000000000E+00  0.00000000000E+00  0.14980466348E+03  0.14980466348E+03  0.00000000000E+00 0. -1.
          1   -1    0    0  502    0 -0.00000000000E+00 -0.00000000000E+00 -0.62416429869E+03  0.62416429869E+03  0.00000000000E+00 0. -1.
         23    2    1    2    0    0 -0.18167819521E+03  0.63902993150E+02 -0.30704079783E+03  0.37338412306E+03  0.89727881236E+02 0.  0.
         23    2    1    2    0    0  0.55806834035E+02  0.43214855035E+02 -0.20186455158E+03  0.23173212419E+03  0.89266756265E+02 0.  0.
        -11    1    4    4    0    0  0.61013255958E+02  0.64092527161E+02 -0.13436811999E+03  0.16088897138E+03  0.00000000000E+00 0. -1.
         11    1    4    4    0    0 -0.52064219237E+01 -0.20877672126E+02 -0.67496431592E+02  0.70843152811E+02  0.00000000000E+00 0.  1.
        -13    1    3    3    0    0 -0.13692072916E+03  0.33729004077E+02 -0.14360173756E+03  0.20126199547E+03  0.00000000000E+00 0. -1.
         13    1    3    3    0    0 -0.44757466054E+02  0.30173989074E+02 -0.16343906028E+03  0.17212212760E+03  0.00000000000E+00 0.  1.
          1    1    1    2  501    0  0.12587136118E+03 -0.10711784819E+03  0.34545714216E+02  0.16885271492E+03  0.00000000000E+00 0. -1.
<scales pt_clust_5="13000.00000" pt_clust_6="13000.00000" pt_clust_7="13000.00000" pt_clust_8="13000.00000" pt_clust_9="13000.00000"></scales>
<clustering>
<clus scale="   89.267">  5  6 -1 -1</clus>
<clus scale="   89.728">  7  8 -1 -1</clus>
<clus scale="  165.281">  5  9 -1 -1</clus>
<clus scale="  212.466">  2  7  1 -1</clus>
<clus scale="  363.968">  1  5  2 -1</clus>
</clustering>
</event>
<event>
 9    1  0.3303741E-006  0.3195342E+03  0.7546771E-02  0.1123687E+00
         21   -1    0    0  501  502  0.00000000000E+00  0.00000000000E+00  0.51133210529E+02  0.51133210529E+02  0.00000000000E+00 0.  1.
         -1   -1    0    0    0  501 -0.00000000000E+00 -0.00000000000E+00 -0.84504884678E+03  0.84504884678E+03  0.00000000000E+00 0.  1.
         23    2    1    2    0    0 -0.12783933886E+02 -0.27587035245E+02 -0.13061339408E+03  0.15992667133E+03  0.87133277291E+02 0.  0.
         23    2    1    2    0    0 -0.77113853509E+02 -0.79618252197E+01 -0.61780939752E+03  0.62941469816E+03  0.92002573494E+02 0.  0.
        -11    1    4    4    0    0 -0.69229731837E+02  0.33818845075E+02 -0.43047167176E+03  0.43731262300E+03  0.00000000000E+00 0. -1.
         11    1    4    4    0    0 -0.78841216721E+01 -0.41780670295E+02 -0.18733772576E+03  0.19210207515E+03  0.00000000000E+00 0.  1.
        -13    1    3    3    0    0 -0.23590790950E+02 -0.51408183356E+02 -0.11806479097E+03  0.13091455840E+03  0.00000000000E+00 0.  1.
         13    1    3    3    0    0  0.10806857064E+02  0.23821148111E+02 -0.12548603106E+02  0.29012112933E+02  0.00000000000E+00 0. -1.
         -1    1    1    2    0  502  0.89897787395E+02  0.35548860465E+02 -0.45492844655E+02  0.10684068782E+03  0.00000000000E+00 0.  1.
<scales pt_clust_5="13000.00000" pt_clust_6="13000.00000" pt_clust_7="13000.00000" pt_clust_8="13000.00000" pt_clust_9="13000.00000"></scales>
<clustering>
<clus scale="   87.133">  7  8 -1 -1</clus>
<clus scale="   92.003">  5  6 -1 -1</clus>
<clus scale="   92.286">  2  7  1 -1</clus>
<clus scale="   94.301">  5  9 -1 -1</clus>
<clus scale="  319.534">  1  5  2 -1</clus>
</clustering>
</event>
<event>
 9    1  0.3303741E-006  0.3588572E+03  0.7546771E-02  0.1093872E+00
          1   -1    0    0  502    0 -0.00000000000E+00  0.00000000000E+00  0.36115034039E+03  0.36115034039E+03  0.00000000000E+00 0. -1.
         21   -1    0    0  501  502  0.00000000000E+00 -0.00000000000E+00 -0.17195472293E+03  0.17195472293E+03  0.00000000000E+00 0. -1.
         23    2    1    2    0    0 -0.10236283582E+03  0.38416250715E+02  0.49383874469E+02  0.14797418160E+03  0.86623512315E+02 0.  0.
         23    2    1    2    0    0 -0.41704910181E+02  0.25914991421E+02  0.19260315580E+03  0.21875492967E+03  0.91361136806E+02 0.  0.
        -13    1    3    3    0    0  0.29580860955E+01  0.26174082297E+02  0.30458293160E+02  0.40268355810E+02  0.00000000000E+00 0.  1.
         13    1    3    3    0    0 -0.10532092192E+03  0.12242168418E+02  0.18925581309E+02  0.10770582579E+03  0.00000000000E+00 0. -1.
        -13    1    4    4    0    0 -0.11270778156E+02  0.46412080584E+02  0.41536954099E+02  0.63296368144E+02  0.00000000000E+00 0.  1.
         13    1    4    4    0    0 -0.30434132025E+02 -0.20497089163E+02  0.15106620170E+03  0.15545856153E+03  0.00000000000E+00 0. -1.
          1    1    1    2  501    0  0.14406774600E+03 -0.64331242136E+02 -0.52791412808E+02  0.16637595204E+03  0.00000000000E+00 0. -1.
<scales pt_clust_5="13000.00000" pt_clust_6="13000.00000" pt_clust_7="13000.00000" pt_clust_8="13000.00000" pt_clust_9="13000.00000"></scales>
<clustering>
<clus scale="   86.624">  5  6 -1 -1</clus>
<clus scale="   91.361">  7  8 -1 -1</clus>
<clus scale="  139.491">  1  5  2 -1</clus>
<clus scale="  134.173">  7  9 -1 -1</clus>
<clus scale="  358.857">  2  5  1 -1</clus>
</clustering>
</event>
<event>
 9    1  0.3303741E-006  0.5051807E+03  0.7546771E-02  0.1065638E+00
          2   -1    0    0  502    0 -0.00000000000E+00  0.00000000000E+00  0.52509748845E+03  0.52509748845E+03  0.00000000000E+00 0. -1.
         21   -1    0    0  501  502  0.00000000000E+00 -0.00000000000E+00 -0.27133961394E+03  0.27133961394E+03  0.00000000000E+00 0.  1.
         23    2    1    2    0    0 -0.39956838269E+02  0.39157427038E+02  0.27057937303E+03  0.29097644500E+03  0.91237280860E+02 0.  0.
         23    2    1    2    0    0 -0.21121663743E+03  0.55398037594E+02 -0.84162231919E+01  0.23694715784E+03  0.91606289643E+02 0.  0.
        -11    1    3    3    0    0  0.27411713035E+02  0.22611457679E+02  0.12069303371E+03  0.12581529484E+03  0.00000000000E+00 0.  1.
         11    1    3    3    0    0 -0.67368551304E+02  0.16545969359E+02  0.14988633932E+03  0.16516115016E+03  0.00000000000E+00 0. -1.
        -11    1    4    4    0    0 -0.11051313784E+03  0.60652442382E+02 -0.38333389084E+02  0.13176236611E+03  0.00000000000E+00 0.  1.
         11    1    4    4    0    0 -0.10070349958E+03 -0.52544047884E+01  0.29917165892E+02  0.10518479174E+03  0.00000000000E+00 0. -1.
          2    1    1    2  501    0  0.25117347570E+03 -0.94555464631E+02 -0.84052753332E+01  0.26851349955E+03  0.00000000000E+00 0. -1.
<scales pt_clust_5="13000.00000" pt_clust_6="13000.00000" pt_clust_7="13000.00000" pt_clust_8="13000.00000" pt_clust_9="13000.00000"></scales>
<clustering>
<clus scale="   91.237">  5  6 -1 -1</clus>
<clus scale="   91.606">  7  8 -1 -1</clus>
<clus scale="  107.024">  1  5  2 -1</clus>
<clus scale="  241.432">  7  9 -1 -1</clus>
<clus scale="  505.181">  2  5  1 -1</clus>
</clustering>
</event>
<event>
 9    1  0.3303741E-006  0.1374499E+03  0.7546771E-02  0.1234823E+00
          3   -1    0    0  502    0 -0.00000000000E+00  0.00000000000E+00  0.42212801911E+02  0.42212801911E+02  0.00000000000E+00 0. -1.
         21   -1    0    0  501  502  0.00000000000E+00 -0.00000000000E+00 -0.34086601014E+03  0.34086601014E+03  0.00000000000E+00 0.  1.
         23    2    1    2    0    0  0.18608379412E+02 -0.18361791983E+02 -0.17163120495E+03  0.19592366076E+03  0.90804092120E+02 0.  0.
         23    2    1    2    0    0 -0.47724074375E+02  0.26850786279E+02 -0.86204259112E+02  0.13630365223E+03  0.90271586470E+02 0.  0.
        -11    1    4    4    0    0 -0.24358189459E+02  0.47478255804E+02 -0.90278803957E+02  0.10487024655E+03  0.00000000000E+00 0.  1.
         11    1    4    4    0    0 -0.23365884915E+02 -0.20627469525E+02  0.40745448452E+01  0.31433405679E+02  0.00000000000E+00 0. -1.
        -11    1    3    3    0    0  0.38469384150E+02  0.15458440908E+02 -0.36570370100E+02  0.55283350852E+02  0.00000000000E+00 0.  1.
         11    1    3    3    0    0 -0.19861004738E+02 -0.33820232892E+02 -0.13506083485E+03  0.14064030991E+03  0.00000000000E+00 0. -1.
          3    1    1    2  501    0  0.29115694963E+02 -0.84889942960E+01 -0.40817744171E+02  0.50851499059E+02  0.00000000000E+00 0. -1.
<scales pt_clust_5="13000.00000" pt_clust_6="13000.00000" pt_clust_7="13000.00000" pt_clust_8="13000.00000" pt_clust_9="13000.00000"></scales>
<clustering>
<clus scale="   90.272">  5  6 -1 -1</clus>
<clus scale="   30.328">  5  9 -1 -1</clus>
<clus scale="   90.804">  7  8 -1 -1</clus>
<clus scale="   94.492">  1  7  2 -1</clus>
<clus scale="  137.450">  2  5  1 -1</clus>
</clustering>
</event>
<event>
 9    1  0.3303741E-006  0.1884583E+03  0.7546771E-02  0.1176839E+00
         21   -1    0    0  501  502  0.00000000000E+00  0.00000000000E+00  0.45342414571E+02  0.45342414571E+02  0.00000000000E+00 0. -1.
          1   -1    0    0  502    0 -0.00000000000E+00 -0.00000000000E+00 -0.57305314931E+03  0.57305314931E+03  0.00000000000E+00 0. -1.
         23    2    1    2    0    0  0.88138471527E+02  0.11129177632E+02 -0.27467798794E+03  0.30289260253E+03  0.91671603274E+02 0.  0.
         23    2    1    2    0    0 -0.39688061158E+02 -0.37100250485E+02 -0.23434749179E+03  0.25744197924E+03  0.91684540576E+02 0.  0.
        -11    1    3    3    0    0  0.78934746757E+02 -0.30205553749E+02 -0.19832272470E+03  0.21558054842E+03  0.00000000000E+00 0. -1.
         11    1    3    3    0    0  0.92037247695E+01  0.41334731381E+02 -0.76355263242E+02  0.87312054109E+02  0.00000000000E+00 0.  1.
        -11    1    4    4    0    0 -0.44072609712E+02  0.13226634458E+02 -0.16718291192E+03  0.17339972556E+03  0.00000000000E+00 0.  1.
         11    1    4    4    0    0  0.43845485542E+01 -0.50326884943E+02 -0.67164579870E+02  0.84042253677E+02  0.00000000000E+00 0. -1.
          1    1    1    2  501    0 -0.48450410369E+02  0.25971072853E+02 -0.18685255007E+02  0.58060982120E+02  0.00000000000E+00 0. -1.
<scales pt_clust_5="13000.00000" pt_clust_6="13000.00000" pt_clust_7="13000.00000" pt_clust_8="13000.00000" pt_clust_9="13000.00000"></scales>
<clustering>
<clus scale="   91.672">  5  6 -1 -1</clus>
<clus scale="   91.685">  7  8 -1 -1</clus>
<clus scale="   54.972">  7  9 -1 -1</clus>
<clus scale="  127.656">  2  5  1 -1</clus>
<clus scale="  188.458">  1  5  2 -1</clus>
</clustering>
</event>
<event>
 9    1  0.3303741E-006  0.2215791E+03  0.7546771E-02  0.1162250E+00
         -1   -1    0    0    0  501 -0.00000000000E+00  0.00000000000E+00  0.27269471441E+03  0.27269471441E+03  0.00000000000E+00 0.  1.
         21   -1    0    0  501  502  0.00000000000E+00 -0.00000000000E+00 -0.12243578316E+03  0.12243578316E+03  0.00000000000E+00 0.  1.
         23    2    1    2    0    0 -0.15259097502E+01  0.66220595977E+02  0.13369778723E+03  0.17293334012E+03  0.87426232242E+02 0.  0.
         23    2    1    2    0    0  0.18515533262E+02  0.45818358953E+02  0.27188470620E+02  0.10838013412E+03  0.92546710088E+02 0.  0.
        -11    1    3    3    0    0 -0.19701090103E+02  0.82390731574E+02  0.95621509973E+02  0.12774912434E+03  0.00000000000E+00 0.  1.
         11    1    3    3    0    0  0.18175180353E+02 -0.16170135597E+02  0.38076277254E+02  0.45184215780E+02  0.00000000000E+00 0. -1.
        -11    1    4    4    0    0  0.42778093635E+02  0.29026351503E+02  0.49356337794E+02  0.71474068424E+02  0.00000000000E+00 0.  1.
         11    1    4    4    0    0 -0.24262560374E+02  0.16792007450E+02 -0.22167867175E+02  0.36906065696E+02  0.00000000000E+00 0. -1.
         -1    1    1    2    0  502 -0.16989623511E+02 -0.11203895493E+03 -0.10627326589E+02  0.11381702333E+03  0.00000000000E+00 0.  1.
<scales pt_clust_5="13000.00000" pt_clust_6="13000.00000" pt_clust_7="13000.00000" pt_clust_8="13000.00000" pt_clust_9="13000.00000"></scales>
<clustering>
<clus scale="   87.426">  5  6 -1 -1</clus>
<clus scale="   92.547">  7  8 -1 -1</clus>
<clus scale="  109.685">  1  5  2 -1</clus>
<clus scale="   85.266">  7  9 -1 -1</clus>
<clus scale="  221.579">  2  5  1 -1</clus>
</clustering>
</event>
<event>
 9    1  0.3303741E-006  0.1664448E+03  0.7546771E-02  0.1193345E+00
         21   -1    0    0  501  502  0.00000000000E+00  0.00000000000E+00  0.86995283250E+02  0.86995283250E+02  0.00000000000E+00 0.  1.
          2   -1    0    0  502    0 -0.00000000000E+00 -0.00000000000E+00 -0.33411985010E+03  0.33411985010E+03  0.00000000000E+00 0. -1.
         23    2    1    2    0    0  0.30979719237E+02  0.84388767082E+02 -0.21683433090E+03  0.25193657083E+03  0.91507932181E+02 0.  0.
         23    2    1    2    0    0 -0.22596426607E+02 -0.10617608634E+03 -0.16123358838E+02  0.14187165344E+03  0.89909084880E+02 0.  0.
        -13    1    3    3    0    0 -0.23186473465E+02  0.39393824239E+02 -0.37005213332E+02  0.58812173515E+02  0.00000000000E+00 0.  1.
         13    1    3    3    0    0  0.54166192702E+02  0.44994942843E+02 -0.17982911757E+03  0.19312439732E+03  0.00000000000E+00 0. -1.
        -13    1    4    4    0    0 -0.78962162672E+01 -0.73068228086E+02  0.33225006343E+02  0.80654926902E+02  0.00000000000E+00 0.  1.
         13    1    4    4    0    0 -0.14700210340E+02 -0.33107858258E+02 -0.49348365182E+02  0.61216726542E+02  0.00000000000E+00 0. -1.
          2    1    1    2  501    0 -0.83832926303E+01  0.21787319263E+02 -0.14166877105E+02  0.27306909069E+02  0.00000000000E+00 0. -1.
<scales pt_clust_5="13000.00000" pt_clust_6="13000.00000" pt_clust_7="13000.00000" pt_clust_8="13000.00000" pt_clust_9="13000.00000"></scales>
<clustering>
<clus scale="   89.909">  7  8 -1 -1</clus>
<clus scale="   23.345">  7  9 -1 -1</clus>
<clus scale="   91.508">  5  6 -1 -1</clus>
<clus scale="  128.277">  2  5  1 -1</clus>
<clus scale="  166.445">  1  5  2 -1</clus>
</clustering>
</event>
<event>
 9    1  0.3303741E-006  0.3341453E+03  0.7546771E-02  0.1108417E+00
         21   -1    0    0  501  502  0.00000000000E+00  0.00000000000E+00  0.11428343636E+03  0.11428343636E+03  0.00000000000E+00 0.  1.
         -1   -1    0    0    0  501 -0.00000000000E+00 -0.00000000000E+00 -0.45181223372E+03  0.45181223372E+03  0.00000000000E+00 0.  1.
         23    2    1    2    0    0  0.53027266461E+01  0.76410246434E+02 -0.67107128336E+02  0.13623410895E+03  0.90497077841E+02 0.  0.
         23    2    1    2    0    0 -0.35257804084E+01 -0.51235292168E+02 -0.34026503958E+03  0.35559829787E+03  0.89623467901E+02 0.  0.
        -11    1    3    3    0    0 -0.24261602219E+02  0.79669599706E+02 -0.66350118941E+02  0.10648102527E+03  0.00000000000E+00 0.  1.
         11    1    3    3    0    0  0.29564328865E+02 -0.32593532725E+01 -0.75700939419E+00  0.29753083676E+02  0.00000000000E+00 0. -1.
        -11    1    4    4    0    0  0.41863375010E+02 -0.12732277086E+02 -0.14745396271E+03  0.15380937607E+03  0.00000000000E+00 0. -1.
         11    1    4    4    0    0 -0.45389155419E+02 -0.38503015083E+02 -0.19281107687E+03  0.20178892180E+03  0.00000000000E+00 0.  1.
         -1    1    1    2    0  502 -0.17769462377E+01 -0.25174954266E+02  0.69843370547E+02  0.74263263257E+02  0.00000000000E+00 0.  1.
<scales pt_clust_5="13000.00000" pt_clust_6="13000.00000" pt_clust_7="13000.00000" pt_clust_8="13000.00000" pt_clust_9="13000.00000"></scales>
<clustering>
<clus scale="   89.623">  7  8 -1 -1</clus>
<clus scale="   25.238">  7  9 -1 -1</clus>
<clus scale="   90.497">  5  6 -1 -1</clus>
<clus scale="  118.560">  2  5  1 -1</clus>
<clus scale="  334.145">  1  5  2 -1</clus>
</clustering>
</event>
<event>
 9    1  0.3303741E-006  0.3014748E+03  0.7546771E-02  0.1119590E+00
          2   -1    0    0  502    0 -0.00000000000E+00  0.00000000000E+00  0.25432653068E+03  0.25432653068E+03  0.00000000000E+00 0. -1.
         21   -1    0    0  501  502  0.00000000000E+00 -0.00000000000E+00 -0.17753713120E+03  0.17753713120E+03  0.00000000000E+00 0. -1.
         23    2    1    2    0    0 -0.81686995478E+02 -0.83133689019E+01  0.42020392892E+01  0.12177334958E+03  0.89828804966E+02 0.  0.
         23    2    1    2    0    0  0.43031351466E+01 -0.63994823924E+00  0.16520425462E+03  0.18906836031E+03  0.91844829044E+02 0.  0.
        -11    1    4    4    0    0  0.32407118265E+02  0.33353832191E+02  0.68673024905E+02  0.82937830847E+02  0.00000000000E+00 0.  1.
         11    1    4    4    0    0 -0.28103983118E+02 -0.33993780430E+02  0.96531229712E+02  0.10613052947E+03  0.00000000000E+00 0. -1.
        -13    1    3    3    0    0 -0.54087836890E+02 -0.33631095228E+02 -0.30588070870E+02  0.70655323545E+02  0.00000000000E+00 0.  1.
         13    1    3    3    0    0 -0.27599158588E+02  0.25317726326E+02  0.34790110159E+02  0.51118026037E+02  0.00000000000E+00 0. -1.
          2    1    1    2  501    0  0.77383860331E+02  0.89533171412E+01 -0.92616894431E+02  0.12102195198E+03  0.00000000000E+00 0. -1.
<scales pt_clust_5="13000.00000" pt_clust_6="13000.00000" pt_clust_7="13000.00000" pt_clust_8="13000.00000" pt_clust_9="13000.00000"></scales>
<clustering>
<clus scale="   89.829">  7  8 -1 -1</clus>
<clus scale="   91.845">  5  6 -1 -1</clus>
<clus scale="   77.900">  5  9 -1 -1</clus>
<clus scale="  121.701">  1  7  2 -1</clus>
<clus scale="  301.475">  2  5  1 -1</clus>
</clustering>
</event>
<event>
 9    1  0.3303741E-006  0.2521922E+03  0.7546771E-02  0.1134667E+00
         -1   -1    0    0    0  501 -0.00000000000E+00  0.00000000000E+00  0.48721653467E+03  0.48721653467E+03  0.00000000000E+00 0.  1.
         21   -1    0    0  501  502  0.00000000000E+00 -0.00000000000E+00 -0.18058804197E+03  0.18058804197E+03  0.00000000000E+00 0.  1.
         23    2    1    2    0    0 -0.76015674180E+02  0.78030717857E+02  0.37920866297E+03  0.40537594043E+03  0.93076674641E+02 0.  0.
         23    2    1    2    0    0  0.14165784282E+03 -0.40768547574E+02 -0.69822692326E+02  0.18689740212E+03  0.91249173442E+02 0.  0.
        -11    1    4    4    0    0  0.12333627446E+03  0.23860686169E+01 -0.34188224659E+02  0.12800923649E+03  0.00000000000E+00 0.  1.
         11    1    4    4    0    0  0.18321568355E+02 -0.43154616191E+02 -0.35634467668E+02  0.58888165632E+02  0.00000000000E+00 0. -1.
        -13    1    3    3    0    0 -0.17868977467E+02  0.56592762981E+02  0.29448700394E+03  0.30040745108E+03  0.00000000000E+00 0.  1.
         13    1    3    3    0    0 -0.58146696712E+02  0.21437954876E+02  0.84721659030E+02  0.10496848935E+03  0.00000000000E+00 0. -1.
         -1    1    1    2    0  502 -0.65642168639E+02 -0.37262170283E+02 -0.27574779357E+01  0.75531234085E+02  0.00000000000E+00 0.  1.
<scales pt_clust_5="13000.00000" pt_clust_6="13000.00000" pt_clust_7="13000.00000" pt_clust_8="13000.00000" pt_clust_9="13000.00000"></scales>
<clustering>
<clus scale="   91.249">  5  6 -1 -1</clus>
<clus scale="   75.481">  5  9 -1 -1</clus>
<clus scale="   93.077">  7  8 -1 -1</clus>
<clus scale="  143.284">  1  7  2 -1</clus>
<clus scale="  252.192">  2  5  1 -1</clus>
</clustering>
</event>
<event>
 9    1  0.3303741E-006  0.1990625E+03  0.7546771E-02  0.1175880E+00
         21   -1    0    0  501  502  0.00000000000E+00  0.00000000000E+00  0.10228162531E+03  0.10228162531E+03  0.00000000000E+00 0.  1.
          1   -1    0    0  502    0 -0.00000000000E+00 -0.00000000000E+00 -0.23458006600E+03  0.23458006600E+03  0.00000000000E+00 0. -1.
         23    2    1    2    0    0  0.20505061735E+02 -0.60841678703E+02 -0.44936130311E+02  0.11947250388E+03  0.90179021685E+02 0.  0.
         23    2    1    2    0    0  0.44710991911E+02  0.51928139232E+02 -0.10014633605E+03  0.15033684853E+03  0.88748380049E+02 0.  0.
        -11    1    4    4    0    0  0.55793361131E+02 -0.24947906400E+01 -0.58805629934E+02  0.81100093949E+02  0.00000000000E+00 0.  1.
         11    1    4    4    0    0 -0.11082369220E+02  0.54422929872E+02 -0.41340706112E+02  0.69236754583E+02  0.00000000000E+00 0. -1.
        -11    1    3    3    0    0  0.47943676609E+02 -0.53792668759E+02 -0.53646288379E+02  0.89834133801E+02  0.00000000000E+00 0. -1.
         11    1    3    3    0    0 -0.27438614874E+02 -0.70490099444E+01  0.87101580681E+01  0.29638370079E+02  0.00000000000E+00 0.  1.
          1    1    1    2  501    0 -0.65216053646E+02  0.89135394713E+01  0.12784025673E+02  0.67052338897E+02  0.00000000000E+00 0. -1.
<scales pt_clust_5="13000.00000" pt_clust_6="13000.00000" pt_clust_7="13000.00000" pt_clust_8="13000.00000" pt_clust_9="13000.00000"></scales>
<clustering>
<clus scale="   88.748">  5  6 -1 -1</clus>
<clus scale="   65.822">  5  9 -1 -1</clus>
<clus scale="   90.179">  7  8 -1 -1</clus>
<clus scale="  110.700">  2  7  1 -1</clus>
<clus scale="  199.063">  1  5  2 -1</clus>
</clustering>
</event>
<event>
 9    1  0.3303741E-006  0.2082773E+03  0.7546771E-02  0.1173316E+00
          1   -1    0    0  502    0 -0.00000000000E+00  0.00000000000E+00  0.21045705840E+03  0.21045705840E+03  0.00000000000E+00 0. -1.
         21   -1    0    0  501  502  0.00000000000E+00 -0.00000000000E+00 -0.13750106759E+03  0.13750106759E+03  0.00000000000E+00 0. -1.
         23    2    1    2    0    0  0.46137782217E+02  0.34829761063E+02  0.93472992614E+02  0.13867271342E+03  0.84564258973E+02 0.  0.
         23    2    1    2    0    0 -0.83973984636E+02 -0.72914250808E+02 -0.44140215882E+02  0.15063336388E+03  0.91509199477E+02 0.  0.
        -11    1    4    4    0    0 -0.92219884863E+02 -0.42079918958E+02 -0.56917149943E+02  0.11625312340E+03  0.00000000000E+00 0. -1.
         11    1    4    4    0    0  0.82459002261E+01 -0.30834331850E+02  0.12776934061E+02  0.34380240475E+02  0.00000000000E+00 0.  1.
        -11    1    3    3    0    0  0.70078803847E+02  0.35191803465E+02  0.73781370399E+02  0.10767168800E+03  0.00000000000E+00 0. -1.
         11    1    3    3    0    0 -0.23941021630E+02 -0.36204240137E+00  0.19691622215E+02  0.31001025416E+02  0.00000000000E+00 0.  1.
          1    1    1    2  501    0  0.37836202419E+02  0.38084489745E+02  0.23623214074E+02  0.58652048692E+02  0.00000000000E+00 0. -1.
<scales pt_clust_5="13000.00000" pt_clust_6="13000.00000" pt_clust_7="13000.00000" pt_clust_8="13000.00000" pt_clust_9="13000.00000"></scales>
<clustering>
<clus scale="   84.564">  7  8 -1 -1</clus>
<clus scale="   91.509">  5  6 -1 -1</clus>
<clus scale="   53.684">  5  9 -1 -1</clus>
<clus scale="  102.435">  1  7  2 -1</clus>
<clus scale="  208.277">  2  5  1 -1</clus>
</clustering>
</event>
<event>
 9    1  0.3303741E-006  0.1885971E+03  0.7546771E-02  0.1183055E+00
         -1   -1    0    0    0  501 -0.00000000000E+00  0.00000000000E+00  0.93600943402E+02  0.93600943402E+02  0.00000000000E+00 0.  1.
         21   -1    0    0  501  502  0.00000000000E+00 -0.00000000000E+00 -0.55235767104E+03  0.55235767104E+03  0.00000000000E+00 0. -1.
         23    2    1    2    0    0 -0.51417631185E+02  0.35557176010E+02  0.36007126405E+02  0.11646815269E+03  0.91434303609E+02 0.  0.
         23    2    1    2    0    0  0.68239666362E+02 -0.80076788621E+02 -0.33155882488E+03  0.35948793731E+03  0.90726945120E+02 0.  0.
        -11    1    3    3    0    0 -0.66492696815E+02  0.93999340425E+01  0.49473875334E+02  0.83410441974E+02  0.00000000000E+00 0.  1.
         11    1    3    3    0    0  0.15075065630E+02  0.26157241967E+02 -0.13466748928E+02  0.33057710716E+02  0.00000000000E+00 0. -1.
        -11    1    4    4    0    0  0.39038710755E+02 -0.95937407656E+01 -0.35092421886E+02  0.53362335717E+02  0.00000000000E+00 0.  1.
         11    1    4    4    0    0  0.29200955606E+02 -0.70483047855E+02 -0.29646640300E+03  0.30612560159E+03  0.00000000000E+00 0. -1.
         -1    1    1    2    0  502 -0.16822035177E+02  0.44519612611E+02 -0.16320502916E+03  0.17000252444E+03  0.00000000000E+00 0.  1.
<scales pt_clust_5="13000.00000" pt_clust_6="13000.00000" pt_clust_7="13000.00000" pt_clust_8="13000.00000" pt_clust_9="13000.00000"></scales>
<clustering>
<clus scale="   90.727">  7  8 -1 -1</clus>
<clus scale="   47.592">  7  9 -1 -1</clus>
<clus scale="   91.434">  5  6 -1 -1</clus>
<clus scale="  110.762">  1  5  2 -1</clus>
<clus scale="  188.597">  2  5  1 -1</clus>
</clustering>
</event>
<event>
 9    1  0.3303741E-006  0.1334639E+03  0.7546771E-02  0.1227410E+00
          3   -1    0    0  502    0 -0.00000000000E+00  0.00000000000E+00  0.34844135715E+02  0.34844135715E+02  0.00000000000E+00 0. -1.
         21   -1    0    0  501  502  0.00000000000E+00 -0.00000000000E+00 -0.52073651944E+03  0.52073651944E+03  0.00000000000E+00 0.  1.
         23    2    1    2    0    0  0.16380740639E+02  0.64793276298E+02 -0.13842703757E+03  0.18336462461E+03  0.99970213119E+02 0.  0.
         23    2    1    2    0    0  0.10759220218E+01 -0.29357415851E+02 -0.26072054008E+03  0.27690025715E+03  0.88518568205E+02 0.  0.
        -13    1    3    3    0    0  0.49120830822E+02  0.16835054160E+01 -0.55719419149E+02  0.74299016692E+02  0.00000000000E+00 0.  1.
         13    1    3    3    0    0 -0.32740090182E+02  0.63109770882E+02 -0.82707618426E+02  0.10906560792E+03  0.00000000000E+00 0. -1.
        -13    1    4    4    0    0 -0.39528957573E+02 -0.21790227153E+02 -0.18726997873E+03  0.19263280463E+03  0.00000000000E+00 0.  1.
         13    1    4    4    0    0  0.40604879595E+02 -0.75671886981E+01 -0.73450561351E+02  0.84267452522E+02  0.00000000000E+00 0. -1.
          3    1    1    2  501    0 -0.17456662661E+02 -0.35435860447E+02 -0.86744806072E+02  0.95315773392E+02  0.00000000000E+00 0. -1.
<scales pt_clust_5="13000.00000" pt_clust_6="13000.00000" pt_clust_7="13000.00000" pt_clust_8="13000.00000" pt_clust_9="13000.00000"></scales>
<clustering>
<clus scale="   88.519">  7  8 -1 -1</clus>
<clus scale="   39.502">  7  9 -1 -1</clus>
<clus scale="   99.970">  5  6 -1 -1</clus>
<clus scale="  120.252">  1  5  2 -1</clus>
<clus scale="  133.464">  2  5  1 -1</clus>
</clustering>
</event>
<event>
 9    1  0.3303741E-006  0.1432331E+03  0.7546771E-02  0.1234507E+00
         21   -1    0    0  501  502  0.00000000000E+00  0.00000000000E+00  0.58673287620E+02  0.58673287620E+02  0.00000000000E+00 0. -1.
          1   -1    0    0  502    0 -0.00000000000E+00 -0.00000000000E+00 -0.22405496852E+03  0.22405496852E+03  0.00000000000E+00 0. -1.
         23    2    1    2    0    0 -0.18855592203E+01 -0.85746863991E+01 -0.43385183795E+02  0.94582379872E+02  0.83585117268E+02 0.  0.
         23    2    1    2    0    0  0.32578270097E+02 -0.18196319418E+01 -0.12184021271E+03  0.15574049431E+03  0.91353212276E+02 0.  0.
        -11    1    3    3    0    0 -0.19588545404E+02  0.15647655332E+02 -0.56520150346E+02  0.61831121804E+02  0.00000000000E+00 0.  1.
         11    1    3    3    0    0  0.17702986183E+02 -0.24222341731E+02  0.13134966550E+02  0.32751258068E+02  0.00000000000E+00 0. -1.
        -13    1    4    4    0    0  0.38650867938E+02 -0.32595460710E+02 -0.30230192111E+02  0.58908557666E+02  0.00000000000E+00 0. -1.
         13    1    4    4    0    0 -0.60725978408E+01  0.30775828768E+02 -0.91610020597E+02  0.96831936646E+02  0.00000000000E+00 0.  1.
          1    1    1    2  501    0 -0.30692710877E+02  0.10394318341E+02 -0.15628439333E+00  0.32405381953E+02  0.00000000000E+00 0. -1.
<scales pt_clust_5="13000.00000" pt_clust_6="13000.00000" pt_clust_7="13000.00000" pt_clust_8="13000.00000" pt_clust_9="13000.00000"></scales>
<clustering>
<clus scale="   83.585">  5  6 -1 -1</clus>
<clus scale="   84.045">  2  5  1 -1</clus>
<clus scale="   91.353">  7  8 -1 -1</clus>
<clus scale="   32.317">  7  9 -1 -1</clus>
<clus scale="  143.233">  1  5  2 -1</clus>
</clustering>
</event>
<event>
 9    1  0.3303741E-006  0.1762784E+03  0.7546771E-02  0.1186328E+00
         -4   -1    0    0    0  501 -0.00000000000E+00  0.00000000000E+00  0.17298211242E+03  0.17298211242E+03  0.00000000000E+00 0.  1.
         21   -1    0    0  501  502  0.00000000000E+00 -0.00000000000E+00 -0.14124667379E+03  0.14124667379E+03  0.00000000000E+00 0.  1.
         23    2    1    2    0    0 -0.76171631656E+02 -0.25977043009E+02 -0.25970651704E+02  0.12874544063E+03  0.97077234718E+02 0.  0.
         23    2    1    2    0    0  0.18159132894E+02  0.54520149026E+02  0.18019628756E+02  0.10962048150E+03  0.91595535845E+02 0.  0.
        -11    1    4    4    0    0 -0.32166737503E+02  0.97035582902E+01  0.24988933920E+02  0.41872483369E+02  0.00000000000E+00 0.  1.
         11    1    4    4    0    0  0.50325870396E+02  0.44816590736E+02 -0.69693051644E+01  0.67747998131E+02  0.00000000000E+00 0. -1.
        -13    1    3    3    0    0 -0.95249545198E+01 -0.50437041844E+02  0.44245482876E+01  0.51518895331E+02  0.00000000000E+00 0. -1.
         13    1    3    3    0    0 -0.66646677136E+02  0.24459998835E+02 -0.30395199991E+02  0.77226545299E+02  0.00000000000E+00 0.  1.
         -4    1    1    2    0  502  0.58012498762E+02 -0.28543106017E+02  0.39686461578E+02  0.75862864079E+02  0.00000000000E+00 0.  1.
<scales pt_clust_5="13000.00000" pt_clust_6="13000.00000" pt_clust_7="13000.00000" pt_clust_8="13000.00000" pt_clust_9="13000.00000"></scales>
<clustering>
<clus scale="   91.596">  5  6 -1 -1</clus>
<clus scale="   64.654">  5  9 -1 -1</clus>
<clus scale="   97.077">  7  8 -1 -1</clus>
<clus scale="  126.099">  1  7  2 -1</clus>
<clus scale="  176.278">  2  5  1 -1</clus>
</clustering>
</event>
<event>
 9    1  0.3303741E-006  0.4776115E+03  0.7546771E-02  0.1056263E+00
         21   -1    0    0  501  502  0.00000000000E+00  0.00000000000E+00  0.64614711369E+03  0.64614711369E+03  0.00000000000E+00 0.  1.
          1   -1    0    0  502    0 -0.00000000000E+00 -0.00000000000E+00 -0.16299329313E+03  0.16299329313E+03  0.00000000000E+00 0. -1.
         23    2    1    2    0    0  0.64203368009E+02 -0.12088609608E+03  0.17775310640E+03  0.24223449779E+03  0.91355702603E+02 0.  0.
         23    2    1    2    0    0 -0.10919951633E+02 -0.72355224214E+02 -0.74550004159E+02  0.13732020317E+03  0.89132548850E+02 0.  0.
        -11    1    3    3    0    0 -0.17729371682E+01 -0.91716970858E+02  0.88388442163E+02  0.12738784384E+03  0.00000000000E+00 0. -1.
         11    1    3    3    0    0  0.65976305177E+02 -0.29169125222E+02  0.89364664237E+02  0.11484665396E+03  0.00000000000E+00 0.  1.
        -13    1    4    4    0    0  0.28754463920E+02 -0.13806133237E+02 -0.55600726399E+02  0.64100462450E+02  0.00000000000E+00 0.  1.
         13    1    4    4    0    0 -0.39674415553E+02 -0.58549090978E+02 -0.18949277760E+02  0.73219740722E+02  0.00000000000E+00 0. -1.
          1    1    1    2  501    0 -0.53283416376E+02  0.19324132029E+03  0.37995071832E+03  0.42958570586E+03  0.00000000000E+00 0. -1.
<scales pt_clust_5="13000.00000" pt_clust_6="13000.00000" pt_clust_7="13000.00000" pt_clust_8="13000.00000" pt_clust_9="13000.00000"></scales>
<clustering>
<clus scale="   89.133">  7  8 -1 -1</clus>
<clus scale="   91.356">  5  6 -1 -1</clus>
<clus scale="  164.564">  2  5  1 -1</clus>
<clus scale="  175.185">  7  9 -1 -1</clus>
<clus scale="  477.611">  1  5  2 -1</clus>
</clustering>
</event>
<event>
 9    1  0.3303741E-006  0.2129147E+03  0.7546771E-02  0.1174405E+00
          2   -1    0    0  502    0 -0.00000000000E+00  0.00000000000E+00  0.45217063461E+03  0.45217063461E+03  0.00000000000E+00 0. -1.
         21   -1    0    0  501  502  0.00000000000E+00 -0.00000000000E+00 -0.11529914484E+03  0.11529914484E+03  0.00000000000E+00 0. -1.
         23    2    1    2    0    0 -0.81823275564E+01  0.29415576760E+02  0.34193021684E+03  0.35449498391E+03  0.88420550708E+02 0.  0.
         23    2    1    2    0    0  0.15471335668E+02 -0.94575494118E+02 -0.41309783978E+02  0.13805428035E+03  0.90380306239E+02 0.  0.
        -11    1    4    4    0    0 -0.35752179083E+02 -0.56179198596E+02 -0.12068495112E+02  0.67675469990E+02  0.00000000000E+00 0. -1.
         11    1    4    4    0    0  0.51223514751E+02 -0.38396295522E+02 -0.29241288866E+02  0.70378810360E+02  0.00000000000E+00 0.  1.
        -11    1    3    3    0    0 -0.43161337486E+02  0.11971550589E+02  0.25863169931E+03  0.26248157072E+03  0.00000000000E+00 0. -1.
         11    1    3    3    0    0  0.34979009930E+02  0.17444026172E+02  0.83298517527E+02  0.92013413190E+02  0.00000000000E+00 0.  1.
          2    1    1    2  501    0 -0.72890081111E+01  0.65159917358E+02  0.36251056907E+02  0.74920515189E+02  0.00000000000E+00 0. -1.
<scales pt_clust_5="13000.00000" pt_clust_6="13000.00000" pt_clust_7="13000.00000" pt_clust_8="13000.00000" pt_clust_9="13000.00000"></scales>
<clustering>
<clus scale="   88.421">  7  8 -1 -1</clus>
<clus scale="   90.380">  5  6 -1 -1</clus>
<clus scale="   65.566">  5  9 -1 -1</clus>
<clus scale="   93.544">  1  7  2 -1</clus>
<clus scale="  212.915">  2  5  1 -1</clus>
</clustering>
</event>
<event>
 9    1  0.3303741E-006  0.1755124E+03  0.7546771E-02  0.1198189E+00
         -1   -1    0    0    0  501 -0.00000000000E+00  0.00000000000E+00  0.38381379374E+03  0.38381379374E+03  0.00000000000E+00 0.  1.
         21   -1    0    0  501  502  0.00000000000E+00 -0.00000000000E+00 -0.14349888763E+03  0.14349888763E+03  0.00000000000E+00 0. -1.
         23    2    1    2    0    0  0.32429394199E+02  0.45136308652E+02  0.31983179574E+03  0.33462757841E+03  0.81205213505E+02 0.  0.
         23    2    1    2    0    0 -0.70564725415E+02 -0.35992471252E+02 -0.10132765883E+03  0.14781169321E+03  0.72843419365E+02 0.  0.
        -11    1    3    3    0    0 -0.20248566524E+02  0.40112527008E+02  0.16466912749E+03  0.17068960372E+03  0.00000000000E+00 0. -1.
         11    1    3    3    0    0  0.52677960723E+02  0.50237816432E+01  0.15516266825E+03  0.16393797469E+03  0.00000000000E+00 0.  1.
        -13    1    4    4    0    0 -0.34145677436E+02 -0.29355759157E+00 -0.89027746786E+02  0.95351733920E+02  0.00000000000E+00 0. -1.
         13    1    4    4    0    0 -0.36419047978E+02 -0.35698913660E+02 -0.12299912046E+02  0.52459959288E+02  0.00000000000E+00 0.  1.
         -1    1    1    2    0  502  0.38135331215E+02 -0.91438373998E+01  0.21810769201E+02  0.44873409748E+02  0.00000000000E+00 0.  1.
<scales pt_clust_5="13000.00000" pt_clust_6="13000.00000" pt_clust_7="13000.00000" pt_clust_8="13000.00000" pt_clust_9="13000.00000"></scales>
<clustering>
<clus scale="   72.843">  7  8 -1 -1</clus>
<clus scale="   39.216">  7  9 -1 -1</clus>
<clus scale="   81.205">  5  6 -1 -1</clus>
<clus scale="   98.403">  1  5  2 -1</clus>
<clus scale="  175.512">  2  5  1 -1</clus>
</clustering>
</event>
<event>
 9    1  0.3303741E-006  0.2335517E+03  0.7546771E-02  0.1155238E+00
         21   -1    0    0  501  502  0.00000000000E+00  0.00000000000E+00  0.75616388230E+02  0.75616388230E+02  0.00000000000E+00 0. -1.
          2   -1    0    0  502    0 -0.00000000000E+00 -0.00000000000E+00 -0.40878900138E+03  0.40878900138E+03  0.00000000000E+00 0. -1.
         23    2    1    2    0    0  0.59660313727E+02  0.17682986940E+02 -0.62085093201E+02  0.12658585216E+03  0.91089945152E+02 0.  0.
         23    2    1    2    0    0  0.16909060523E+02 -0.11444816895E+02 -0.26258577768E+03  0.28052747149E+03  0.96578835467E+02 0.  0.
        -11    1    4    4    0    0  0.48387988835E+02  0.47830806507E+01 -0.73327569492E+02  0.87984133635E+02  0.00000000000E+00 0.  1.
         11    1    4    4    0    0 -0.31478928312E+02 -0.16227897545E+02 -0.18925820818E+03  0.19254333785E+03  0.00000000000E+00 0. -1.
        -11    1    3    3    0    0 -0.48592563964E+01 -0.28135134094E+02 -0.49391429008E+01  0.28975735983E+02  0.00000000000E+00 0. -1.
         11    1    3    3    0    0  0.64519570124E+02  0.45818121034E+02 -0.57145950301E+02  0.97610116176E+02  0.00000000000E+00 0.  1.
          2    1    1    2  501    0 -0.76569374250E+02 -0.62381700458E+01 -0.85017422679E+01  0.77292065959E+02  0.00000000000E+00 0. -1.
<scales pt_clust_5="13000.00000" pt_clust_6="13000.00000" pt_clust_7="13000.00000" pt_clust_8="13000.00000" pt_clust_9="13000.00000"></scales>
<clustering>
<clus scale="   91.090">  7  8 -1 -1</clus>
<clus scale="   96.579">  5  6 -1 -1</clus>
<clus scale="   76.823">  5  9 -1 -1</clus>
<clus scale="  110.315">  2  7  1 -1</clus>
<clus scale="  233.552">  1  5  2 -1</clus>
</clustering>
</event>
<event>
 9    1  0.3303741E-006  0.4139838E+03  0.7546771E-02  0.1076823E+00
          1   -1    0    0  502    0 -0.00000000000E+00  0.00000000000E+00  0.39620220383E+03  0.39620220383E+03  0.00000000000E+00 0. -1.
         21   -1    0    0  501  502  0.00000000000E+00 -0.00000000000E+00 -0.26418595213E+03  0.26418595213E+03  0.00000000000E+00 0. -1.
         23    2    1    2    0    0 -0.99590087992E+02  0.50908870656E+02  0.19472039680E+03  0.24168249265E+03  0.89356004755E+02 0.  0.
         23    2    1    2    0    0  0.79741102191E+02  0.13731677422E+03 -0.11795294735E+03  0.22153744635E+03  0.99756716506E+02 0.  0.
        -11    1    4    4    0    0  0.17594572902E+02 -0.14730947260E+02 -0.18867351227E+02  0.29707688316E+02  0.00000000000E+00 0.  1.
         11    1    4    4    0    0  0.62146529289E+02  0.15204772148E+03 -0.99085596120E+02  0.19182975804E+03  0.00000000000E+00 0. -1.
        -11    1    3    3    0    0 -0.84011235945E+02  0.76221363372E+02  0.15395837183E+03  0.19123484059E+03  0.00000000000E+00 0.  1.
         11    1    3    3    0    0 -0.15578852047E+02 -0.25312492716E+02  0.40762024971E+02  0.50447652060E+02  0.00000000000E+00 0. -1.
          1    1    1    2  501    0  0.19848985802E+02 -0.18822564488E+03  0.55248802242E+02  0.19716821695E+03  0.00000000000E+00 0. -1.
<scales pt_clust_5="13000.00000" pt_clust_6="13000.00000" pt_clust_7="13000.00000" pt_clust_8="13000.00000" pt_clust_9="13000.00000"></scales>
<clustering>
<clus scale="   89.356">  7  8 -1 -1</clus>
<clus scale="   99.757">  5  6 -1 -1</clus>
<clus scale="  143.159">  1  7  2 -1</clus>
<clus scale="  160.376">  5  9 -1 -1</clus>
<clus scale="  413.984">  2  5  1 -1</clus>
</clustering>
</event>
<event>
 9    1  0.3303741E-006  0.4553774E+03  0.7546771E-02  0.1057015E+00
         21   -1    0    0  501  502  0.00000000000E+00  0.00000000000E+00  0.21871130452E+03  0.21871130452E+03  0.00000000000E+00 0. -1.
          1   -1    0    0  502    0 -0.00000000000E+00 -0.00000000000E+00 -0.50568179541E+03  0.50568179541E+03  0.00000000000E+00 0. -1.
         23    2    1    2    0    0  0.10683110892E+03 -0.12155696550E+03 -0.17533769523E+03  0.25553231504E+03  0.91457503612E+02 0.  0.
         23    2    1    2    0    0  0.12137754744E+02 -0.93453295140E+02 -0.17087226796E+03  0.21609148735E+03  0.92829712302E+02 0.  0.
        -13    1    3    3    0    0 -0.25795203367E+01 -0.60394443534E+02 -0.53343106153E+02  0.80620281003E+02  0.00000000000E+00 0.  1.
         13    1    3    3    0    0  0.10941062925E+03 -0.61162521969E+02 -0.12199458907E+03  0.17491203404E+03  0.00000000000E+00 0. -1.
        -13    1    4    4    0    0  0.45766862936E+02 -0.28164025296E+02 -0.10258535935E+03  0.11580835037E+03  0.00000000000E+00 0. -1.
         13    1    4    4    0    0 -0.33629108191E+02 -0.65289269844E+02 -0.68286908607E+02  0.10028313697E+03  0.00000000000E+00 0.  1.
          1    1    1    2  501    0 -0.11896886366E+03  0.21501026064E+03  0.59239472284E+02  0.25276929754E+03  0.00000000000E+00 0. -1.
<scales pt_clust_5="13000.00000" pt_clust_6="13000.00000" pt_clust_7="13000.00000" pt_clust_8="13000.00000" pt_clust_9="13000.00000"></scales>
<clustering>
<clus scale="   91.458">  5  6 -1 -1</clus>
<clus scale="   92.830">  7  8 -1 -1</clus>
<clus scale="  185.886">  2  5  1 -1</clus>
<clus scale="  193.372">  7  9 -1 -1</clus>
<clus scale="  455.377">  1  5  2 -1</clus>
</clustering>
</event>
<event>
 9    1  0.3303741E-006  0.2327341E+03  0.7546771E-02  0.1146266E+00
         21   -1    0    0  501  502  0.00000000000E+00  0.00000000000E+00  0.72984289955E+03  0.72984289955E+03  0.00000000000E+00 0.  1.
         -4   -1    0    0    0  501 -0.00000000000E+00 -0.00000000000E+00 -0.54260899459E+02  0.54260899459E+02  0.00000000000E+00 0.  1.
         23    2    1    2    0    0 -0.80566322505E+02 -0.61288733834E+02  0.40169178691E+03  0.42468620891E+03  0.93567318802E+02 0.  0.
         23    2    1    2    0    0 -0.51294591311E+01  0.44292570567E+01  0.32280622171E+02  0.96830534904E+02  0.91039465360E+02 0.  0.
        -11    1    4    4    0    0 -0.43026578636E+02  0.22582037643E+02  0.11417465836E+02  0.49915863404E+02  0.00000000000E+00 0. -1.
         11    1    4    4    0    0  0.37897119505E+02 -0.18152780586E+02  0.20863156335E+02  0.46914671501E+02  0.00000000000E+00 0.  1.
        -13    1    3    3    0    0  0.12474791844E+02 -0.40511514909E+02  0.13217525574E+03  0.13880598511E+03  0.00000000000E+00 0. -1.
         13    1    3    3    0    0 -0.93041114349E+02 -0.20777218925E+02  0.26951653117E+03  0.28588022380E+03  0.00000000000E+00 0.  1.
         -4    1    1    2    0  502  0.85695781636E+02  0.56859476777E+02  0.24160959101E+03  0.26258705520E+03  0.00000000000E+00 0.  1.
<scales pt_clust_5="13000.00000" pt_clust_6="13000.00000" pt_clust_7="13000.00000" pt_clust_8="13000.00000" pt_clust_9="13000.00000"></scales>
<clustering>
<clus scale="   91.039">  5  6 -1 -1</clus>
<clus scale="   93.567">  7  8 -1 -1</clus>
<clus scale="  102.843">  5  9 -1 -1</clus>
<clus scale="  137.848">  2  7  1 -1</clus>
<clus scale="  232.734">  1  5  2 -1</clus>
</clustering>
</event>
<event>
 9    1  0.3303741E-006  0.6678344E+03  0.7546771E-02  0.9951305E-01
          1   -1    0    0  502    0 -0.00000000000E+00  0.00000000000E+00  0.30155213193E+03  0.30155213193E+03  0.00000000000E+00 0. -1.
         21   -1    0    0  501  502  0.00000000000E+00 -0.00000000000E+00 -0.13121721076E+04  0.13121721076E+04  0.00000000000E+00 0. -1.
         23    2    1    2    0    0  0.13303176765E+02  0.36833033872E+03  0.30368817986E+02  0.37692983464E+03  0.72867154492E+02 0.  0.
         23    2    1    2    0    0 -0.59793224048E+02  0.23856239938E+02  0.12911478174E+02  0.11132675989E+03  0.89903233386E+02 0.  0.
        -11    1    4    4    0    0 -0.42894359843E+02 -0.11544696148E+02  0.43049633607E+02  0.61858524628E+02  0.00000000000E+00 0. -1.
         11    1    4    4    0    0 -0.16898864204E+02  0.35400936086E+02 -0.30138155433E+02  0.49468235263E+02  0.00000000000E+00 0.  1.
        -13    1    3    3    0    0  0.15043708823E+02  0.13346947857E+03  0.44880792783E+02  0.14161461947E+03  0.00000000000E+00 0.  1.
         13    1    3    3    0    0 -0.17405320579E+01  0.23486086015E+03 -0.14511974797E+02  0.23531521518E+03  0.00000000000E+00 0. -1.
          1    1    1    2  501    0  0.46490047283E+02 -0.39218657866E+03 -0.10539002718E+04  0.11254676450E+04  0.00000000000E+00 0. -1.
<scales pt_clust_5="13000.00000" pt_clust_6="13000.00000" pt_clust_7="13000.00000" pt_clust_8="13000.00000" pt_clust_9="13000.00000"></scales>
<clustering>
<clus scale="   72.867">  7  8 -1 -1</clus>
<clus scale="   89.903">  5  6 -1 -1</clus>
<clus scale="  375.704">  1  7  2 -1</clus>
<clus scale="  262.631">  5  9 -1 -1</clus>
<clus scale="  667.834">  2  5  1 -1</clus>
</clustering>
</event>
<event>
 9    1  0.3303741E-006  0.2131383E+03  0.7546771E-02  0.1148968E+00
         21   -1    0    0  501  502  0.00000000000E+00  0.00000000000E+00  0.82166087788E+03  0.82166087788E+03  0.00000000000E+00 0.  1.
         -1   -1    0    0    0  501 -0.00000000000E+00 -0.00000000000E+00 -0.13706541546E+03  0.13706541546E+03  0.00000000000E+00 0.  1.
         23    2    1    2    0    0  0.27297520699E+02 -0.13769867267E+03 -0.64246353564E+02  0.18014296707E+03  0.92832190244E+02 0.  0.
         23    2    1    2    0    0 -0.34529285116E+02  0.70956784415E+02  0.63663282785E+03  0.64782540076E+03  0.90273227414E+02 0.  0.
        -11    1    4    4    0    0 -0.54023331405E+01  0.85367785584E+02  0.50799111757E+03  0.51514252353E+03  0.00000000000E+00 0. -1.
         11    1    4    4    0    0 -0.29126951976E+02 -0.14411001169E+02  0.12864171028E+03  0.13268287723E+03  0.00000000000E+00 0.  1.
        -13    1    3    3    0    0  0.27188282086E+02 -0.35937409345E+01  0.69764445072E+01  0.28298205503E+02  0.00000000000E+00 0. -1.
         13    1    3    3    0    0  0.10923861230E+00 -0.13410493174E+03 -0.71222798071E+02  0.15184476157E+03  0.00000000000E+00 0.  1.
         -1    1    1    2    0  502  0.72317644180E+01  0.66741888259E+02  0.11220898814E+03  0.13075792551E+03  0.00000000000E+00 0.  1.
<scales pt_clust_5="13000.00000" pt_clust_6="13000.00000" pt_clust_7="13000.00000" pt_clust_8="13000.00000" pt_clust_9="13000.00000"></scales>
<clustering>
<clus scale="   90.273">  5  6 -1 -1</clus>
<clus scale="   67.133">  5  9 -1 -1</clus>
<clus scale="   92.832">  7  8 -1 -1</clus>
<clus scale="  168.297">  2  7  1 -1</clus>
<clus scale="  213.138">  1  5  2 -1</clus>
</clustering>
</event>
<event>
 9    1  0.3303741E-006  0.3205701E+03  0.7546771E-02  0.1099479E+00
         -1   -1    0    0    0  501 -0.00000000000E+00  0.00000000000E+00  0.17378486825E+03  0.17378486825E+03  0.00000000000E+00 0.  1.
         21   -1    0    0  501  502  0.00000000000E+00 -0.00000000000E+00 -0.49699640385E+03  0.49699640385E+03  0.00000000000E+00 0.  1.
         23    2    1    2    0    0  0.14010376915E+03 -0.22004720702E+02 -0.30620574251E+03  0.34976044756E+03  0.91962710188E+02 0.  0.
         23    2    1    2    0    0 -0.22735454746E+01  0.61422398226E+02  0.89371007879E+02  0.14250766636E+03  0.92430394948E+02 0.  0.
        -13    1    4    4    0    0 -0.19768319406E+02 -0.18989121555E+02  0.32291737874E+02  0.42357166152E+02  0.00000000000E+00 0.  1.
         13    1    4    4    0    0  0.17494773931E+02  0.80411519781E+02  0.57079270005E+02  0.10015050021E+03  0.00000000000E+00 0. -1.
        -13    1    3    3    0    0  0.19420577191E+02  0.18064131567E+02 -0.12871449271E+03  0.13141876693E+03  0.00000000000E+00 0. -1.
         13    1    3    3    0    0  0.12068319196E+03 -0.40068852269E+02 -0.17749124981E+03  0.21834168063E+03  0.00000000000E+00 0.  1.
         -1    1    1    2    0  502 -0.13783022367E+03 -0.39417677524E+02 -0.10637680096E+03  0.17851315818E+03  0.00000000000E+00 0.  1.
<scales pt_clust_5="13000.00000" pt_clust_6="13000.00000" pt_clust_7="13000.00000" pt_clust_8="13000.00000" pt_clust_9="13000.00000"></scales>
<clustering>
<clus scale="   91.963">  7  8 -1 -1</clus>
<clus scale="   92.430">  5  6 -1 -1</clus>
<clus scale="  143.356">  5  9 -1 -1</clus>
<clus scale="  169.028">  1  7  2 -1</clus>
<clus scale="  320.570">  2  5  1 -1</clus>
</clustering>
</event>
<event>
 9    1  0.3303741E-006  0.1371159E+03  0.7546771E-02  0.1233849E+00
         21   -1    0    0  501  502  0.00000000000E+00  0.00000000000E+00  0.22846612592E+03  0.22846612592E+03  0.00000000000E+00 0. -1.
         -1   -1    0    0    0  501 -0.00000000000E+00 -0.00000000000E+00 -0.10297878808E+03  0.10297878808E+03  0.00000000000E+00 0.  1.
         23    2    1    2    0    0 -0.31981319055E+02 -0.71936075929E-01  0.16260559071E+03  0.18939376111E+03  0.91687560088E+02 0.  0.
         23    2    1    2    0    0 -0.55641486716E+01 -0.52977027443E+00 -0.44005493256E+02  0.10387448099E+03  0.93926481657E+02 0.  0.
        -11    1    4    4    0    0 -0.22888086508E+02 -0.28576525296E+02 -0.57570905001E+02  0.68226764577E+02  0.00000000000E+00 0. -1.
         11    1    4    4    0    0  0.17323937837E+02  0.28046755022E+02  0.13565411745E+02  0.35647716410E+02  0.00000000000E+00 0.  1.
        -13    1    3    3    0    0 -0.20892272133E+02 -0.45033269677E+02  0.98602992722E+02  0.11039489384E+03  0.00000000000E+00 0. -1.
         13    1    3    3    0    0 -0.11089046922E+02  0.44961333601E+02  0.64002597986E+02  0.78998867269E+02  0.00000000000E+00 0.  1.
         -1    1    1    2    0  502  0.37545467727E+02  0.60170635035E+00  0.68872403804E+01  0.38176671901E+02  0.00000000000E+00 0.  1.
<scales pt_clust_5="13000.00000" pt_clust_6="13000.00000" pt_clust_7="13000.00000" pt_clust_8="13000.00000" pt_clust_9="13000.00000"></scales>
<clustering>
<clus scale="   91.688">  7  8 -1 -1</clus>
<clus scale="   93.926">  5  6 -1 -1</clus>
<clus scale="   37.550">  5  9 -1 -1</clus>
<clus scale="   97.105">  2  7  1 -1</clus>
<clus scale="  137.116">  1  5  2 -1</clus>
</clustering>
</event>
<event>
 9    1  0.3303741E-006  0.4171834E+03  0.7546771E-02  0.1043277E+00
         -2   -1    0    0    0  501 -0.00000000000E+00  0.00000000000E+00  0.17133363486E+04  0.17133363486E+04  0.00000000000E+00 0.  1.
         21   -1    0    0  501  502  0.00000000000E+00 -0.00000000000E+00 -0.20035163866E+03  0.20035163866E+03  0.00000000000E+00 0.  1.
         23    2    1    2    0    0 -0.23052621335E+03  0.25757305796E+03  0.14479241845E+04  0.14914619020E+04  0.92130048380E+02 0.  0.
         23    2    1    2    0    0  0.11199323400E+02 -0.46096491744E+02 -0.21076546170E+02  0.10560925407E+03  0.91971638843E+02 0.  0.
        -11    1    4    4    0    0 -0.15015891648E+02 -0.57614782781E+02 -0.39600117707E+02  0.71506010372E+02  0.00000000000E+00 0.  1.
         11    1    4    4    0    0  0.26215215048E+02  0.11518291037E+02  0.18523571537E+02  0.34103243701E+02  0.00000000000E+00 0. -1.
        -13    1    3    3    0    0 -0.30693787301E+02  0.42848562769E+02  0.11295536796E+03  0.12464759549E+03  0.00000000000E+00 0. -1.
         13    1    3    3    0    0 -0.19983242604E+03  0.21472449519E+03  0.13349688165E+04  0.13668143065E+04  0.00000000000E+00 0.  1.
         -2    1    1    2    0  502  0.21932688995E+03 -0.21147656622E+03  0.86137071654E+02  0.31661683124E+03  0.00000000000E+00 0.  1.
<scales pt_clust_5="13000.00000" pt_clust_6="13000.00000" pt_clust_7="13000.00000" pt_clust_8="13000.00000" pt_clust_9="13000.00000"></scales>
<clustering>
<clus scale="   91.972">  5  6 -1 -1</clus>
<clus scale="   92.130">  7  8 -1 -1</clus>
<clus scale="  304.675">  5  9 -1 -1</clus>
<clus scale="  357.735">  1  7  2 -1</clus>
<clus scale="  417.183">  2  5  1 -1</clus>
</clustering>
</event>
<event>
 9    1  0.3303741E-006  0.1637940E+03  0.7546771E-02  0.1207623E+00
          1   -1    0    0  502    0 -0.00000000000E+00  0.00000000000E+00  0.34560437820E+03  0.34560437820E+03  0.00000000000E+00 0. -1.
         21   -1    0    0  501  502  0.00000000000E+00 -0.00000000000E+00 -0.64702408086E+02  0.64702408086E+02  0.00000000000E+00 0. -1.
         23    2    1    2    0    0 -0.35747557721E+02  0.75600956108E+01  0.20954706728E+03  0.23164511094E+03  0.91730262646E+02 0.  0.
         23    2    1    2    0    0 -0.27529339543E+02  0.44327574435E+01  0.60853095739E+02  0.11340769306E+03  0.91546117945E+02 0.  0.
        -13    1    4    4    0    0  0.22759339725E+02  0.27429885001E+02  0.72065239352E+01  0.36363719875E+02  0.00000000000E+00 0.  1.
         13    1    4    4    0    0 -0.50288679268E+02 -0.22997127558E+02  0.53646571804E+02  0.77043973189E+02  0.00000000000E+00 0. -1.
        -13    1    3    3    0    0  0.67678458266E+01  0.42904368348E+02  0.90097938840E+02  0.10002113349E+03  0.00000000000E+00 0.  1.
         13    1    3    3    0    0 -0.42515403547E+02 -0.35344272738E+02  0.11944912844E+03  0.13162397745E+03  0.00000000000E+00 0. -1.
          1    1    1    2  501    0  0.63276897264E+02 -0.11992853054E+02  0.10501807090E+02  0.65253982283E+02  0.00000000000E+00 0. -1.
<scales pt_clust_5="13000.00000" pt_clust_6="13000.00000" pt_clust_7="13000.00000" pt_clust_8="13000.00000" pt_clust_9="13000.00000"></scales>
<clustering>
<clus scale="   91.546">  5  6 -1 -1</clus>
<clus scale="   64.403">  5  9 -1 -1</clus>
<clus scale="   91.730">  7  8 -1 -1</clus>
<clus scale="   98.739">  1  7  2 -1</clus>
<clus scale="  163.794">  2  5  1 -1</clus>
</clustering>
</event>
<event>
 9    1  0.3303741E-006  0.2275785E+03  0.7546771E-02  0.1147269E+00
         -3   -1    0    0    0  501 -0.00000000000E+00  0.00000000000E+00  0.13644119741E+03  0.13644119741E+03  0.00000000000E+00 0.  1.
         21   -1    0    0  501  502  0.00000000000E+00 -0.00000000000E+00 -0.31282620107E+03  0.31282620107E+03  0.00000000000E+00 0. -1.
         23    2    1    2    0    0  0.88166554936E+02 -0.69992290722E+02 -0.16841133590E+03  0.22154929516E+03  0.89718726897E+02 0.  0.
         23    2    1    2    0    0  0.10314083167E+02  0.83350840326E+02 -0.26106247953E+02  0.12669495056E+03  0.91193922055E+02 0.  0.
        -11    1    3    3    0    0  0.29440469351E+02 -0.73810474057E+02 -0.65418481519E+02  0.10292864053E+03  0.00000000000E+00 0. -1.
         11    1    3    3    0    0  0.58726085585E+02  0.38181833349E+01 -0.10299285439E+03  0.11862065464E+03  0.00000000000E+00 0.  1.
        -13    1    4    4    0    0 -0.13149649204E+02  0.58639561562E+02 -0.55417110421E+02  0.81746972921E+02  0.00000000000E+00 0. -1.
         13    1    4    4    0    0  0.23463732372E+02  0.24711278763E+02  0.29310862467E+02  0.44947977635E+02  0.00000000000E+00 0.  1.
         -3    1    1    2    0  502 -0.98480638104E+02 -0.13358549604E+02  0.18132580198E+02  0.10102315276E+03  0.00000000000E+00 0.  1.
<scales pt_clust_5="13000.00000" pt_clust_6="13000.00000" pt_clust_7="13000.00000" pt_clust_8="13000.00000" pt_clust_9="13000.00000"></scales>
<clustering>
<clus scale="   89.719">  5  6 -1 -1</clus>
<clus scale="   91.194">  7  8 -1 -1</clus>
<clus scale="   99.383">  7  9 -1 -1</clus>
<clus scale="  143.950">  1  5  2 -1</clus>
<clus scale="  227.578">  2  5  1 -1</clus>
</clustering>
</event>
<event>
 9    1  0.3303741E-006  0.1809561E+03  0.7546771E-02  0.1193957E+00
          1   -1    0    0  502    0 -0.00000000000E+00  0.00000000000E+00  0.42425044188E+03  0.42425044188E+03  0.00000000000E+00 0. -1.
         21   -1    0    0  501  502  0.00000000000E+00 -0.00000000000E+00 -0.10870828098E+03  0.10870828098E+03  0.00000000000E+00 0. -1.
         23    2    1    2    0    0 -0.29826111681E+02  0.24437029678E+02  0.33666290784E+03  0.35077420499E+03  0.90630370278E+02 0.  0.
         23    2    1    2    0    0 -0.20208463192E+02  0.36399664542E+02 -0.22874049215E+02  0.10339596467E+03  0.91837823466E+02 0.  0.
        -11    1    3    3    0    0  0.29131104261E+02 -0.23315142233E+00  0.58357577209E+02  0.65224860388E+02  0.00000000000E+00 0.  1.
         11    1    3    3    0    0 -0.58957215942E+02  0.24670181100E+02  0.27830533063E+03  0.28554934460E+03  0.00000000000E+00 0. -1.
        -13    1    4    4    0    0  0.34780938936E+02  0.79831744751E+01 -0.21133556704E+02  0.41473750818E+02  0.00000000000E+00 0.  1.
         13    1    4    4    0    0 -0.54989402127E+02  0.28416490067E+02 -0.17404925113E+01  0.61922213851E+02  0.00000000000E+00 0. -1.
          1    1    1    2  501    0  0.50034574872E+02 -0.60836694220E+02  0.17533022839E+01  0.78788553199E+02  0.00000000000E+00 0. -1.
<scales pt_clust_5="13000.00000" pt_clust_6="13000.00000" pt_clust_7="13000.00000" pt_clust_8="13000.00000" pt_clust_9="13000.00000"></scales>
<clustering>
<clus scale="   90.630">  5  6 -1 -1</clus>
<clus scale="   91.838">  7  8 -1 -1</clus>
<clus scale="   78.769">  7  9 -1 -1</clus>
<clus scale="   98.492">  1  5  2 -1</clus>
<clus scale="  180.956">  2  5  1 -1</clus>
</clustering>
</event>
<event>
 9    1  0.3303741E-006  0.2323669E+03  0.7546771E-02  0.1155947E+00
         21   -1    0    0  501  502  0.00000000000E+00  0.00000000000E+00  0.95354778640E+03  0.95354778640E+03  0.00000000000E+00 0.  1.
         -4   -1    0    0    0  501 -0.00000000000E+00 -0.00000000000E+00 -0.35667941731E+02  0.35667941731E+02  0.00000000000E+00 0.  1.
         23    2    1    2    0    0 -0.52481361886E+02  0.31753823186E+02  0.14463462340E+03  0.18181090345E+03  0.91506457126E+02 0.  0.
         23    2    1    2    0    0 -0.16976914571E+02  0.62022871752E+02  0.45004420591E+03  0.46378087759E+03  0.91748912253E+02 0.  0.
        -13    1    3    3    0    0 -0.78244313649E+02  0.16191664715E+02  0.10055036215E+03  0.12843176380E+03  0.00000000000E+00 0.  1.
         13    1    3    3    0    0  0.25762951764E+02  0.15562158471E+02  0.44084261253E+02  0.53379139653E+02  0.00000000000E+00 0. -1.
        -13    1    4    4    0    0 -0.50302281399E+02  0.26123752945E+02  0.31653021716E+03  0.32156515414E+03  0.00000000000E+00 0.  1.
         13    1    4    4    0    0  0.33325366829E+02  0.35899118807E+02  0.13351398875E+03  0.14221572345E+03  0.00000000000E+00 0. -1.
         -4    1    1    2    0  502  0.69458276456E+02 -0.93776694938E+02  0.32320101536E+03  0.34362394709E+03  0.00000000000E+00 0.  1.
<scales pt_clust_5="13000.00000" pt_clust_6="13000.00000" pt_clust_7="13000.00000" pt_clust_8="13000.00000" pt_clust_9="13000.00000"></scales>
<clustering>
<clus scale="   91.506">  5  6 -1 -1</clus>
<clus scale="   91.749">  7  8 -1 -1</clus>
<clus scale="  110.164">  2  5  1 -1</clus>
<clus scale="   83.929">  7  9 -1 -1</clus>
<clus scale="  232.367">  1  5  2 -1</clus>
</clustering>
</event>
<event>
 9    1  0.3303741E-006  0.2273866E+03  0.7546771E-02  0.1165480E+00
         21   -1    0    0  501  502  0.00000000000E+00  0.00000000000E+00  0.57266463140E+02  0.57266463140E+02  0.00000000000E+00 0.  1.
          2   -1    0    0  502    0 -0.00000000000E+00 -0.00000000000E+00 -0.46108309111E+03  0.46108309111E+03  0.00000000000E+00 0. -1.
         23    2    1    2    0    0  0.16900606466E+02  0.11437368919E+02 -0.15419910581E+03  0.18069058613E+03  0.91952595254E+02 0.  0.
         23    2    1    2    0    0 -0.26861340130E+02  0.87104492806E+02 -0.12965395387E+03  0.18209235075E+03  0.89659088693E+02 0.  0.
        -11    1    4    4    0    0  0.14182486987E+02  0.69599365084E+02 -0.38952526424E+02  0.81009344350E+02  0.00000000000E+00 0.  1.
         11    1    4    4    0    0 -0.41043827117E+02  0.17505127721E+02 -0.90701427450E+02  0.10108300640E+03  0.00000000000E+00 0. -1.
        -13    1    3    3    0    0  0.30012534885E+02 -0.87945059407E+01 -0.15341329569E+03  0.15656862674E+03  0.00000000000E+00 0. -1.
         13    1    3    3    0    0 -0.13111928419E+02  0.20231874860E+02 -0.78581012748E+00  0.24121959389E+02  0.00000000000E+00 0.  1.
          2    1    1    2  501    0  0.99607336645E+01 -0.98541861725E+02 -0.11996356829E+03  0.15556661738E+03  0.00000000000E+00 0. -1.
<scales pt_clust_5="13000.00000" pt_clust_6="13000.00000" pt_clust_7="13000.00000" pt_clust_8="13000.00000" pt_clust_9="13000.00000"></scales>
<clustering>
<clus scale="   89.659">  5  6 -1 -1</clus>
<clus scale="   91.953">  7  8 -1 -1</clus>
<clus scale="   94.190">  2  7  1 -1</clus>
<clus scale="   94.878">  5  9 -1 -1</clus>
<clus scale="  227.387">  1  5  2 -1</clus>
</clustering>
</event>
<event>
 9    1  0.3303741E-006  0.2246548E+03  0.7546771E-02  0.1157890E+00
         -3   -1    0    0    0  501 -0.00000000000E+00  0.00000000000E+00  0.26266681544E+03  0.26266681544E+03  0.00000000000E+00 0.  1.
         21   -1    0    0  501  502  0.00000000000E+00 -0.00000000000E+00 -0.15741871986E+03  0.15741871986E+03  0.00000000000E+00 0.  1.
         23    2    1    2    0    0 -0.67646819358E+02  0.12136276945E+02  0.15111217275E+03  0.19079689809E+03  0.94048849977E+02 0.  0.
         23    2    1    2    0    0  0.13053717247E+03 -0.35814376938E+02 -0.35285945010E+02  0.16126110004E+03  0.80233543343E+02 0.  0.
        -13    1    3    3    0    0 -0.45072063407E+02  0.15943436561E+02  0.15942625152E+03  0.16644042100E+03  0.00000000000E+00 0.  1.
         13    1    3    3    0    0 -0.22574755950E+02 -0.38071596158E+01 -0.83140787713E+01  0.24356477093E+02  0.00000000000E+00 0. -1.
        -13    1    4    4    0    0  0.10441423055E+03  0.81669618798E+01 -0.13270719058E+02  0.10557055836E+03  0.00000000000E+00 0.  1.
         13    1    4    4    0    0  0.26122941923E+02 -0.43981338818E+02 -0.22015225952E+02  0.55690541680E+02  0.00000000000E+00 0. -1.
         -3    1    1    2    0  502 -0.62890353113E+02  0.23678099993E+02 -0.10578132161E+02  0.68027537174E+02  0.00000000000E+00 0.  1.
<scales pt_clust_5="13000.00000" pt_clust_6="13000.00000" pt_clust_7="13000.00000" pt_clust_8="13000.00000" pt_clust_9="13000.00000"></scales>
<clustering>
<clus scale="   80.234">  7  8 -1 -1</clus>
<clus scale="   67.200">  7  9 -1 -1</clus>
<clus scale="   94.049">  5  6 -1 -1</clus>
<clus scale="  116.484">  1  5  2 -1</clus>
<clus scale="  224.655">  2  5  1 -1</clus>
</clustering>
</event>
<event>
 9    1  0.3303741E-006  0.1899886E+03  0.7546771E-02  0.1180392E+00
         21   -1    0    0  501  502  0.00000000000E+00  0.00000000000E+00  0.15997345650E+03  0.15997345650E+03  0.00000000000E+00 0.  1.
         -4   -1    0    0    0  501 -0.00000000000E+00 -0.00000000000E+00 -0.36056334623E+03  0.36056334623E+03  0.00000000000E+00 0.  1.
         23    2    1    2    0    0  0.34034787216E+01 -0.71243247232E+02 -0.28895629475E+03  0.31100329021E+03  0.90222626332E+02 0.  0.
         23    2    1    2    0    0 -0.34801107433E+02  0.36875310551E+02 -0.69991917013E+01  0.10341299989E+03  0.89857410687E+02 0.  0.
        -13    1    3    3    0    0 -0.38953399755E+02 -0.15301094714E+02 -0.75683645333E+02  0.86484131624E+02  0.00000000000E+00 0. -1.
         13    1    3    3    0    0  0.42356878477E+02 -0.55942152518E+02 -0.21327264942E+03  0.22451915859E+03  0.00000000000E+00 0.  1.
        -13    1    4    4    0    0 -0.23846453567E+02 -0.25881582965E+02  0.11587652428E+02  0.37051091392E+02  0.00000000000E+00 0.  1.
         13    1    4    4    0    0 -0.10954653866E+02  0.62756893516E+02 -0.18586844129E+02  0.66361908500E+02  0.00000000000E+00 0. -1.
         -4    1    1    2    0  502  0.31397628712E+02  0.34367936682E+02  0.95365596730E+02  0.10612051263E+03  0.00000000000E+00 0.  1.
<scales pt_clust_5="13000.00000" pt_clust_6="13000.00000" pt_clust_7="13000.00000" pt_clust_8="13000.00000" pt_clust_9="13000.00000"></scales>
<clustering>
<clus scale="   89.857">  7  8 -1 -1</clus>
<clus scale="   46.551">  7  9 -1 -1</clus>
<clus scale="   90.223">  5  6 -1 -1</clus>
<clus scale="  115.010">  2  5  1 -1</clus>
<clus scale="  189.989">  1  5  2 -1</clus>
</clustering>
</event>
<event>
 9    1  0.3303741E-006  0.3565221E+03  0.7546771E-02  0.1101358E+00
         21   -1    0    0  501  502  0.00000000000E+00  0.00000000000E+00  0.82283863667E+02  0.82283863667E+02  0.00000000000E+00 0. -1.
          1   -1    0    0  502    0 -0.00000000000E+00 -0.00000000000E+00 -0.68395229531E+03  0.68395229531E+03  0.00000000000E+00 0. -1.
         23    2    1    2    0    0  0.29426209226E+02  0.65517238823E+02 -0.16968838823E+03  0.20613369104E+03  0.92404215856E+02 0.  0.
         23    2    1    2    0    0 -0.34546165044E+02  0.66643069891E+02 -0.40889714139E+03  0.42584383130E+03  0.92257032998E+02 0.  0.
        -11    1    3    3    0    0  0.52943744862E+02  0.29993274328E+02 -0.14413922668E+03  0.15645687359E+03  0.00000000000E+00 0. -1.
         11    1    3    3    0    0 -0.23517535636E+02  0.35523964495E+02 -0.25549161545E+02  0.49676817445E+02  0.00000000000E+00 0.  1.
        -11    1    4    4    0    0 -0.57376504581E+02  0.75141541172E+02 -0.32094957319E+03  0.33458473220E+03  0.00000000000E+00 0.  1.
         11    1    4    4    0    0  0.22830339537E+02 -0.84984712806E+01 -0.87947568196E+02  0.91259099103E+02  0.00000000000E+00 0. -1.
          1    1    1    2  501    0  0.51199558182E+01 -0.13216030871E+03 -0.23082902027E+02  0.13425863664E+03  0.00000000000E+00 0. -1.
<scales pt_clust_5="13000.00000" pt_clust_6="13000.00000" pt_clust_7="13000.00000" pt_clust_8="13000.00000" pt_clust_9="13000.00000"></scales>
<clustering>
<clus scale="   92.257">  7  8 -1 -1</clus>
<clus scale="   92.404">  5  6 -1 -1</clus>
<clus scale="  117.034">  2  5  1 -1</clus>
<clus scale="  122.162">  7  9 -1 -1</clus>
<clus scale="  356.522">  1  5  2 -1</clus>
</clustering>
</event>
<event>
 9    1  0.3303741E-006  0.1633526E+03  0.7546771E-02  0.1205434E+00
         21   -1    0    0  501  502  0.00000000000E+00  0.00000000000E+00  0.27095537240E+03  0.27095537240E+03  0.00000000000E+00 0. -1.
          1   -1    0    0  502    0 -0.00000000000E+00 -0.00000000000E+00 -0.11813502437E+03  0.11813502437E+03  0.00000000000E+00 0. -1.
         23    2    1    2    0    0 -0.48974585075E+02  0.16465486091E+02 -0.60347898031E+02  0.12052983440E+03  0.90641877568E+02 0.  0.
         23    2    1    2    0    0 -0.33846451095E+01 -0.15701886424E+02  0.71406614784E+02  0.11743666561E+03  0.91839320196E+02 0.  0.
        -11    1    4    4    0    0  0.19932201889E+02 -0.44388424554E+02  0.62863438489E+02  0.79494885402E+02  0.00000000000E+00 0.  1.
         11    1    4    4    0    0 -0.23316846999E+02  0.28686538130E+02  0.85431762955E+01  0.37941780204E+02  0.00000000000E+00 0. -1.
        -13    1    3    3    0    0 -0.17639114547E+02  0.50085345278E+02 -0.51009687102E+02  0.73631979139E+02  0.00000000000E+00 0. -1.
         13    1    3    3    0    0 -0.31335470528E+02 -0.33619859188E+02 -0.93382109283E+01  0.46897855264E+02  0.00000000000E+00 0.  1.
          1    1    1    2  501    0  0.52359230185E+02 -0.76359966715E+00  0.14176163127E+03  0.15112389676E+03  0.00000000000E+00 0. -1.
<scales pt_clust_5="13000.00000" pt_clust_6="13000.00000" pt_clust_7="13000.00000" pt_clust_8="13000.00000" pt_clust_9="13000.00000"></scales>
<clustering>
<clus scale="   90.642">  7  8 -1 -1</clus>
<clus scale="   91.839">  5  6 -1 -1</clus>
<clus scale="   52.365">  5  9 -1 -1</clus>
<clus scale="  104.334">  2  7  1 -1</clus>
<clus scale="  163.353">  1  5  2 -1</clus>
</clustering>
</event>
<event>
 9    1  0.3303741E-006  0.1937618E+03  0.7546771E-02  0.1184271E+00
         21   -1    0    0  501  502  0.00000000000E+00  0.00000000000E+00  0.21439673222E+03  0.21439673222E+03  0.00000000000E+00 0.  1.
          1   -1    0    0  502    0 -0.00000000000E+00 -0.00000000000E+00 -0.17115009282E+03  0.17115009282E+03  0.00000000000E+00 0. -1.
         23    2    1    2    0    0  0.67200520909E+01 -0.41194911422E+02 -0.10273094481E+03  0.14295029843E+03  0.90216190185E+02 0.  0.
         23    2    1    2    0    0 -0.21611534637E+01  0.70770646586E+02  0.25438334691E+02  0.11839822411E+03  0.91421417606E+02 0.  0.
        -11    1    3    3    0    0 -0.24132091849E+02 -0.15009126370E+02  0.40989366754E+01  0.28712941564E+02  0.00000000000E+00 0.  1.
         11    1    3    3    0    0  0.30852143940E+02 -0.26185785052E+02 -0.10682988149E+03  0.11423735687E+03  0.00000000000E+00 0. -1.
        -13    1    4    4    0    0 -0.45899772048E+02  0.25796719995E+02  0.77708402202E+01  0.53222606046E+02  0.00000000000E+00 0.  1.
         13    1    4    4    0    0  0.43738618584E+02  0.44973926591E+02  0.17667494471E+02  0.65175618060E+02  0.00000000000E+00 0. -1.
          1    1    1    2  501    0 -0.45588986272E+01 -0.29575735164E+02  0.12053924953E+03  0.12419830250E+03  0.00000000000E+00 0. -1.
<scales pt_clust_5="13000.00000" pt_clust_6="13000.00000" pt_clust_7="13000.00000" pt_clust_8="13000.00000" pt_clust_9="13000.00000"></scales>
<clustering>
<clus scale="   90.216">  5  6 -1 -1</clus>
<clus scale="   91.421">  7  8 -1 -1</clus>
<clus scale="   29.925">  7  9 -1 -1</clus>
<clus scale="   99.404">  2  5  1 -1</clus>
<clus scale="  193.762">  1  5  2 -1</clus>
</clustering>
</event>
<event>
 9    1  0.3303741E-006  0.3786917E+03  0.7546771E-02  0.1086358E+00
          1   -1    0    0  502    0 -0.00000000000E+00  0.00000000000E+00  0.40371934202E+03  0.40371934202E+03  0.00000000000E+00 0. -1.
         21   -1    0    0  501  502  0.00000000000E+00 -0.00000000000E+00 -0.16978324460E+03  0.16978324460E+03  0.00000000000E+00 0. -1.
         23    2    1    2    0    0  0.10961171992E+03  0.21395709049E+02  0.70968831804E+02  0.16123355809E+03  0.92125890273E+02 0.  0.
         23    2    1    2    0    0 -0.95743523130E+02  0.10360781284E+03  0.21797791471E+03  0.27499419879E+03  0.90587178827E+02 0.  0.
        -13    1    3    3    0    0  0.59787933989E+02  0.56466309489E+02  0.28798521003E+02  0.87134355853E+02  0.00000000000E+00 0. -1.
         13    1    3    3    0    0  0.49823785928E+02 -0.35070600440E+02  0.42170310801E+02  0.74099202239E+02  0.00000000000E+00 0.  1.
        -13    1    4    4    0    0 -0.84602003295E+02  0.24997715735E+02  0.11769113231E+03  0.14708360676E+03  0.00000000000E+00 0.  1.
         13    1    4    4    0    0 -0.11141519836E+02  0.78610097101E+02  0.10028678239E+03  0.12791059203E+03  0.00000000000E+00 0. -1.
          1    1    1    2  501    0 -0.13868196787E+02 -0.12500352188E+03 -0.55010649089E+02  0.13727482974E+03  0.00000000000E+00 0. -1.
<scales pt_clust_5="13000.00000" pt_clust_6="13000.00000" pt_clust_7="13000.00000" pt_clust_8="13000.00000" pt_clust_9="13000.00000"></scales>
<clustering>
<clus scale="   90.587">  7  8 -1 -1</clus>
<clus scale="   92.126">  5  6 -1 -1</clus>
<clus scale="  125.771">  7  9 -1 -1</clus>
<clus scale="  144.775">  1  5  2 -1</clus>
<clus scale="  378.692">  2  5  1 -1</clus>
</clustering>
</event>
<event>
 9    1  0.3303741E-006  0.5307229E+03  0.7546771E-02  0.1064401E+00
         21   -1    0    0  501  502  0.00000000000E+00  0.00000000000E+00  0.46800980025E+03  0.46800980025E+03  0.00000000000E+00 0.  1.
         -1   -1    0    0    0  501 -0.00000000000E+00 -0.00000000000E+00 -0.24935365365E+03  0.24935365365E+03  0.00000000000E+00 0.  1.
         23    2    1    2    0    0 -0.10832656876E+02  0.17449411011E+02 -0.65051069903E+02  0.11556899758E+03  0.93288386775E+02 0.  0.
         23    2    1    2    0    0 -0.17535268800E+02  0.21699591884E+03  0.27780790109E+03  0.36556542800E+03  0.95216268545E+02 0.  0.
        -11    1    4    4    0    0  0.21141468784E+02  0.56615871038E+02  0.29003950409E+02  0.67033929432E+02  0.00000000000E+00 0. -1.
         11    1    4    4    0    0 -0.38676737584E+02  0.16038004780E+03  0.24880395068E+03  0.29853149857E+03  0.00000000000E+00 0.  1.
        -13    1    3    3    0    0  0.14130197425E+02 -0.26015416885E+02  0.43890005720E+01  0.29928710647E+02  0.00000000000E+00 0.  1.
         13    1    3    3    0    0 -0.24962854301E+02  0.43464827895E+02 -0.69440070475E+02  0.85640286936E+02  0.00000000000E+00 0. -1.
         -1    1    1    2    0  502  0.28367925676E+02 -0.23444532985E+03  0.58993154086E+01  0.23622902832E+03  0.00000000000E+00 0.  1.
<scales pt_clust_5="13000.00000" pt_clust_6="13000.00000" pt_clust_7="13000.00000" pt_clust_8="13000.00000" pt_clust_9="13000.00000"></scales>
<clustering>
<clus scale="   93.288">  7  8 -1 -1</clus>
<clus scale="   95.216">  5  6 -1 -1</clus>
<clus scale="   95.523">  2  7  1 -1</clus>
<clus scale="  222.758">  5  9 -1 -1</clus>
<clus scale="  530.723">  1  5  2 -1</clus>
</clustering>
</event>
<event>
 9    1  0.3303741E-006  0.2079785E+03  0.7546771E-02  0.1178203E+00
         21   -1    0    0  501  502  0.00000000000E+00  0.00000000000E+00  0.27426646290E+03  0.27426646290E+03  0.00000000000E+00 0. -1.
         -1   -1    0    0    0  501 -0.00000000000E+00 -0.00000000000E+00 -0.88737247717E+02  0.88737247717E+02  0.00000000000E+00 0.  1.
         23    2    1    2    0    0 -0.87582156482E+01 -0.10808556959E+02  0.10578665542E+03  0.14026185254E+03  0.91044162733E+02 0.  0.
         23    2    1    2    0    0 -0.34675010607E+02 -0.48896613781E+02 -0.80565439133E+01  0.10802553334E+03  0.89506272142E+02 0.  0.
        -11    1    3    3    0    0  0.21471377966E+01  0.37868366557E+02  0.25376464596E+02  0.45635384756E+02  0.00000000000E+00 0.  1.
         11    1    3    3    0    0 -0.10905353445E+02 -0.48676923516E+02  0.80410190826E+02  0.94626467785E+02  0.00000000000E+00 0. -1.
        -13    1    4    4    0    0 -0.12180189762E+02 -0.73417987131E+02 -0.44518399621E+01  0.74554521902E+02  0.00000000000E+00 0.  1.
         13    1    4    4    0    0 -0.22494820845E+02  0.24521373350E+02 -0.36047039513E+01  0.33471011434E+02  0.00000000000E+00 0. -1.
         -1    1    1    2    0  502  0.43433226255E+02  0.59705170740E+02  0.87799103678E+02  0.11471632474E+03  0.00000000000E+00 0.  1.
<scales pt_clust_5="13000.00000" pt_clust_6="13000.00000" pt_clust_7="13000.00000" pt_clust_8="13000.00000" pt_clust_9="13000.00000"></scales>
<clustering>
<clus scale="   89.506">  7  8 -1 -1</clus>
<clus scale="   73.832">  7  9 -1 -1</clus>
<clus scale="   91.044">  5  6 -1 -1</clus>
<clus scale="   92.101">  2  5  1 -1</clus>
<clus scale="  207.979">  1  5  2 -1</clus>
</clustering>
</event>
<event>
 9    1  0.3303741E-006  0.1994718E+03  0.7546771E-02  0.1178590E+00
         21   -1    0    0  501  502  0.00000000000E+00  0.00000000000E+00  0.24307614849E+03  0.24307614849E+03  0.00000000000E+00 0. -1.
          1   -1    0    0  502    0 -0.00000000000E+00 -0.00000000000E+00 -0.11394616455E+03  0.11394616455E+03  0.00000000000E+00 0. -1.
         23    2    1    2    0    0 -0.33205732575E+02  0.21054205269E+02 -0.23177473653E+02  0.10605106160E+03  0.95727384517E+02 0.  0.
         23    2    1    2    0    0 -0.28631978449E+02  0.49107608500E+02  0.86142057806E+02  0.13640929115E+03  0.89194692595E+02 0.  0.
        -11    1    4    4    0    0 -0.48990559980E+02  0.20412677007E+01  0.63819034830E+02  0.80480500418E+02  0.00000000000E+00 0.  1.
         11    1    4    4    0    0  0.20358581531E+02  0.47066340799E+02  0.22323022977E+02  0.55928790734E+02  0.00000000000E+00 0. -1.
        -11    1    3    3    0    0 -0.11092549128E+02 -0.37808134164E+02 -0.11272795569E+01  0.39417894595E+02  0.00000000000E+00 0.  1.
         11    1    3    3    0    0 -0.22113183447E+02  0.58862339432E+02 -0.22050194096E+02  0.66633167006E+02  0.00000000000E+00 0. -1.
          1    1    1    2  501    0  0.61837711024E+02 -0.70161813768E+02  0.66165399782E+02  0.11456196028E+03  0.00000000000E+00 0. -1.
<scales pt_clust_5="13000.00000" pt_clust_6="13000.00000" pt_clust_7="13000.00000" pt_clust_8="13000.00000" pt_clust_9="13000.00000"></scales>
<clustering>
<clus scale="   89.195">  5  6 -1 -1</clus>
<clus scale="   93.523">  5  9 -1 -1</clus>
<clus scale="   95.727">  7  8 -1 -1</clus>
<clus scale="  103.487">  2  7  1 -1</clus>
<clus scale="  199.472">  1  5  2 -1</clus>
</clustering>
</event>
<event>
 9    1  0.3303741E-006  0.2782029E+03  0.7546771E-02  0.1108440E+00
          2   -1    0    0  502    0 -0.00000000000E+00  0.00000000000E+00  0.13960576157E+03  0.13960576157E+03  0.00000000000E+00 0. -1.
         21   -1    0    0  501  502  0.00000000000E+00 -0.00000000000E+00 -0.42122954393E+03  0.42122954393E+03  0.00000000000E+00 0. -1.
         23    2    1    2    0    0  0.17107398047E+03 -0.67528979810E+02 -0.14141361423E+03  0.24929762018E+03  0.91241565248E+02 0.  0.
         23    2    1    2    0    0 -0.65798404387E+02  0.10199125899E+02  0.17024368710E+02  0.11381980893E+03  0.90728537878E+02 0.  0.
        -13    1    3    3    0    0  0.29001312765E+02 -0.41106235973E+02 -0.74875415758E+02  0.90206023429E+02  0.00000000000E+00 0.  1.
         13    1    3    3    0    0  0.14207266770E+03 -0.26422743837E+02 -0.66538198474E+02  0.15909159675E+03  0.00000000000E+00 0. -1.
        -13    1    4    4    0    0 -0.39806224584E+02  0.28113500960E+02  0.48844325996E+02  0.68997627740E+02  0.00000000000E+00 0. -1.
         13    1    4    4    0    0 -0.25992179803E+02 -0.17914375061E+02 -0.31819957285E+02  0.44822181187E+02  0.00000000000E+00 0.  1.
          2    1    1    2  501    0 -0.10527557608E+03  0.57329853911E+02 -0.15723453684E+03  0.19771787639E+03  0.00000000000E+00 0. -1.
<scales pt_clust_5="13000.00000" pt_clust_6="13000.00000" pt_clust_7="13000.00000" pt_clust_8="13000.00000" pt_clust_9="13000.00000"></scales>
<clustering>
<clus scale="   90.729">  7  8 -1 -1</clus>
<clus scale="   91.242">  5  6 -1 -1</clus>
<clus scale="  119.874">  7  9 -1 -1</clus>
<clus scale="  205.308">  1  5  2 -1</clus>
<clus scale="  278.203">  2  5  1 -1</clus>
</clustering>
</event>
<event>
 9    1  0.3303741E-006  0.1400971E+03  0.7546771E-02  0.1229505E+00
          2   -1    0    0  502    0 -0.00000000000E+00  0.00000000000E+00  0.46918664551E+03  0.46918664551E+03  0.00000000000E+00 0. -1.
         21   -1    0    0  501  502  0.00000000000E+00 -0.00000000000E+00 -0.30614182966E+02  0.30614182966E+02  0.00000000000E+00 0.  1.
         23    2    1    2    0    0 -0.42445051139E+02  0.26920259050E+01  0.17736800462E+03  0.20339745747E+03  0.90012706172E+02 0.  0.
         23    2    1    2    0    0 -0.10808273994E+01  0.12760490139E+02  0.16110400622E+03  0.18616098902E+03  0.92398131566E+02 0.  0.
        -11    1    3    3    0    0 -0.17677102221E+02  0.42632118226E+02  0.12387155697E+03  0.13218978808E+03  0.00000000000E+00 0. -1.
         11    1    3    3    0    0 -0.24767948919E+02 -0.39940092321E+02  0.53496447653E+02  0.71207669389E+02  0.00000000000E+00 0.  1.
        -13    1    4    4    0    0 -0.28963359774E+02 -0.25740238856E+02  0.10874268423E+03  0.11544006012E+03  0.00000000000E+00 0.  1.
         13    1    4    4    0    0  0.27882532374E+02  0.38500728995E+02  0.52361321988E+02  0.70720928904E+02  0.00000000000E+00 0. -1.
          2    1    1    2  501    0  0.43525878539E+02 -0.15452516044E+02  0.10010045170E+03  0.11024238199E+03  0.00000000000E+00 0. -1.
<scales pt_clust_5="13000.00000" pt_clust_6="13000.00000" pt_clust_7="13000.00000" pt_clust_8="13000.00000" pt_clust_9="13000.00000"></scales>
<clustering>
<clus scale="   90.013">  5  6 -1 -1</clus>
<clus scale="   92.398">  7  8 -1 -1</clus>
<clus scale="   46.187">  7  9 -1 -1</clus>
<clus scale="   99.555">  1  5  2 -1</clus>
<clus scale="  140.097">  2  5  1 -1</clus>
</clustering>
</event>
<event>
 9    1  0.3303741E-006  0.1939672E+03  0.7546771E-02  0.1181756E+00
         21   -1    0    0  501  502  0.00000000000E+00  0.00000000000E+00  0.51991350486E+03  0.51991350486E+03  0.00000000000E+00 0. -1.
         -1   -1    0    0    0  501 -0.00000000000E+00 -0.00000000000E+00 -0.44591281860E+02  0.44591281860E+02  0.00000000000E+00 0.  1.
         23    2    1    2    0    0  0.15397185140E+00 -0.39063829914E+02  0.22153744643E+03  0.24508346111E+03  0.97267960930E+02 0.  0.
         23    2    1    2    0    0  0.40761445786E+02 -0.38743568563E+02  0.13975900119E+03  0.17544236843E+03  0.89915997806E+02 0.  0.
        -13    1    3    3    0    0 -0.23447068442E+02 -0.64888909963E+02  0.13178452710E+03  0.14875314194E+03  0.00000000000E+00 0.  1.
         13    1    3    3    0    0  0.23601040293E+02  0.25825080049E+02  0.89752919329E+02  0.96330319165E+02  0.00000000000E+00 0. -1.
        -13    1    4    4    0    0  0.31110912069E+02 -0.65486324660E+02  0.12201270050E+03  0.14192761060E+03  0.00000000000E+00 0.  1.
         13    1    4    4    0    0  0.96505337168E+01  0.26742756097E+02  0.17746300690E+02  0.33514757837E+02  0.00000000000E+00 0. -1.
         -1    1    1    2    0  502 -0.40915417638E+02  0.77807398477E+02  0.11402577538E+03  0.14397895718E+03  0.00000000000E+00 0.  1.
<scales pt_clust_5="13000.00000" pt_clust_6="13000.00000" pt_clust_7="13000.00000" pt_clust_8="13000.00000" pt_clust_9="13000.00000"></scales>
<clustering>
<clus scale="   89.916">  7  8 -1 -1</clus>
<clus scale="   87.909">  7  9 -1 -1</clus>
<clus scale="   97.268">  5  6 -1 -1</clus>
<clus scale="  104.819">  2  5  1 -1</clus>
<clus scale="  193.967">  1  5  2 -1</clus>
</clustering>
</event>
<event>
 9    1  0.3303741E-006  0.2021812E+03  0.7546771E-02  0.1172547E+00
          2   -1    0    0  502    0 -0.00000000000E+00  0.00000000000E+00  0.20138689561E+03  0.20138689561E+03  0.00000000000E+00 0. -1.
         21   -1    0    0  501  502  0.00000000000E+00 -0.00000000000E+00 -0.12836721831E+03  0.12836721831E+03  0.00000000000E+00 0. -1.
         23    2    1    2    0    0 -0.12026629538E+02  0.68601662203E+02  0.55665781203E+02  0.12682951532E+03  0.90200991586E+02 0.  0.
         23    2    1    2    0    0 -0.15757558575E+01 -0.34811258176E+02  0.82534874225E+02  0.12825615678E+03  0.91778698985E+02 0.  0.
        -11    1    3    3    0    0 -0.16331563106E+02 -0.12731110295E+02  0.38318764106E+02  0.43556042123E+02  0.00000000000E+00 0.  1.
         11    1    3    3    0    0  0.43049335685E+01  0.81332772498E+02  0.17347017097E+02  0.83273473192E+02  0.00000000000E+00 0. -1.
        -13    1    4    4    0    0  0.14189877804E+02  0.28456257854E+02  0.36680074838E+02  0.48544197730E+02  0.00000000000E+00 0. -1.
         13    1    4    4    0    0 -0.15765633661E+02 -0.63267516030E+02  0.45854799386E+02  0.79711959053E+02  0.00000000000E+00 0.  1.
          2    1    1    2  501    0  0.13602385395E+02 -0.33790404027E+02 -0.65180978128E+02  0.74668441811E+02  0.00000000000E+00 0. -1.
<scales pt_clust_5="13000.00000" pt_clust_6="13000.00000" pt_clust_7="13000.00000" pt_clust_8="13000.00000" pt_clust_9="13000.00000"></scales>
<clustering>
<clus scale="   90.201">  5  6 -1 -1</clus>
<clus scale="   91.779">  7  8 -1 -1</clus>
<clus scale="   36.426">  7  9 -1 -1</clus>
<clus scale="  113.961">  1  5  2 -1</clus>
<clus scale="  202.181">  2  5  1 -1</clus>
</clustering>
</event>
<event>
 9    1  0.3303741E-006  0.2085568E+03  0.7546771E-02  0.1162910E+00
          1   -1    0    0  502    0 -0.00000000000E+00  0.00000000000E+00  0.38844759294E+03  0.38844759294E+03  0.00000000000E+00 0. -1.
         21   -1    0    0  501  502  0.00000000000E+00 -0.00000000000E+00 -0.83703572710E+02  0.83703572710E+02  0.00000000000E+00 0. -1.
         23    2    1    2    0    0  0.73622776501E+02 -0.63532470791E+02  0.20121952852E+03  0.23931371776E+03  0.85586615704E+02 0.  0.
         23    2    1    2    0    0  0.92787532700E+01 -0.80736505521E+01  0.77436680069E+02  0.12022894835E+03  0.91144289488E+02 0.  0.
        -11    1    4    4    0    0  0.34972803284E+02 -0.38500408693E+02  0.47044603678E+02  0.70132540053E+02  0.00000000000E+00 0.  1.
         11    1    4    4    0    0 -0.25694050014E+02  0.30426758141E+02  0.30392076391E+02  0.50096408299E+02  0.00000000000E+00 0. -1.
        -13    1    3    3    0    0 -0.17891318067E+02 -0.90730760083E+01  0.54076695434E+02  0.57677629628E+02  0.00000000000E+00 0.  1.
         13    1    3    3    0    0  0.91514094568E+02 -0.54459394783E+02  0.14714283309E+03  0.18163608814E+03  0.00000000000E+00 0. -1.
          1    1    1    2  501    0 -0.82901529771E+02  0.71606121343E+02  0.26087811646E+02  0.11260849954E+03  0.00000000000E+00 0. -1.
<scales pt_clust_5="13000.00000" pt_clust_6="13000.00000" pt_clust_7="13000.00000" pt_clust_8="13000.00000" pt_clust_9="13000.00000"></scales>
<clustering>
<clus scale="   85.587">  7  8 -1 -1</clus>
<clus scale="   91.144">  5  6 -1 -1</clus>
<clus scale="  109.545">  5  9 -1 -1</clus>
<clus scale="  129.544">  1  7  2 -1</clus>
<clus scale="  208.557">  2  5  1 -1</clus>
</clustering>
</event>
<event>
 9    1  0.3303741E-006  0.2321966E+03  0.7546771E-02  0.1157142E+00
         21   -1    0    0  501  502  0.00000000000E+00  0.00000000000E+00  0.34030622298E+03  0.34030622298E+03  0.00000000000E+00 0. -1.
         -3   -1    0    0    0  501 -0.00000000000E+00 -0.00000000000E+00 -0.10482966109E+03  0.10482966109E+03  0.00000000000E+00 0.  1.
         23    2    1    2    0    0  0.52161962690E+02  0.37867698258E+01  0.17481085258E+03  0.20514504036E+03  0.93757364662E+02 0.  0.
         23    2    1    2    0    0 -0.42187307173E+02  0.17804597623E+02 -0.58910318815E+02  0.11807239801E+03  0.91508977296E+02 0.  0.
        -11    1    3    3    0    0  0.57847574943E+02  0.34776373628E+02  0.77050577497E+02  0.10243304927E+03  0.00000000000E+00 0.  1.
         11    1    3    3    0    0 -0.56856122539E+01 -0.30989603802E+02  0.97760275083E+02  0.10271199110E+03  0.00000000000E+00 0. -1.
        -11    1    4    4    0    0 -0.25611917722E+01  0.50050296355E+02 -0.37897133404E+02  0.62831398112E+02  0.00000000000E+00 0.  1.
         11    1    4    4    0    0 -0.39626115400E+02 -0.32245698732E+02 -0.21013185411E+02  0.55240999896E+02  0.00000000000E+00 0. -1.
         -3    1    1    2    0  502 -0.99746555169E+01 -0.21591367449E+02  0.11957602812E+03  0.12191844570E+03  0.00000000000E+00 0.  1.
<scales pt_clust_5="13000.00000" pt_clust_6="13000.00000" pt_clust_7="13000.00000" pt_clust_8="13000.00000" pt_clust_9="13000.00000"></scales>
<clustering>
<clus scale="   91.509">  7  8 -1 -1</clus>
<clus scale="   23.784">  7  9 -1 -1</clus>
<clus scale="   93.757">  5  6 -1 -1</clus>
<clus scale="  107.358">  2  5  1 -1</clus>
<clus scale="  232.197">  1  5  2 -1</clus>
</clustering>
</event>
<event>
 9    1  0.3303741E-006  0.3530842E+03  0.7546771E-02  0.1066696E+00
         21   -1    0    0  501  502  0.00000000000E+00  0.00000000000E+00  0.66165646484E+03  0.66165646484E+03  0.00000000000E+00 0. -1.
          2   -1    0    0  502    0 -0.00000000000E+00 -0.00000000000E+00 -0.22837684052E+03  0.22837684052E+03  0.00000000000E+00 0.  1.
         23    2    1    2    0    0 -0.80066143872E+01 -0.29074465040E+03  0.44217369348E+03  0.53683713963E+03  0.89888718265E+02 0.  0.
         23    2    1    2    0    0  0.65914449837E+02  0.89557548703E+02 -0.80222395840E+01  0.14383922798E+03  0.90885081008E+02 0.  0.
        -11    1    3    3    0    0 -0.31997213959E+02 -0.37775215252E+02  0.87462439162E+02  0.10050107886E+03  0.00000000000E+00 0.  1.
         11    1    3    3    0    0  0.23990599571E+02 -0.25296943515E+03  0.35471125432E+03  0.43633606077E+03  0.00000000000E+00 0. -1.
        -13    1    4    4    0    0 -0.16560356145E+02  0.27040489726E+02  0.18886042915E+02  0.36906857049E+02  0.00000000000E+00 0.  1.
         13    1    4    4    0    0  0.82474805983E+02  0.62517058978E+02 -0.26908282499E+02  0.10693237093E+03  0.00000000000E+00 0. -1.
          2    1    1    2  501    0 -0.57907835450E+02  0.20118710170E+03 -0.87182957410E+00  0.20935693775E+03  0.00000000000E+00 0.  1.
<scales pt_clust_5="13000.00000" pt_clust_6="13000.00000" pt_clust_7="13000.00000" pt_clust_8="13000.00000" pt_clust_9="13000.00000"></scales>
<clustering>
<clus scale="   89.889">  5  6 -1 -1</clus>
<clus scale="   90.885">  7  8 -1 -1</clus>
<clus scale="  209.355">  7  9 -1 -1</clus>
<clus scale="  304.428">  2  5  1 -1</clus>
<clus scale="  353.084">  1  5  2 -1</clus>
</clustering>
</event>
<event>
 9    1  0.3303741E-006  0.1992716E+03  0.7546771E-02  0.1184831E+00
         21   -1    0    0  501  502  0.00000000000E+00  0.00000000000E+00  0.57062825692E+02  0.57062825692E+02  0.00000000000E+00 0.  1.
         -1   -1    0    0    0  501 -0.00000000000E+00 -0.00000000000E+00 -0.36819774151E+03  0.36819774151E+03  0.00000000000E+00 0.  1.
         23    2    1    2    0    0  0.15345422847E+02  0.10223207786E+01 -0.10721074833E+03  0.14013912811E+03  0.88928642911E+02 0.  0.
         23    2    1    2    0    0  0.20263578708E+02 -0.30262909200E+02 -0.21604025516E+03  0.23747888896E+03  0.91631733345E+02 0.  0.
        -11    1    4    4    0    0  0.52823150048E+02  0.64153076247E+00 -0.13246854579E+03  0.14261350696E+03  0.00000000000E+00 0.  1.
         11    1    4    4    0    0 -0.32559571340E+02 -0.30904439963E+02 -0.83571709370E+02  0.94865382002E+02  0.00000000000E+00 0. -1.
        -13    1    3    3    0    0 -0.79926620127E+01  0.33371083485E+02 -0.90689411533E+02  0.96964329644E+02  0.00000000000E+00 0. -1.
         13    1    3    3    0    0  0.23338084860E+02 -0.32348762706E+02 -0.16521336792E+02  0.43174798470E+02  0.00000000000E+00 0.  1.
         -1    1    1    2    0  502 -0.35609001556E+02  0.29240588422E+02  0.12116087664E+02  0.47642550134E+02  0.00000000000E+00 0.  1.
<scales pt_clust_5="13000.00000" pt_clust_6="13000.00000" pt_clust_7="13000.00000" pt_clust_8="13000.00000" pt_clust_9="13000.00000"></scales>
<clustering>
<clus scale="   88.929">  7  8 -1 -1</clus>
<clus scale="   90.249">  2  7  1 -1</clus>
<clus scale="   91.632">  5  6 -1 -1</clus>
<clus scale="   45.268">  5  9 -1 -1</clus>
<clus scale="  199.272">  1  5  2 -1</clus>
</clustering>
</event>
<event>
 9    1  0.3303741E-006  0.9761511E+03  0.7546771E-02  0.1003697E+00
          3   -1    0    0  502    0 -0.00000000000E+00  0.00000000000E+00  0.20115280925E+03  0.20115280925E+03  0.00000000000E+00 0. -1.
         21   -1    0    0  501  502  0.00000000000E+00 -0.00000000000E+00 -0.17127498262E+04  0.17127498262E+04  0.00000000000E+00 0. -1.
         23    2    1    2    0    0 -0.30188440498E+01 -0.43129018032E+01  0.23460700137E+02  0.94761836984E+02  0.91660715447E+02 0.  0.
         23    2    1    2    0    0 -0.39104437634E+02 -0.28028562950E+03 -0.14999867093E+04  0.15293121069E+04  0.93521126106E+02 0.  0.
        -11    1    4    4    0    0  0.25341270661E+02 -0.15529233364E+03 -0.77468821459E+03  0.79050598904E+03  0.00000000000E+00 0.  1.
         11    1    4    4    0    0 -0.64445708295E+02 -0.12499329586E+03 -0.72529849470E+03  0.73880611783E+03  0.00000000000E+00 0. -1.
        -13    1    3    3    0    0 -0.21787236875E+02 -0.35928715096E+02 -0.11981744607E+02  0.43693460185E+02  0.00000000000E+00 0.  1.
         13    1    3    3    0    0  0.18768392826E+02  0.31615813293E+02  0.35442444744E+02  0.51068376799E+02  0.00000000000E+00 0. -1.
          3    1    1    2  501    0  0.42123281684E+02  0.28459853131E+03 -0.35071007792E+02  0.28982869159E+03  0.00000000000E+00 0. -1.
<scales pt_clust_5="13000.00000" pt_clust_6="13000.00000" pt_clust_7="13000.00000" pt_clust_8="13000.00000" pt_clust_9="13000.00000"></scales>
<clustering>
<clus scale="   91.661">  7  8 -1 -1</clus>
<clus scale="   91.812">  1  7  2 -1</clus>
<clus scale="   93.521">  5  6 -1 -1</clus>
<clus scale="  283.485">  5  9 -1 -1</clus>
<clus scale="  976.151">  2  5  1 -1</clus>
</clustering>
</event>
<event>
 9    1  0.3303741E-006  0.3256728E+03  0.7546771E-02  0.1115501E+00
          1   -1    0    0  502    0 -0.00000000000E+00  0.00000000000E+00  0.35278297195E+03  0.35278297195E+03  0.00000000000E+00 0. -1.
         21   -1    0    0  501  502  0.00000000000E+00 -0.00000000000E+00 -0.14621444363E+03  0.14621444363E+03  0.00000000000E+00 0. -1.
         23    2    1    2    0    0  0.52264316780E+02  0.15283762929E+02  0.12251771449E+03  0.16265338384E+03  0.92088982477E+02 0.  0.
         23    2    1    2    0    0  0.43983477237E+02  0.75057228919E+02  0.14467404063E+03  0.19108458011E+03  0.89524325400E+02 0.  0.
        -13    1    3    3    0    0 -0.17448567302E+02  0.30271742562E+02  0.49545020073E+02  0.60626231226E+02  0.00000000000E+00 0.  1.
         13    1    3    3    0    0  0.69712884081E+02 -0.14987979633E+02  0.72972694413E+02  0.10202715261E+03  0.00000000000E+00 0. -1.
        -13    1    4    4    0    0  0.23124225590E+02  0.92237106817E+02  0.12753851135E+03  0.15908640910E+03  0.00000000000E+00 0. -1.
         13    1    4    4    0    0  0.20859251647E+02 -0.17179877898E+02  0.17135529282E+02  0.31998171004E+02  0.00000000000E+00 0.  1.
          1    1    1    2  501    0 -0.96247794017E+02 -0.90340991848E+02 -0.60623226805E+02  0.14525945164E+03  0.00000000000E+00 0. -1.
<scales pt_clust_5="13000.00000" pt_clust_6="13000.00000" pt_clust_7="13000.00000" pt_clust_8="13000.00000" pt_clust_9="13000.00000"></scales>
<clustering>
<clus scale="   89.524">  7  8 -1 -1</clus>
<clus scale="   92.089">  5  6 -1 -1</clus>
<clus scale="  106.984">  1  5  2 -1</clus>
<clus scale="  122.327">  7  9 -1 -1</clus>
<clus scale="  325.673">  2  5  1 -1</clus>
</clustering>
</event>
<event>
 9    1  0.3303741E-006  0.2088517E+03  0.7546771E-02  0.1163405E+00
         21   -1    0    0  501  502  0.00000000000E+00  0.00000000000E+00  0.39611719506E+02  0.39611719506E+02  0.00000000000E+00 0. -1.
          2   -1    0    0  502    0 -0.00000000000E+00 -0.00000000000E+00 -0.90790324526E+03  0.90790324526E+03  0.00000000000E+00 0. -1.
         23    2    1    2    0    0 -0.51176517397E+02 -0.73930550756E+02 -0.56536837268E+03  0.57957276613E+03  0.90434684379E+02 0.  0.
         23    2    1    2    0    0 -0.38479756865E+02  0.57477933878E+02 -0.19606153596E+03  0.22748458465E+03  0.92329333356E+02 0.  0.
        -11    1    3    3    0    0 -0.67494897687E+02 -0.28874335006E+02 -0.42386790383E+03  0.43017820532E+03  0.00000000000E+00 0. -1.
         11    1    3    3    0    0  0.16318380290E+02 -0.45056215750E+02 -0.14150046885E+03  0.14939456080E+03  0.00000000000E+00 0.  1.
        -11    1    4    4    0    0 -0.32575908137E+02  0.82926348869E+02 -0.14668631578E+03  0.17162413690E+03  0.00000000000E+00 0. -1.
         11    1    4    4    0    0 -0.59038487284E+01 -0.25448414991E+02 -0.49375220180E+02  0.55860447753E+02  0.00000000000E+00 0.  1.
          2    1    1    2  501    0  0.89656274262E+02  0.16452616877E+02 -0.10686161711E+03  0.14045761399E+03  0.00000000000E+00 0. -1.
<scales pt_clust_5="13000.00000" pt_clust_6="13000.00000" pt_clust_7="13000.00000" pt_clust_8="13000.00000" pt_clust_9="13000.00000"></scales>
<clustering>
<clus scale="   90.435">  5  6 -1 -1</clus>
<clus scale="   92.329">  7  8 -1 -1</clus>
<clus scale="   91.153">  7  9 -1 -1</clus>
<clus scale="  127.527">  2  5  1 -1</clus>
<clus scale="  208.852">  1  5  2 -1</clus>
</clustering>
</event>
<event>
 9    1  0.3303741E-006  0.2265668E+03  0.7546771E-02  0.1162605E+00
          1   -1    0    0  502    0 -0.00000000000E+00  0.00000000000E+00  0.57767236364E+03  0.57767236364E+03  0.00000000000E+00 0. -1.
         21   -1    0    0  501  502  0.00000000000E+00 -0.00000000000E+00 -0.13193271758E+03  0.13193271758E+03  0.00000000000E+00 0. -1.
         23    2    1    2    0    0 -0.18188466230E+02 -0.48696848921E+02  0.47078605924E+03  0.48165804781E+03  0.87480043719E+02 0.  0.
         23    2    1    2    0    0  0.39349849930E+01 -0.59481975030E+02 -0.41081146839E+02  0.11766134820E+03  0.92752049970E+02 0.  0.
        -13    1    4    4    0    0 -0.20648280394E+02 -0.18870330133E+02 -0.60279736244E+02  0.66453648840E+02  0.00000000000E+00 0. -1.
         13    1    4    4    0    0  0.24583265387E+02 -0.40611644897E+02  0.19198589405E+02  0.51207699357E+02  0.00000000000E+00 0.  1.
        -13    1    3    3    0    0 -0.49219895690E+02 -0.41823288953E+02  0.38045015187E+03  0.38589390212E+03  0.00000000000E+00 0. -1.
         13    1    3    3    0    0  0.31031429461E+02 -0.68735599674E+01  0.90335907367E+02  0.95764145695E+02  0.00000000000E+00 0.  1.
          1    1    1    2  501    0  0.14253481237E+02  0.10817882395E+03  0.16034733655E+02  0.11028568521E+03  0.00000000000E+00 0. -1.
<scales pt_clust_5="13000.00000" pt_clust_6="13000.00000" pt_clust_7="13000.00000" pt_clust_8="13000.00000" pt_clust_9="13000.00000"></scales>
<clustering>
<clus scale="   87.480">  7  8 -1 -1</clus>
<clus scale="   92.752">  5  6 -1 -1</clus>
<clus scale="  101.759">  1  7  2 -1</clus>
<clus scale="   77.917">  5  9 -1 -1</clus>
<clus scale="  226.567">  2  5  1 -1</clus>
</clustering>
</event>
<event>
 9    1  0.3303741E-006  0.3777753E+03  0.7546771E-02  0.1099134E+00
         -2   -1    0    0    0  501 -0.00000000000E+00  0.00000000000E+00  0.21023028234E+03  0.21023028234E+03  0.00000000000E+00 0. -1.
         21   -1    0    0  501  502  0.00000000000E+00 -0.00000000000E+00 -0.50915572901E+03  0.50915572901E+03  0.00000000000E+00 0. -1.
         23    2    1    2    0    0  0.44226738724E+02  0.25407720522E+02  0.11755402395E+03  0.15709664018E+03  0.90878210418E+02 0.  0.
         23    2    1    2    0    0  0.12794094235E+03 -0.87948878360E+02 -0.27412033432E+03  0.33029965045E+03  0.99257299313E+02 0.  0.
        -11    1    3    3    0    0 -0.10653562856E+00  0.50227616858E+02  0.39211701791E+02  0.63721129953E+02  0.00000000000E+00 0.  1.
         11    1    3    3    0    0  0.44333274352E+02 -0.24819896337E+02  0.78342322156E+02  0.93375510225E+02  0.00000000000E+00 0. -1.
        -11    1    4    4    0    0  0.31275605361E+02 -0.58124644917E+01 -0.42366221871E+01  0.32092011494E+02  0.00000000000E+00 0.  1.
         11    1    4    4    0    0  0.96665336993E+02 -0.82136413868E+02 -0.26988371213E+03  0.29820763896E+03  0.00000000000E+00 0. -1.
         -2    1    1    2    0  502 -0.17216768108E+03  0.62541157838E+02 -0.14235913629E+03  0.23198972071E+03  0.00000000000E+00 0. -1.
<scales pt_clust_5="13000.00000" pt_clust_6="13000.00000" pt_clust_7="13000.00000" pt_clust_8="13000.00000" pt_clust_9="13000.00000"></scales>
<clustering>
<clus scale="   90.878">  5  6 -1 -1</clus>
<clus scale="   99.257">  7  8 -1 -1</clus>
<clus scale="  104.213">  1  5  2 -1</clus>
<clus scale="  164.707">  7  9 -1 -1</clus>
<clus scale="  377.775">  2  5  1 -1</clus>
</clustering>
</event>
<event>
 9    1  0.3303741E-006  0.1370786E+03  0.7546771E-02  0.1236862E+00
         -3   -1    0    0    0  501 -0.00000000000E+00  0.00000000000E+00  0.23767736384E+03  0.23767736384E+03  0.00000000000E+00 0.  1.
         21   -1    0    0  501  502  0.00000000000E+00 -0.00000000000E+00 -0.15997490604E+03  0.15997490604E+03  0.00000000000E+00 0. -1.
         23    2    1    2    0    0  0.91414633822E+01 -0.12015264668E+02  0.19621423556E+03  0.21644633192E+03  0.90116898678E+02 0.  0.
         23    2    1    2    0    0  0.12363181838E+02  0.24240611738E+02 -0.12294806716E+03  0.15607449271E+03  0.92209351650E+02 0.  0.
        -11    1    3    3    0    0 -0.13958637920E+02 -0.31956035807E+02  0.25946458295E+02  0.43465509259E+02  0.00000000000E+00 0. -1.
         11    1    3    3    0    0  0.23100101303E+02  0.19940771139E+02  0.17026777726E+03  0.17298082266E+03  0.00000000000E+00 0.  1.
        -13    1    4    4    0    0 -0.20365472370E+02 -0.22116306409E+02 -0.78286741019E+02  0.83861178703E+02  0.00000000000E+00 0. -1.
         13    1    4    4    0    0  0.32728654209E+02  0.46356918147E+02 -0.44661326144E+02  0.72213314004E+02  0.00000000000E+00 0.  1.
         -3    1    1    2    0  502 -0.21504645220E+02 -0.12225347070E+02  0.44362894027E+01  0.25131445257E+02  0.00000000000E+00 0.  1.
<scales pt_clust_5="13000.00000" pt_clust_6="13000.00000" pt_clust_7="13000.00000" pt_clust_8="13000.00000" pt_clust_9="13000.00000"></scales>
<clustering>
<clus scale="   90.117">  5  6 -1 -1</clus>
<clus scale="   91.373">  1  5  2 -1</clus>
<clus scale="   92.209">  7  8 -1 -1</clus>
<clus scale="   24.814">  7  9 -1 -1</clus>
<clus scale="  137.079">  2  5  1 -1</clus>
</clustering>
</event>
<event>
 9    1  0.3303741E-006  0.1835106E+03  0.7546771E-02  0.1176115E+00
         21   -1    0    0  501  502  0.00000000000E+00  0.00000000000E+00  0.37139001127E+03  0.37139001127E+03  0.00000000000E+00 0. -1.
         -3   -1    0    0    0  501 -0.00000000000E+00 -0.00000000000E+00 -0.96840461959E+02  0.96840461959E+02  0.00000000000E+00 0.  1.
         23    2    1    2    0    0 -0.98455713086E+02  0.33166468068E+02  0.31108184744E+01  0.14057954426E+03  0.94654049200E+02 0.  0.
         23    2    1    2    0    0  0.56402732487E+02  0.31784264493E+01  0.24745226496E+03  0.26711370835E+03  0.83221025765E+02 0.  0.
        -13    1    3    3    0    0 -0.74769525933E+02  0.49084123347E+02 -0.32305186799E+02  0.95096573372E+02  0.00000000000E+00 0.  1.
         13    1    3    3    0    0 -0.23686187152E+02 -0.15917655280E+02  0.35416005273E+02  0.45482970889E+02  0.00000000000E+00 0. -1.
        -13    1    4    4    0    0 -0.21590153185E+02  0.61892533011E+01  0.51151814882E+02  0.55865461035E+02  0.00000000000E+00 0.  1.
         13    1    4    4    0    0  0.77992885673E+02 -0.30108268518E+01  0.19630045008E+03  0.21124824732E+03  0.00000000000E+00 0. -1.
         -3    1    1    2    0  502  0.42052980598E+02 -0.36344894517E+02  0.23986465881E+02  0.60537220617E+02  0.00000000000E+00 0.  1.
<scales pt_clust_5="13000.00000" pt_clust_6="13000.00000" pt_clust_7="13000.00000" pt_clust_8="13000.00000" pt_clust_9="13000.00000"></scales>
<clustering>
<clus scale="   83.221">  7  8 -1 -1</clus>
<clus scale="   55.582">  7  9 -1 -1</clus>
<clus scale="   94.654">  5  6 -1 -1</clus>
<clus scale="  140.545">  2  5  1 -1</clus>
<clus scale="  183.511">  1  5  2 -1</clus>
</clustering>
</event>
<event>
 9    1  0.3303741E-006  0.1689437E+03  0.7546771E-02  0.1195396E+00
         21   -1    0    0  501  502  0.00000000000E+00  0.00000000000E+00  0.37286056285E+02  0.37286056285E+02  0.00000000000E+00 0.  1.
          1   -1    0    0  502    0 -0.00000000000E+00 -0.00000000000E+00 -0.54938091406E+03  0.54938091406E+03  0.00000000000E+00 0. -1.
         23    2    1    2    0    0 -0.72116305273E+02 -0.16384857031E+02 -0.21398828155E+03  0.24401624973E+03  0.91014946396E+02 0.  0.
         23    2    1    2    0    0  0.16286888374E+02  0.34748433600E+02 -0.24268529457E+03  0.26186914353E+03  0.90590174751E+02 0.  0.
        -11    1    3    3    0    0  0.74763515993E+01 -0.31514463981E+02 -0.92361919149E+02  0.97876357626E+02  0.00000000000E+00 0. -1.
         11    1    3    3    0    0 -0.79592656872E+02  0.15129606951E+02 -0.12162636240E+03  0.14613989211E+03  0.00000000000E+00 0.  1.
        -13    1    4    4    0    0  0.36293825321E+02 -0.44465791651E+01 -0.18875035591E+03  0.19225948788E+03  0.00000000000E+00 0. -1.
         13    1    4    4    0    0 -0.20006936948E+02  0.39195012765E+02 -0.53934938661E+02  0.69609655652E+02  0.00000000000E+00 0.  1.
          1    1    1    2  501    0  0.55829416899E+02 -0.18363576569E+02 -0.55421281662E+02  0.80781577088E+02  0.00000000000E+00 0. -1.
<scales pt_clust_5="13000.00000" pt_clust_6="13000.00000" pt_clust_7="13000.00000" pt_clust_8="13000.00000" pt_clust_9="13000.00000"></scales>
<clustering>
<clus scale="   90.590">  7  8 -1 -1</clus>
<clus scale="   58.772">  7  9 -1 -1</clus>
<clus scale="   91.015">  5  6 -1 -1</clus>
<clus scale="  117.273">  2  5  1 -1</clus>
<clus scale="  168.944">  1  5  2 -1</clus>
</clustering>
</event>
<event>
 9    1  0.3303741E-006  0.3706458E+03  0.7546771E-02  0.1103649E+00
         -3   -1    0    0    0  501 -0.00000000000E+00  0.00000000000E+00  0.15338094005E+03  0.15338094005E+03  0.00000000000E+00 0.  1.
         21   -1    0    0  501  502  0.00000000000E+00 -0.00000000000E+00 -0.36268594233E+03  0.36268594233E+03  0.00000000000E+00 0.  1.
         23    2    1    2    0    0  0.80483127831E+01 -0.26425339574E+02 -0.21273534712E+02  0.10045393538E+03  0.94209107544E+02 0.  0.
         23    2    1    2    0    0  0.15049327279E+03 -0.35298300403E+02 -0.16599983263E+03  0.24405935472E+03  0.90082345822E+02 0.  0.
        -11    1    4    4    0    0  0.25082127497E+02 -0.32050934046E+02 -0.66282672192E+01  0.41234808346E+02  0.00000000000E+00 0. -1.
         11    1    4    4    0    0  0.12541114529E+03 -0.32473663565E+01 -0.15937156541E+03  0.20282454638E+03  0.00000000000E+00 0.  1.
        -13    1    3    3    0    0 -0.18464128822E+02 -0.44861637601E+02  0.16050671781E+02  0.51099066978E+02  0.00000000000E+00 0. -1.
         13    1    3    3    0    0  0.26512441605E+02  0.18436298027E+02 -0.37324206493E+02  0.49354868404E+02  0.00000000000E+00 0.  1.
         -3    1    1    2    0  502 -0.15854158557E+03  0.61723639977E+02 -0.22031634935E+02  0.17155359228E+03  0.00000000000E+00 0.  1.
<scales pt_clust_5="13000.00000" pt_clust_6="13000.00000" pt_clust_7="13000.00000" pt_clust_8="13000.00000" pt_clust_9="13000.00000"></scales>
<clustering>
<clus scale="   90.082">  5  6 -1 -1</clus>
<clus scale="   94.209">  7  8 -1 -1</clus>
<clus scale="   98.176">  1  7  2 -1</clus>
<clus scale="  159.545">  5  9 -1 -1</clus>
<clus scale="  370.646">  2  5  1 -1</clus>
</clustering>
</event>
<event>
 9    1  0.3303741E-006  0.1806467E+03  0.7546771E-02  0.1196532E+00
         21   -1    0    0  501  502  0.00000000000E+00  0.00000000000E+00  0.97621031524E+02  0.97621031524E+02  0.00000000000E+00 0.  1.
         -3   -1    0    0    0  501 -0.00000000000E+00 -0.00000000000E+00 -0.19407501979E+03  0.19407501979E+03  0.00000000000E+00 0.  1.
         23    2    1    2    0    0  0.19817207687E+02 -0.77991226066E+01 -0.20843773949E+02  0.95864173113E+02  0.91114920514E+02 0.  0.
         23    2    1    2    0    0  0.51087498225E+01  0.20936266791E+02 -0.11457775992E+03  0.14774489944E+03  0.90752772129E+02 0.  0.
        -13    1    4    4    0    0  0.44643964974E+02  0.15334920720E+02 -0.87745468827E+02  0.99636894280E+02  0.00000000000E+00 0.  1.
         13    1    4    4    0    0 -0.39535215152E+02  0.56013460708E+01 -0.26832291098E+02  0.48108005160E+02  0.00000000000E+00 0. -1.
        -13    1    3    3    0    0  0.35713931793E+02 -0.34471603425E+02 -0.35995313553E+02  0.61314263957E+02  0.00000000000E+00 0.  1.
         13    1    3    3    0    0 -0.15896724106E+02  0.26672480818E+02  0.15151539604E+02  0.34549909156E+02  0.00000000000E+00 0. -1.
         -3    1    1    2    0  502 -0.24925957509E+02 -0.13137144184E+02  0.38967545611E+02  0.48086978758E+02  0.00000000000E+00 0.  1.
<scales pt_clust_5="13000.00000" pt_clust_6="13000.00000" pt_clust_7="13000.00000" pt_clust_8="13000.00000" pt_clust_9="13000.00000"></scales>
<clustering>
<clus scale="   90.753">  5  6 -1 -1</clus>
<clus scale="   28.176">  5  9 -1 -1</clus>
<clus scale="   91.115">  7  8 -1 -1</clus>
<clus scale="   93.571">  2  7  1 -1</clus>
<clus scale="  180.647">  1  5  2 -1</clus>
</clustering>
</event>
<event>
 9    1  0.3303741E-006  0.3581648E+03  0.7546771E-02  0.1105573E+00
          2   -1    0    0  502    0 -0.00000000000E+00  0.00000000000E+00  0.21098702673E+03  0.21098702673E+03  0.00000000000E+00 0. -1.
         21   -1    0    0  501  502  0.00000000000E+00 -0.00000000000E+00 -0.25756103644E+03  0.25756103644E+03  0.00000000000E+00 0. -1.
         23    2    1    2    0    0  0.32917624406E+02  0.35187105973E+02  0.16558390811E+02  0.10486175815E+03  0.91652089954E+02 0.  0.
         23    2    1    2    0    0 -0.10632449785E+02 -0.19448670257E+01  0.13333683225E+03  0.16318235272E+03  0.93450189452E+02 0.  0.
        -11    1    4    4    0    0  0.20500479950E+02  0.25354474597E+02  0.11190416799E+03  0.11655754747E+03  0.00000000000E+00 0. -1.
         11    1    4    4    0    0 -0.31132929735E+02 -0.27299341623E+02  0.21432664264E+02  0.46624805248E+02  0.00000000000E+00 0.  1.
        -13    1    3    3    0    0 -0.14905668139E+02 -0.22738722798E+02 -0.26810962021E+01  0.27320628360E+02  0.00000000000E+00 0.  1.
         13    1    3    3    0    0  0.47823292546E+02  0.57925828770E+02  0.19239487013E+02  0.77541129790E+02  0.00000000000E+00 0. -1.
          2    1    1    2  501    0 -0.22285174621E+02 -0.33242238947E+02 -0.19646923277E+03  0.20050395229E+03  0.00000000000E+00 0. -1.
<scales pt_clust_5="13000.00000" pt_clust_6="13000.00000" pt_clust_7="13000.00000" pt_clust_8="13000.00000" pt_clust_9="13000.00000"></scales>
<clustering>
<clus scale="   91.652">  7  8 -1 -1</clus>
<clus scale="   93.450">  5  6 -1 -1</clus>
<clus scale="   40.021">  5  9 -1 -1</clus>
<clus scale="  103.546">  1  7  2 -1</clus>
<clus scale="  358.165">  2  5  1 -1</clus>
</clustering>
</event>
<event>
 9    1  0.3303741E-006  0.2130172E+03  0.7546771E-02  0.1159978E+00
         21   -1    0    0  501  502  0.00000000000E+00  0.00000000000E+00  0.16094276836E+03  0.16094276836E+03  0.00000000000E+00 0. -1.
          2   -1    0    0  502    0 -0.00000000000E+00 -0.00000000000E+00 -0.19724205414E+03  0.19724205414E+03  0.00000000000E+00 0. -1.
         23    2    1    2    0    0 -0.89037782375E+02  0.26166086920E+02 -0.61020082009E+02  0.14373801638E+03  0.91240211246E+02 0.  0.
         23    2    1    2    0    0 -0.27307112318E+02 -0.21325801456E+02  0.56531542388E+01  0.96450459333E+02  0.89834652345E+02 0.  0.
        -11    1    3    3    0    0 -0.54658800013E+02 -0.30911070382E+02 -0.37149673996E+02  0.72960105325E+02  0.00000000000E+00 0.  1.
         11    1    3    3    0    0 -0.34378982362E+02  0.57077157302E+02 -0.23870408014E+02  0.70777911050E+02  0.00000000000E+00 0. -1.
        -13    1    4    4    0    0 -0.29292268329E+02 -0.55077555634E+02  0.16509688436E+01  0.62404325303E+02  0.00000000000E+00 0. -1.
         13    1    4    4    0    0  0.19851560104E+01  0.33751754178E+02  0.40021853952E+01  0.34046134030E+02  0.00000000000E+00 0.  1.
          2    1    1    2  501    0  0.11634489469E+03 -0.48402854644E+01  0.19067641986E+02  0.11799634679E+03  0.00000000000E+00 0. -1.
<scales pt_clust_5="13000.00000" pt_clust_6="13000.00000" pt_clust_7="13000.00000" pt_clust_8="13000.00000" pt_clust_9="13000.00000"></scales>
<clustering>
<clus scale="   89.835">  7  8 -1 -1</clus>
<clus scale="   91.240">  5  6 -1 -1</clus>
<clus scale="  116.446">  7  9 -1 -1</clus>
<clus scale="  130.143">  2  5  1 -1</clus>
<clus scale="  213.017">  1  5  2 -1</clus>
</clustering>
</event>
<event>
 9    1  0.3303741E-006  0.2793467E+03  0.7546771E-02  0.1122564E+00
         21   -1    0    0  501  502  0.00000000000E+00  0.00000000000E+00  0.14809515588E+03  0.14809515588E+03  0.00000000000E+00 0.  1.
         -3   -1    0    0    0  501 -0.00000000000E+00 -0.00000000000E+00 -0.33903945909E+03  0.33903945909E+03  0.00000000000E+00 0.  1.
         23    2    1    2    0    0  0.37450196287E+02 -0.10307405817E+03  0.10973475764E+02  0.14245310929E+03  0.90253490276E+02 0.  0.
         23    2    1    2    0    0 -0.47214928712E+02  0.14616723220E+03 -0.23094520237E+03  0.29181409646E+03  0.90695485734E+02 0.  0.
        -13    1    3    3    0    0  0.49050796789E+02 -0.24580638854E+02  0.27550470559E+02  0.61393948400E+02  0.00000000000E+00 0.  1.
         13    1    3    3    0    0 -0.11600600502E+02 -0.78493419320E+02 -0.16576994795E+02  0.81059160895E+02  0.00000000000E+00 0. -1.
        -13    1    4    4    0    0 -0.62751429989E+02  0.50503637474E+02 -0.90245857182E+02  0.12096559057E+03  0.00000000000E+00 0. -1.
         13    1    4    4    0    0  0.15536501277E+02  0.95663594723E+02 -0.14069934519E+03  0.17084850589E+03  0.00000000000E+00 0.  1.
         -3    1    1    2    0  502  0.97647324252E+01 -0.43093174024E+02  0.29027423401E+02  0.52867409205E+02  0.00000000000E+00 0.  1.
<scales pt_clust_5="13000.00000" pt_clust_6="13000.00000" pt_clust_7="13000.00000" pt_clust_8="13000.00000" pt_clust_9="13000.00000"></scales>
<clustering>
<clus scale="   90.253">  5  6 -1 -1</clus>
<clus scale="   90.695">  7  8 -1 -1</clus>
<clus scale="   44.186">  7  9 -1 -1</clus>
<clus scale="  142.030">  2  5  1 -1</clus>
<clus scale="  279.347">  1  5  2 -1</clus>
</clustering>
</event>
<event>
 9    1  0.3303741E-006  0.2377499E+03  0.7546771E-02  0.1144615E+00
          1   -1    0    0  502    0 -0.00000000000E+00  0.00000000000E+00  0.59761627094E+03  0.59761627094E+03  0.00000000000E+00 0. -1.
         21   -1    0    0  501  502  0.00000000000E+00 -0.00000000000E+00 -0.10323814342E+03  0.10323814342E+03  0.00000000000E+00 0. -1.
         23    2    1    2    0    0  0.62018303427E+02 -0.79149974562E+02 -0.18284567650E+02  0.13574550965E+03  0.89339406432E+02 0.  0.
         23    2    1    2    0    0  0.18023793922E+02  0.27990372593E+02  0.42415776672E+03  0.43527376085E+03  0.91897321594E+02 0.  0.
        -11    1    3    3    0    0  0.79700380705E+02 -0.39478518802E+02 -0.23514814526E+02  0.91998101249E+02  0.00000000000E+00 0. -1.
         11    1    3    3    0    0 -0.17682077278E+02 -0.39671455760E+02  0.52302468764E+01  0.43747408396E+02  0.00000000000E+00 0.  1.
        -13    1    4    4    0    0 -0.22425406601E+02 -0.21974012625E+02  0.10036878509E+03  0.10516486634E+03  0.00000000000E+00 0.  1.
         13    1    4    4    0    0  0.40449200524E+02  0.49964385218E+02  0.32378898163E+03  0.33010889451E+03  0.00000000000E+00 0. -1.
          1    1    1    2  501    0 -0.80042097349E+02  0.51159601970E+02  0.88504928452E+02  0.12983514386E+03  0.00000000000E+00 0. -1.
<scales pt_clust_5="13000.00000" pt_clust_6="13000.00000" pt_clust_7="13000.00000" pt_clust_8="13000.00000" pt_clust_9="13000.00000"></scales>
<clustering>
<clus scale="   89.339">  5  6 -1 -1</clus>
<clus scale="   91.897">  7  8 -1 -1</clus>
<clus scale="   94.995">  7  9 -1 -1</clus>
<clus scale="  134.508">  1  5  2 -1</clus>
<clus scale="  237.750">  2  5  1 -1</clus>
</clustering>
</event>
<event>
 9    1  0.3303741E-006  0.1780314E+03  0.7546771E-02  0.1174261E+00
          2   -1    0    0  502    0 -0.00000000000E+00  0.00000000000E+00  0.26239893303E+03  0.26239893303E+03  0.00000000000E+00 0.  1.
         21   -1    0    0  501  502  0.00000000000E+00 -0.00000000000E+00 -0.12768978403E+03  0.12768978403E+03  0.00000000000E+00 0.  1.
         23    2    1    2    0    0 -0.95315552164E+02  0.92873671503E+02 -0.97410261862E+01  0.16082675431E+03  0.89776299582E+02 0.  0.
         23    2    1    2    0    0  0.65437747979E+02 -0.45221154430E+02  0.10494096185E+03  0.16052752084E+03  0.91811915376E+02 0.  0.
        -11    1    3    3    0    0 -0.68724742308E+02  0.94172968104E+02 -0.37401612456E+02  0.12243577394E+03  0.00000000000E+00 0.  1.
         11    1    3    3    0    0 -0.26590809856E+02 -0.12992966007E+01  0.27660586270E+02  0.38390980363E+02  0.00000000000E+00 0. -1.
        -11    1    4    4    0    0  0.37964483611E+02  0.69797646436E+01 -0.17223110120E+01  0.38639170353E+02  0.00000000000E+00 0. -1.
         11    1    4    4    0    0  0.27473264368E+02 -0.52200919074E+02  0.10666327286E+03  0.12188835049E+03  0.00000000000E+00 0.  1.
          2    1    1    2  501    0  0.29877804185E+02 -0.47652517073E+02  0.39509213343E+02  0.68734441915E+02  0.00000000000E+00 0.  1.
<scales pt_clust_5="13000.00000" pt_clust_6="13000.00000" pt_clust_7="13000.00000" pt_clust_8="13000.00000" pt_clust_9="13000.00000"></scales>
<clustering>
<clus scale="   89.776">  5  6 -1 -1</clus>
<clus scale="   91.812">  7  8 -1 -1</clus>
<clus scale="   56.245">  7  9 -1 -1</clus>
<clus scale="  160.532">  1  5  2 -1</clus>
<clus scale="  178.031">  2  5  1 -1</clus>
</clustering>
</event>
<event>
 9    1  0.3303741E-006  0.1347453E+03  0.7546771E-02  0.1234492E+00
         21   -1    0    0  501  502  0.00000000000E+00  0.00000000000E+00  0.60667921757E+02  0.60667921757E+02  0.00000000000E+00 0. -1.
          4   -1    0    0  502    0 -0.00000000000E+00 -0.00000000000E+00 -0.29871467149E+03  0.29871467149E+03  0.00000000000E+00 0. -1.
         23    2    1    2    0    0  0.40222591520E+02 -0.15665376672E+02 -0.19209087380E+03  0.21701602371E+03  0.91289593352E+02 0.  0.
         23    2    1    2    0    0 -0.34673589049E+02 -0.17879979546E+02 -0.23748399569E+02  0.10175555676E+03  0.90929947783E+02 0.  0.
        -11    1    3    3    0    0  0.21564777083E+01  0.32699718774E+02 -0.10762980070E+03  0.11250820416E+03  0.00000000000E+00 0.  1.
         11    1    3    3    0    0  0.38066113812E+02 -0.48365095446E+02 -0.84461073101E+02  0.10450781955E+03  0.00000000000E+00 0. -1.
        -13    1    4    4    0    0  0.16339032725E+02 -0.39443874509E+02 -0.17034742944E+02  0.45967006579E+02  0.00000000000E+00 0. -1.
         13    1    4    4    0    0 -0.51012621773E+02  0.21563894963E+02 -0.67136566248E+01  0.55788550183E+02  0.00000000000E+00 0.  1.
          4    1    1    2  501    0 -0.55490024717E+01  0.33545356218E+02 -0.22207476361E+02  0.40611012774E+02  0.00000000000E+00 0. -1.
<scales pt_clust_5="13000.00000" pt_clust_6="13000.00000" pt_clust_7="13000.00000" pt_clust_8="13000.00000" pt_clust_9="13000.00000"></scales>
<clustering>
<clus scale="   90.930">  7  8 -1 -1</clus>
<clus scale="   34.001">  7  9 -1 -1</clus>
<clus scale="   91.290">  5  6 -1 -1</clus>
<clus scale="  100.980">  2  5  1 -1</clus>
<clus scale="  134.745">  1  5  2 -1</clus>
</clustering>
</event>
<event>
 9    1  0.3303741E-006  0.7297690E+03  0.7546771E-02  0.1028466E+00
          2   -1    0    0  502    0 -0.00000000000E+00  0.00000000000E+00  0.42885715835E+03  0.42885715835E+03  0.00000000000E+00 0. -1.
         21   -1    0    0  501  502  0.00000000000E+00 -0.00000000000E+00 -0.93000964634E+03  0.93000964634E+03  0.00000000000E+00 0. -1.
         23    2    1    2    0    0  0.17157570572E+02 -0.44104647128E+02  0.27487289996E+03  0.29360714946E+03  0.91708478106E+02 0.  0.
         23    2    1    2    0    0  0.31453107653E+03 -0.61074176139E+02 -0.20879534580E+03  0.39980502552E+03  0.11657061771E+03 0.  0.
        -11    1    4    4    0    0  0.27408234753E+03 -0.34034755309E+02 -0.21599831419E+03  0.35062054921E+03  0.00000000000E+00 0. -1.
         11    1    4    4    0    0  0.40448728997E+02 -0.27039420830E+02  0.72029683900E+01  0.49184476310E+02  0.00000000000E+00 0.  1.
        -13    1    3    3    0    0 -0.25929847792E+02  0.14909803401E+02  0.88746542797E+02  0.93651524827E+02  0.00000000000E+00 0.  1.
         13    1    3    3    0    0  0.43087418364E+02 -0.59014450529E+02  0.18612635716E+03  0.19995562464E+03  0.00000000000E+00 0. -1.
          2    1    1    2  501    0 -0.33168864710E+03  0.10517882327E+03 -0.56723004215E+03  0.66545462971E+03  0.00000000000E+00 0. -1.
<scales pt_clust_5="13000.00000" pt_clust_6="13000.00000" pt_clust_7="13000.00000" pt_clust_8="13000.00000" pt_clust_9="13000.00000"></scales>
<clustering>
<clus scale="   91.708">  7  8 -1 -1</clus>
<clus scale="  103.199">  1  7  2 -1</clus>
<clus scale="  116.571">  5  6 -1 -1</clus>
<clus scale="  338.116">  5  9 -1 -1</clus>
<clus scale="  729.769">  2  5  1 -1</clus>
</clustering>
</event>
<event>
 9    1  0.3303741E-006  0.1355874E+03  0.7546771E-02  0.1224611E+00
         21   -1    0    0  501  502  0.00000000000E+00  0.00000000000E+00  0.24171681228E+03  0.24171681228E+03  0.00000000000E+00 0.  1.
         -2   -1    0    0    0  501 -0.00000000000E+00 -0.00000000000E+00 -0.76655204604E+02  0.76655204604E+02  0.00000000000E+00 0.  1.
         23    2    1    2    0    0  0.72828621243E+02 -0.33368381279E+02  0.26319460504E+02  0.12437890847E+03  0.91432718051E+02 0.  0.
         23    2    1    2    0    0 -0.60581043826E+02  0.13854330379E+02  0.10246315830E+03  0.15101676179E+03  0.91898629981E+02 0.  0.
        -11    1    4    4    0    0 -0.14195840816E+02 -0.33566468465E+02  0.11073049245E+02  0.38089921518E+02  0.00000000000E+00 0.  1.
         11    1    4    4    0    0 -0.46385203010E+02  0.47420798845E+02  0.91390109052E+02  0.11292684027E+03  0.00000000000E+00 0. -1.
        -13    1    3    3    0    0  0.59794167252E+02  0.13694345951E+02  0.40525706505E+02  0.73520136263E+02  0.00000000000E+00 0. -1.
         13    1    3    3    0    0  0.13034453991E+02 -0.47062727231E+02 -0.14206246001E+02  0.50858772210E+02  0.00000000000E+00 0.  1.
         -2    1    1    2    0  502 -0.12247577418E+02  0.19514050900E+02  0.36278988877E+02  0.42976346623E+02  0.00000000000E+00 0.  1.
<scales pt_clust_5="13000.00000" pt_clust_6="13000.00000" pt_clust_7="13000.00000" pt_clust_8="13000.00000" pt_clust_9="13000.00000"></scales>
<clustering>
<clus scale="   91.433">  7  8 -1 -1</clus>
<clus scale="   91.899">  5  6 -1 -1</clus>
<clus scale="   23.039">  5  9 -1 -1</clus>
<clus scale="  121.562">  2  7  1 -1</clus>
<clus scale="  135.587">  1  5  2 -1</clus>
</clustering>
</event>
<event>
 9    1  0.3303741E-006  0.2406716E+03  0.7546771E-02  0.1158884E+00
         -1   -1    0    0    0  501 -0.00000000000E+00  0.00000000000E+00  0.38179493815E+02  0.38179493815E+02  0.00000000000E+00 0.  1.
         21   -1    0    0  501  502  0.00000000000E+00 -0.00000000000E+00 -0.76450952364E+03  0.76450952364E+03  0.00000000000E+00 0.  1.
         23    2    1    2    0    0 -0.15452580942E+02 -0.82767580706E+01 -0.28961167316E+03  0.30404513328E+03  0.90891335451E+02 0.  0.
         23    2    1    2    0    0 -0.90780168022E+02  0.15064044536E+02 -0.18461415320E+03  0.22498717657E+03  0.89826943150E+02 0.  0.
        -11    1    3    3    0    0 -0.50237344728E+02 -0.15388565850E+02 -0.12403055124E+03  0.13470032073E+03  0.00000000000E+00 0.  1.
         11    1    3    3    0    0  0.34784763786E+02  0.71118077796E+01 -0.16558112192E+03  0.16934481255E+03  0.00000000000E+00 0. -1.
        -13    1    4    4    0    0 -0.14906822502E+02  0.39810363347E+02 -0.10007178685E+03  0.10872644992E+03  0.00000000000E+00 0.  1.
         13    1    4    4    0    0 -0.75873345520E+02 -0.24746318812E+02 -0.84542366342E+02  0.11626072665E+03  0.00000000000E+00 0. -1.
         -1    1    1    2    0  502  0.10623274896E+03 -0.67872864650E+01 -0.25210420347E+03  0.27365670760E+03  0.00000000000E+00 0.  1.
<scales pt_clust_5="13000.00000" pt_clust_6="13000.00000" pt_clust_7="13000.00000" pt_clust_8="13000.00000" pt_clust_9="13000.00000"></scales>
<clustering>
<clus scale="   89.827">  7  8 -1 -1</clus>
<clus scale="   90.891">  5  6 -1 -1</clus>
<clus scale="   92.566">  1  5  2 -1</clus>
<clus scale="  101.317">  7  9 -1 -1</clus>
<clus scale="  240.672">  2  5  1 -1</clus>
</clustering>
</event>
<event>
 9    1  0.3303741E-006  0.3539715E+03  0.7546771E-02  0.1110676E+00
         21   -1    0    0  501  502  0.00000000000E+00  0.00000000000E+00  0.10484418617E+03  0.10484418617E+03  0.00000000000E+00 0.  1.
         -1   -1    0    0    0  501 -0.00000000000E+00 -0.00000000000E+00 -0.48133516678E+03  0.48133516678E+03  0.00000000000E+00 0.  1.
         23    2    1    2    0    0 -0.25324210088E+01 -0.52840709177E+02 -0.96883765708E+02  0.13509620643E+03  0.77884319554E+02 0.  0.
         23    2    1    2    0    0 -0.45773249076E+02  0.12953162521E+03 -0.31305755164E+03  0.35447124564E+03  0.93654690681E+02 0.  0.
        -11    1    4    4    0    0 -0.20993200428E+02 -0.10190686941E+02 -0.59397827127E+02  0.63817446141E+02  0.00000000000E+00 0. -1.
         11    1    4    4    0    0 -0.24780048649E+02  0.13972231215E+03 -0.25365972451E+03  0.29065379949E+03  0.00000000000E+00 0.  1.
        -11    1    3    3    0    0 -0.81580575659E+01 -0.72778387504E+02 -0.79068719416E+02  0.10777341964E+03  0.00000000000E+00 0. -1.
         11    1    3    3    0    0  0.56256365571E+01  0.19937678327E+02 -0.17815046291E+02  0.27322786792E+02  0.00000000000E+00 0.  1.
         -1    1    1    2    0  502  0.48305670085E+02 -0.76690916030E+02  0.33450336730E+02  0.96611900878E+02  0.00000000000E+00 0.  1.
<scales pt_clust_5="13000.00000" pt_clust_6="13000.00000" pt_clust_7="13000.00000" pt_clust_8="13000.00000" pt_clust_9="13000.00000"></scales>
<clustering>
<clus scale="   77.884">  7  8 -1 -1</clus>
<clus scale="   93.655">  5  6 -1 -1</clus>
<clus scale="   90.636">  5  9 -1 -1</clus>
<clus scale="   94.152">  2  7  1 -1</clus>
<clus scale="  353.971">  1  5  2 -1</clus>
</clustering>
</event>
<event>
 9    1  0.3303741E-006  0.1588028E+03  0.7546771E-02  0.1204536E+00
         21   -1    0    0  501  502  0.00000000000E+00  0.00000000000E+00  0.77011633616E+02  0.77011633616E+02  0.00000000000E+00 0.  1.
          2   -1    0    0  502    0 -0.00000000000E+00 -0.00000000000E+00 -0.31312836867E+03  0.31312836867E+03  0.00000000000E+00 0. -1.
         23    2    1    2    0    0  0.29962503572E+02 -0.65509476750E+02 -0.13324133604E+02  0.11654382218E+03  0.90640425787E+02 0.  0.
         23    2    1    2    0    0 -0.49697516739E+02  0.39086482516E+02 -0.20899974193E+03  0.23784861596E+03  0.94305226272E+02 0.  0.
        -11    1    3    3    0    0 -0.11509289271E+02 -0.47717748342E+02  0.27003011922E+02  0.56023297825E+02  0.00000000000E+00 0.  1.
         11    1    3    3    0    0  0.41471792844E+02 -0.17791728408E+02 -0.40327145526E+02  0.60520524351E+02  0.00000000000E+00 0. -1.
        -13    1    4    4    0    0  0.58171120890E+01  0.50304139213E+02 -0.60387221304E+02  0.78809654940E+02  0.00000000000E+00 0. -1.
         13    1    4    4    0    0 -0.55514628828E+02 -0.11217656697E+02 -0.14861252063E+03  0.15903896102E+03  0.00000000000E+00 0.  1.
          2    1    1    2  501    0  0.19735013167E+02  0.26422994234E+02 -0.13792859522E+02  0.35747564152E+02  0.00000000000E+00 0. -1.
<scales pt_clust_5="13000.00000" pt_clust_6="13000.00000" pt_clust_7="13000.00000" pt_clust_8="13000.00000" pt_clust_9="13000.00000"></scales>
<clustering>
<clus scale="   90.640">  5  6 -1 -1</clus>
<clus scale="   94.305">  7  8 -1 -1</clus>
<clus scale="   32.979">  7  9 -1 -1</clus>
<clus scale="  115.780">  2  5  1 -1</clus>
<clus scale="  158.803">  1  5  2 -1</clus>
</clustering>
</event>
<event>
 9    1  0.3303741E-006  0.2341337E+03  0.7546771E-02  0.1137514E+00
         21   -1    0    0  501  502  0.00000000000E+00  0.00000000000E+00  0.30428071605E+03  0.30428071605E+03  0.00000000000E+00 0. -1.
          1   -1    0    0  502    0 -0.00000000000E+00 -0.00000000000E+00 -0.14083094069E+03  0.14083094069E+03  0.00000000000E+00 0. -1.
         23    2    1    2    0    0 -0.27120742342E+02 -0.14080928103E+03  0.14748040212E+02  0.16774761250E+03  0.85784430510E+02 0.  0.
         23    2    1    2    0    0  0.27405777791E+00  0.53687527103E+02  0.31151968626E+01  0.10558981856E+03  0.90868474494E+02 0.  0.
        -11    1    3    3    0    0  0.17454745590E+02 -0.89531334595E+02 -0.16941362619E+02  0.92776817069E+02  0.00000000000E+00 0.  1.
         11    1    3    3    0    0 -0.44575487932E+02 -0.51277946439E+02  0.31689402831E+02  0.74970795429E+02  0.00000000000E+00 0. -1.
        -11    1    4    4    0    0 -0.25304366456E+02 -0.15597264546E+02 -0.82884350324E+01  0.30859095553E+02  0.00000000000E+00 0. -1.
         11    1    4    4    0    0  0.25578424234E+02  0.69284791649E+02  0.11403631895E+02  0.74730723003E+02  0.00000000000E+00 0.  1.
          1    1    1    2  501    0  0.26846684564E+02  0.87121753931E+02  0.14558653828E+03  0.17177422568E+03  0.00000000000E+00 0. -1.
<scales pt_clust_5="13000.00000" pt_clust_6="13000.00000" pt_clust_7="13000.00000" pt_clust_8="13000.00000" pt_clust_9="13000.00000"></scales>
<clustering>
<clus scale="   85.784">  5  6 -1 -1</clus>
<clus scale="   90.868">  7  8 -1 -1</clus>
<clus scale="   91.164">  7  9 -1 -1</clus>
<clus scale="  167.098">  2  5  1 -1</clus>
<clus scale="  234.134">  1  5  2 -1</clus>
</clustering>
</event>
<event>
 9    1  0.3303741E-006  0.1356807E+03  0.7546771E-02  0.1235771E+00
          2   -1    0    0  502    0 -0.00000000000E+00  0.00000000000E+00  0.50669157478E+02  0.50669157478E+02  0.00000000000E+00 0. -1.
         21   -1    0    0  501  502  0.00000000000E+00 -0.00000000000E+00 -0.45474953535E+03  0.45474953535E+03  0.00000000000E+00 0.  1.
         23    2    1    2    0    0  0.38793737828E+02 -0.17887845461E+02 -0.20440897182E+02  0.98493016143E+02  0.86360377729E+02 0.  0.
         23    2    1    2    0    0  0.32261202369E+01  0.17549387286E+02 -0.26324429115E+03  0.27940789482E+03  0.91939251801E+02 0.  0.
        -11    1    4    4    0    0 -0.32550358245E+01 -0.31837481138E+02 -0.17651445330E+03  0.17939223140E+03  0.00000000000E+00 0. -1.
         11    1    4    4    0    0  0.64811560614E+01  0.49386868424E+02 -0.86729837851E+02  0.10001566343E+03  0.00000000000E+00 0.  1.
        -13    1    3    3    0    0  0.34528930253E+02  0.10785630261E+02  0.25438070286E+02  0.44222983441E+02  0.00000000000E+00 0. -1.
         13    1    3    3    0    0  0.42648075748E+01 -0.28673475722E+02 -0.45878967468E+02  0.54270032703E+02  0.00000000000E+00 0.  1.
          2    1    1    2  501    0 -0.42019858064E+02  0.33845817487E+00 -0.12039518954E+03  0.12751778186E+03  0.00000000000E+00 0. -1.
<scales pt_clust_5="13000.00000" pt_clust_6="13000.00000" pt_clust_7="13000.00000" pt_clust_8="13000.00000" pt_clust_9="13000.00000"></scales>
<clustering>
<clus scale="   86.360">  7  8 -1 -1</clus>
<clus scale="   91.939">  5  6 -1 -1</clus>
<clus scale="   42.021">  5  9 -1 -1</clus>
<clus scale="   96.349">  1  7  2 -1</clus>
<clus scale="  135.681">  2  5  1 -1</clus>
</clustering>
</event>
<event>
 9    1  0.3303741E-006  0.3652925E+03  0.7546771E-02  0.1077969E+00
         21   -1    0    0  501  502  0.00000000000E+00  0.00000000000E+00  0.31898574280E+03  0.31898574280E+03  0.00000000000E+00 0. -1.
          2   -1    0    0  502    0 -0.00000000000E+00 -0.00000000000E+00 -0.65886365118E+03  0.65886365118E+03  0.00000000000E+00 0. -1.
         23    2    1    2    0    0 -0.12671011602E+03  0.12758170184E+03 -0.52917446781E+03  0.56642285026E+03  0.92068907696E+02 0.  0.
         23    2    1    2    0    0 -0.27787633588E+02 -0.18383909747E+02 -0.48918625887E+02  0.10722235745E+03  0.89406270818E+02 0.  0.
        -11    1    3    3    0    0 -0.80206127396E+02  0.39574690262E+02 -0.35217839656E+03  0.36335767775E+03  0.00000000000E+00 0.  1.
         11    1    3    3    0    0 -0.46503988623E+02  0.88007011574E+02 -0.17699607125E+03  0.20306517250E+03  0.00000000000E+00 0. -1.
        -13    1    4    4    0    0  0.16564222986E+02 -0.32874934758E+02 -0.48081779174E+02  0.60555695909E+02  0.00000000000E+00 0.  1.
         13    1    4    4    0    0 -0.44351856574E+02  0.14491025011E+02 -0.83684671265E+00  0.46666661546E+02  0.00000000000E+00 0. -1.
          2    1    1    2  501    0  0.15449774961E+03 -0.10919779209E+03  0.23821518532E+03  0.30420418627E+03  0.00000000000E+00 0. -1.
<scales pt_clust_5="13000.00000" pt_clust_6="13000.00000" pt_clust_7="13000.00000" pt_clust_8="13000.00000" pt_clust_9="13000.00000"></scales>
<clustering>
<clus scale="   89.406">  7  8 -1 -1</clus>
<clus scale="   92.069">  5  6 -1 -1</clus>
<clus scale="  189.192">  7  9 -1 -1</clus>
<clus scale="  202.013">  2  5  1 -1</clus>
<clus scale="  365.293">  1  5  2 -1</clus>
</clustering>
</event>
<event>
 9    1  0.3303741E-006  0.2575570E+03  0.7546771E-02  0.1123234E+00
         21   -1    0    0  501  502  0.00000000000E+00  0.00000000000E+00  0.10767905912E+03  0.10767905912E+03  0.00000000000E+00 0.  1.
         -1   -1    0    0    0  501 -0.00000000000E+00 -0.00000000000E+00 -0.47437426130E+03  0.47437426130E+03  0.00000000000E+00 0.  1.
         23    2    1    2    0    0 -0.15312936831E+03 -0.13164896871E+02 -0.22844021376E+03  0.28973492974E+03  0.90219068379E+02 0.  0.
         23    2    1    2    0    0  0.72438740111E+02 -0.42801230332E+02 -0.14718707568E+03  0.19371328404E+03  0.93709576766E+02 0.  0.
        -11    1    4    4    0    0 -0.15521885559E+02 -0.20787193729E+02 -0.71960589844E+01  0.26922474242E+02  0.00000000000E+00 0.  1.
         11    1    4    4    0    0  0.87960625670E+02 -0.22014036603E+02 -0.13999101670E+03  0.16679080980E+03  0.00000000000E+00 0. -1.
        -13    1    3    3    0    0 -0.61670209272E+02 -0.39327020590E+02 -0.53559013100E+02  0.90655375706E+02  0.00000000000E+00 0. -1.
         13    1    3    3    0    0 -0.91459159037E+02  0.26162123719E+02 -0.17488120066E+03  0.19907955403E+03  0.00000000000E+00 0.  1.
         -1    1    1    2    0  502  0.80690628199E+02  0.55966127203E+02  0.89320872572E+01  0.98605106642E+02  0.00000000000E+00 0.  1.
<scales pt_clust_5="13000.00000" pt_clust_6="13000.00000" pt_clust_7="13000.00000" pt_clust_8="13000.00000" pt_clust_9="13000.00000"></scales>
<clustering>
<clus scale="   90.219">  7  8 -1 -1</clus>
<clus scale="   93.710">  5  6 -1 -1</clus>
<clus scale="   98.200">  5  9 -1 -1</clus>
<clus scale="  178.217">  2  7  1 -1</clus>
<clus scale="  257.557">  1  5  2 -1</clus>
</clustering>
</event>
<event>
 9    1  0.3303741E-006  0.1855005E+03  0.7546771E-02  0.1190267E+00
         21   -1    0    0  501  502  0.00000000000E+00  0.00000000000E+00  0.49983143863E+03  0.49983143863E+03  0.00000000000E+00 0. -1.
          4   -1    0    0  502    0 -0.00000000000E+00 -0.00000000000E+00 -0.40603863581E+02  0.40603863581E+02  0.00000000000E+00 0. -1.
         23    2    1    2    0    0  0.78269845853E+01  0.28753348445E+02  0.17098236283E+03  0.19765877974E+03  0.94583339314E+02 0.  0.
         23    2    1    2    0    0  0.14851898561E+02 -0.48611869936E+02  0.77600483252E+02  0.12998579321E+03  0.91053712972E+02 0.  0.
        -11    1    4    4    0    0 -0.68416347056E+01 -0.63725884859E+02  0.20882852677E+02  0.67408381545E+02  0.00000000000E+00 0. -1.
         11    1    4    4    0    0  0.21693533266E+02  0.15114014923E+02  0.56717630575E+02  0.62577411665E+02  0.00000000000E+00 0.  1.
        -11    1    3    3    0    0 -0.16470329190E+02  0.43913474279E+02  0.34549074236E+02  0.58252068610E+02  0.00000000000E+00 0.  1.
         11    1    3    3    0    0  0.24297313775E+02 -0.15160125834E+02  0.13643328859E+03  0.13940671113E+03  0.00000000000E+00 0. -1.
          4    1    1    2  501    0 -0.22678883146E+02  0.19858521491E+02  0.21064472896E+03  0.21279072926E+03  0.00000000000E+00 0. -1.
<scales pt_clust_5="13000.00000" pt_clust_6="13000.00000" pt_clust_7="13000.00000" pt_clust_8="13000.00000" pt_clust_9="13000.00000"></scales>
<clustering>
<clus scale="   91.054">  5  6 -1 -1</clus>
<clus scale="   30.145">  5  9 -1 -1</clus>
<clus scale="   94.583">  7  8 -1 -1</clus>
<clus scale="   99.167">  2  7  1 -1</clus>
<clus scale="  185.501">  1  5  2 -1</clus>
</clustering>
</event>
<event>
 9    1  0.3303741E-006  0.2341621E+03  0.7546771E-02  0.1160095E+00
         21   -1    0    0  501  502  0.00000000000E+00  0.00000000000E+00  0.19422607907E+03  0.19422607907E+03  0.00000000000E+00 0.  1.
         -1   -1    0    0    0  501 -0.00000000000E+00 -0.00000000000E+00 -0.14340025330E+03  0.14340025330E+03  0.00000000000E+00 0.  1.
         23    2    1    2    0    0  0.99826589877E+01  0.28985504158E+02  0.31538035648E+02  0.10267124208E+03  0.92773505521E+02 0.  0.
         23    2    1    2    0    0  0.14672796218E+02  0.23747485802E+02 -0.77650607211E+02  0.12188116501E+03  0.89700432289E+02 0.  0.
        -11    1    3    3    0    0  0.45709521862E+02  0.38654904862E+02  0.25926304297E+02  0.65235997066E+02  0.00000000000E+00 0.  1.
         11    1    3    3    0    0 -0.35726862874E+02 -0.96694007036E+01  0.56117313502E+01  0.37435245018E+02  0.00000000000E+00 0. -1.
        -11    1    4    4    0    0 -0.18018247044E+02  0.15935902386E+02 -0.84259882652E+02  0.87626126446E+02  0.00000000000E+00 0.  1.
         11    1    4    4    0    0  0.32691043262E+02  0.78115834158E+01  0.66092754413E+01  0.34255038562E+02  0.00000000000E+00 0. -1.
         -1    1    1    2    0  502 -0.24655455206E+02 -0.52732989960E+02  0.96938397330E+02  0.11307392528E+03  0.00000000000E+00 0.  1.
<scales pt_clust_5="13000.00000" pt_clust_6="13000.00000" pt_clust_7="13000.00000" pt_clust_8="13000.00000" pt_clust_9="13000.00000"></scales>
<clustering>
<clus scale="   89.700">  7  8 -1 -1</clus>
<clus scale="   58.212">  7  9 -1 -1</clus>
<clus scale="   92.774">  5  6 -1 -1</clus>
<clus scale="   97.707">  2  5  1 -1</clus>
<clus scale="  234.162">  1  5  2 -1</clus>
</clustering>
</event>
<event>
 9    1  0.3303741E-006  0.5383964E+03  0.7546771E-02  0.1015566E+00
          4   -1    0    0  502    0 -0.00000000000E+00  0.00000000000E+00  0.39781760032E+03  0.39781760032E+03  0.00000000000E+00 0. -1.
         21   -1    0    0  501  502  0.00000000000E+00 -0.00000000000E+00 -0.53021131840E+03  0.53021131840E+03  0.00000000000E+00 0. -1.
         23    2    1    2    0    0 -0.30158612865E+03 -0.21075765816E+03 -0.33623644159E+02  0.38064766061E+03  0.91592077247E+02 0.  0.
         23    2    1    2    0    0  0.14768733115E+02  0.13472292397E+03  0.10002429115E+03  0.19021925178E+03  0.88374901459E+02 0.  0.
        -11    1    4    4    0    0 -0.69851323719E+01  0.42579397066E+02 -0.10780689898E+02  0.44474941298E+02  0.00000000000E+00 0.  1.
         11    1    4    4    0    0  0.21753865486E+02  0.92143526903E+02  0.11080498104E+03  0.14574431048E+03  0.00000000000E+00 0. -1.
        -13    1    3    3    0    0 -0.28274607317E+02  0.65445075331E+01 -0.99345566258E+01  0.30675387742E+02  0.00000000000E+00 0.  1.
         13    1    3    3    0    0 -0.27331152133E+03 -0.21730216570E+03 -0.23689087533E+02  0.34997227287E+03  0.00000000000E+00 0. -1.
          4    1    1    2  501    0  0.28681739553E+03  0.76034734195E+02 -0.19879436506E+03  0.35716200633E+03  0.00000000000E+00 0. -1.
<scales pt_clust_5="13000.00000" pt_clust_6="13000.00000" pt_clust_7="13000.00000" pt_clust_8="13000.00000" pt_clust_9="13000.00000"></scales>
<clustering>
<clus scale="   88.375">  5  6 -1 -1</clus>
<clus scale="   91.592">  7  8 -1 -1</clus>
<clus scale="  296.725">  5  9 -1 -1</clus>
<clus scale="  379.160">  1  7  2 -1</clus>
<clus scale="  538.396">  2  5  1 -1</clus>
</clustering>
</event>
<event>
 9    1  0.3303741E-006  0.3101505E+03  0.7546771E-02  0.1101193E+00
          1   -1    0    0  502    0 -0.00000000000E+00  0.00000000000E+00  0.15620951584E+03  0.15620951584E+03  0.00000000000E+00 0. -1.
         21   -1    0    0  501  502  0.00000000000E+00 -0.00000000000E+00 -0.40030908723E+03  0.40030908723E+03  0.00000000000E+00 0. -1.
         23    2    1    2    0    0  0.87766541377E+02 -0.12616511910E+03 -0.14777006326E+03  0.23175302724E+03  0.90845313466E+02 0.  0.
         23    2    1    2    0    0 -0.11013492903E+02 -0.15129297943E+02  0.53883983997E+02  0.10472186209E+03  0.87823641389E+02 0.  0.
        -11    1    3    3    0    0  0.50387786052E+02 -0.13105956196E+03 -0.10978335621E+03  0.17823558305E+03  0.00000000000E+00 0. -1.
         11    1    3    3    0    0  0.37378755325E+02  0.48944428620E+01 -0.37986707050E+02  0.53517444194E+02  0.00000000000E+00 0.  1.
        -13    1    4    4    0    0 -0.31247038205E+02  0.24536979500E+02  0.43667054858E+02  0.59036026624E+02  0.00000000000E+00 0.  1.
         13    1    4    4    0    0  0.20233545301E+02 -0.39666277442E+02  0.10216929140E+02  0.45685835470E+02  0.00000000000E+00 0. -1.
          1    1    1    2  501    0 -0.76753048473E+02  0.14129441704E+03 -0.15021349213E+03  0.22004371374E+03  0.00000000000E+00 0. -1.
<scales pt_clust_5="13000.00000" pt_clust_6="13000.00000" pt_clust_7="13000.00000" pt_clust_8="13000.00000" pt_clust_9="13000.00000"></scales>
<clustering>
<clus scale="   87.824">  7  8 -1 -1</clus>
<clus scale="   90.845">  5  6 -1 -1</clus>
<clus scale="  160.795">  7  9 -1 -1</clus>
<clus scale="  178.532">  1  5  2 -1</clus>
<clus scale="  310.150">  2  5  1 -1</clus>
</clustering>
</event>
<event>
 9    1  0.3303741E-006  0.1902171E+03  0.7546771E-02  0.1186548E+00
          3   -1    0    0  502    0 -0.00000000000E+00  0.00000000000E+00  0.14797332071E+03  0.14797332071E+03  0.00000000000E+00 0. -1.
         21   -1    0    0  501  502  0.00000000000E+00 -0.00000000000E+00 -0.14537444910E+03  0.14537444910E+03  0.00000000000E+00 0. -1.
         23    2    1    2    0    0  0.34560384564E+02 -0.24936548652E+02  0.21619375035E+02  0.10218211901E+03  0.90319081195E+02 0.  0.
         23    2    1    2    0    0 -0.63738707961E+02 -0.38049279924E+02 -0.15068417419E+02  0.12163718080E+03  0.95174450117E+02 0.  0.
        -11    1    3    3    0    0  0.56720912234E+00  0.27913218312E+02 -0.12600236824E+02  0.30630629291E+02  0.00000000000E+00 0.  1.
         11    1    3    3    0    0  0.33993175442E+02 -0.52849766965E+02  0.34219611859E+02  0.71551489716E+02  0.00000000000E+00 0. -1.
        -11    1    4    4    0    0 -0.29911326317E+02 -0.29905533327E+02  0.38873575194E+02  0.57447221116E+02  0.00000000000E+00 0. -1.
         11    1    4    4    0    0 -0.33827381644E+02 -0.81437465968E+01 -0.53941992613E+02  0.64189959687E+02  0.00000000000E+00 0.  1.
          3    1    1    2  501    0  0.29178323397E+02  0.62985828576E+02 -0.39520860039E+01  0.69528470007E+02  0.00000000000E+00 0. -1.
<scales pt_clust_5="13000.00000" pt_clust_6="13000.00000" pt_clust_7="13000.00000" pt_clust_8="13000.00000" pt_clust_9="13000.00000"></scales>
<clustering>
<clus scale="   90.319">  5  6 -1 -1</clus>
<clus scale="   95.174">  7  8 -1 -1</clus>
<clus scale="   69.416">  7  9 -1 -1</clus>
<clus scale="   99.869">  1  5  2 -1</clus>
<clus scale="  190.217">  2  5  1 -1</clus>
</clustering>
</event>
<event>
 9    1  0.3303741E-006  0.1753468E+03  0.7546771E-02  0.1200304E+00
          2   -1    0    0  502    0 -0.00000000000E+00  0.00000000000E+00  0.26599585586E+03  0.26599585586E+03  0.00000000000E+00 0. -1.
         21   -1    0    0  501  502  0.00000000000E+00 -0.00000000000E+00 -0.13372848790E+03  0.13372848790E+03  0.00000000000E+00 0. -1.
         23    2    1    2    0    0  0.39777175653E+00 -0.14149611459E+02  0.19249034569E+03  0.21432398873E+03  0.93176548727E+02 0.  0.
         23    2    1    2    0    0 -0.27116875749E+00 -0.27317974561E+02  0.21400375471E+02  0.93847373057E+02  0.87195229759E+02 0.  0.
        -13    1    3    3    0    0 -0.33517433639E+02  0.25272731161E+02  0.78059167428E+02  0.88630485262E+02  0.00000000000E+00 0.  1.
         13    1    3    3    0    0  0.33915205396E+02 -0.39422342620E+02  0.11443117827E+03  0.12569350347E+03  0.00000000000E+00 0. -1.
        -13    1    4    4    0    0  0.33514199628E+02 -0.40647431592E+02  0.21142267394E+01  0.52724616892E+02  0.00000000000E+00 0. -1.
         13    1    4    4    0    0 -0.33785368385E+02  0.13329457030E+02  0.19286148732E+02  0.41122756165E+02  0.00000000000E+00 0.  1.
          2    1    1    2  501    0 -0.12660299905E+00  0.41467586020E+02 -0.81623353210E+02  0.91552981972E+02  0.00000000000E+00 0. -1.
<scales pt_clust_5="13000.00000" pt_clust_6="13000.00000" pt_clust_7="13000.00000" pt_clust_8="13000.00000" pt_clust_9="13000.00000"></scales>
<clustering>
<clus scale="   87.195">  7  8 -1 -1</clus>
<clus scale="   41.468">  7  9 -1 -1</clus>
<clus scale="   93.177">  5  6 -1 -1</clus>
<clus scale="   94.246">  1  5  2 -1</clus>
<clus scale="  175.347">  2  5  1 -1</clus>
</clustering>
</event>
<event>
 9    1  0.3303741E-006  0.6586827E+03  0.7546771E-02  0.1033147E+00
         21   -1    0    0  501  502  0.00000000000E+00  0.00000000000E+00  0.83117392511E+03  0.83117392511E+03  0.00000000000E+00 0. -1.
          1   -1    0    0  502    0 -0.00000000000E+00 -0.00000000000E+00 -0.19722726864E+03  0.19722726864E+03  0.00000000000E+00 0. -1.
         23    2    1    2    0    0 -0.45759207799E+02 -0.66382943578E+02  0.21645720727E+03  0.24855484188E+03  0.91788814948E+02 0.  0.
         23    2    1    2    0    0 -0.28034871458E+03  0.10373762879E+03  0.29124872752E+03  0.42816685381E+03  0.95624975947E+02 0.  0.
        -13    1    4    4    0    0 -0.53117437197E+02 -0.16576977926E+02  0.66113272090E+02  0.86413095524E+02  0.00000000000E+00 0.  1.
         13    1    4    4    0    0 -0.22723127738E+03  0.12031460672E+03  0.22513545543E+03  0.34175375828E+03  0.00000000000E+00 0. -1.
        -13    1    3    3    0    0 -0.49173901237E+01 -0.69404568543E+02  0.79704569263E+02  0.10580166928E+03  0.00000000000E+00 0.  1.
         13    1    3    3    0    0 -0.40841817675E+02  0.30216249644E+01  0.13675263800E+03  0.14275317261E+03  0.00000000000E+00 0. -1.
          1    1    1    2  501    0  0.32610792238E+03 -0.37354685214E+02  0.12624072168E+03  0.35167949806E+03  0.00000000000E+00 0. -1.
<scales pt_clust_5="13000.00000" pt_clust_6="13000.00000" pt_clust_7="13000.00000" pt_clust_8="13000.00000" pt_clust_9="13000.00000"></scales>
<clustering>
<clus scale="   91.789">  7  8 -1 -1</clus>
<clus scale="   95.625">  5  6 -1 -1</clus>
<clus scale="  122.171">  2  7  1 -1</clus>
<clus scale="  307.856">  5  9 -1 -1</clus>
<clus scale="  658.683">  1  5  2 -1</clus>
</clustering>
</event>
<event>
 9    1  0.3303741E-006  0.2021776E+03  0.7546771E-02  0.1181326E+00
          1   -1    0    0  502    0 -0.00000000000E+00  0.00000000000E+00  0.69148443052E+03  0.69148443052E+03  0.00000000000E+00 0. -1.
         21   -1    0    0  501  502  0.00000000000E+00 -0.00000000000E+00 -0.35295028098E+02  0.35295028098E+02  0.00000000000E+00 0. -1.
         23    2    1    2    0    0 -0.14058239374E+02  0.27232385835E+02  0.10982908635E+03  0.14421153218E+03  0.88291001084E+02 0.  0.
         23    2    1    2    0    0  0.37608550397E+01 -0.95686736981E+02  0.34548632539E+03  0.37010053024E+03  0.91888550906E+02 0.  0.
        -13    1    3    3    0    0 -0.35485576001E+02 -0.15888435961E+02  0.23693229713E+02  0.45530623054E+02  0.00000000000E+00 0. -1.
         13    1    3    3    0    0  0.21427336628E+02  0.43120821796E+02  0.86135856634E+02  0.98680909124E+02  0.00000000000E+00 0.  1.
        -13    1    4    4    0    0 -0.23388361972E+02  0.80443446213E+01  0.50513565568E+02  0.56243641975E+02  0.00000000000E+00 0.  1.
         13    1    4    4    0    0  0.27149217012E+02 -0.10373108160E+03  0.29497275982E+03  0.31385688826E+03  0.00000000000E+00 0. -1.
          1    1    1    2  501    0  0.10297384334E+02  0.68454351146E+02  0.20087399068E+03  0.21246739620E+03  0.00000000000E+00 0. -1.
<scales pt_clust_5="13000.00000" pt_clust_6="13000.00000" pt_clust_7="13000.00000" pt_clust_8="13000.00000" pt_clust_9="13000.00000"></scales>
<clustering>
<clus scale="   88.291">  5  6 -1 -1</clus>
<clus scale="   91.889">  7  8 -1 -1</clus>
<clus scale="   69.225">  7  9 -1 -1</clus>
<clus scale="   93.459">  1  5  2 -1</clus>
<clus scale="  202.178">  2  5  1 -1</clus>
</clustering>
</event>
<event>
 9    1  0.3303741E-006  0.2185949E+03  0.7546771E-02  0.1140967E+00
         21   -1    0    0  501  502  0.00000000000E+00  0.00000000000E+00  0.16384228966E+03  0.16384228966E+03  0.00000000000E+00 0. -1.
          1   -1    0    0  502    0 -0.00000000000E+00 -0.00000000000E+00 -0.27015175420E+03  0.27015175420E+03  0.00000000000E+00 0. -1.
         23    2    1    2    0    0  0.33904905233E+02 -0.16394772516E+03 -0.10348316654E+03  0.21538087542E+03  0.87474319397E+02 0.  0.
         23    2    1    2    0    0 -0.38775147613E+02  0.67437915543E+02 -0.20752653645E+02  0.12033185364E+03  0.89429848719E+02 0.  0.
        -11    1    4    4    0    0  0.27130438843E+02  0.80418404726E+01 -0.13391176232E+02  0.31305838287E+02  0.00000000000E+00 0. -1.
         11    1    4    4    0    0 -0.65905586456E+02  0.59396075070E+02 -0.73614774129E+01  0.89026015353E+02  0.00000000000E+00 0.  1.
        -13    1    3    3    0    0  0.75247669315E+01 -0.48766443874E+02  0.11326469237E+02  0.50626841407E+02  0.00000000000E+00 0.  1.
         13    1    3    3    0    0  0.26380138301E+02 -0.11518128129E+03 -0.11480963577E+03  0.16475403401E+03  0.00000000000E+00 0. -1.
          1    1    1    2  501    0  0.48702423804E+01  0.96509809619E+02  0.17926355635E+02  0.98281314805E+02  0.00000000000E+00 0. -1.
<scales pt_clust_5="13000.00000" pt_clust_6="13000.00000" pt_clust_7="13000.00000" pt_clust_8="13000.00000" pt_clust_9="13000.00000"></scales>
<clustering>
<clus scale="   87.474">  7  8 -1 -1</clus>
<clus scale="   89.430">  5  6 -1 -1</clus>
<clus scale="   96.633">  5  9 -1 -1</clus>
<clus scale="  188.892">  2  7  1 -1</clus>
<clus scale="  218.595">  1  5  2 -1</clus>
</clustering>
</event>
<event>
 9    1  0.3303741E-006  0.1824430E+03  0.7546771E-02  0.1182939E+00
         21   -1    0    0  501  502  0.00000000000E+00  0.00000000000E+00  0.54972048363E+02  0.54972048363E+02  0.00000000000E+00 0. -1.
          4   -1    0    0  502    0 -0.00000000000E+00 -0.00000000000E+00 -0.62308442529E+03  0.62308442529E+03  0.00000000000E+00 0. -1.
         23    2    1    2    0    0  0.93972504759E+01  0.81813275132E+02 -0.43566601146E+03  0.45260692806E+03  0.90919950953E+02 0.  0.
         23    2    1    2    0    0 -0.41816428512E+02 -0.53387306718E+02 -0.36981909771E+02  0.12069983874E+03  0.92746812395E+02 0.  0.
        -11    1    3    3    0    0  0.45185829657E+02  0.64124490986E+02 -0.34025538290E+03  0.34918109218E+03  0.00000000000E+00 0. -1.
         11    1    3    3    0    0 -0.35788579181E+02  0.17688784146E+02 -0.95410628562E+02  0.10342583588E+03  0.00000000000E+00 0.  1.
        -11    1    4    4    0    0  0.39557781837E+01 -0.30348778526E+02  0.25539474432E+02  0.39861777348E+02  0.00000000000E+00 0. -1.
         11    1    4    4    0    0 -0.45772206695E+02 -0.23038528192E+02 -0.62521384202E+02  0.80838061392E+02  0.00000000000E+00 0.  1.
          4    1    1    2  501    0  0.32419178036E+02 -0.28425968414E+02 -0.95464455688E+02  0.10474970685E+03  0.00000000000E+00 0. -1.
<scales pt_clust_5="13000.00000" pt_clust_6="13000.00000" pt_clust_7="13000.00000" pt_clust_8="13000.00000" pt_clust_9="13000.00000"></scales>
<clustering>
<clus scale="   90.920">  5  6 -1 -1</clus>
<clus scale="   92.747">  7  8 -1 -1</clus>
<clus scale="   43.117">  7  9 -1 -1</clus>
<clus scale="  122.671">  2  5  1 -1</clus>
<clus scale="  182.443">  1  5  2 -1</clus>
</clustering>
</event>
<event>
 9    1  0.3303741E-006  0.2092942E+03  0.7546771E-02  0.1157255E+00
         21   -1    0    0  501  502  0.00000000000E+00  0.00000000000E+00  0.76688392877E+03  0.76688392877E+03  0.00000000000E+00 0.  1.
          1   -1    0    0  502    0 -0.00000000000E+00 -0.00000000000E+00 -0.73777745956E+02  0.73777745956E+02  0.00000000000E+00 0. -1.
         23    2    1    2    0    0  0.11511991238E+03  0.20842245368E+02  0.35369321672E+02  0.15042848606E+03  0.87696904653E+02 0.  0.
         23    2    1    2    0    0 -0.14291882173E+03 -0.32567668246E+01  0.48954023954E+03  0.51885019086E+03  0.95495959569E+02 0.  0.
        -11    1    3    3    0    0  0.42233244065E+02  0.51959085542E+02  0.15794218432E+02  0.68795717966E+02  0.00000000000E+00 0. -1.
         11    1    3    3    0    0  0.72886668314E+02 -0.31116840174E+02  0.19575103240E+02  0.81632768097E+02  0.00000000000E+00 0.  1.
        -13    1    4    4    0    0 -0.43555729174E+02 -0.34349315033E+02  0.87935884793E+02  0.10396969184E+03  0.00000000000E+00 0. -1.
         13    1    4    4    0    0 -0.99363092554E+02  0.31092548209E+02  0.40160435475E+03  0.41488049902E+03  0.00000000000E+00 0.  1.
          1    1    1    2  501    0  0.27798909349E+02 -0.17585478543E+02  0.16819662160E+03  0.17138299780E+03  0.00000000000E+00 0. -1.
<scales pt_clust_5="13000.00000" pt_clust_6="13000.00000" pt_clust_7="13000.00000" pt_clust_8="13000.00000" pt_clust_9="13000.00000"></scales>
<clustering>
<clus scale="   87.697">  5  6 -1 -1</clus>
<clus scale="   95.496">  7  8 -1 -1</clus>
<clus scale="   32.894">  7  9 -1 -1</clus>
<clus scale="  146.211">  2  5  1 -1</clus>
<clus scale="  209.294">  1  5  2 -1</clus>
</clustering>
</event>
<event>
 9    1  0.3303741E-006  0.1657597E+03  0.7546771E-02  0.1197522E+00
          2   -1    0    0  502    0 -0.00000000000E+00  0.00000000000E+00  0.29719160847E+03  0.29719160847E+03  0.00000000000E+00 0. -1.
         21   -1    0    0  501  502  0.00000000000E+00 -0.00000000000E+00 -0.69749260276E+02  0.69749260276E+02  0.00000000000E+00 0.  1.
         23    2    1    2    0    0  0.20157114783E+02 -0.74615419363E+02  0.66512513986E+02  0.13591126132E+03  0.89856476409E+02 0.  0.
         23    2    1    2    0    0 -0.41154596445E+02  0.33337386021E+02  0.57149674239E+02  0.11738502166E+03  0.87795648686E+02 0.  0.
        -11    1    4    4    0    0 -0.51885032856E+02 -0.23342653630E+01  0.34789518564E+01  0.52053900289E+02  0.00000000000E+00 0.  1.
         11    1    4    4    0    0  0.10730436411E+02  0.35671651384E+02  0.53670722382E+02  0.65331121367E+02  0.00000000000E+00 0. -1.
        -13    1    3    3    0    0 -0.71037817124E+01 -0.84421007897E+02  0.65212432144E+02  0.10691132585E+03  0.00000000000E+00 0.  1.
         13    1    3    3    0    0  0.27260896495E+02  0.98055885340E+01  0.13000818428E+01  0.28999935466E+02  0.00000000000E+00 0. -1.
          2    1    1    2  501    0  0.20997481662E+02  0.41278033342E+02  0.10378015997E+03  0.11364458577E+03  0.00000000000E+00 0. -1.
<scales pt_clust_5="13000.00000" pt_clust_6="13000.00000" pt_clust_7="13000.00000" pt_clust_8="13000.00000" pt_clust_9="13000.00000"></scales>
<clustering>
<clus scale="   87.796">  5  6 -1 -1</clus>
<clus scale="   46.312">  5  9 -1 -1</clus>
<clus scale="   89.856">  7  8 -1 -1</clus>
<clus scale="  118.524">  1  7  2 -1</clus>
<clus scale="  165.760">  2  5  1 -1</clus>
</clustering>
</event>
<event>
 9    1  0.3303741E-006  0.1602820E+03  0.7546771E-02  0.1211547E+00
          3   -1    0    0  502    0 -0.00000000000E+00  0.00000000000E+00  0.28577330730E+03  0.28577330730E+03  0.00000000000E+00 0. -1.
         21   -1    0    0  501  502  0.00000000000E+00 -0.00000000000E+00 -0.75862610273E+02  0.75862610273E+02  0.00000000000E+00 0.  1.
         23    2    1    2    0    0  0.21300251887E+02 -0.30373860537E+02 -0.78721577846E+00  0.96902196335E+02  0.89516165085E+02 0.  0.
         23    2    1    2    0    0 -0.25738088252E+02  0.63097907156E+02  0.19985105143E+03  0.22997437687E+03  0.91126155343E+02 0.  0.
        -11    1    3    3    0    0 -0.19943997766E+02  0.15308370254E+02 -0.20324311572E+02  0.32329350251E+02  0.00000000000E+00 0.  1.
         11    1    3    3    0    0  0.41244249653E+02 -0.45682230791E+02  0.19537095794E+02  0.64572846085E+02  0.00000000000E+00 0. -1.
        -13    1    4    4    0    0 -0.10067313360E+02 -0.22817803635E+02  0.61503044915E+02  0.66367367695E+02  0.00000000000E+00 0.  1.
         13    1    4    4    0    0 -0.15670774892E+02  0.85915710790E+02  0.13834800651E+03  0.16360700918E+03  0.00000000000E+00 0. -1.
          3    1    1    2  501    0  0.44378363653E+01 -0.32724046619E+02  0.10846861377E+02  0.34759344361E+02  0.00000000000E+00 0. -1.
<scales pt_clust_5="13000.00000" pt_clust_6="13000.00000" pt_clust_7="13000.00000" pt_clust_8="13000.00000" pt_clust_9="13000.00000"></scales>
<clustering>
<clus scale="   89.516">  5  6 -1 -1</clus>
<clus scale="   91.126">  7  8 -1 -1</clus>
<clus scale="   33.024">  7  9 -1 -1</clus>
<clus scale="   96.899">  1  5  2 -1</clus>
<clus scale="  160.282">  2  5  1 -1</clus>
</clustering>
</event>
<event>
 9    1  0.3303741E-006  0.1370363E+03  0.7546771E-02  0.1222740E+00
         21   -1    0    0  501  502  0.00000000000E+00  0.00000000000E+00  0.18022176696E+02  0.18022176696E+02  0.00000000000E+00 0. -1.
         -1   -1    0    0    0  501 -0.00000000000E+00 -0.00000000000E+00 -0.93391369346E+03  0.93391369346E+03  0.00000000000E+00 0.  1.
         23    2    1    2    0    0  0.78673880504E+02 -0.23209826974E+02 -0.43167094184E+03  0.44869783546E+03  0.90893729018E+02 0.  0.
         23    2    1    2    0    0 -0.49077222302E+02  0.14251678275E+02 -0.34227751415E+03  0.35796572796E+03  0.91508915489E+02 0.  0.
        -11    1    3    3    0    0  0.24484643576E+02 -0.43213376818E+02 -0.95942007457E+02  0.10803593153E+03  0.00000000000E+00 0. -1.
         11    1    3    3    0    0  0.54189236927E+02  0.20003549844E+02 -0.33572893438E+03  0.34066190393E+03  0.00000000000E+00 0.  1.
        -11    1    4    4    0    0  0.18435700825E+02  0.29240358608E+02 -0.13953141464E+03  0.14374939759E+03  0.00000000000E+00 0.  1.
         11    1    4    4    0    0 -0.67512923127E+02 -0.14988680333E+02 -0.20274609952E+03  0.21421633037E+03  0.00000000000E+00 0. -1.
         -1    1    1    2    0  502 -0.29596658202E+02  0.89581486990E+01 -0.14194306077E+03  0.14527230674E+03  0.00000000000E+00 0.  1.
<scales pt_clust_5="13000.00000" pt_clust_6="13000.00000" pt_clust_7="13000.00000" pt_clust_8="13000.00000" pt_clust_9="13000.00000"></scales>
<clustering>
<clus scale="   90.894">  5  6 -1 -1</clus>
<clus scale="   91.509">  7  8 -1 -1</clus>
<clus scale="   30.923">  7  9 -1 -1</clus>
<clus scale="  122.433">  2  5  1 -1</clus>
<clus scale="  137.036">  1  5  2 -1</clus>
</clustering>
</event>
<event>
 9    1  0.3303741E-006  0.2879353E+03  0.7546771E-02  0.1129614E+00
         -2   -1    0    0    0  501 -0.00000000000E+00  0.00000000000E+00  0.68907347880E+03  0.68907347880E+03  0.00000000000E+00 0.  1.
         21   -1    0    0  501  502  0.00000000000E+00 -0.00000000000E+00 -0.71695862387E+02  0.71695862387E+02  0.00000000000E+00 0. -1.
         23    2    1    2    0    0 -0.26687717501E+01 -0.59573535004E+02  0.35457526883E+03  0.37093375212E+03  0.91170712290E+02 0.  0.
         23    2    1    2    0    0  0.89128077086E+00 -0.85599994574E+02  0.55709016882E+02  0.13692026572E+03  0.91189424549E+02 0.  0.
        -13    1    4    4    0    0  0.29754361931E+02 -0.75144022578E+01  0.42816449294E+02  0.52678616395E+02  0.00000000000E+00 0.  1.
         13    1    4    4    0    0 -0.28863081160E+02 -0.78085592316E+02  0.12892567589E+02  0.84241649322E+02  0.00000000000E+00 0. -1.
        -13    1    3    3    0    0 -0.46637950594E+02 -0.25027871556E+02  0.18018841556E+03  0.18780137884E+03  0.00000000000E+00 0.  1.
         13    1    3    3    0    0  0.43969178844E+02 -0.34545663448E+02  0.17438685327E+03  0.18313237328E+03  0.00000000000E+00 0. -1.
         -2    1    1    2    0  502  0.17774909792E+01  0.14517352958E+03  0.20709333069E+03  0.25291532334E+03  0.00000000000E+00 0.  1.
<scales pt_clust_5="13000.00000" pt_clust_6="13000.00000" pt_clust_7="13000.00000" pt_clust_8="13000.00000" pt_clust_9="13000.00000"></scales>
<clustering>
<clus scale="   91.171">  7  8 -1 -1</clus>
<clus scale="   91.189">  5  6 -1 -1</clus>
<clus scale="  108.941">  1  7  2 -1</clus>
<clus scale="  103.184">  5  9 -1 -1</clus>
<clus scale="  287.935">  2  5  1 -1</clus>
</clustering>
</event>
<event>
 9    1  0.3303741E-006  0.2846362E+03  0.7546771E-02  0.1110862E+00
         21   -1    0    0  501  502  0.00000000000E+00  0.00000000000E+00  0.12613160187E+04  0.12613160187E+04  0.00000000000E+00 0.  1.
         -3   -1    0    0    0  501 -0.00000000000E+00 -0.00000000000E+00 -0.48992414598E+02  0.48992414598E+02  0.00000000000E+00 0.  1.
         23    2    1    2    0    0  0.66857454722E+02 -0.14030778563E+03  0.71429292317E+03  0.73667758629E+03  0.91232078126E+02 0.  0.
         23    2    1    2    0    0 -0.15268144083E+02  0.27185982977E+02  0.49422741794E+02  0.10811276760E+03  0.90959162356E+02 0.  0.
        -11    1    4    4    0    0 -0.43921799507E+02  0.35089780340E+02  0.74908432135E+01  0.56714459252E+02  0.00000000000E+00 0. -1.
         11    1    4    4    0    0  0.28653655424E+02 -0.79037973627E+01  0.41931898581E+02  0.51398308343E+02  0.00000000000E+00 0.  1.
        -13    1    3    3    0    0  0.22623008235E+02 -0.12946738280E+03  0.46307684235E+03  0.48136656057E+03  0.00000000000E+00 0.  1.
         13    1    3    3    0    0  0.44234446487E+02 -0.10840402833E+02  0.25121608082E+03  0.25531102572E+03  0.00000000000E+00 0. -1.
         -3    1    1    2    0  502 -0.51589310639E+02  0.11312180266E+03  0.44860793908E+03  0.46551807937E+03  0.00000000000E+00 0.  1.
<scales pt_clust_5="13000.00000" pt_clust_6="13000.00000" pt_clust_7="13000.00000" pt_clust_8="13000.00000" pt_clust_9="13000.00000"></scales>
<clustering>
<clus scale="   90.959">  5  6 -1 -1</clus>
<clus scale="   91.232">  7  8 -1 -1</clus>
<clus scale="  124.330">  5  9 -1 -1</clus>
<clus scale="  180.221">  2  7  1 -1</clus>
<clus scale="  284.636">  1  5  2 -1</clus>
</clustering>
</event>
<event>
 9    1  0.3303741E-006  0.1901124E+03  0.7546771E-02  0.1191719E+00
          1   -1    0    0  502    0 -0.00000000000E+00  0.00000000000E+00  0.13830484211E+03  0.13830484211E+03  0.00000000000E+00 0. -1.
         21   -1    0    0  501  502  0.00000000000E+00 -0.00000000000E+00 -0.47956439107E+03  0.47956439107E+03  0.00000000000E+00 0.  1.
         23    2    1    2    0    0  0.69023277639E+01 -0.30244754199E+01  0.10202795454E+03  0.13553477464E+03  0.88899842792E+02 0.  0.
         23    2    1    2    0    0  0.31709195130E+02  0.66572173137E+02 -0.28968189618E+03  0.31167736908E+03  0.88260150280E+02 0.  0.
        -11    1    3    3    0    0  0.43153988098E+02 -0.99948937820E+01  0.26893092427E+02  0.51820874276E+02  0.00000000000E+00 0.  1.
         11    1    3    3    0    0 -0.36251660334E+02  0.69704183621E+01  0.75134862113E+02  0.83713900362E+02  0.00000000000E+00 0. -1.
        -13    1    4    4    0    0 -0.27005353220E+02  0.17160779484E+02 -0.44798715154E+02  0.55051851326E+02  0.00000000000E+00 0. -1.
         13    1    4    4    0    0  0.58714548349E+02  0.49411393653E+02 -0.24488318103E+03  0.25662551775E+03  0.00000000000E+00 0.  1.
          1    1    1    2  501    0 -0.38611522894E+02 -0.63547697717E+02 -0.15360560731E+03  0.17065708946E+03  0.00000000000E+00 0. -1.
<scales pt_clust_5="13000.00000" pt_clust_6="13000.00000" pt_clust_7="13000.00000" pt_clust_8="13000.00000" pt_clust_9="13000.00000"></scales>
<clustering>
<clus scale="   88.260">  7  8 -1 -1</clus>
<clus scale="   74.358">  7  9 -1 -1</clus>
<clus scale="   88.900">  5  6 -1 -1</clus>
<clus scale="   89.219">  1  5  2 -1</clus>
<clus scale="  190.112">  2  5  1 -1</clus>
</clustering>
</event>
<event>
 9    1  0.3303741E-006  0.1666641E+03  0.7546771E-02  0.1204031E+00
         21   -1    0    0  501  502  0.00000000000E+00  0.00000000000E+00  0.78015811091E+02  0.78015811091E+02  0.00000000000E+00 0. -1.
          1   -1    0    0  502    0 -0.00000000000E+00 -0.00000000000E+00 -0.31776193689E+03  0.31776193689E+03  0.00000000000E+00 0. -1.
         23    2    1    2    0    0 -0.16615579191E+02  0.38771622794E+02 -0.20040775539E+03  0.22453399431E+03  0.92048519683E+02 0.  0.
         23    2    1    2    0    0  0.18894219833E+02 -0.16252109582E+02 -0.79863535417E+02  0.12482598039E+03  0.92640263825E+02 0.  0.
        -11    1    4    4    0    0  0.51984566364E+02 -0.26561029164E+02 -0.34754002292E+02  0.67939120436E+02  0.00000000000E+00 0.  1.
         11    1    4    4    0    0 -0.33090346531E+02  0.10308919582E+02 -0.45109533125E+02  0.56886859952E+02  0.00000000000E+00 0. -1.
        -13    1    3    3    0    0 -0.38197782271E+02  0.21455994874E+02 -0.18997706717E+03  0.19496337178E+03  0.00000000000E+00 0. -1.
         13    1    3    3    0    0  0.21582203080E+02  0.17315627920E+02 -0.10430688218E+02  0.29570622528E+02  0.00000000000E+00 0.  1.
          1    1    1    2  501    0 -0.22786406423E+01 -0.22519513212E+02  0.40525165001E+02  0.46417773286E+02  0.00000000000E+00 0. -1.
<scales pt_clust_5="13000.00000" pt_clust_6="13000.00000" pt_clust_7="13000.00000" pt_clust_8="13000.00000" pt_clust_9="13000.00000"></scales>
<clustering>
<clus scale="   92.049">  7  8 -1 -1</clus>
<clus scale="   92.640">  5  6 -1 -1</clus>
<clus scale="   22.635">  5  9 -1 -1</clus>
<clus scale="  101.253">  2  7  1 -1</clus>
<clus scale="  166.664">  1  5  2 -1</clus>
</clustering>
</event>
<event>
 9    1  0.3303741E-006  0.2827944E+03  0.7546771E-02  0.1117375E+00
         21   -1    0    0  501  502  0.00000000000E+00  0.00000000000E+00  0.41516790327E+03  0.41516790327E+03  0.00000000000E+00 0. -1.
         -2   -1    0    0    0  501 -0.00000000000E+00 -0.00000000000E+00 -0.52200364822E+03  0.52200364822E+03  0.00000000000E+00 0.  1.
         23    2    1    2    0    0  0.24045082710E+02  0.12471202532E+03 -0.45944733977E+03  0.48516754800E+03  0.90357270541E+02 0.  0.
         23    2    1    2    0    0 -0.90832896019E+02 -0.52976537864E+02  0.31889778522E+03  0.34835453111E+03  0.92725149574E+02 0.  0.
        -11    1    4    4    0    0 -0.52486575460E+02 -0.57076488113E+01  0.50211475320E+02  0.72860209389E+02  0.00000000000E+00 0.  1.
         11    1    4    4    0    0 -0.38346320559E+02 -0.47268889053E+02  0.26868630990E+03  0.27549432172E+03  0.00000000000E+00 0. -1.
        -11    1    3    3    0    0  0.52365173345E+02  0.69583103094E+02 -0.33509348596E+03  0.34622473041E+03  0.00000000000E+00 0.  1.
         11    1    3    3    0    0 -0.28320090635E+02  0.55128922229E+02 -0.12435385382E+03  0.13894281758E+03  0.00000000000E+00 0. -1.
         -2    1    1    2    0  502  0.66787813309E+02 -0.71735487460E+02  0.33713809607E+02  0.10364947239E+03  0.00000000000E+00 0.  1.
<scales pt_clust_5="13000.00000" pt_clust_6="13000.00000" pt_clust_7="13000.00000" pt_clust_8="13000.00000" pt_clust_9="13000.00000"></scales>
<clustering>
<clus scale="   90.357">  7  8 -1 -1</clus>
<clus scale="   92.725">  5  6 -1 -1</clus>
<clus scale="   98.013">  5  9 -1 -1</clus>
<clus scale="  155.871">  2  7  1 -1</clus>
<clus scale="  282.794">  1  5  2 -1</clus>
</clustering>
</event>
<event>
 9    1  0.3303741E-006  0.2567288E+03  0.7546771E-02  0.1142627E+00
         21   -1    0    0  501  502  0.00000000000E+00  0.00000000000E+00  0.14435984590E+03  0.14435984590E+03  0.00000000000E+00 0.  1.
          1   -1    0    0  502    0 -0.00000000000E+00 -0.00000000000E+00 -0.24846160303E+03  0.24846160303E+03  0.00000000000E+00 0. -1.
         23    2    1    2    0    0  0.34135517332E+02 -0.53122849521E+02 -0.74140711960E+02  0.13435028743E+03  0.92552060371E+02 0.  0.
         23    2    1    2    0    0 -0.34419990735E+02 -0.75155821614E+02  0.13527403723E+02  0.12302100986E+03  0.90100193839E+02 0.  0.
        -11    1    4    4    0    0  0.11169926158E+02 -0.75267489338E+02  0.25826835957E+01  0.76135618841E+02  0.00000000000E+00 0. -1.
         11    1    4    4    0    0 -0.45589916893E+02  0.11166772384E+00  0.10944720128E+02  0.46885391016E+02  0.00000000000E+00 0.  1.
        -11    1    3    3    0    0 -0.20373355467E+02 -0.24535433689E+02 -0.64629046890E+02  0.72069236302E+02  0.00000000000E+00 0.  1.
         11    1    3    3    0    0  0.54508872799E+02 -0.28587415832E+02 -0.95116650703E+01  0.62281051132E+02  0.00000000000E+00 0. -1.
          1    1    1    2  501    0  0.28447340286E+00  0.12827867114E+03 -0.43488448893E+02  0.13545015164E+03  0.00000000000E+00 0. -1.
<scales pt_clust_5="13000.00000" pt_clust_6="13000.00000" pt_clust_7="13000.00000" pt_clust_8="13000.00000" pt_clust_9="13000.00000"></scales>
<clustering>
<clus scale="   90.100">  5  6 -1 -1</clus>
<clus scale="   92.552">  7  8 -1 -1</clus>
<clus scale="  112.041">  2  7  1 -1</clus>
<clus scale="   97.708">  5  9 -1 -1</clus>
<clus scale="  256.729">  1  5  2 -1</clus>
</clustering>
</event>
<event>
 9    1  0.3303741E-006  0.2399012E+03  0.7546771E-02  0.1149201E+00
          3   -1    0    0  502    0 -0.00000000000E+00  0.00000000000E+00  0.13788817895E+03  0.13788817895E+03  0.00000000000E+00 0. -1.
         21   -1    0    0  501  502  0.00000000000E+00 -0.00000000000E+00 -0.37403946946E+03  0.37403946946E+03  0.00000000000E+00 0. -1.
         23    2    1    2    0    0 -0.64397844184E+02 -0.10952801521E+02 -0.24521218700E+03  0.27185535623E+03  0.97515495499E+02 0.  0.
         23    2    1    2    0    0 -0.37706035215E+02  0.24618002946E+02  0.67090438646E+02  0.12183791612E+03  0.91189690674E+02 0.  0.
        -11    1    4    4    0    0  0.26620593319E+02 -0.89282619441E+01  0.26980611146E+02  0.38939995221E+02  0.00000000000E+00 0.  1.
         11    1    4    4    0    0 -0.64326628535E+02  0.33546264890E+02  0.40109827501E+02  0.82897920896E+02  0.00000000000E+00 0. -1.
        -11    1    3    3    0    0 -0.40185167487E+02 -0.34961201985E+02 -0.47951134633E+02  0.71668993594E+02  0.00000000000E+00 0.  1.
         11    1    3    3    0    0 -0.24212676697E+02  0.24008400464E+02 -0.19726105237E+03  0.20018636264E+03  0.00000000000E+00 0. -1.
          3    1    1    2  501    0  0.10210387940E+03 -0.13665201425E+02 -0.58029542157E+02  0.11823437606E+03  0.00000000000E+00 0. -1.
<scales pt_clust_5="13000.00000" pt_clust_6="13000.00000" pt_clust_7="13000.00000" pt_clust_8="13000.00000" pt_clust_9="13000.00000"></scales>
<clustering>
<clus scale="   91.190">  5  6 -1 -1</clus>
<clus scale="   97.515">  7  8 -1 -1</clus>
<clus scale="  103.014">  5  9 -1 -1</clus>
<clus scale="  117.373">  1  7  2 -1</clus>
<clus scale="  239.901">  2  5  1 -1</clus>
</clustering>
</event>
<event>
 9    1  0.3303741E-006  0.7977154E+03  0.7546771E-02  0.1005775E+00
         21   -1    0    0  501  502  0.00000000000E+00  0.00000000000E+00  0.11886005056E+03  0.11886005056E+03  0.00000000000E+00 0. -1.
          2   -1    0    0  502    0 -0.00000000000E+00 -0.00000000000E+00 -0.21033160366E+04  0.21033160366E+04  0.00000000000E+00 0. -1.
         23    2    1    2    0    0 -0.10127233118E+03  0.77921159188E+02 -0.63764664559E+03  0.65685016795E+03  0.92363988575E+02 0.  0.
         23    2    1    2    0    0  0.23260673583E+03  0.30280085456E+03 -0.72697780866E+03  0.82614454403E+03  0.90685292465E+02 0.  0.
        -13    1    3    3    0    0 -0.57575030167E+02 -0.57111388901E+01 -0.16428805133E+03  0.17417825644E+03  0.00000000000E+00 0.  1.
         13    1    3    3    0    0 -0.43697301012E+02  0.83632298078E+02 -0.47335859426E+03  0.48267191151E+03  0.00000000000E+00 0. -1.
        -13    1    4    4    0    0  0.20788126874E+03  0.22425136880E+03 -0.61839982174E+03  0.68987073994E+03  0.00000000000E+00 0. -1.
         13    1    4    4    0    0  0.24725467088E+02  0.78549485767E+02 -0.10857798692E+03  0.13627380409E+03  0.00000000000E+00 0.  1.
          2    1    1    2  501    0 -0.13133440465E+03 -0.38072201375E+03 -0.61983153178E+03  0.73918137516E+03  0.00000000000E+00 0. -1.
<scales pt_clust_5="13000.00000" pt_clust_6="13000.00000" pt_clust_7="13000.00000" pt_clust_8="13000.00000" pt_clust_9="13000.00000"></scales>
<clustering>
<clus scale="   90.685">  7  8 -1 -1</clus>
<clus scale="   92.364">  5  6 -1 -1</clus>
<clus scale="  157.667">  2  5  1 -1</clus>
<clus scale="  387.916">  7  9 -1 -1</clus>
<clus scale="  797.715">  1  5  2 -1</clus>
</clustering>
</event>
<event>
 9    1  0.3303741E-006  0.1903081E+03  0.7546771E-02  0.1186895E+00
         21   -1    0    0  501  502  0.00000000000E+00  0.00000000000E+00  0.49773479733E+02  0.49773479733E+02  0.00000000000E+00 0. -1.
          2   -1    0    0  502    0 -0.00000000000E+00 -0.00000000000E+00 -0.46035555951E+03  0.46035555951E+03  0.00000000000E+00 0. -1.
         23    2    1    2    0    0 -0.11620046456E+02  0.34421463831E+02 -0.74362756221E+02  0.12378646117E+03  0.92051104301E+02 0.  0.
         23    2    1    2    0    0 -0.19482034861E+02 -0.88273105701E+01 -0.33288830698E+03  0.34592604910E+03  0.91611873814E+02 0.  0.
        -11    1    4    4    0    0  0.12710161564E+02  0.35782682485E+02 -0.16246377507E+03  0.16684252091E+03  0.00000000000E+00 0.  1.
         11    1    4    4    0    0 -0.32192196425E+02 -0.44609993055E+02 -0.17042453191E+03  0.17908352818E+03  0.00000000000E+00 0. -1.
        -11    1    3    3    0    0 -0.26468073829E+02 -0.25564858710E+02 -0.22678539391E+02  0.43225421710E+02  0.00000000000E+00 0.  1.
         11    1    3    3    0    0  0.14848027373E+02  0.59986322541E+02 -0.51684216830E+02  0.80561039455E+02  0.00000000000E+00 0. -1.
          2    1    1    2  501    0  0.31102081317E+02 -0.25594153261E+02 -0.33310165716E+01  0.40416528980E+02  0.00000000000E+00 0. -1.
<scales pt_clust_5="13000.00000" pt_clust_6="13000.00000" pt_clust_7="13000.00000" pt_clust_8="13000.00000" pt_clust_9="13000.00000"></scales>
<clustering>
<clus scale="   91.612">  5  6 -1 -1</clus>
<clus scale="   40.279">  5  9 -1 -1</clus>
<clus scale="   92.051">  7  8 -1 -1</clus>
<clus scale="   98.961">  2  7  1 -1</clus>
<clus scale="  190.308">  1  5  2 -1</clus>
</clustering>
</event>
<event>
 9    1  0.3303741E-006  0.4697798E+03  0.7546771E-02  0.1064077E+00
         21   -1    0    0  501  502  0.00000000000E+00  0.00000000000E+00  0.35150725089E+03  0.35150725089E+03  0.00000000000E+00 0. -1.
          1   -1    0    0  502    0 -0.00000000000E+00 -0.00000000000E+00 -0.26429470918E+03  0.26429470918E+03  0.00000000000E+00 0. -1.
         23    2    1    2    0    0 -0.34360082337E+02 -0.97549784796E+02  0.64023461604E+01  0.13912246353E+03  0.92830458631E+02 0.  0.
         23    2    1    2    0    0  0.12553422136E+03  0.26026855533E+02 -0.14463470641E+03  0.22319644611E+03  0.11162982271E+03 0.  0.
        -13    1    3    3    0    0  0.31886799036E+02 -0.25516153213E+02 -0.20707056140E+01  0.40891684354E+02  0.00000000000E+00 0. -1.
         13    1    3    3    0    0 -0.66246881372E+02 -0.72033631583E+02  0.84730517743E+01  0.98230779173E+02  0.00000000000E+00 0.  1.
        -13    1    4    4    0    0  0.10956463311E+03 -0.27984053924E+02 -0.87636288977E+02  0.14306514337E+03  0.00000000000E+00 0. -1.
         13    1    4    4    0    0  0.15969588250E+02  0.54010909457E+02 -0.56998417433E+02  0.80131302741E+02  0.00000000000E+00 0.  1.
          1    1    1    2  501    0 -0.91174139023E+02  0.71522929264E+02  0.22544490196E+03  0.25348305043E+03  0.00000000000E+00 0. -1.
<scales pt_clust_5="13000.00000" pt_clust_6="13000.00000" pt_clust_7="13000.00000" pt_clust_8="13000.00000" pt_clust_9="13000.00000"></scales>
<clustering>
<clus scale="   92.830">  5  6 -1 -1</clus>
<clus scale="  111.630">  7  8 -1 -1</clus>
<clus scale="  115.880">  7  9 -1 -1</clus>
<clus scale="  138.975">  2  5  1 -1</clus>
<clus scale="  469.780">  1  5  2 -1</clus>
</clustering>
</event>
<event>
 9    1  0.3303741E-006  0.2589353E+03  0.7546771E-02  0.1126280E+00
         21   -1    0    0  501  502  0.00000000000E+00  0.00000000000E+00  0.10078550163E+03  0.10078550163E+03  0.00000000000E+00 0.  1.
         -3   -1    0    0    0  501 -0.00000000000E+00 -0.00000000000E+00 -0.45820942598E+03  0.45820942598E+03  0.00000000000E+00 0.  1.
         23    2    1    2    0    0  0.12273885264E+03  0.60125509543E+02 -0.19248851587E+03  0.25199137779E+03  0.88135820714E+02 0.  0.
         23    2    1    2    0    0  0.12795296857E+02 -0.39252326901E+02 -0.13338633218E+03  0.16628915948E+03  0.90308948384E+02 0.  0.
        -11    1    3    3    0    0  0.65452821829E+02  0.78093002651E+02 -0.10966404356E+03  0.14969566259E+03  0.00000000000E+00 0.  1.
         11    1    3    3    0    0  0.57286030809E+02 -0.17967493107E+02 -0.82824472306E+02  0.10229571520E+03  0.00000000000E+00 0. -1.
        -13    1    4    4    0    0  0.46943488947E+02 -0.40937224305E+02 -0.66148512991E+02  0.90857984015E+02  0.00000000000E+00 0.  1.
         13    1    4    4    0    0 -0.34148192089E+02  0.16848974041E+01 -0.67237819190E+02  0.75431175462E+02  0.00000000000E+00 0. -1.
         -3    1    1    2    0  502 -0.13553414950E+03 -0.20873182643E+02 -0.31549076298E+02  0.14071439034E+03  0.00000000000E+00 0.  1.
<scales pt_clust_5="13000.00000" pt_clust_6="13000.00000" pt_clust_7="13000.00000" pt_clust_8="13000.00000" pt_clust_9="13000.00000"></scales>
<clustering>
<clus scale="   88.136">  5  6 -1 -1</clus>
<clus scale="   90.309">  7  8 -1 -1</clus>
<clus scale="  137.132">  7  9 -1 -1</clus>
<clus scale="  162.628">  2  5  1 -1</clus>
<clus scale="  258.935">  1  5  2 -1</clus>
</clustering>
</event>
<event>
 9    1  0.3438323E-006  0.2979904E+03  0.7546771E-02  0.1107787E+00
          1   -1    0    0  502    0 -0.00000000000E+00  0.00000000000E+00  0.11418245416E+04  0.11418245416E+04  0.00000000000E+00 0. -1.
         21   -1    0    0  501  502  0.00000000000E+00 -0.00000000000E+00 -0.54101149963E+02  0.54101149963E+02  0.00000000000E+00 0. -1.
         23    2    1    2    0    0  0.12899658189E+03  0.31860764592E+01  0.60710449811E+03  0.63042344631E+03  0.11048792152E+03 0.  0.
         23    2    1    2    0    0 -0.14904438949E+02  0.50545801519E+02  0.40557484937E+03  0.41875163928E+03  0.89916386770E+02 0.  0.
        -11    1    4    4    0    0 -0.48495122976E+02  0.50813671367E+02  0.25693516801E+03  0.26636344852E+03  0.00000000000E+00 0. -1.
         11    1    4    4    0    0  0.33590684027E+02 -0.26786984813E+00  0.14863968136E+03  0.15238819076E+03  0.00000000000E+00 0.  1.
        -13    1    3    3    0    0  0.51277942518E+02 -0.42593214751E+02  0.14487345333E+03  0.15947390637E+03  0.00000000000E+00 0.  1.
         13    1    3    3    0    0  0.77718639370E+02  0.45779291210E+02  0.46223104478E+03  0.47094953994E+03  0.00000000000E+00 0. -1.
          1    1    1    2  501    0 -0.11409214294E+03 -0.53731877978E+02  0.75044044159E+02  0.14675060598E+03  0.00000000000E+00 0. -1.
<scales pt_clust_5="13000.00000" pt_clust_6="13000.00000" pt_clust_7="13000.00000" pt_clust_8="13000.00000" pt_clust_9="13000.00000"></scales>
<clustering>
<clus scale="   89.916">  5  6 -1 -1</clus>
<clus scale="  110.488">  7  8 -1 -1</clus>
<clus scale="  126.112">  5  9 -1 -1</clus>
<clus scale="  169.876">  1  7  2 -1</clus>
<clus scale="  297.990">  2  5  1 -1</clus>
</clustering>
</event>
<event>
 9    1  0.3303741E-006  0.2104317E+03  0.7546771E-02  0.1163220E+00
          4   -1    0    0  502    0 -0.00000000000E+00  0.00000000000E+00  0.64173005761E+02  0.64173005761E+02  0.00000000000E+00 0. -1.
         21   -1    0    0  501  502  0.00000000000E+00 -0.00000000000E+00 -0.47381985591E+03  0.47381985591E+03  0.00000000000E+00 0. -1.
         23    2    1    2    0    0  0.32660629802E+02  0.80013900948E+02 -0.22749231250E+03  0.25967327516E+03  0.90600863703E+02 0.  0.
         23    2    1    2    0    0 -0.25237476803E+01 -0.34009415185E+01 -0.10742677218E+02  0.88162275017E+02  0.87402779800E+02 0.  0.
        -11    1    3    3    0    0  0.13665700962E+02  0.93884704895E+02 -0.14031945715E+03  0.16938311383E+03  0.00000000000E+00 0. -1.
         11    1    3    3    0    0  0.18994928839E+02 -0.13870803947E+02 -0.87172855347E+02  0.90290161331E+02  0.00000000000E+00 0.  1.
        -11    1    4    4    0    0 -0.31306276613E+02  0.96080279590E+01 -0.35301846894E+02  0.48152025407E+02  0.00000000000E+00 0.  1.
         11    1    4    4    0    0  0.28782528933E+02 -0.13008969477E+02  0.24559169676E+02  0.40010249610E+02  0.00000000000E+00 0. -1.
          4    1    1    2  501    0 -0.30136882121E+02 -0.76612959429E+02 -0.17141186043E+03  0.19015731149E+03  0.00000000000E+00 0. -1.
<scales pt_clust_5="13000.00000" pt_clust_6="13000.00000" pt_clust_7="13000.00000" pt_clust_8="13000.00000" pt_clust_9="13000.00000"></scales>
<clustering>
<clus scale="   87.403">  7  8 -1 -1</clus>
<clus scale="   82.327">  7  9 -1 -1</clus>
<clus scale="   90.601">  5  6 -1 -1</clus>
<clus scale="  125.210">  1  5  2 -1</clus>
<clus scale="  210.432">  2  5  1 -1</clus>
</clustering>
</event>
<event>
 9    1  0.3303741E-006  0.2419479E+03  0.7546771E-02  0.1128990E+00
          3   -1    0    0  502    0 -0.00000000000E+00  0.00000000000E+00  0.38378039427E+03  0.38378039427E+03  0.00000000000E+00 0. -1.
         21   -1    0    0  501  502  0.00000000000E+00 -0.00000000000E+00 -0.37799803772E+03  0.37799803772E+03  0.00000000000E+00 0. -1.
         23    2    1    2    0    0 -0.16139093290E+03 -0.18258483594E+02  0.31688220098E+03  0.36766945153E+03  0.91575601801E+02 0.  0.
         23    2    1    2    0    0  0.69230675404E+02  0.49479933386E+02 -0.93296891795E+02  0.15555831882E+03  0.90845640027E+02 0.  0.
        -11    1    4    4    0    0  0.72916077969E+02  0.11769287318E+02 -0.91547787399E+02  0.11762766651E+03  0.00000000000E+00 0.  1.
         11    1    4    4    0    0 -0.36854025650E+01  0.37710646068E+02 -0.17491043957E+01  0.37930652316E+02  0.00000000000E+00 0. -1.
        -13    1    3    3    0    0  0.28291400934E+01 -0.21979510336E+02  0.40009918651E+02  0.45737255042E+02  0.00000000000E+00 0.  1.
         13    1    3    3    0    0 -0.16422007300E+03  0.37210267420E+01  0.27687228232E+03  0.32193219649E+03  0.00000000000E+00 0. -1.
          3    1    1    2  501    0  0.92160257498E+02 -0.31221449792E+02 -0.21780295264E+03  0.23855066164E+03  0.00000000000E+00 0. -1.
<scales pt_clust_5="13000.00000" pt_clust_6="13000.00000" pt_clust_7="13000.00000" pt_clust_8="13000.00000" pt_clust_9="13000.00000"></scales>
<clustering>
<clus scale="   90.846">  5  6 -1 -1</clus>
<clus scale="   91.576">  7  8 -1 -1</clus>
<clus scale="   97.305">  5  9 -1 -1</clus>
<clus scale="  186.458">  1  7  2 -1</clus>
<clus scale="  241.948">  2  5  1 -1</clus>
</clustering>
</event>
<event>
 9    1  0.3303741E-006  0.1826255E+03  0.7546771E-02  0.1194565E+00
         21   -1    0    0  501  502  0.00000000000E+00  0.00000000000E+00  0.45388367968E+02  0.45388367968E+02  0.00000000000E+00 0.  1.
          3   -1    0    0  502    0 -0.00000000000E+00 -0.00000000000E+00 -0.42907530577E+03  0.42907530577E+03  0.00000000000E+00 0. -1.
         23    2    1    2    0    0  0.32773179428E+02  0.94813256334E-01 -0.10525946924E+03  0.14148628443E+03  0.88683270906E+02 0.  0.
         23    2    1    2    0    0  0.17894743845E+02  0.23374742176E+02 -0.25634271185E+03  0.27292911739E+03  0.88950080228E+02 0.  0.
        -11    1    4    4    0    0 -0.33319674175E+02 -0.52916405980E+01 -0.11604765448E+03  0.12085222488E+03  0.00000000000E+00 0.  1.
         11    1    4    4    0    0  0.51214418021E+02  0.28666382774E+02 -0.14029505737E+03  0.15207689251E+03  0.00000000000E+00 0. -1.
        -11    1    3    3    0    0  0.31319757304E+02 -0.40863305488E+02 -0.43694680842E+02  0.67527491194E+02  0.00000000000E+00 0.  1.
         11    1    3    3    0    0  0.14534221232E+01  0.40958118745E+02 -0.61564788394E+02  0.73958793236E+02  0.00000000000E+00 0. -1.
          3    1    1    2  501    0 -0.50667923273E+02 -0.23469555433E+02 -0.22084756719E+02  0.60048271918E+02  0.00000000000E+00 0. -1.
<scales pt_clust_5="13000.00000" pt_clust_6="13000.00000" pt_clust_7="13000.00000" pt_clust_8="13000.00000" pt_clust_9="13000.00000"></scales>
<clustering>
<clus scale="   88.683">  7  8 -1 -1</clus>
<clus scale="   88.950">  5  6 -1 -1</clus>
<clus scale="   55.840">  5  9 -1 -1</clus>
<clus scale="   94.545">  2  7  1 -1</clus>
<clus scale="  182.626">  1  5  2 -1</clus>
</clustering>
</event>
<event>
 9    1  0.3303741E-006  0.2644092E+03  0.7546771E-02  0.1148329E+00
          1   -1    0    0  502    0 -0.00000000000E+00  0.00000000000E+00  0.68636389903E+03  0.68636389903E+03  0.00000000000E+00 0. -1.
         21   -1    0    0  501  502  0.00000000000E+00 -0.00000000000E+00 -0.45857566086E+02  0.45857566086E+02  0.00000000000E+00 0. -1.
         23    2    1    2    0    0  0.16025503726E+02  0.19568689466E+02  0.18564445557E+03  0.20609261564E+03  0.85851918792E+02 0.  0.
         23    2    1    2    0    0  0.63886808892E+02 -0.86309495867E+01  0.42581766240E+03  0.44040150095E+03  0.92069445466E+02 0.  0.
        -11    1    4    4    0    0  0.54498567313E+02 -0.47065393227E+02  0.29937832093E+03  0.30791658630E+03  0.00000000000E+00 0. -1.
         11    1    4    4    0    0  0.93882415786E+01  0.38434443640E+02  0.12643934147E+03  0.13248491465E+03  0.00000000000E+00 0.  1.
        -13    1    3    3    0    0  0.35600645633E+02 -0.19480550164E+02  0.55084198551E+02  0.68419052421E+02  0.00000000000E+00 0. -1.
         13    1    3    3    0    0 -0.19575141908E+02  0.39049239631E+02  0.13056025701E+03  0.13767356321E+03  0.00000000000E+00 0.  1.
          1    1    1    2  501    0 -0.79912312617E+02 -0.10937739879E+02  0.29044214975E+02  0.85727348524E+02  0.00000000000E+00 0. -1.
<scales pt_clust_5="13000.00000" pt_clust_6="13000.00000" pt_clust_7="13000.00000" pt_clust_8="13000.00000" pt_clust_9="13000.00000"></scales>
<clustering>
<clus scale="   85.852">  7  8 -1 -1</clus>
<clus scale="   89.500">  1  7  2 -1</clus>
<clus scale="   92.069">  5  6 -1 -1</clus>
<clus scale="   78.515">  5  9 -1 -1</clus>
<clus scale="  264.409">  2  5  1 -1</clus>
</clustering>
</event>
<event>
 9    1  0.3303741E-006  0.1982175E+03  0.7546771E-02  0.1172580E+00
         21   -1    0    0  501  502  0.00000000000E+00  0.00000000000E+00  0.43424917520E+02  0.43424917520E+02  0.00000000000E+00 0.  1.
          2   -1    0    0  502    0 -0.00000000000E+00 -0.00000000000E+00 -0.63410603063E+03  0.63410603063E+03  0.00000000000E+00 0. -1.
         23    2    1    2    0    0 -0.29534294207E+01 -0.76954364035E+02 -0.13848165618E+03  0.18379568718E+03  0.93128881870E+02 0.  0.
         23    2    1    2    0    0  0.32785196756E+02  0.10486421060E+03 -0.41409289821E+03  0.43786931700E+03  0.90472308671E+02 0.  0.
        -11    1    4    4    0    0  0.50867158065E+02  0.46023841886E+02 -0.12793450075E+03  0.14516507250E+03  0.00000000000E+00 0.  1.
         11    1    4    4    0    0 -0.18081961309E+02  0.58840368711E+02 -0.28615839746E+03  0.29270424451E+03  0.00000000000E+00 0. -1.
        -13    1    3    3    0    0 -0.20721088064E+02 -0.87615641545E+01 -0.10198331136E+03  0.10443526364E+03  0.00000000000E+00 0. -1.
         13    1    3    3    0    0  0.17767658643E+02 -0.68192799880E+02 -0.36498344824E+02  0.79360423538E+02  0.00000000000E+00 0.  1.
          2    1    1    2  501    0 -0.29831767335E+02 -0.27909846563E+02 -0.38106558718E+02  0.55865943962E+02  0.00000000000E+00 0. -1.
<scales pt_clust_5="13000.00000" pt_clust_6="13000.00000" pt_clust_7="13000.00000" pt_clust_8="13000.00000" pt_clust_9="13000.00000"></scales>
<clustering>
<clus scale="   90.472">  5  6 -1 -1</clus>
<clus scale="   40.852">  5  9 -1 -1</clus>
<clus scale="   93.129">  7  8 -1 -1</clus>
<clus scale="  120.846">  2  7  1 -1</clus>
<clus scale="  198.217">  1  5  2 -1</clus>
</clustering>
</event>
<event>
 9    1  0.3303741E-006  0.7053879E+03  0.7546771E-02  0.1005648E+00
          2   -1    0    0  502    0 -0.00000000000E+00  0.00000000000E+00  0.47411671176E+03  0.47411671176E+03  0.00000000000E+00 0. -1.
         21   -1    0    0  501  502  0.00000000000E+00 -0.00000000000E+00 -0.47952724989E+03  0.47952724989E+03  0.00000000000E+00 0. -1.
         23    2    1    2    0    0 -0.15503157895E+03 -0.14182039309E+03 -0.84058903000E+02  0.24388512511E+03  0.90918868834E+02 0.  0.
         23    2    1    2    0    0 -0.76613567782E+02  0.28988699059E+03  0.23635011908E+03  0.39281556941E+03  0.92404473369E+02 0.  0.
        -11    1    4    4    0    0 -0.51512639227E+02  0.54867293693E+02  0.38260566483E+02  0.84426553080E+02  0.00000000000E+00 0. -1.
         11    1    4    4    0    0 -0.25100928555E+02  0.23501969690E+03  0.19808955260E+03  0.30838901633E+03  0.00000000000E+00 0.  1.
        -13    1    3    3    0    0 -0.61532633519E+02 -0.41594302057E+01 -0.32247932182E+02  0.69595222375E+02  0.00000000000E+00 0.  1.
         13    1    3    3    0    0 -0.93498945427E+02 -0.13766096289E+03 -0.51810970818E+02  0.17428990274E+03  0.00000000000E+00 0. -1.
          2    1    1    2  501    0  0.23164514673E+03 -0.14806659750E+03 -0.15770175421E+03  0.31694326713E+03  0.00000000000E+00 0. -1.
<scales pt_clust_5="13000.00000" pt_clust_6="13000.00000" pt_clust_7="13000.00000" pt_clust_8="13000.00000" pt_clust_9="13000.00000"></scales>
<clustering>
<clus scale="   90.919">  7  8 -1 -1</clus>
<clus scale="   92.404">  5  6 -1 -1</clus>
<clus scale="  228.941">  1  7  2 -1</clus>
<clus scale="  267.133">  5  9 -1 -1</clus>
<clus scale="  705.388">  2  5  1 -1</clus>
</clustering>
</event>
<event>
 9    1  0.3303741E-006  0.2221191E+03  0.7546771E-02  0.1165215E+00
         21   -1    0    0  501  502  0.00000000000E+00  0.00000000000E+00  0.20640341697E+03  0.20640341697E+03  0.00000000000E+00 0.  1.
         -3   -1    0    0    0  501 -0.00000000000E+00 -0.00000000000E+00 -0.38809266506E+03  0.38809266506E+03  0.00000000000E+00 0.  1.
         23    2    1    2    0    0  0.11286259826E+02  0.39100398329E+02 -0.31801921475E+03  0.33387616508E+03  0.93171089149E+02 0.  0.
         23    2    1    2    0    0  0.21488057821E+02  0.61776834237E+02  0.42249969723E+02  0.11884044816E+03  0.89776824958E+02 0.  0.
        -13    1    3    3    0    0  0.44166101204E+02  0.26998261433E+02 -0.26708555828E+03  0.27205559369E+03  0.00000000000E+00 0.  1.
         13    1    3    3    0    0 -0.32879841378E+02  0.12102136896E+02 -0.50933656461E+02  0.61820571390E+02  0.00000000000E+00 0. -1.
        -13    1    4    4    0    0 -0.23419236542E+02  0.35189351243E+02  0.50660798088E+02  0.65979296328E+02  0.00000000000E+00 0. -1.
         13    1    4    4    0    0  0.44907294363E+02  0.26587482994E+02 -0.84108283649E+01  0.52861151830E+02  0.00000000000E+00 0.  1.
         -3    1    1    2    0  502 -0.32774317648E+02 -0.10087723257E+03  0.94079996932E+02  0.14177946879E+03  0.00000000000E+00 0.  1.
<scales pt_clust_5="13000.00000" pt_clust_6="13000.00000" pt_clust_7="13000.00000" pt_clust_8="13000.00000" pt_clust_9="13000.00000"></scales>
<clustering>
<clus scale="   89.777">  7  8 -1 -1</clus>
<clus scale="   93.171">  5  6 -1 -1</clus>
<clus scale="  101.671">  2  5  1 -1</clus>
<clus scale="   90.459">  7  9 -1 -1</clus>
<clus scale="  222.119">  1  5  2 -1</clus>
</clustering>
</event>
<event>
 9    1  0.3303741E-006  0.3860025E+03  0.7546771E-02  0.1095919E+00
         21   -1    0    0  501  502  0.00000000000E+00  0.00000000000E+00  0.92357519723E+02  0.92357519723E+02  0.00000000000E+00 0.  1.
          1   -1    0    0  502    0 -0.00000000000E+00 -0.00000000000E+00 -0.65839299738E+03  0.65839299738E+03  0.00000000000E+00 0. -1.
         23    2    1    2    0    0  0.51447769263E+02 -0.20006719703E+02 -0.14197250404E+03  0.17731585952E+03  0.90761116885E+02 0.  0.
         23    2    1    2    0    0  0.86511606312E+02  0.14423398671E+03 -0.15067994933E+03  0.24297515758E+03  0.89692692694E+02 0.  0.
        -13    1    3    3    0    0  0.46580492587E+02 -0.54083106256E+02 -0.88109756622E+02  0.11339335908E+03  0.00000000000E+00 0. -1.
         13    1    3    3    0    0  0.48672766760E+01  0.34076386553E+02 -0.53862747417E+02  0.63922500436E+02  0.00000000000E+00 0.  1.
        -13    1    4    4    0    0  0.46637949025E+02  0.61526208034E+02 -0.12621267118E+03  0.14795340797E+03  0.00000000000E+00 0. -1.
         13    1    4    4    0    0  0.39873657287E+02  0.82707778672E+02 -0.24467278152E+02  0.95021749607E+02  0.00000000000E+00 0.  1.
          1    1    1    2  501    0 -0.13795937558E+03 -0.12422726700E+03 -0.27338302429E+03  0.33045950001E+03  0.00000000000E+00 0. -1.
<scales pt_clust_5="13000.00000" pt_clust_6="13000.00000" pt_clust_7="13000.00000" pt_clust_8="13000.00000" pt_clust_9="13000.00000"></scales>
<clustering>
<clus scale="   89.693">  7  8 -1 -1</clus>
<clus scale="   90.761">  5  6 -1 -1</clus>
<clus scale="  106.230">  2  5  1 -1</clus>
<clus scale="  173.198">  7  9 -1 -1</clus>
<clus scale="  386.002">  1  5  2 -1</clus>
</clustering>
</event>
<event>
 9    1  0.3303741E-006  0.2397256E+03  0.7546771E-02  0.1129042E+00
         21   -1    0    0  501  502  0.00000000000E+00  0.00000000000E+00  0.52314252933E+02  0.52314252933E+02  0.00000000000E+00 0. -1.
          3   -1    0    0  502    0 -0.00000000000E+00 -0.00000000000E+00 -0.96545540138E+03  0.96545540138E+03  0.00000000000E+00 0. -1.
         23    2    1    2    0    0 -0.14603411563E+03 -0.84909083100E+02 -0.26662181778E+03  0.32823677765E+03  0.90092581057E+02 0.  0.
         23    2    1    2    0    0  0.37793247271E+02  0.50706778082E+02 -0.44131051523E+03  0.45501946301E+03  0.91039738491E+02 0.  0.
        -11    1    4    4    0    0  0.50766315562E+02 -0.30776408347E+01 -0.27738093054E+03  0.28200509091E+03  0.00000000000E+00 0. -1.
         11    1    4    4    0    0 -0.12973068291E+02  0.53784418917E+02 -0.16392958469E+03  0.17301437210E+03  0.00000000000E+00 0.  1.
        -13    1    3    3    0    0  0.42272237372E+01 -0.21736871484E+02 -0.66743068461E+02  0.70320681097E+02  0.00000000000E+00 0.  1.
         13    1    3    3    0    0 -0.15026133937E+03 -0.63172211616E+02 -0.19987874932E+03  0.25791609655E+03  0.00000000000E+00 0. -1.
          3    1    1    2  501    0  0.10824086836E+03  0.34202305018E+02 -0.20520881544E+03  0.23451341365E+03  0.00000000000E+00 0. -1.
<scales pt_clust_5="13000.00000" pt_clust_6="13000.00000" pt_clust_7="13000.00000" pt_clust_8="13000.00000" pt_clust_9="13000.00000"></scales>
<clustering>
<clus scale="   90.093">  7  8 -1 -1</clus>
<clus scale="   91.040">  5  6 -1 -1</clus>
<clus scale="  113.516">  5  9 -1 -1</clus>
<clus scale="  191.448">  2  7  1 -1</clus>
<clus scale="  239.726">  1  5  2 -1</clus>
</clustering>
</event>
<event>
 9    1  0.3303741E-006  0.4454896E+03  0.7546771E-02  0.1059883E+00
         21   -1    0    0  501  502  0.00000000000E+00  0.00000000000E+00  0.15705690362E+03  0.15705690362E+03  0.00000000000E+00 0.  1.
          2   -1    0    0  502    0 -0.00000000000E+00 -0.00000000000E+00 -0.63160418649E+03  0.63160418649E+03  0.00000000000E+00 0. -1.
         23    2    1    2    0    0 -0.13249290522E+03 -0.88831153968E+02 -0.11616579645E+03  0.21691089852E+03  0.90058324331E+02 0.  0.
         23    2    1    2    0    0 -0.26161057762E+02 -0.75419238284E+02 -0.31689673657E+03  0.33965052379E+03  0.92555249556E+02 0.  0.
        -11    1    4    4    0    0 -0.39499295607E+02 -0.33261685404E+02 -0.60822094902E+02  0.79786347815E+02  0.00000000000E+00 0.  1.
         11    1    4    4    0    0  0.13338237845E+02 -0.42157552880E+02 -0.25607464166E+03  0.25986417598E+03  0.00000000000E+00 0. -1.
        -13    1    3    3    0    0  0.90345638245E+00 -0.37602096206E+02 -0.40298600373E+02  0.55124505118E+02  0.00000000000E+00 0. -1.
         13    1    3    3    0    0 -0.13339636160E+03 -0.51229057762E+02 -0.75867196078E+02  0.16178639340E+03  0.00000000000E+00 0.  1.
          2    1    1    2  501    0  0.15865396298E+03  0.16425039225E+03 -0.41484749851E+02  0.23209966781E+03  0.00000000000E+00 0. -1.
<scales pt_clust_5="13000.00000" pt_clust_6="13000.00000" pt_clust_7="13000.00000" pt_clust_8="13000.00000" pt_clust_9="13000.00000"></scales>
<clustering>
<clus scale="   90.058">  7  8 -1 -1</clus>
<clus scale="   92.555">  5  6 -1 -1</clus>
<clus scale="  183.183">  2  7  1 -1</clus>
<clus scale="  182.762">  5  9 -1 -1</clus>
<clus scale="  445.490">  1  5  2 -1</clus>
</clustering>
</event>
<event>
 9    1  0.3303741E-006  0.3027956E+03  0.7546771E-02  0.1121986E+00
         21   -1    0    0  501  502  0.00000000000E+00  0.00000000000E+00  0.18939514165E+03  0.18939514165E+03  0.00000000000E+00 0.  1.
         -2   -1    0    0    0  501 -0.00000000000E+00 -0.00000000000E+00 -0.23983347440E+03  0.23983347440E+03  0.00000000000E+00 0.  1.
         23    2    1    2    0    0 -0.66077084873E+02  0.12054599315E+02  0.27765100174E+02  0.11649714078E+03  0.91044980703E+02 0.  0.
         23    2    1    2    0    0  0.35326446190E+02  0.49919763045E+02 -0.16711656982E+03  0.20007283477E+03  0.91439875121E+02 0.  0.
        -13    1    4    4    0    0 -0.14211268204E+02 -0.14660339527E+02 -0.91572356970E+01  0.22377235411E+02  0.00000000000E+00 0. -1.
         13    1    4    4    0    0  0.49537714394E+02  0.64580102571E+02 -0.15795933412E+03  0.17769559936E+03  0.00000000000E+00 0.  1.
        -13    1    3    3    0    0 -0.89199899016E+02  0.98155093827E+01  0.19442470947E+02  0.91820345706E+02  0.00000000000E+00 0. -1.
         13    1    3    3    0    0  0.23122814144E+02  0.22390899324E+01  0.83226292279E+01  0.24676795070E+02  0.00000000000E+00 0.  1.
         -2    1    1    2    0  502  0.30750638683E+02 -0.61974362360E+02  0.88913136892E+02  0.11265864051E+03  0.00000000000E+00 0.  1.
<scales pt_clust_5="13000.00000" pt_clust_6="13000.00000" pt_clust_7="13000.00000" pt_clust_8="13000.00000" pt_clust_9="13000.00000"></scales>
<clustering>
<clus scale="   91.045">  7  8 -1 -1</clus>
<clus scale="   91.440">  5  6 -1 -1</clus>
<clus scale="   69.184">  5  9 -1 -1</clus>
<clus scale="  113.140">  2  7  1 -1</clus>
<clus scale="  302.796">  1  5  2 -1</clus>
</clustering>
</event>
<event>
 9    1  0.3303741E-006  0.1954440E+03  0.7546771E-02  0.1182947E+00
         21   -1    0    0  501  502  0.00000000000E+00  0.00000000000E+00  0.70556422423E+02  0.70556422423E+02  0.00000000000E+00 0.  1.
          2   -1    0    0  502    0 -0.00000000000E+00 -0.00000000000E+00 -0.35017897864E+03  0.35017897864E+03  0.00000000000E+00 0. -1.
         23    2    1    2    0    0  0.39551667354E+02  0.67774125152E-01 -0.30962951094E+02  0.10446030016E+03  0.91590998388E+02 0.  0.
         23    2    1    2    0    0  0.15138944075E+02  0.41278906478E+02 -0.20726755123E+03  0.23618819123E+03  0.10436420907E+03 0.  0.
        -13    1    3    3    0    0 -0.36771707009E+00  0.36425893647E+02  0.87132058597E+01  0.37455318717E+02  0.00000000000E+00 0.  1.
         13    1    3    3    0    0  0.39919384424E+02 -0.36358119522E+02 -0.39676156954E+02  0.67004981446E+02  0.00000000000E+00 0. -1.
        -13    1    4    4    0    0  0.36696628862E+02 -0.22713579252E+02 -0.10624165032E+03  0.11467274094E+03  0.00000000000E+00 0. -1.
         13    1    4    4    0    0 -0.21557684787E+02  0.63992485730E+02 -0.10102590091E+03  0.12151545029E+03  0.00000000000E+00 0.  1.
          2    1    1    2  501    0 -0.54690611429E+02 -0.41346680603E+02 -0.41392053889E+02  0.80086909670E+02  0.00000000000E+00 0. -1.
<scales pt_clust_5="13000.00000" pt_clust_6="13000.00000" pt_clust_7="13000.00000" pt_clust_8="13000.00000" pt_clust_9="13000.00000"></scales>
<clustering>
<clus scale="   91.591">  5  6 -1 -1</clus>
<clus scale="   99.766">  2  5  1 -1</clus>
<clus scale="  104.364">  7  8 -1 -1</clus>
<clus scale="   61.980">  7  9 -1 -1</clus>
<clus scale="  195.444">  1  5  2 -1</clus>
</clustering>
</event>
<event>
 9    1  0.3303741E-006  0.1466895E+03  0.7546771E-02  0.1222148E+00
         -2   -1    0    0    0  501 -0.00000000000E+00  0.00000000000E+00  0.21480198146E+03  0.21480198146E+03  0.00000000000E+00 0.  1.
         21   -1    0    0  501  502  0.00000000000E+00 -0.00000000000E+00 -0.79268705748E+02  0.79268705748E+02  0.00000000000E+00 0.  1.
         23    2    1    2    0    0  0.27733492200E+02  0.31416743816E+02  0.10201860940E+03  0.14360125724E+03  0.91963938775E+02 0.  0.
         23    2    1    2    0    0 -0.39353086880E+01 -0.99169572334E+01  0.59304431751E+02  0.10931476604E+03  0.91207838227E+02 0.  0.
        -11    1    4    4    0    0  0.27758806985E+02 -0.39053615638E+02  0.38677204081E+02  0.61576475826E+02  0.00000000000E+00 0. -1.
         11    1    4    4    0    0 -0.31694115673E+02  0.29136658404E+02  0.20627227669E+02  0.47738290214E+02  0.00000000000E+00 0.  1.
        -11    1    3    3    0    0  0.47084504802E+00 -0.21751428691E+02 -0.37932951998E+01  0.22084733044E+02  0.00000000000E+00 0. -1.
         11    1    3    3    0    0  0.27262647152E+02  0.53168172507E+02  0.10581190460E+03  0.12151652419E+03  0.00000000000E+00 0.  1.
         -2    1    1    2    0  502 -0.23798183512E+02 -0.21499786583E+02 -0.25789765439E+02  0.41154663927E+02  0.00000000000E+00 0.  1.
<scales pt_clust_5="13000.00000" pt_clust_6="13000.00000" pt_clust_7="13000.00000" pt_clust_8="13000.00000" pt_clust_9="13000.00000"></scales>
<clustering>
<clus scale="   91.208">  5  6 -1 -1</clus>
<clus scale="   32.072">  5  9 -1 -1</clus>
<clus scale="   91.964">  7  8 -1 -1</clus>
<clus scale="  101.062">  1  7  2 -1</clus>
<clus scale="  146.690">  2  5  1 -1</clus>
</clustering>
</event>
<event>
 9    1  0.3303741E-006  0.1565078E+03  0.7546771E-02  0.1214800E+00
         21   -1    0    0  501  502  0.00000000000E+00  0.00000000000E+00  0.42461940998E+03  0.42461940998E+03  0.00000000000E+00 0.  1.
         -1   -1    0    0    0  501 -0.00000000000E+00 -0.00000000000E+00 -0.71974850995E+02  0.71974850995E+02  0.00000000000E+00 0.  1.
         23    2    1    2    0    0  0.11390207609E+01 -0.45385723019E+02  0.32302034408E+03  0.33730742240E+03  0.85866135925E+02 0.  0.
         23    2    1    2    0    0 -0.46602088736E+02  0.37439102173E+02  0.69156809869E+01  0.10785030637E+03  0.89500954707E+02 0.  0.
        -13    1    3    3    0    0 -0.19239574360E+02 -0.54657583758E+02  0.29862841969E+03  0.30419820139E+03  0.00000000000E+00 0.  1.
         13    1    3    3    0    0  0.20378595121E+02  0.92718607389E+01  0.24391924385E+02  0.33109221009E+02  0.00000000000E+00 0. -1.
        -13    1    4    4    0    0 -0.27741049651E+01  0.29795685283E+02  0.41735450218E+02  0.51354905557E+02  0.00000000000E+00 0. -1.
         13    1    4    4    0    0 -0.43827983771E+02  0.76434168897E+01 -0.34819769231E+02  0.56495400808E+02  0.00000000000E+00 0.  1.
         -1    1    1    2    0  502  0.45463067975E+02  0.79466208457E+01  0.22708533923E+02  0.51436532207E+02  0.00000000000E+00 0.  1.
<scales pt_clust_5="13000.00000" pt_clust_6="13000.00000" pt_clust_7="13000.00000" pt_clust_8="13000.00000" pt_clust_9="13000.00000"></scales>
<clustering>
<clus scale="   85.866">  5  6 -1 -1</clus>
<clus scale="   89.501">  7  8 -1 -1</clus>
<clus scale="   46.152">  7  9 -1 -1</clus>
<clus scale="   97.130">  2  5  1 -1</clus>
<clus scale="  156.508">  1  5  2 -1</clus>
</clustering>
</event>
<event>
 9    1  0.3303741E-006  0.2131805E+03  0.7546771E-02  0.1172216E+00
          2   -1    0    0  502    0 -0.00000000000E+00  0.00000000000E+00  0.71982001653E+03  0.71982001653E+03  0.00000000000E+00 0. -1.
         21   -1    0    0  501  502  0.00000000000E+00 -0.00000000000E+00 -0.34766291751E+02  0.34766291751E+02  0.00000000000E+00 0. -1.
         23    2    1    2    0    0 -0.32936603092E+02 -0.14744411946E+00  0.28364063925E+03  0.30007735309E+03  0.92247298301E+02 0.  0.
         23    2    1    2    0    0 -0.13229772834E+02 -0.15736112873E+02  0.39424699253E+03  0.40516349402E+03  0.91126909476E+02 0.  0.
        -11    1    4    4    0    0 -0.84021063115E+01  0.37388562117E+02  0.12747029970E+03  0.13310588744E+03  0.00000000000E+00 0.  1.
         11    1    4    4    0    0 -0.48276665222E+01 -0.53124674990E+02  0.26677669283E+03  0.27205760658E+03  0.00000000000E+00 0. -1.
        -13    1    3    3    0    0 -0.54817378910E+02  0.22846260904E+02  0.23184041313E+03  0.23932587371E+03  0.00000000000E+00 0. -1.
         13    1    3    3    0    0  0.21880775818E+02 -0.22993705024E+02  0.51800226116E+02  0.60751479379E+02  0.00000000000E+00 0.  1.
          2    1    1    2  501    0  0.46166375926E+02  0.15883556993E+02  0.71660930013E+01  0.49345461167E+02  0.00000000000E+00 0. -1.
<scales pt_clust_5="13000.00000" pt_clust_6="13000.00000" pt_clust_7="13000.00000" pt_clust_8="13000.00000" pt_clust_9="13000.00000"></scales>
<clustering>
<clus scale="   91.127">  5  6 -1 -1</clus>
<clus scale="   48.822">  5  9 -1 -1</clus>
<clus scale="   92.247">  7  8 -1 -1</clus>
<clus scale="   97.951">  1  7  2 -1</clus>
<clus scale="  213.180">  2  5  1 -1</clus>
</clustering>
</event>
<event>
 9    1  0.3303741E-006  0.1534626E+03  0.7546771E-02  0.1213988E+00
         21   -1    0    0  501  502  0.00000000000E+00  0.00000000000E+00  0.33001388583E+02  0.33001388583E+02  0.00000000000E+00 0.  1.
          1   -1    0    0  502    0 -0.00000000000E+00 -0.00000000000E+00 -0.56955995408E+03  0.56955995408E+03  0.00000000000E+00 0. -1.
         23    2    1    2    0    0  0.51022068733E+02 -0.41220413630E+01 -0.12389031801E+03  0.16228204649E+03  0.91468076365E+02 0.  0.
         23    2    1    2    0    0 -0.83478764451E+01 -0.81148213883E+01 -0.17536726149E+03  0.19886143135E+03  0.93041147407E+02 0.  0.
        -11    1    4    4    0    0  0.60718440758E+01  0.40569782772E+02 -0.98918387221E+02  0.10708698285E+03  0.00000000000E+00 0. -1.
         11    1    4    4    0    0 -0.14419720521E+02 -0.48684604160E+02 -0.76448874268E+02  0.91774448508E+02  0.00000000000E+00 0.  1.
        -13    1    3    3    0    0  0.75900805006E+02 -0.59564251927E+01 -0.10985574502E+03  0.13365887892E+03  0.00000000000E+00 0.  1.
         13    1    3    3    0    0 -0.24878736273E+02  0.18343838297E+01 -0.14034572993E+02  0.28623167569E+02  0.00000000000E+00 0. -1.
          1    1    1    2  501    0 -0.42674192288E+02  0.12236862751E+02 -0.23730098599E+03  0.24141786481E+03  0.00000000000E+00 0. -1.
<scales pt_clust_5="13000.00000" pt_clust_6="13000.00000" pt_clust_7="13000.00000" pt_clust_8="13000.00000" pt_clust_9="13000.00000"></scales>
<clustering>
<clus scale="   91.468">  7  8 -1 -1</clus>
<clus scale="   93.041">  5  6 -1 -1</clus>
<clus scale="   44.394">  5  9 -1 -1</clus>
<clus scale="  104.817">  2  7  1 -1</clus>
<clus scale="  153.463">  1  5  2 -1</clus>
</clustering>
</event>
<event>
 9    1  0.3963478E-006  0.3984555E+03  0.7546771E-02  0.1092334E+00
         -4   -1    0    0    0  501 -0.00000000000E+00  0.00000000000E+00  0.15637235857E+03  0.15637235857E+03  0.00000000000E+00 0.  1.
         21   -1    0    0  501  502  0.00000000000E+00 -0.00000000000E+00 -0.41997823384E+03  0.41997823384E+03  0.00000000000E+00 0.  1.
         23    2    1    2    0    0 -0.32584738488E+02  0.46148697231E+02 -0.16191895261E+02  0.10732980364E+03  0.89811145400E+02 0.  0.
         23    2    1    2    0    0 -0.53710821293E+02  0.40730002351E+01  0.75569511581E+02  0.13095647777E+03  0.92398086204E+02 0.  0.
        -13    1    4    4    0    0  0.89473693915E+01  0.34621994981E+02  0.36266866367E+02  0.50931557522E+02  0.00000000000E+00 0. -1.
         13    1    4    4    0    0 -0.62658190684E+02 -0.30548994746E+02  0.39302645213E+02  0.80024920247E+02  0.00000000000E+00 0.  1.
        -13    1    3    3    0    0 -0.55602381278E+02  0.38163645024E+02  0.13648537341E+02  0.68806766941E+02  0.00000000000E+00 0.  1.
         13    1    3    3    0    0  0.23017642790E+02  0.79850522069E+01 -0.29840432603E+02  0.38523036696E+02  0.00000000000E+00 0. -1.
         -4    1    1    2    0  502  0.86295559781E+02 -0.50221697466E+02 -0.32298349159E+03  0.33806431101E+03  0.00000000000E+00 0.  1.
<scales pt_clust_5="13000.00000" pt_clust_6="13000.00000" pt_clust_7="13000.00000" pt_clust_8="13000.00000" pt_clust_9="13000.00000"></scales>
<clustering>
<clus scale="   89.811">  7  8 -1 -1</clus>
<clus scale="   92.398">  5  6 -1 -1</clus>
<clus scale="   99.846">  5  9 -1 -1</clus>
<clus scale="  106.101">  1  7  2 -1</clus>
<clus scale="  398.456">  2  5  1 -1</clus>
</clustering>
</event>
<event>
 9    1  0.3303741E-006  0.1699558E+03  0.7546771E-02  0.1206752E+00
         -3   -1    0    0    0  501 -0.00000000000E+00  0.00000000000E+00  0.35710242306E+03  0.35710242306E+03  0.00000000000E+00 0.  1.
         21   -1    0    0  501  502  0.00000000000E+00 -0.00000000000E+00 -0.54644102886E+02  0.54644102886E+02  0.00000000000E+00 0.  1.
         23    2    1    2    0    0 -0.20440488324E+02 -0.60183236224E+01  0.18315978143E+03  0.20409994602E+03  0.87494277806E+02 0.  0.
         23    2    1    2    0    0  0.39525326933E+02 -0.41741754551E+02  0.11503318197E+03  0.15603796243E+03  0.88377526691E+02 0.  0.
        -11    1    3    3    0    0 -0.29720971168E+02 -0.24191868379E+02  0.17927791523E+03  0.18332799435E+03  0.00000000000E+00 0.  1.
         11    1    3    3    0    0  0.92804828443E+01  0.18173544756E+02  0.38818661967E+01  0.20771951666E+02  0.00000000000E+00 0. -1.
        -13    1    4    4    0    0 -0.20407146998E+02 -0.21966205230E+02  0.67929753670E+01  0.30742646847E+02  0.00000000000E+00 0. -1.
         13    1    4    4    0    0  0.59932473932E+02 -0.19775549321E+02  0.10824020660E+03  0.12529531559E+03  0.00000000000E+00 0.  1.
         -3    1    1    2    0  502 -0.19084838610E+02  0.47760078173E+02  0.42653567805E+01  0.51608617501E+02  0.00000000000E+00 0.  1.
<scales pt_clust_5="13000.00000" pt_clust_6="13000.00000" pt_clust_7="13000.00000" pt_clust_8="13000.00000" pt_clust_9="13000.00000"></scales>
<clustering>
<clus scale="   87.494">  5  6 -1 -1</clus>
<clus scale="   88.378">  7  8 -1 -1</clus>
<clus scale="   51.432">  7  9 -1 -1</clus>
<clus scale="   90.052">  1  5  2 -1</clus>
<clus scale="  169.956">  2  5  1 -1</clus>
</clustering>
</event>
<event>
 9    1  0.3303741E-006  0.3308737E+03  0.7546771E-02  0.1111019E+00
          1   -1    0    0  502    0 -0.00000000000E+00  0.00000000000E+00  0.29572621341E+03  0.29572621341E+03  0.00000000000E+00 0. -1.
         21   -1    0    0  501  502  0.00000000000E+00 -0.00000000000E+00 -0.18251463886E+03  0.18251463886E+03  0.00000000000E+00 0. -1.
         23    2    1    2    0    0 -0.52482335871E+02 -0.42950301776E+02  0.91964076825E+02  0.14668563736E+03  0.91979132314E+02 0.  0.
         23    2    1    2    0    0  0.82226764615E+02 -0.61124915403E+02  0.12149109681E+03  0.18402501113E+03  0.92777270997E+02 0.  0.
        -11    1    3    3    0    0  0.22542253365E+02  0.73185714890E+01  0.15163921390E+02  0.28136438782E+02  0.00000000000E+00 0.  1.
         11    1    3    3    0    0 -0.75024589236E+02 -0.50268873265E+02  0.76800155435E+02  0.11854919858E+03  0.00000000000E+00 0. -1.
        -13    1    4    4    0    0 -0.97095203461E+01 -0.43306906748E+02  0.43657291413E+02  0.62255297373E+02  0.00000000000E+00 0.  1.
         13    1    4    4    0    0  0.91936284961E+02 -0.17818008655E+02  0.77833805396E+02  0.12176971375E+03  0.00000000000E+00 0. -1.
          1    1    1    2  501    0 -0.29744428744E+02  0.10407521718E+03 -0.10024359908E+03  0.14753020379E+03  0.00000000000E+00 0. -1.
<scales pt_clust_5="13000.00000" pt_clust_6="13000.00000" pt_clust_7="13000.00000" pt_clust_8="13000.00000" pt_clust_9="13000.00000"></scales>
<clustering>
<clus scale="   91.979">  5  6 -1 -1</clus>
<clus scale="   92.777">  7  8 -1 -1</clus>
<clus scale="  108.242">  7  9 -1 -1</clus>
<clus scale="  114.277">  1  5  2 -1</clus>
<clus scale="  330.874">  2  5  1 -1</clus>
</clustering>
</event>
<event>
 9    1  0.3303741E-006  0.1977577E+03  0.7546771E-02  0.1164893E+00
         21   -1    0    0  501  502  0.00000000000E+00  0.00000000000E+00  0.86955407984E+02  0.86955407984E+02  0.00000000000E+00 0.  1.
          1   -1    0    0  502    0 -0.00000000000E+00 -0.00000000000E+00 -0.40253184165E+03  0.40253184165E+03  0.00000000000E+00 0. -1.
         23    2    1    2    0    0  0.39030159272E+02 -0.10645260499E+03 -0.23444450204E+03  0.27573384617E+03  0.90605843862E+02 0.  0.
         23    2    1    2    0    0  0.81954613752E+01  0.23886506713E+02 -0.77299816574E+02  0.11855831465E+03  0.86273295636E+02 0.  0.
        -13    1    4    4    0    0  0.26874219426E+02  0.50522482657E+02 -0.52377144972E+02  0.77576479934E+02  0.00000000000E+00 0.  1.
         13    1    4    4    0    0 -0.18678758051E+02 -0.26635975944E+02 -0.24922671602E+02  0.40981834714E+02  0.00000000000E+00 0. -1.
        -13    1    3    3    0    0 -0.19676162086E+02 -0.63835673221E+02 -0.15130373181E+03  0.16539336078E+03  0.00000000000E+00 0. -1.
         13    1    3    3    0    0  0.58706321358E+02 -0.42616931769E+02 -0.83140770230E+02  0.11034048539E+03  0.00000000000E+00 0.  1.
          1    1    1    2  501    0 -0.47225620647E+02  0.82566098277E+02 -0.38321150536E+01  0.95195088823E+02  0.00000000000E+00 0. -1.
<scales pt_clust_5="13000.00000" pt_clust_6="13000.00000" pt_clust_7="13000.00000" pt_clust_8="13000.00000" pt_clust_9="13000.00000"></scales>
<clustering>
<clus scale="   86.273">  5  6 -1 -1</clus>
<clus scale="   90.606">  7  8 -1 -1</clus>
<clus scale="   95.118">  5  9 -1 -1</clus>
<clus scale="  145.138">  2  7  1 -1</clus>
<clus scale="  197.758">  1  5  2 -1</clus>
</clustering>
</event>
<event>
 9    1  0.3303741E-006  0.4715435E+03  0.7546771E-02  0.1069144E+00
         21   -1    0    0  501  502  0.00000000000E+00  0.00000000000E+00  0.84856994698E+02  0.84856994698E+02  0.00000000000E+00 0.  1.
         -1   -1    0    0    0  501 -0.00000000000E+00 -0.00000000000E+00 -0.10523810917E+04  0.10523810917E+04  0.00000000000E+00 0.  1.
         23    2    1    2    0    0  0.63930913900E+02 -0.44449561828E+02 -0.27035590710E+03  0.29557501601E+03  0.90605453938E+02 0.  0.
         23    2    1    2    0    0 -0.22905850418E+03  0.71525108284E+02 -0.59101789599E+03  0.64350129004E+03  0.84900632848E+02 0.  0.
        -13    1    4    4    0    0 -0.10331467058E+03  0.62744803906E+02 -0.21157554280E+03  0.24366994457E+03  0.00000000000E+00 0.  1.
         13    1    4    4    0    0 -0.12574383361E+03  0.87803043780E+01 -0.37944235318E+03  0.39983134548E+03  0.00000000000E+00 0. -1.
        -13    1    3    3    0    0 -0.90628703427E+01 -0.35221587794E+02 -0.41489650008E+02  0.55173244633E+02  0.00000000000E+00 0.  1.
         13    1    3    3    0    0  0.72993784243E+02 -0.92279740338E+01 -0.22886625710E+03  0.24040177138E+03  0.00000000000E+00 0. -1.
         -1    1    1    2    0  502  0.16512759028E+03 -0.27075546457E+02 -0.10615029389E+03  0.19816178033E+03  0.00000000000E+00 0.  1.
<scales pt_clust_5="13000.00000" pt_clust_6="13000.00000" pt_clust_7="13000.00000" pt_clust_8="13000.00000" pt_clust_9="13000.00000"></scales>
<clustering>
<clus scale="   84.901">  5  6 -1 -1</clus>
<clus scale="   90.605">  7  8 -1 -1</clus>
<clus scale="  119.467">  2  7  1 -1</clus>
<clus scale="  181.352">  5  9 -1 -1</clus>
<clus scale="  471.543">  1  5  2 -1</clus>
</clustering>
</event>
<event>
 9    1  0.3303741E-006  0.6270631E+03  0.7546771E-02  0.1044187E+00
         21   -1    0    0  501  502  0.00000000000E+00  0.00000000000E+00  0.58075267322E+03  0.58075267322E+03  0.00000000000E+00 0.  1.
         -1   -1    0    0    0  501 -0.00000000000E+00 -0.00000000000E+00 -0.23016278017E+03  0.23016278017E+03  0.00000000000E+00 0.  1.
         23    2    1    2    0    0 -0.41451997996E+02  0.23601821291E+02  0.31524551258E+02  0.10734544176E+03  0.90851155350E+02 0.  0.
         23    2    1    2    0    0  0.61181965531E+02 -0.31069177110E+03  0.23165495106E+03  0.40282013663E+03  0.91254789363E+02 0.  0.
        -11    1    3    3    0    0 -0.70099894488E+02  0.13997173996E+02  0.28587091431E+02  0.76987907385E+02  0.00000000000E+00 0. -1.
         11    1    3    3    0    0  0.28647896492E+02  0.96046472950E+01  0.29374598270E+01  0.30357534374E+02  0.00000000000E+00 0.  1.
        -13    1    4    4    0    0  0.16096242324E+02 -0.25148570505E+03  0.20096741033E+03  0.32232289536E+03  0.00000000000E+00 0.  1.
         13    1    4    4    0    0  0.45085723207E+02 -0.59206066056E+02  0.30687540736E+02  0.80497241266E+02  0.00000000000E+00 0. -1.
         -1    1    1    2    0  502 -0.19729967535E+02  0.28708994981E+03  0.87410390729E+02  0.30074987500E+03  0.00000000000E+00 0.  1.
<scales pt_clust_5="13000.00000" pt_clust_6="13000.00000" pt_clust_7="13000.00000" pt_clust_8="13000.00000" pt_clust_9="13000.00000"></scales>
<clustering>
<clus scale="   90.851">  5  6 -1 -1</clus>
<clus scale="   91.255">  7  8 -1 -1</clus>
<clus scale="  102.612">  2  5  1 -1</clus>
<clus scale="  303.211">  7  9 -1 -1</clus>
<clus scale="  627.063">  1  5  2 -1</clus>
</clustering>
</event>
<event>
 9    1  0.3378910E-006  0.4031929E+03  0.7546771E-02  0.1049015E+00
          2   -1    0    0  502    0 -0.00000000000E+00  0.00000000000E+00  0.73951065959E+03  0.73951065959E+03  0.00000000000E+00 0. -1.
         21   -1    0    0  501  502  0.00000000000E+00 -0.00000000000E+00 -0.22680216229E+03  0.22680216229E+03  0.00000000000E+00 0. -1.
         23    2    1    2    0    0 -0.61366076478E+02 -0.31980582462E+03  0.29994497191E+02  0.33736344521E+03  0.82902735148E+02 0.  0.
         23    2    1    2    0    0  0.38430848858E+02  0.19239045126E+02  0.11313367154E+03  0.15202586826E+03  0.92008510382E+02 0.  0.
        -11    1    4    4    0    0  0.64559793637E+02  0.10252479713E+02  0.47473575897E+02  0.80788741190E+02  0.00000000000E+00 0.  1.
         11    1    4    4    0    0 -0.26128944779E+02  0.89865654130E+01  0.65660095647E+02  0.71237127073E+02  0.00000000000E+00 0. -1.
        -13    1    3    3    0    0 -0.60476333047E+02 -0.22735184437E+03 -0.12537421810E+02  0.23559166994E+03  0.00000000000E+00 0. -1.
         13    1    3    3    0    0 -0.88974343011E+00 -0.92453980254E+02  0.42531919001E+02  0.10177177527E+03  0.00000000000E+00 0.  1.
          2    1    1    2  501    0  0.22935227620E+02  0.30056677950E+03  0.36958032857E+03  0.47692350840E+03  0.00000000000E+00 0. -1.
<scales pt_clust_5="13000.00000" pt_clust_6="13000.00000" pt_clust_7="13000.00000" pt_clust_8="13000.00000" pt_clust_9="13000.00000"></scales>
<clustering>
<clus scale="   82.903">  7  8 -1 -1</clus>
<clus scale="   92.009">  5  6 -1 -1</clus>
<clus scale="  301.441">  5  9 -1 -1</clus>
<clus scale="  336.028">  1  7  2 -1</clus>
<clus scale="  403.193">  2  5  1 -1</clus>
</clustering>
</event>
<event>
 9    1  0.3303741E-006  0.1855734E+03  0.7546771E-02  0.1191159E+00
          1   -1    0    0  502    0 -0.00000000000E+00  0.00000000000E+00  0.15546869297E+03  0.15546869297E+03  0.00000000000E+00 0. -1.
         21   -1    0    0  501  502  0.00000000000E+00 -0.00000000000E+00 -0.13930543931E+03  0.13930543931E+03  0.00000000000E+00 0.  1.
         23    2    1    2    0    0  0.33881132478E+02 -0.13635298092E+02  0.44886394569E+02  0.10699102754E+03  0.89991327723E+02 0.  0.
         23    2    1    2    0    0  0.70195575377E+01  0.71763292262E+02 -0.17408623294E+02  0.11581263539E+03  0.88939653959E+02 0.  0.
        -11    1    4    4    0    0 -0.19207075682E+02  0.65380039939E+02 -0.41371200993E+02  0.79718490015E+02  0.00000000000E+00 0.  1.
         11    1    4    4    0    0  0.26226633220E+02  0.63832523232E+01  0.23962577699E+02  0.36094145374E+02  0.00000000000E+00 0. -1.
        -11    1    3    3    0    0 -0.26126391564E+01  0.33402980405E+02  0.31462290926E+02  0.45961513613E+02  0.00000000000E+00 0.  1.
         11    1    3    3    0    0  0.36493771635E+02 -0.47038278497E+02  0.13424103643E+02  0.61029513931E+02  0.00000000000E+00 0. -1.
          1    1    1    2  501    0 -0.40900690016E+02 -0.58127994170E+02 -0.11314517612E+02  0.71970469352E+02  0.00000000000E+00 0. -1.
<scales pt_clust_5="13000.00000" pt_clust_6="13000.00000" pt_clust_7="13000.00000" pt_clust_8="13000.00000" pt_clust_9="13000.00000"></scales>
<clustering>
<clus scale="   88.940">  5  6 -1 -1</clus>
<clus scale="   71.076">  5  9 -1 -1</clus>
<clus scale="   89.991">  7  8 -1 -1</clus>
<clus scale="   97.120">  1  7  2 -1</clus>
<clus scale="  185.573">  2  5  1 -1</clus>
</clustering>
</event>
<event>
 9    1  0.3303741E-006  0.2915332E+03  0.7546771E-02  0.1134120E+00
         21   -1    0    0  501  502  0.00000000000E+00  0.00000000000E+00  0.65963611299E+03  0.65963611299E+03  0.00000000000E+00 0.  1.
         -1   -1    0    0    0  501 -0.00000000000E+00 -0.00000000000E+00 -0.56364135005E+02  0.56364135005E+02  0.00000000000E+00 0.  1.
         23    2    1    2    0    0  0.93249385764E+01 -0.20741491490E+02  0.15454189954E+03  0.18088317454E+03  0.91205044647E+02 0.  0.
         23    2    1    2    0    0 -0.22856115096E+02 -0.75484608820E+02  0.62913751790E+02  0.13725177837E+03  0.93056876889E+02 0.  0.
        -11    1    4    4    0    0 -0.37592290639E+02  0.58923109130E+01  0.11007047626E+02  0.39611295621E+02  0.00000000000E+00 0. -1.
         11    1    4    4    0    0  0.14736175543E+02 -0.81376919733E+02  0.51906704164E+02  0.97640482752E+02  0.00000000000E+00 0.  1.
        -13    1    3    3    0    0 -0.31304372319E+02 -0.37861874814E+02  0.92996909517E+02  0.10517561728E+03  0.00000000000E+00 0.  1.
         13    1    3    3    0    0  0.40629310895E+02  0.17120383325E+02  0.61544990026E+02  0.75707557260E+02  0.00000000000E+00 0. -1.
         -1    1    1    2    0  502  0.13531176520E+02  0.96226100310E+02  0.38581632665E+03  0.39786529508E+03  0.00000000000E+00 0.  1.
<scales pt_clust_5="13000.00000" pt_clust_6="13000.00000" pt_clust_7="13000.00000" pt_clust_8="13000.00000" pt_clust_9="13000.00000"></scales>
<clustering>
<clus scale="   91.205">  7  8 -1 -1</clus>
<clus scale="   93.057">  5  6 -1 -1</clus>
<clus scale="   93.998">  2  7  1 -1</clus>
<clus scale="   94.504">  5  9 -1 -1</clus>
<clus scale="  291.533">  1  5  2 -1</clus>
</clustering>
</event>
<event>
 9    1  0.3303741E-006  0.6960727E+03  0.7546771E-02  0.1037075E+00
         21   -1    0    0  501  502  0.00000000000E+00  0.00000000000E+00  0.49330357826E+03  0.49330357826E+03  0.00000000000E+00 0. -1.
          1   -1    0    0  502    0 -0.00000000000E+00 -0.00000000000E+00 -0.33551828248E+03  0.33551828248E+03  0.00000000000E+00 0. -1.
         23    2    1    2    0    0  0.47758484606E+01 -0.13125745239E+02 -0.46624930356E+02  0.10335596980E+03  0.91178278368E+02 0.  0.
         23    2    1    2    0    0  0.24406540200E+03  0.93605789014E+02 -0.12545222939E+03  0.30450479424E+03  0.93031949711E+02 0.  0.
        -11    1    4    4    0    0  0.82451371756E+02 -0.97770531023E+01 -0.57410750907E+02  0.10094460754E+03  0.00000000000E+00 0.  1.
         11    1    4    4    0    0  0.16161403024E+03  0.10338284212E+03 -0.68041478482E+02  0.20356018670E+03  0.00000000000E+00 0. -1.
        -11    1    3    3    0    0 -0.12578150753E+02 -0.43637161729E+02 -0.50645766271E+02  0.68025035107E+02  0.00000000000E+00 0. -1.
         11    1    3    3    0    0  0.17353999213E+02  0.30511416490E+02  0.40208359149E+01  0.35330934694E+02  0.00000000000E+00 0.  1.
          1    1    1    2  501    0 -0.24884125046E+03 -0.80480043775E+02  0.32986245552E+03  0.42096109670E+03  0.00000000000E+00 0. -1.
<scales pt_clust_5="13000.00000" pt_clust_6="13000.00000" pt_clust_7="13000.00000" pt_clust_8="13000.00000" pt_clust_9="13000.00000"></scales>
<clustering>
<clus scale="   91.178">  7  8 -1 -1</clus>
<clus scale="   92.242">  2  7  1 -1</clus>
<clus scale="   93.032">  5  6 -1 -1</clus>
<clus scale="  261.455">  5  9 -1 -1</clus>
<clus scale="  696.073">  1  5  2 -1</clus>
</clustering>
</event>
<event>
 9    1  0.3303741E-006  0.3790143E+03  0.7546771E-02  0.1094527E+00
         21   -1    0    0  501  502  0.00000000000E+00  0.00000000000E+00  0.27568821478E+03  0.27568821478E+03  0.00000000000E+00 0. -1.
          1   -1    0    0  502    0 -0.00000000000E+00 -0.00000000000E+00 -0.22461390088E+03  0.22461390088E+03  0.00000000000E+00 0. -1.
         23    2    1    2    0    0 -0.29279790874E+00 -0.67003288086E+02 -0.82531080077E+01  0.11667266911E+03  0.95157088970E+02 0.  0.
         23    2    1    2    0    0  0.10362064492E+03  0.16279322852E+03  0.10354605378E+03  0.23595533216E+03  0.87830861419E+02 0.  0.
        -11    1    4    4    0    0  0.74492708813E+02  0.64163103614E+02  0.13452377529E+02  0.99232222553E+02  0.00000000000E+00 0.  1.
         11    1    4    4    0    0  0.29127936103E+02  0.98630124904E+02  0.90093676254E+02  0.13672310961E+03  0.00000000000E+00 0. -1.
        -13    1    3    3    0    0  0.39691415862E+02 -0.65199832138E+02 -0.65509112137E+01  0.76611624717E+02  0.00000000000E+00 0.  1.
         13    1    3    3    0    0 -0.39984213771E+02 -0.18034559478E+01 -0.17021967940E+01  0.40061044397E+02  0.00000000000E+00 0. -1.
          1    1    1    2  501    0 -0.10332784701E+03 -0.95789940432E+02 -0.44218631879E+02  0.14767411439E+03  0.00000000000E+00 0. -1.
<scales pt_clust_5="13000.00000" pt_clust_6="13000.00000" pt_clust_7="13000.00000" pt_clust_8="13000.00000" pt_clust_9="13000.00000"></scales>
<clustering>
<clus scale="   87.831">  5  6 -1 -1</clus>
<clus scale="   95.157">  7  8 -1 -1</clus>
<clus scale="  116.380">  2  7  1 -1</clus>
<clus scale="  170.457">  5  9 -1 -1</clus>
<clus scale="  379.014">  1  5  2 -1</clus>
</clustering>
</event>
<event>
 9    1  0.3303741E-006  0.1661913E+03  0.7546771E-02  0.1207752E+00
         -1   -1    0    0    0  501 -0.00000000000E+00  0.00000000000E+00  0.52298204372E+03  0.52298204372E+03  0.00000000000E+00 0.  1.
         21   -1    0    0  501  502  0.00000000000E+00 -0.00000000000E+00 -0.32515088233E+02  0.32515088233E+02  0.00000000000E+00 0. -1.
         23    2    1    2    0    0 -0.15011858624E+02  0.60848025593E+01  0.16392702553E+03  0.18909862439E+03  0.92864629042E+02 0.  0.
         23    2    1    2    0    0  0.19134099137E+02  0.31090949497E+02  0.12245358950E+03  0.15891293271E+03  0.94475804899E+02 0.  0.
        -11    1    3    3    0    0 -0.49126024157E+02 -0.16931806628E+02  0.10588682382E+03  0.11794944588E+03  0.00000000000E+00 0.  1.
         11    1    3    3    0    0  0.34114165533E+02  0.23016609187E+02  0.58040201711E+02  0.71149178513E+02  0.00000000000E+00 0. -1.
        -13    1    4    4    0    0 -0.12034142327E+02  0.29138950851E+02 -0.10285779681E+01  0.31542939161E+02  0.00000000000E+00 0. -1.
         13    1    4    4    0    0  0.31168241464E+02  0.19519986451E+01  0.12348216747E+03  0.12736999355E+03  0.00000000000E+00 0.  1.
         -1    1    1    2    0  502 -0.41222405124E+01 -0.37175752056E+02  0.20408634046E+03  0.20748557485E+03  0.00000000000E+00 0.  1.
<scales pt_clust_5="13000.00000" pt_clust_6="13000.00000" pt_clust_7="13000.00000" pt_clust_8="13000.00000" pt_clust_9="13000.00000"></scales>
<clustering>
<clus scale="   92.865">  5  6 -1 -1</clus>
<clus scale="   94.267">  1  5  2 -1</clus>
<clus scale="   94.476">  7  8 -1 -1</clus>
<clus scale="   36.005">  7  9 -1 -1</clus>
<clus scale="  166.191">  2  5  1 -1</clus>
</clustering>
</event>
<event>
 9    1  0.3303741E-006  0.1938624E+03  0.7546771E-02  0.1177514E+00
          1   -1    0    0  502    0 -0.00000000000E+00  0.00000000000E+00  0.30513598918E+03  0.30513598918E+03  0.00000000000E+00 0. -1.
         21   -1    0    0  501  502  0.00000000000E+00 -0.00000000000E+00 -0.82269110022E+02  0.82269110022E+02  0.00000000000E+00 0.  1.
         23    2    1    2    0    0  0.67271153510E+02 -0.24142549471E+02  0.43895509578E+02  0.12356161962E+03  0.90732504061E+02 0.  0.
         23    2    1    2    0    0 -0.57084123134E+01  0.21763622389E+01  0.17952847447E+03  0.19847686080E+03  0.84411306127E+02 0.  0.
        -11    1    3    3    0    0  0.34502546842E+02  0.29441507863E+02 -0.25755296373E+01  0.45429742204E+02  0.00000000000E+00 0. -1.
         11    1    3    3    0    0  0.32768606668E+02 -0.53584057334E+02  0.46471039216E+02  0.78131877419E+02  0.00000000000E+00 0.  1.
        -13    1    4    4    0    0  0.37366178276E+02  0.10570296298E+02  0.10547944989E+03  0.11240051954E+03  0.00000000000E+00 0. -1.
         13    1    4    4    0    0 -0.43074590590E+02 -0.83939340594E+01  0.74049024582E+02  0.86076341262E+02  0.00000000000E+00 0.  1.
          1    1    1    2  501    0 -0.61562741196E+02  0.21966187232E+02 -0.55710489153E+00  0.65366618782E+02  0.00000000000E+00 0. -1.
<scales pt_clust_5="13000.00000" pt_clust_6="13000.00000" pt_clust_7="13000.00000" pt_clust_8="13000.00000" pt_clust_9="13000.00000"></scales>
<clustering>
<clus scale="   84.411">  7  8 -1 -1</clus>
<clus scale="   65.364">  7  9 -1 -1</clus>
<clus scale="   90.733">  5  6 -1 -1</clus>
<clus scale="  115.502">  1  5  2 -1</clus>
<clus scale="  193.862">  2  5  1 -1</clus>
</clustering>
</event>
<event>
 9    1  0.3303741E-006  0.1403625E+03  0.7546771E-02  0.1219697E+00
         -4   -1    0    0    0  501 -0.00000000000E+00  0.00000000000E+00  0.79260776229E+02  0.79260776229E+02  0.00000000000E+00 0.  1.
         21   -1    0    0  501  502  0.00000000000E+00 -0.00000000000E+00 -0.21829914086E+03  0.21829914086E+03  0.00000000000E+00 0. -1.
         23    2    1    2    0    0 -0.55785668118E+02  0.58228505915E+02 -0.49921421554E+02  0.13129667433E+03  0.90796853973E+02 0.  0.
         23    2    1    2    0    0  0.53545128844E+02 -0.27881272439E+02 -0.75214000050E+02  0.13280780343E+03  0.91303453781E+02 0.  0.
        -11    1    4    4    0    0  0.12198768876E+02  0.25696334175E+02 -0.55424358310E+02  0.62297440125E+02  0.00000000000E+00 0.  1.
         11    1    4    4    0    0  0.41346359969E+02 -0.53577606613E+02 -0.19789641741E+02  0.70510363304E+02  0.00000000000E+00 0. -1.
        -13    1    3    3    0    0 -0.44919990240E+02  0.78771396074E+02 -0.19054961450E+02  0.92659753499E+02  0.00000000000E+00 0.  1.
         13    1    3    3    0    0 -0.10865677879E+02 -0.20542890160E+02 -0.30866460105E+02  0.38636920831E+02  0.00000000000E+00 0. -1.
         -4    1    1    2    0  502  0.22405392742E+01 -0.30347233476E+02 -0.13902943023E+02  0.33455439327E+02  0.00000000000E+00 0.  1.
<scales pt_clust_5="13000.00000" pt_clust_6="13000.00000" pt_clust_7="13000.00000" pt_clust_8="13000.00000" pt_clust_9="13000.00000"></scales>
<clustering>
<clus scale="   90.797">  7  8 -1 -1</clus>
<clus scale="   91.303">  5  6 -1 -1</clus>
<clus scale="   30.430">  5  9 -1 -1</clus>
<clus scale="  121.436">  1  7  2 -1</clus>
<clus scale="  140.363">  2  5  1 -1</clus>
</clustering>
</event>
<event>
 9    1  0.3303741E-006  0.2010168E+03  0.7546771E-02  0.1160970E+00
         21   -1    0    0  501  502  0.00000000000E+00  0.00000000000E+00  0.11180596501E+04  0.11180596501E+04  0.00000000000E+00 0. -1.
          1   -1    0    0  502    0 -0.00000000000E+00 -0.00000000000E+00 -0.31417674200E+02  0.31417674200E+02  0.00000000000E+00 0. -1.
         23    2    1    2    0    0  0.97935758601E+02  0.69743981177E+02  0.28127797949E+03  0.31940568696E+03  0.91907863595E+02 0.  0.
         23    2    1    2    0    0 -0.10531139299E+02 -0.65453109077E+02  0.41682988770E+03  0.43180447489E+03  0.91175297494E+02 0.  0.
        -11    1    4    4    0    0  0.39421932698E+02 -0.39285137154E+02  0.23078957711E+03  0.23740522252E+03  0.00000000000E+00 0.  1.
         11    1    4    4    0    0 -0.49953071997E+02 -0.26167971923E+02  0.18604031059E+03  0.19439925237E+03  0.00000000000E+00 0. -1.
        -13    1    3    3    0    0  0.15575188340E+02 -0.16885365291E+02  0.14745706496E+02  0.27297214380E+02  0.00000000000E+00 0.  1.
         13    1    3    3    0    0  0.82360570261E+02  0.86629346468E+02  0.26653227299E+03  0.29210847258E+03  0.00000000000E+00 0. -1.
          1    1    1    2  501    0 -0.87404619302E+02 -0.42908721001E+01  0.38853410876E+03  0.39826716250E+03  0.00000000000E+00 0. -1.
<scales pt_clust_5="13000.00000" pt_clust_6="13000.00000" pt_clust_7="13000.00000" pt_clust_8="13000.00000" pt_clust_9="13000.00000"></scales>
<clustering>
<clus scale="   91.175">  5  6 -1 -1</clus>
<clus scale="   87.510">  5  9 -1 -1</clus>
<clus scale="   91.908">  7  8 -1 -1</clus>
<clus scale="  151.336">  2  7  1 -1</clus>
<clus scale="  201.017">  1  5  2 -1</clus>
</clustering>
</event>
<event>
 9    1  0.3303741E-006  0.2032055E+03  0.7546771E-02  0.1176551E+00
         -1   -1    0    0    0  501 -0.00000000000E+00  0.00000000000E+00  0.56215679151E+03  0.56215679151E+03  0.00000000000E+00 0.  1.
         21   -1    0    0  501  502  0.00000000000E+00 -0.00000000000E+00 -0.46316337383E+02  0.46316337383E+02  0.00000000000E+00 0.  1.
         23    2    1    2    0    0 -0.47720359555E+02  0.61172655966E+01  0.27430080329E+03  0.29282477388E+03  0.90502838960E+02 0.  0.
         23    2    1    2    0    0 -0.43723603992E+02  0.22360959528E+02  0.14559036388E+03  0.18007817598E+03  0.93913946521E+02 0.  0.
        -11    1    3    3    0    0 -0.61617101184E+02 -0.25980664670E+02  0.19518316636E+03  0.20632045590E+03  0.00000000000E+00 0.  1.
         11    1    3    3    0    0  0.13896741629E+02  0.32097930267E+02  0.79117636933E+02  0.86504317979E+02  0.00000000000E+00 0. -1.
        -13    1    4    4    0    0 -0.16704545303E+02  0.58286056293E+02  0.91208242045E+02  0.10952282689E+03  0.00000000000E+00 0.  1.
         13    1    4    4    0    0 -0.27019058689E+02 -0.35925096766E+02  0.54382121839E+02  0.70555349094E+02  0.00000000000E+00 0. -1.
         -1    1    1    2    0  502  0.91443963547E+02 -0.28478225124E+02  0.95949286951E+02  0.13557017903E+03  0.00000000000E+00 0.  1.
<scales pt_clust_5="13000.00000" pt_clust_6="13000.00000" pt_clust_7="13000.00000" pt_clust_8="13000.00000" pt_clust_9="13000.00000"></scales>
<clustering>
<clus scale="   90.503">  5  6 -1 -1</clus>
<clus scale="   93.914">  7  8 -1 -1</clus>
<clus scale="   95.776">  7  9 -1 -1</clus>
<clus scale="  102.496">  1  5  2 -1</clus>
<clus scale="  203.206">  2  5  1 -1</clus>
</clustering>
</event>
<event>
 9    1  0.3303741E-006  0.2887185E+03  0.7546771E-02  0.1106200E+00
          2   -1    0    0  502    0 -0.00000000000E+00  0.00000000000E+00  0.78379878518E+03  0.78379878518E+03  0.00000000000E+00 0. -1.
         21   -1    0    0  501  502  0.00000000000E+00 -0.00000000000E+00 -0.88685377582E+02  0.88685377582E+02  0.00000000000E+00 0. -1.
         23    2    1    2    0    0  0.52960468266E+02  0.16222615747E+03  0.46241670795E+03  0.50166595972E+03  0.93366942674E+02 0.  0.
         23    2    1    2    0    0 -0.69641859965E+02 -0.44457406460E+02  0.21876942967E+03  0.25106129764E+03  0.91352406457E+02 0.  0.
        -13    1    4    4    0    0 -0.92235854235E+02 -0.36380381631E+02  0.17822861962E+03  0.20395201844E+03  0.00000000000E+00 0. -1.
         13    1    4    4    0    0  0.22593994270E+02 -0.80770248287E+01  0.40540810052E+02  0.47109279200E+02  0.00000000000E+00 0.  1.
        -13    1    3    3    0    0 -0.26723708694E+02  0.30405633229E+02  0.98344852557E+02  0.10635021938E+03  0.00000000000E+00 0.  1.
         13    1    3    3    0    0  0.79684176960E+02  0.13182052424E+03  0.36407185539E+03  0.39531574034E+03  0.00000000000E+00 0. -1.
          2    1    1    2  501    0  0.16681391699E+02 -0.11776875101E+03  0.13927269978E+02  0.11975690540E+03  0.00000000000E+00 0. -1.
<scales pt_clust_5="13000.00000" pt_clust_6="13000.00000" pt_clust_7="13000.00000" pt_clust_8="13000.00000" pt_clust_9="13000.00000"></scales>
<clustering>
<clus scale="   91.352">  5  6 -1 -1</clus>
<clus scale="   93.367">  7  8 -1 -1</clus>
<clus scale="  118.944">  5  9 -1 -1</clus>
<clus scale="  194.524">  1  7  2 -1</clus>
<clus scale="  288.719">  2  5  1 -1</clus>
</clustering>
</event>
<event>
 9    1  0.3303741E-006  0.2141413E+03  0.7546771E-02  0.1160413E+00
         21   -1    0    0  501  502  0.00000000000E+00  0.00000000000E+00  0.82871855579E+02  0.82871855579E+02  0.00000000000E+00 0. -1.
          1   -1    0    0  502    0 -0.00000000000E+00 -0.00000000000E+00 -0.35225515924E+03  0.35225515924E+03  0.00000000000E+00 0. -1.
         23    2    1    2    0    0  0.22258783227E+02 -0.84734694237E+02 -0.86330455449E+02  0.15340934931E+03  0.91684562926E+02 0.  0.
         23    2    1    2    0    0 -0.38633104689E+02  0.12509381789E+03 -0.17541846213E+03  0.23749933090E+03  0.92159184396E+02 0.  0.
        -11    1    4    4    0    0  0.20400027263E+02  0.86445320412E+02 -0.10890490282E+03  0.14053196217E+03  0.00000000000E+00 0. -1.
         11    1    4    4    0    0 -0.59033131953E+02  0.38648497475E+02 -0.66513559305E+02  0.96967368721E+02  0.00000000000E+00 0.  1.
        -13    1    3    3    0    0  0.52803417488E+00 -0.27292876697E+02  0.17749136372E+02  0.32560893422E+02  0.00000000000E+00 0.  1.
         13    1    3    3    0    0  0.21730749052E+02 -0.57441817540E+02 -0.10407959182E+03  0.12084845589E+03  0.00000000000E+00 0. -1.
          1    1    1    2  501    0  0.16374321462E+02 -0.40359123650E+02 -0.76343860789E+01  0.44218334613E+02  0.00000000000E+00 0. -1.
<scales pt_clust_5="13000.00000" pt_clust_6="13000.00000" pt_clust_7="13000.00000" pt_clust_8="13000.00000" pt_clust_9="13000.00000"></scales>
<clustering>
<clus scale="   91.685">  7  8 -1 -1</clus>
<clus scale="   92.159">  5  6 -1 -1</clus>
<clus scale="   43.554">  5  9 -1 -1</clus>
<clus scale="  126.813">  2  7  1 -1</clus>
<clus scale="  214.141">  1  5  2 -1</clus>
</clustering>
</event>
<event>
 9    1  0.3303741E-006  0.1129568E+04  0.7546771E-02  0.9749460E-01
         21   -1    0    0  501  502  0.00000000000E+00  0.00000000000E+00  0.90696791870E+03  0.90696791870E+03  0.00000000000E+00 0. -1.
          1   -1    0    0  502    0 -0.00000000000E+00 -0.00000000000E+00 -0.67747384646E+03  0.67747384646E+03  0.00000000000E+00 0. -1.
         23    2    1    2    0    0  0.12003497910E+03  0.25041597156E+02  0.41371916374E+03  0.43994926655E+03  0.85769067255E+02 0.  0.
         23    2    1    2    0    0 -0.55960253983E+03  0.16788269769E+03  0.79387808043E+02  0.59683276411E+03  0.92559826476E+02 0.  0.
        -11    1    3    3    0    0  0.85812701030E+02 -0.22430989397E+01  0.15173302499E+03  0.17433233212E+03  0.00000000000E+00 0.  1.
         11    1    3    3    0    0  0.34222278066E+02  0.27284696096E+02  0.26198613875E+03  0.26561693443E+03  0.00000000000E+00 0. -1.
        -13    1    4    4    0    0 -0.50484078496E+03  0.17170850823E+03  0.90379442842E+02  0.54084792099E+03  0.00000000000E+00 0. -1.
         13    1    4    4    0    0 -0.54761754870E+02 -0.38258105344E+01 -0.10991634800E+02  0.55984843112E+02  0.00000000000E+00 0.  1.
          1    1    1    2  501    0  0.43956756073E+03 -0.19292429485E+03 -0.26361289954E+03  0.54765973450E+03  0.00000000000E+00 0. -1.
<scales pt_clust_5="13000.00000" pt_clust_6="13000.00000" pt_clust_7="13000.00000" pt_clust_8="13000.00000" pt_clust_9="13000.00000"></scales>
<clustering>
<clus scale="   85.769">  5  6 -1 -1</clus>
<clus scale="   92.560">  7  8 -1 -1</clus>
<clus scale="  149.639">  2  5  1 -1</clus>
<clus scale="  542.749">  7  9 -1 -1</clus>
<clus scale=" 1129.568">  1  5  2 -1</clus>
</clustering>
</event>
<event>
 9    1  0.3303741E-006  0.4043770E+03  0.7546771E-02  0.1091942E+00
         21   -1    0    0  501  502  0.00000000000E+00  0.00000000000E+00  0.14019664472E+03  0.14019664472E+03  0.00000000000E+00 0. -1.
          1   -1    0    0  502    0 -0.00000000000E+00 -0.00000000000E+00 -0.49997671161E+03  0.49997671161E+03  0.00000000000E+00 0. -1.
         23    2    1    2    0    0  0.13612599192E+02 -0.47272715823E+02 -0.57574603835E+01  0.10272313073E+03  0.89993781552E+02 0.  0.
         23    2    1    2    0    0 -0.43397065550E+02  0.79151811396E+02 -0.43041365637E+03  0.44947873208E+03  0.92881109260E+02 0.  0.
        -11    1    4    4    0    0  0.18417257156E+02  0.31305325885E+02 -0.54297941399E+02  0.65325991995E+02  0.00000000000E+00 0.  1.
         11    1    4    4    0    0 -0.61814322706E+02  0.47846485511E+02 -0.37611571497E+03  0.38415274009E+03  0.00000000000E+00 0. -1.
        -13    1    3    3    0    0 -0.19991201073E+02 -0.61738595047E+02 -0.10816470804E+02  0.65789803765E+02  0.00000000000E+00 0.  1.
         13    1    3    3    0    0  0.33603800265E+02  0.14465879224E+02  0.50590104210E+01  0.36933326961E+02  0.00000000000E+00 0. -1.
          1    1    1    2  501    0  0.29784466358E+02 -0.31879095573E+02  0.76391049868E+02  0.87971493512E+02  0.00000000000E+00 0. -1.
<scales pt_clust_5="13000.00000" pt_clust_6="13000.00000" pt_clust_7="13000.00000" pt_clust_8="13000.00000" pt_clust_9="13000.00000"></scales>
<clustering>
<clus scale="   89.994">  7  8 -1 -1</clus>
<clus scale="   92.881">  5  6 -1 -1</clus>
<clus scale="   43.628">  5  9 -1 -1</clus>
<clus scale="  102.562">  2  7  1 -1</clus>
<clus scale="  404.377">  1  5  2 -1</clus>
</clustering>
</event>
<event>
 9    1  0.4341045E-006  0.4423522E+03  0.7546771E-02  0.1056554E+00
          1   -1    0    0  502    0 -0.00000000000E+00  0.00000000000E+00  0.26905725081E+03  0.26905725081E+03  0.00000000000E+00 0. -1.
         21   -1    0    0  501  502  0.00000000000E+00 -0.00000000000E+00 -0.40815223774E+03  0.40815223774E+03  0.00000000000E+00 0. -1.
         23    2    1    2    0    0 -0.13413587211E+03 -0.12597138454E+03 -0.11208790215E+03  0.23403365648E+03  0.91361001792E+02 0.  0.
         23    2    1    2    0    0 -0.76756629799E+01  0.46094255269E+01  0.15698566623E+03  0.18108315952E+03  0.89813410218E+02 0.  0.
        -13    1    4    4    0    0 -0.26011756070E+02 -0.35625262110E+02  0.97035792922E+02  0.10659134985E+03  0.00000000000E+00 0. -1.
         13    1    4    4    0    0  0.18336093090E+02  0.40234687637E+02  0.59949873310E+02  0.74491809676E+02  0.00000000000E+00 0.  1.
        -13    1    3    3    0    0 -0.87682179309E+02 -0.59680158736E+02 -0.11036260844E+03  0.15306793020E+03  0.00000000000E+00 0.  1.
         13    1    3    3    0    0 -0.46453692797E+02 -0.66291225803E+02 -0.17252937085E+01  0.80965726275E+02  0.00000000000E+00 0. -1.
          1    1    1    2  501    0  0.14181153509E+03  0.12136195901E+03 -0.18399275101E+03  0.26209267255E+03  0.00000000000E+00 0. -1.
<scales pt_clust_5="13000.00000" pt_clust_6="13000.00000" pt_clust_7="13000.00000" pt_clust_8="13000.00000" pt_clust_9="13000.00000"></scales>
<clustering>
<clus scale="   89.813">  5  6 -1 -1</clus>
<clus scale="   91.361">  7  8 -1 -1</clus>
<clus scale="  186.653">  5  9 -1 -1</clus>
<clus scale="  205.446">  1  7  2 -1</clus>
<clus scale="  442.352">  2  5  1 -1</clus>
</clustering>
</event>
<event>
 9    1  0.3303741E-006  0.2830529E+03  0.7546771E-02  0.1107436E+00
         21   -1    0    0  501  502  0.00000000000E+00  0.00000000000E+00  0.39343308643E+02  0.39343308643E+02  0.00000000000E+00 0. -1.
          2   -1    0    0  502    0 -0.00000000000E+00 -0.00000000000E+00 -0.14833606463E+04  0.14833606463E+04  0.00000000000E+00 0. -1.
         23    2    1    2    0    0 -0.94986737272E+02  0.15097836880E+03 -0.61320052146E+03  0.64499357786E+03  0.90470370003E+02 0.  0.
         23    2    1    2    0    0  0.25966896247E+02  0.18316484222E+02 -0.35390529410E+03  0.36695692813E+03  0.91644184838E+02 0.  0.
        -13    1    3    3    0    0 -0.89517576741E+02  0.57737634737E+02 -0.33587288153E+03  0.35236007656E+03  0.00000000000E+00 0. -1.
         13    1    3    3    0    0 -0.54691605309E+01  0.93240734064E+02 -0.27732763994E+03  0.29263350129E+03  0.00000000000E+00 0.  1.
        -13    1    4    4    0    0 -0.11879903266E+02 -0.31347422280E+02 -0.99267415657E+02  0.10477505808E+03  0.00000000000E+00 0.  1.
         13    1    4    4    0    0  0.37846799513E+02  0.49663906502E+02 -0.25463787845E+03  0.26218187005E+03  0.00000000000E+00 0. -1.
          2    1    1    2  501    0  0.69019841025E+02 -0.16929485302E+03 -0.47691152205E+03  0.51075344891E+03  0.00000000000E+00 0. -1.
<scales pt_clust_5="13000.00000" pt_clust_6="13000.00000" pt_clust_7="13000.00000" pt_clust_8="13000.00000" pt_clust_9="13000.00000"></scales>
<clustering>
<clus scale="   90.470">  5  6 -1 -1</clus>
<clus scale="   91.644">  7  8 -1 -1</clus>
<clus scale="  182.824">  7  9 -1 -1</clus>
<clus scale="  200.005">  2  5  1 -1</clus>
<clus scale="  283.053">  1  5  2 -1</clus>
</clustering>
</event>
<event>
 9    1  0.3303741E-006  0.5235649E+03  0.7546771E-02  0.1046028E+00
         21   -1    0    0  501  502  0.00000000000E+00  0.00000000000E+00  0.29145207647E+03  0.29145207647E+03  0.00000000000E+00 0.  1.
         -3   -1    0    0    0  501 -0.00000000000E+00 -0.00000000000E+00 -0.44301151172E+03  0.44301151172E+03  0.00000000000E+00 0.  1.
         23    2    1    2    0    0 -0.13419098648E+03 -0.30710895179E+02 -0.12766577961E+03  0.21035377922E+03  0.94867176692E+02 0.  0.
         23    2    1    2    0    0 -0.63873438250E+00  0.17781286370E+03 -0.18001871282E+03  0.27074628308E+03  0.96327516101E+02 0.  0.
        -11    1    3    3    0    0 -0.28887861536E+02 -0.57702250196E+01  0.13563512445E+02  0.32431048561E+02  0.00000000000E+00 0. -1.
         11    1    3    3    0    0 -0.10530312494E+03 -0.24940670159E+02 -0.14122929205E+03  0.17792273066E+03  0.00000000000E+00 0.  1.
        -11    1    4    4    0    0  0.24467683964E+02  0.67025842182E+02 -0.19266005961E+02  0.73907442551E+02  0.00000000000E+00 0.  1.
         11    1    4    4    0    0 -0.25106418347E+02  0.11078702152E+03 -0.16075270686E+03  0.19683884053E+03  0.00000000000E+00 0. -1.
         -3    1    1    2    0  502  0.13482972086E+03 -0.14710196853E+03  0.15612505718E+03  0.25336352589E+03  0.00000000000E+00 0.  1.
<scales pt_clust_5="13000.00000" pt_clust_6="13000.00000" pt_clust_7="13000.00000" pt_clust_8="13000.00000" pt_clust_9="13000.00000"></scales>
<clustering>
<clus scale="   94.867">  5  6 -1 -1</clus>
<clus scale="   96.328">  7  8 -1 -1</clus>
<clus scale="  167.183">  2  5  1 -1</clus>
<clus scale="  188.672">  7  9 -1 -1</clus>
<clus scale="  523.565">  1  5  2 -1</clus>
</clustering>
</event>
<event>
 9    1  0.3303741E-006  0.1645490E+03  0.7546771E-02  0.1188135E+00
          2   -1    0    0  502    0 -0.00000000000E+00  0.00000000000E+00  0.43708397608E+03  0.43708397608E+03  0.00000000000E+00 0. -1.
         21   -1    0    0  501  502  0.00000000000E+00 -0.00000000000E+00 -0.60759167080E+02  0.60759167080E+02  0.00000000000E+00 0. -1.
         23    2    1    2    0    0 -0.10681788332E+03 -0.47546600471E+02  0.24752822615E+03  0.28888157036E+03  0.92258330444E+02 0.  0.
         23    2    1    2    0    0  0.56351981227E+02  0.29191597060E+02  0.93236158067E+02  0.14455460707E+03  0.90417687019E+02 0.  0.
        -11    1    3    3    0    0 -0.35668150750E+01 -0.38952565148E+02  0.35193415656E+02  0.52617497156E+02  0.00000000000E+00 0.  1.
         11    1    3    3    0    0 -0.10325106825E+03 -0.85940353227E+01  0.21233481049E+03  0.23626407320E+03  0.00000000000E+00 0. -1.
        -11    1    4    4    0    0  0.48673826599E+02 -0.25256473884E+02  0.38760439576E+02  0.67152085187E+02  0.00000000000E+00 0.  1.
         11    1    4    4    0    0  0.76781546278E+01  0.54448070945E+02  0.54475718491E+02  0.77402521879E+02  0.00000000000E+00 0. -1.
          2    1    1    2  501    0  0.50465902096E+02  0.18355003411E+02  0.35560424779E+02  0.64406965734E+02  0.00000000000E+00 0. -1.
<scales pt_clust_5="13000.00000" pt_clust_6="13000.00000" pt_clust_7="13000.00000" pt_clust_8="13000.00000" pt_clust_9="13000.00000"></scales>
<clustering>
<clus scale="   90.418">  7  8 -1 -1</clus>
<clus scale="   53.700">  7  9 -1 -1</clus>
<clus scale="   92.258">  5  6 -1 -1</clus>
<clus scale="  148.937">  1  5  2 -1</clus>
<clus scale="  164.549">  2  5  1 -1</clus>
</clustering>
</event>
<event>
 9    1  0.3303741E-006  0.1498467E+03  0.7546771E-02  0.1223928E+00
         21   -1    0    0  501  502  0.00000000000E+00  0.00000000000E+00  0.20092853127E+03  0.20092853127E+03  0.00000000000E+00 0.  1.
         -3   -1    0    0    0  501 -0.00000000000E+00 -0.00000000000E+00 -0.73676464410E+02  0.73676464410E+02  0.00000000000E+00 0.  1.
         23    2    1    2    0    0 -0.13437939190E+02  0.94918305934E+01  0.30798929006E+02  0.96399349530E+02  0.89853144098E+02 0.  0.
         23    2    1    2    0    0 -0.10173317161E+02  0.21920311002E+02  0.22019931716E+02  0.94036077766E+02  0.88169780040E+02 0.  0.
        -13    1    3    3    0    0 -0.25648144550E+02  0.46039953169E+02  0.20132594491E+02  0.56416539840E+02  0.00000000000E+00 0.  1.
         13    1    3    3    0    0  0.12210205360E+02 -0.36548122575E+02  0.10666334515E+02  0.39982809690E+02  0.00000000000E+00 0. -1.
        -13    1    4    4    0    0  0.34567495037E+02  0.27378471986E+02  0.21267899236E+02  0.48957287295E+02  0.00000000000E+00 0. -1.
         13    1    4    4    0    0 -0.44740812198E+02 -0.54581609835E+01  0.75203247999E+00  0.45078790471E+02  0.00000000000E+00 0.  1.
         -3    1    1    2    0  502  0.23611256351E+02 -0.31412141595E+02  0.74433206135E+02  0.84169568382E+02  0.00000000000E+00 0.  1.
<scales pt_clust_5="13000.00000" pt_clust_6="13000.00000" pt_clust_7="13000.00000" pt_clust_8="13000.00000" pt_clust_9="13000.00000"></scales>
<clustering>
<clus scale="   88.170">  7  8 -1 -1</clus>
<clus scale="   39.297">  7  9 -1 -1</clus>
<clus scale="   89.853">  5  6 -1 -1</clus>
<clus scale="   91.347">  2  5  1 -1</clus>
<clus scale="  149.847">  1  5  2 -1</clus>
</clustering>
</event>
<event>
 9    1  0.3303741E-006  0.2686858E+03  0.7546771E-02  0.1139953E+00
          2   -1    0    0  502    0 -0.00000000000E+00  0.00000000000E+00  0.11910468898E+04  0.11910468898E+04  0.00000000000E+00 0. -1.
         21   -1    0    0  501  502  0.00000000000E+00 -0.00000000000E+00 -0.29219964839E+02  0.29219964839E+02  0.00000000000E+00 0. -1.
         23    2    1    2    0    0  0.43844585501E+02  0.18158255521E+02  0.34224015221E+03  0.35776204232E+03  0.92807797177E+02 0.  0.
         23    2    1    2    0    0  0.62423462188E+02  0.85590385905E+02  0.37502322571E+03  0.39379015934E+03  0.56620376033E+02 0.  0.
        -11    1    3    3    0    0  0.14995160408E+02 -0.36182308904E+02  0.90477810522E+02  0.98591320664E+02  0.00000000000E+00 0.  1.
         11    1    3    3    0    0  0.28849425092E+02  0.54340564425E+02  0.25176234169E+03  0.25917072165E+03  0.00000000000E+00 0. -1.
        -13    1    4    4    0    0  0.61755646982E+02  0.40188595274E+02  0.20626356524E+03  0.21902863162E+03  0.00000000000E+00 0. -1.
         13    1    4    4    0    0  0.66781520622E+00  0.45401790631E+02  0.16875966046E+03  0.17476152772E+03  0.00000000000E+00 0.  1.
          2    1    1    2  501    0 -0.10626804769E+03 -0.10374864143E+03  0.44456354700E+03  0.46871465294E+03  0.00000000000E+00 0. -1.
<scales pt_clust_5="13000.00000" pt_clust_6="13000.00000" pt_clust_7="13000.00000" pt_clust_8="13000.00000" pt_clust_9="13000.00000"></scales>
<clustering>
<clus scale="   56.620">  7  8 -1 -1</clus>
<clus scale="   92.808">  5  6 -1 -1</clus>
<clus scale="  104.237">  1  5  2 -1</clus>
<clus scale="  124.962">  7  9 -1 -1</clus>
<clus scale="  268.686">  2  5  1 -1</clus>
</clustering>
</event>
<event>
 9    1  0.3303741E-006  0.8135538E+03  0.7546771E-02  0.1011290E+00
         21   -1    0    0  501  502  0.00000000000E+00  0.00000000000E+00  0.51003632193E+03  0.51003632193E+03  0.00000000000E+00 0. -1.
          3   -1    0    0  502    0 -0.00000000000E+00 -0.00000000000E+00 -0.47558824116E+03  0.47558824116E+03  0.00000000000E+00 0. -1.
         23    2    1    2    0    0 -0.69684496771E+02  0.47380360155E+02 -0.10092315991E+03  0.16088512108E+03  0.92723839224E+02 0.  0.
         23    2    1    2    0    0 -0.15085713237E+03  0.84779095774E+02 -0.27908497860E+03  0.33701135212E+03  0.75781638343E+02 0.  0.
        -11    1    3    3    0    0  0.22662948221E+02  0.13648142765E+02 -0.27656707243E+02  0.38272372261E+02  0.00000000000E+00 0.  1.
         11    1    3    3    0    0 -0.92347444992E+02  0.33732217390E+02 -0.73266452666E+02  0.12261274882E+03  0.00000000000E+00 0. -1.
        -13    1    4    4    0    0 -0.13424722229E+03  0.39324933817E+02 -0.19486097837E+03  0.23987406697E+03  0.00000000000E+00 0. -1.
         13    1    4    4    0    0 -0.16609910083E+02  0.45454161957E+02 -0.84224000228E+02  0.97137285151E+02  0.00000000000E+00 0.  1.
          3    1    1    2  501    0  0.22054162914E+03 -0.13215945593E+03  0.41445621928E+03  0.48772808990E+03  0.00000000000E+00 0. -1.
<scales pt_clust_5="13000.00000" pt_clust_6="13000.00000" pt_clust_7="13000.00000" pt_clust_8="13000.00000" pt_clust_9="13000.00000"></scales>
<clustering>
<clus scale="   75.782">  7  8 -1 -1</clus>
<clus scale="   92.724">  5  6 -1 -1</clus>
<clus scale="  125.294">  2  5  1 -1</clus>
<clus scale="  248.167">  7  9 -1 -1</clus>
<clus scale="  813.554">  1  5  2 -1</clus>
</clustering>
</event>
<event>
 9    1  0.3303741E-006  0.3021902E+03  0.7546771E-02  0.1126813E+00
          1   -1    0    0  502    0 -0.00000000000E+00  0.00000000000E+00  0.15436094051E+03  0.15436094051E+03  0.00000000000E+00 0. -1.
         21   -1    0    0  501  502  0.00000000000E+00 -0.00000000000E+00 -0.28693068355E+03  0.28693068355E+03  0.00000000000E+00 0. -1.
         23    2    1    2    0    0 -0.13686769238E+02  0.44618486687E+02  0.19741945532E+02  0.10288688781E+03  0.89542337831E+02 0.  0.
         23    2    1    2    0    0 -0.36048285992E+02 -0.54840518480E+02  0.54801454294E+02  0.12515858833E+03  0.91403016633E+02 0.  0.
        -13    1    3    3    0    0  0.23719902781E+02  0.28867916206E+02  0.42311041371E+02  0.56446564075E+02  0.00000000000E+00 0.  1.
         13    1    3    3    0    0 -0.37406672019E+02  0.15750570482E+02 -0.22569095839E+02  0.46440323739E+02  0.00000000000E+00 0. -1.
        -13    1    4    4    0    0  0.30789870345E+02 -0.12372039092E+02  0.19175705520E+02  0.38324811146E+02  0.00000000000E+00 0.  1.
         13    1    4    4    0    0 -0.66838156338E+02 -0.42468479387E+02  0.35625748773E+02  0.86833777182E+02  0.00000000000E+00 0. -1.
          1    1    1    2  501    0  0.49735055231E+02  0.10222031792E+02 -0.20711314286E+03  0.21324614791E+03  0.00000000000E+00 0. -1.
<scales pt_clust_5="13000.00000" pt_clust_6="13000.00000" pt_clust_7="13000.00000" pt_clust_8="13000.00000" pt_clust_9="13000.00000"></scales>
<clustering>
<clus scale="   89.542">  5  6 -1 -1</clus>
<clus scale="   91.403">  7  8 -1 -1</clus>
<clus scale="   50.775">  7  9 -1 -1</clus>
<clus scale="  100.975">  1  5  2 -1</clus>
<clus scale="  302.190">  2  5  1 -1</clus>
</clustering>
</event>
<event>
 9    1  0.3303741E-006  0.1926642E+03  0.7546771E-02  0.1186566E+00
         21   -1    0    0  501  502  0.00000000000E+00  0.00000000000E+00  0.26947316126E+03  0.26947316126E+03  0.00000000000E+00 0. -1.
          1   -1    0    0  502    0 -0.00000000000E+00 -0.00000000000E+00 -0.80010356511E+02  0.80010356511E+02  0.00000000000E+00 0. -1.
         23    2    1    2    0    0 -0.29121864105E+02 -0.77531935435E+01  0.33978168771E+02  0.10190533009E+03  0.91224916380E+02 0.  0.
         23    2    1    2    0    0 -0.15013420985E+02 -0.53122976575E+02  0.49456559699E+02  0.11759440239E+03  0.91296433266E+02 0.  0.
        -13    1    3    3    0    0 -0.55188782225E+02 -0.26548294687E+02  0.10570435236E+02  0.62147789465E+02  0.00000000000E+00 0. -1.
         13    1    3    3    0    0  0.26066918120E+02  0.18795101143E+02  0.23407733535E+02  0.39757540625E+02  0.00000000000E+00 0.  1.
        -13    1    4    4    0    0  0.31106160445E+02 -0.21547922820E+02 -0.66254463443E+01  0.38416178034E+02  0.00000000000E+00 0.  1.
         13    1    4    4    0    0 -0.46119581430E+02 -0.31575053755E+02  0.56082006044E+02  0.79178224360E+02  0.00000000000E+00 0. -1.
          1    1    1    2  501    0  0.44135285090E+02  0.60876170118E+02  0.10602807628E+03  0.12998378528E+03  0.00000000000E+00 0. -1.
<scales pt_clust_5="13000.00000" pt_clust_6="13000.00000" pt_clust_7="13000.00000" pt_clust_8="13000.00000" pt_clust_9="13000.00000"></scales>
<clustering>
<clus scale="   91.225">  5  6 -1 -1</clus>
<clus scale="   91.296">  7  8 -1 -1</clus>
<clus scale="   75.192">  7  9 -1 -1</clus>
<clus scale="   96.074">  2  5  1 -1</clus>
<clus scale="  192.664">  1  5  2 -1</clus>
</clustering>
</event>
<event>
 9    1  0.3303741E-006  0.4898154E+03  0.7546771E-02  0.1019949E+00
         21   -1    0    0  501  502  0.00000000000E+00  0.00000000000E+00  0.14525491026E+03  0.14525491026E+03  0.00000000000E+00 0. -1.
          1   -1    0    0  502    0 -0.00000000000E+00 -0.00000000000E+00 -0.15489271405E+04  0.15489271405E+04  0.00000000000E+00 0. -1.
         23    2    1    2    0    0 -0.99864142715E+01 -0.43098393073E+03 -0.83079204636E+03  0.94045080937E+03  0.91571958188E+02 0.  0.
         23    2    1    2    0    0  0.24221121723E+02  0.27836277667E+03 -0.21459169808E+03  0.36403073765E+03  0.91631233174E+02 0.  0.
        -11    1    3    3    0    0 -0.10607455402E+02 -0.59580933998E+02 -0.61962185124E+02  0.86612459794E+02  0.00000000000E+00 0.  1.
         11    1    3    3    0    0  0.62104113068E+00 -0.37140299673E+03 -0.76882986124E+03  0.85383834957E+03  0.00000000000E+00 0. -1.
        -11    1    4    4    0    0  0.28264991827E+02  0.19250514855E+02 -0.33581085961E+02  0.47928920491E+02  0.00000000000E+00 0.  1.
         11    1    4    4    0    0 -0.40438701040E+01  0.25911226182E+03 -0.18101061211E+03  0.31610181715E+03  0.00000000000E+00 0. -1.
          1    1    1    2  501    0 -0.14234707451E+02  0.15262115406E+03 -0.35828848577E+03  0.38970050371E+03  0.00000000000E+00 0. -1.
<scales pt_clust_5="13000.00000" pt_clust_6="13000.00000" pt_clust_7="13000.00000" pt_clust_8="13000.00000" pt_clust_9="13000.00000"></scales>
<clustering>
<clus scale="   91.572">  5  6 -1 -1</clus>
<clus scale="   91.631">  7  8 -1 -1</clus>
<clus scale="  153.284">  7  9 -1 -1</clus>
<clus scale="  440.718">  2  5  1 -1</clus>
<clus scale="  489.815">  1  5  2 -1</clus>
</clustering>
</event>
<event>
 9    1  0.3303741E-006  0.5804438E+03  0.7546771E-02  0.1041231E+00
          2   -1    0    0  502    0 -0.00000000000E+00  0.00000000000E+00  0.14763021176E+04  0.14763021176E+04  0.00000000000E+00 0. -1.
         21   -1    0    0  501  502  0.00000000000E+00 -0.00000000000E+00 -0.88301724551E+02  0.88301724551E+02  0.00000000000E+00 0. -1.
         23    2    1    2    0    0  0.69260336673E+02  0.78358219576E+02  0.30001580872E+03  0.33146741794E+03  0.94467766268E+02 0.  0.
         23    2    1    2    0    0  0.13271718236E+03 -0.23104804310E+03  0.32590853736E+03  0.43009906407E+03  0.88157708012E+02 0.  0.
        -11    1    3    3    0    0 -0.32936869559E+00  0.61285541748E+02  0.19446076552E+03  0.20388971391E+03  0.00000000000E+00 0.  1.
         11    1    3    3    0    0  0.69589705368E+02  0.17072677828E+02  0.10555504321E+03  0.12757770404E+03  0.00000000000E+00 0. -1.
        -13    1    4    4    0    0  0.13939994713E+03 -0.17563295119E+03  0.24918133826E+03  0.33521727005E+03  0.00000000000E+00 0.  1.
         13    1    4    4    0    0 -0.66827647639E+01 -0.55415091902E+02  0.76727199102E+02  0.94881794025E+02  0.00000000000E+00 0. -1.
          2    1    1    2  501    0 -0.20197751904E+03  0.15268982352E+03  0.76207604693E+03  0.80303736010E+03  0.00000000000E+00 0. -1.
<scales pt_clust_5="13000.00000" pt_clust_6="13000.00000" pt_clust_7="13000.00000" pt_clust_8="13000.00000" pt_clust_9="13000.00000"></scales>
<clustering>
<clus scale="   88.158">  7  8 -1 -1</clus>
<clus scale="   94.468">  5  6 -1 -1</clus>
<clus scale="  140.930">  1  5  2 -1</clus>
<clus scale="  257.588">  7  9 -1 -1</clus>
<clus scale="  580.444">  2  5  1 -1</clus>
</clustering>
</event>
<event>
 9    1  0.3303741E-006  0.1725442E+03  0.7546771E-02  0.1191710E+00
         -2   -1    0    0    0  501 -0.00000000000E+00  0.00000000000E+00  0.53303379090E+03  0.53303379090E+03  0.00000000000E+00 0.  1.
         21   -1    0    0  501  502  0.00000000000E+00 -0.00000000000E+00 -0.56811047342E+02  0.56811047342E+02  0.00000000000E+00 0.  1.
         23    2    1    2    0    0 -0.37857049260E+02 -0.66696050317E+02  0.36630748879E+03  0.38526513174E+03  0.91468716403E+02 0.  0.
         23    2    1    2    0    0  0.39817598708E+02  0.26820632797E+02  0.12488956468E+03  0.16194025724E+03  0.91227496062E+02 0.  0.
        -11    1    4    4    0    0  0.57596608015E+02 -0.13106922375E+02  0.77950470646E+02  0.97803049763E+02  0.00000000000E+00 0.  1.
         11    1    4    4    0    0 -0.17779009307E+02  0.39927555172E+02  0.46939094031E+02  0.64137207473E+02  0.00000000000E+00 0. -1.
        -11    1    3    3    0    0  0.29778412054E+02 -0.22313167736E+02  0.14277545883E+03  0.14754478277E+03  0.00000000000E+00 0. -1.
         11    1    3    3    0    0 -0.67635461314E+02 -0.44382882581E+02  0.22353202996E+03  0.23772034896E+03  0.00000000000E+00 0.  1.
         -2    1    1    2    0  502 -0.19605494481E+01  0.39875417520E+02 -0.14974309912E+02  0.42639449268E+02  0.00000000000E+00 0.  1.
<scales pt_clust_5="13000.00000" pt_clust_6="13000.00000" pt_clust_7="13000.00000" pt_clust_8="13000.00000" pt_clust_9="13000.00000"></scales>
<clustering>
<clus scale="   91.227">  5  6 -1 -1</clus>
<clus scale="   39.924">  5  9 -1 -1</clus>
<clus scale="   91.469">  7  8 -1 -1</clus>
<clus scale="  119.365">  1  7  2 -1</clus>
<clus scale="  172.544">  2  5  1 -1</clus>
</clustering>
</event>
<event>
 9    1  0.3303741E-006  0.5451156E+03  0.7546771E-02  0.1047437E+00
         21   -1    0    0  501  502  0.00000000000E+00  0.00000000000E+00  0.27415658371E+03  0.27415658371E+03  0.00000000000E+00 0.  1.
          2   -1    0    0  502    0 -0.00000000000E+00 -0.00000000000E+00 -0.58906318185E+03  0.58906318185E+03  0.00000000000E+00 0.  1.
         23    2    1    2    0    0  0.10408916074E+03 -0.14025803528E+02 -0.28351404221E+03  0.31720096549E+03  0.95942502717E+02 0.  0.
         23    2    1    2    0    0 -0.63797539538E+01  0.10372426071E+03 -0.25102681943E+03  0.28944103194E+03  0.99810938160E+02 0.  0.
        -13    1    3    3    0    0  0.61072223677E+02  0.33416282658E+02 -0.92719880826E+02  0.11594585267E+03  0.00000000000E+00 0.  1.
         13    1    3    3    0    0  0.43016937063E+02 -0.47442086186E+02 -0.19079416138E+03  0.20125511281E+03  0.00000000000E+00 0. -1.
        -13    1    4    4    0    0  0.28560562353E+02  0.42541106247E+02 -0.34581746957E+02  0.61817058044E+02  0.00000000000E+00 0. -1.
         13    1    4    4    0    0 -0.34940316307E+02  0.61183154464E+02 -0.21644507247E+03  0.22762397390E+03  0.00000000000E+00 0.  1.
          2    1    1    2  501    0 -0.97709406786E+02 -0.89698457183E+02  0.21963426350E+03  0.25657776813E+03  0.00000000000E+00 0.  1.
<scales pt_clust_5="13000.00000" pt_clust_6="13000.00000" pt_clust_7="13000.00000" pt_clust_8="13000.00000" pt_clust_9="13000.00000"></scales>
<clustering>
<clus scale="   95.943">  5  6 -1 -1</clus>
<clus scale="   99.811">  7  8 -1 -1</clus>
<clus scale="  132.638">  7  9 -1 -1</clus>
<clus scale="  142.254">  2  5  1 -1</clus>
<clus scale="  545.116">  1  5  2 -1</clus>
</clustering>
</event>
<event>
 9    1  0.3303741E-006  0.1633521E+03  0.7546771E-02  0.1197166E+00
         -1   -1    0    0    0  501 -0.00000000000E+00  0.00000000000E+00  0.71794587821E+02  0.71794587821E+02  0.00000000000E+00 0.  1.
         21   -1    0    0  501  502  0.00000000000E+00 -0.00000000000E+00 -0.29659176515E+03  0.29659176515E+03  0.00000000000E+00 0. -1.
         23    2    1    2    0    0 -0.67707870822E+02 -0.48850128356E+02 -0.68814555230E+02  0.14252251361E+03  0.92771402182E+02 0.  0.
         23    2    1    2    0    0  0.64350460065E+02  0.31389823573E+01 -0.83752534279E+02  0.14031872458E+03  0.92325633223E+02 0.  0.
        -11    1    3    3    0    0 -0.21709508926E+02 -0.13971920094E+01  0.21516057909E+02  0.30597314772E+02  0.00000000000E+00 0.  1.
         11    1    3    3    0    0 -0.45998361897E+02 -0.47452936346E+02 -0.90330613139E+02  0.11192519884E+03  0.00000000000E+00 0. -1.
        -13    1    4    4    0    0 -0.98551682081E+01  0.29568419603E+02 -0.10888764220E+02  0.33014859753E+02  0.00000000000E+00 0. -1.
         13    1    4    4    0    0  0.74205628273E+02 -0.26429437246E+02 -0.72863770059E+02  0.10730386483E+03  0.00000000000E+00 0.  1.
         -1    1    1    2    0  502  0.33574107571E+01  0.45711145998E+02 -0.72230087820E+02  0.85545114776E+02  0.00000000000E+00 0.  1.
<scales pt_clust_5="13000.00000" pt_clust_6="13000.00000" pt_clust_7="13000.00000" pt_clust_8="13000.00000" pt_clust_9="13000.00000"></scales>
<clustering>
<clus scale="   92.326">  7  8 -1 -1</clus>
<clus scale="   45.834">  7  9 -1 -1</clus>
<clus scale="   92.771">  5  6 -1 -1</clus>
<clus scale="  124.809">  1  5  2 -1</clus>
<clus scale="  163.352">  2  5  1 -1</clus>
</clustering>
</event>
<event>
 9    1  0.3303741E-006  0.1546418E+03  0.7546771E-02  0.1210326E+00
         -1   -1    0    0    0  501 -0.00000000000E+00  0.00000000000E+00  0.23536230682E+03  0.23536230682E+03  0.00000000000E+00 0.  1.
         21   -1    0    0  501  502  0.00000000000E+00 -0.00000000000E+00 -0.75093917284E+02  0.75093917284E+02  0.00000000000E+00 0. -1.
         23    2    1    2    0    0  0.46583519237E+02 -0.42384238047E+02  0.57449107388E+02  0.12475247947E+03  0.91084209913E+02 0.  0.
         23    2    1    2    0    0 -0.75029274751E+02  0.41680998909E+02  0.75469576284E+02  0.14623651819E+03  0.91229187040E+02 0.  0.
        -13    1    4    4    0    0 -0.58501414377E+02  0.18480517018E+02 -0.43315217596E+01  0.61503715938E+02  0.00000000000E+00 0. -1.
         13    1    4    4    0    0 -0.16527860374E+02  0.23200481891E+02  0.79801098044E+02  0.84732802252E+02  0.00000000000E+00 0.  1.
        -13    1    3    3    0    0  0.50907488100E+02 -0.62159772184E+02  0.64795846270E+02  0.10321778585E+03  0.00000000000E+00 0.  1.
         13    1    3    3    0    0 -0.43239688627E+01  0.19775534136E+02 -0.73467388814E+01  0.21534693620E+02  0.00000000000E+00 0. -1.
         -1    1    1    2    0  502  0.28445755513E+02  0.70323913809E+00  0.27349705859E+02  0.39467226437E+02  0.00000000000E+00 0.  1.
<scales pt_clust_5="13000.00000" pt_clust_6="13000.00000" pt_clust_7="13000.00000" pt_clust_8="13000.00000" pt_clust_9="13000.00000"></scales>
<clustering>
<clus scale="   91.084">  7  8 -1 -1</clus>
<clus scale="   91.229">  5  6 -1 -1</clus>
<clus scale="   28.454">  5  9 -1 -1</clus>
<clus scale="  110.737">  1  7  2 -1</clus>
<clus scale="  154.642">  2  5  1 -1</clus>
</clustering>
</event>
<event>
 9    1  0.3303741E-006  0.2399069E+03  0.7546771E-02  0.1138752E+00
          1   -1    0    0  502    0 -0.00000000000E+00  0.00000000000E+00  0.63704978007E+03  0.63704978007E+03  0.00000000000E+00 0. -1.
         21   -1    0    0  501  502  0.00000000000E+00 -0.00000000000E+00 -0.65320125413E+02  0.65320125413E+02  0.00000000000E+00 0.  1.
         23    2    1    2    0    0  0.54882940955E+02  0.10884654404E+03  0.12719862931E+03  0.19723313427E+03  0.88666287822E+02 0.  0.
         23    2    1    2    0    0  0.29459210971E+01 -0.11610947204E+03  0.41316687464E+03  0.43895038773E+03  0.92089568599E+02 0.  0.
        -13    1    3    3    0    0 -0.13272694694E+02  0.70539565731E+02  0.50928070049E+02  0.88009448793E+02  0.00000000000E+00 0.  1.
         13    1    3    3    0    0  0.68155635649E+02  0.38306978308E+02  0.76270559264E+02  0.10922368547E+03  0.00000000000E+00 0. -1.
        -13    1    4    4    0    0 -0.21550488395E+02 -0.10618990295E+03  0.38651807848E+03  0.40141866428E+03  0.00000000000E+00 0. -1.
         13    1    4    4    0    0  0.24496409492E+02 -0.99195690877E+01  0.26648796160E+02  0.37531723457E+02  0.00000000000E+00 0.  1.
          1    1    1    2  501    0 -0.57828862052E+02  0.72629279979E+01  0.31364150707E+02  0.66186383485E+02  0.00000000000E+00 0. -1.
<scales pt_clust_5="13000.00000" pt_clust_6="13000.00000" pt_clust_7="13000.00000" pt_clust_8="13000.00000" pt_clust_9="13000.00000"></scales>
<clustering>
<clus scale="   88.666">  5  6 -1 -1</clus>
<clus scale="   92.090">  7  8 -1 -1</clus>
<clus scale="   58.283">  7  9 -1 -1</clus>
<clus scale="  150.736">  1  5  2 -1</clus>
<clus scale="  239.907">  2  5  1 -1</clus>
</clustering>
</event>
<event>
 9    1  0.3303741E-006  0.5026663E+03  0.7546771E-02  0.1020809E+00
          3   -1    0    0  502    0 -0.00000000000E+00  0.00000000000E+00  0.11284559750E+04  0.11284559750E+04  0.00000000000E+00 0. -1.
         21   -1    0    0  501  502  0.00000000000E+00 -0.00000000000E+00 -0.22431695989E+03  0.22431695989E+03  0.00000000000E+00 0. -1.
         23    2    1    2    0    0 -0.14760987580E+03  0.35804173642E+03  0.71061724776E+03  0.81414121643E+03  0.88693218598E+02 0.  0.
         23    2    1    2    0    0  0.61576558870E+02 -0.62259048931E+02  0.19588922330E+03  0.23058182856E+03  0.84424700643E+02 0.  0.
        -13    1    4    4    0    0 -0.12056732916E+02 -0.38875950974E+02  0.96231740345E+02  0.10448565558E+03  0.00000000000E+00 0.  1.
         13    1    4    4    0    0  0.73633291786E+02 -0.23383097957E+02  0.99657482956E+02  0.12609617297E+03  0.00000000000E+00 0. -1.
        -13    1    3    3    0    0 -0.92859161841E+02  0.11332570975E+03  0.25767203247E+03  0.29641257859E+03  0.00000000000E+00 0. -1.
         13    1    3    3    0    0 -0.54750713963E+02  0.24471602667E+03  0.45294521529E+03  0.51772863785E+03  0.00000000000E+00 0.  1.
          3    1    1    2  501    0  0.86033316934E+02 -0.29578268749E+03 -0.23674559089E+01  0.30804988993E+03  0.00000000000E+00 0. -1.
<scales pt_clust_5="13000.00000" pt_clust_6="13000.00000" pt_clust_7="13000.00000" pt_clust_8="13000.00000" pt_clust_9="13000.00000"></scales>
<clustering>
<clus scale="   84.425">  5  6 -1 -1</clus>
<clus scale="   88.693">  7  8 -1 -1</clus>
<clus scale="  308.041">  5  9 -1 -1</clus>
<clus scale="  397.302">  1  7  2 -1</clus>
<clus scale="  502.666">  2  5  1 -1</clus>
</clustering>
</event>
<event>
 9    1  0.3303741E-006  0.2733989E+03  0.7546771E-02  0.1127852E+00
          1   -1    0    0  502    0 -0.00000000000E+00  0.00000000000E+00  0.36515047279E+03  0.36515047279E+03  0.00000000000E+00 0. -1.
         21   -1    0    0  501  502  0.00000000000E+00 -0.00000000000E+00 -0.14108580150E+03  0.14108580150E+03  0.00000000000E+00 0. -1.
         23    2    1    2    0    0 -0.61462338714E+02  0.56161842644E+02 -0.26351035170E+02  0.13548702415E+03  0.10358853705E+03 0.  0.
         23    2    1    2    0    0  0.53630633766E+02 -0.15555053373E+02  0.29300407296E+03  0.31138582791E+03  0.89395427676E+02 0.  0.
        -11    1    3    3    0    0  0.28023497107E+02  0.60533316750E+01  0.29558306005E+01  0.28821799892E+02  0.00000000000E+00 0.  1.
         11    1    3    3    0    0 -0.89485835821E+02  0.50108510969E+02 -0.29306865770E+02  0.10666522426E+03  0.00000000000E+00 0. -1.
        -11    1    4    4    0    0 -0.19712125328E+02  0.16053861388E+02  0.64654254281E+02  0.69472778461E+02  0.00000000000E+00 0.  1.
         11    1    4    4    0    0  0.73342759094E+02 -0.31608914761E+02  0.22834981868E+03  0.24191304945E+03  0.00000000000E+00 0. -1.
          1    1    1    2  501    0  0.78317049478E+01 -0.40606789271E+02 -0.42588366506E+02  0.59363422231E+02  0.00000000000E+00 0. -1.
<scales pt_clust_5="13000.00000" pt_clust_6="13000.00000" pt_clust_7="13000.00000" pt_clust_8="13000.00000" pt_clust_9="13000.00000"></scales>
<clustering>
<clus scale="   89.395">  7  8 -1 -1</clus>
<clus scale="   41.355">  7  9 -1 -1</clus>
<clus scale="  103.589">  5  6 -1 -1</clus>
<clus scale="  132.900">  1  5  2 -1</clus>
<clus scale="  273.399">  2  5  1 -1</clus>
</clustering>
</event>
<event>
 9    1  0.3303741E-006  0.6006014E+03  0.7546771E-02  0.1002126E+00
         -1   -1    0    0    0  501 -0.00000000000E+00  0.00000000000E+00  0.61706580108E+03  0.61706580108E+03  0.00000000000E+00 0.  1.
         21   -1    0    0  501  502  0.00000000000E+00 -0.00000000000E+00 -0.67740582748E+03  0.67740582748E+03  0.00000000000E+00 0.  1.
         23    2    1    2    0    0 -0.33735941581E+03 -0.22208932916E+03  0.37025019741E+03  0.55546558490E+03  0.91223690807E+02 0.  0.
         23    2    1    2    0    0 -0.27837602696E+02 -0.39234188018E+02  0.12464126102E+02  0.10816850519E+03  0.96077143183E+02 0.  0.
        -11    1    3    3    0    0 -0.21043001963E+03 -0.84716186094E+02  0.21139096410E+03  0.31007058076E+03  0.00000000000E+00 0. -1.
         11    1    3    3    0    0 -0.12692939618E+03 -0.13737314307E+03  0.15885923331E+03  0.24539500414E+03  0.00000000000E+00 0.  1.
        -13    1    4    4    0    0 -0.56166694181E+01 -0.35083369556E+02 -0.38516187520E+02  0.52401207007E+02  0.00000000000E+00 0. -1.
         13    1    4    4    0    0 -0.22220933278E+02 -0.41508184618E+01  0.50980313621E+02  0.55767298182E+02  0.00000000000E+00 0.  1.
         -1    1    1    2    0  502  0.36519701851E+03  0.26132351718E+03 -0.44305434991E+03  0.63083753846E+03  0.00000000000E+00 0.  1.
<scales pt_clust_5="13000.00000" pt_clust_6="13000.00000" pt_clust_7="13000.00000" pt_clust_8="13000.00000" pt_clust_9="13000.00000"></scales>
<clustering>
<clus scale="   91.224">  5  6 -1 -1</clus>
<clus scale="   96.077">  7  8 -1 -1</clus>
<clus scale="  414.073">  1  5  2 -1</clus>
<clus scale="  203.555">  7  9 -1 -1</clus>
<clus scale="  600.601">  2  5  1 -1</clus>
</clustering>
</event>
<event>
 9    1  0.3303741E-006  0.3738904E+03  0.7546771E-02  0.1099935E+00
         -1   -1    0    0    0  501 -0.00000000000E+00  0.00000000000E+00  0.72615095566E+03  0.72615095566E+03  0.00000000000E+00 0.  1.
         21   -1    0    0  501  502  0.00000000000E+00 -0.00000000000E+00 -0.87210074601E+02  0.87210074601E+02  0.00000000000E+00 0. -1.
         23    2    1    2    0    0 -0.29715305510E+02  0.44590787426E+02  0.51939365500E+02  0.11739782728E+03  0.90626786637E+02 0.  0.
         23    2    1    2    0    0 -0.22367198637E+02 -0.19475861144E+03  0.33005073587E+03  0.39382637010E+03  0.87946081379E+02 0.  0.
        -11    1    3    3    0    0 -0.21220082479E+02 -0.24219389717E+02  0.26075297200E+01  0.32305881042E+02  0.00000000000E+00 0. -1.
         11    1    3    3    0    0 -0.84952230312E+01  0.68810177143E+02  0.49331835780E+02  0.85091946236E+02  0.00000000000E+00 0.  1.
        -13    1    4    4    0    0  0.19713274220E+02 -0.24128844702E+02  0.97377457104E+02  0.10224081122E+03  0.00000000000E+00 0.  1.
         13    1    4    4    0    0 -0.42080472857E+02 -0.17062976673E+03  0.23267327877E+03  0.29158555887E+03  0.00000000000E+00 0. -1.
         -1    1    1    2    0  502  0.52082504147E+02  0.15016782401E+03  0.25695077969E+03  0.30213683289E+03  0.00000000000E+00 0.  1.
<scales pt_clust_5="13000.00000" pt_clust_6="13000.00000" pt_clust_7="13000.00000" pt_clust_8="13000.00000" pt_clust_9="13000.00000"></scales>
<clustering>
<clus scale="   87.946">  7  8 -1 -1</clus>
<clus scale="   90.627">  5  6 -1 -1</clus>
<clus scale="  105.283">  1  5  2 -1</clus>
<clus scale="  174.056">  7  9 -1 -1</clus>
<clus scale="  373.890">  2  5  1 -1</clus>
</clustering>
</event>
<event>
 9    1  0.3303741E-006  0.2068990E+03  0.7546771E-02  0.1148595E+00
          1   -1    0    0  502    0 -0.00000000000E+00  0.00000000000E+00  0.10624683683E+04  0.10624683683E+04  0.00000000000E+00 0. -1.
         21   -1    0    0  501  502  0.00000000000E+00 -0.00000000000E+00 -0.73013882301E+02  0.73013882301E+02  0.00000000000E+00 0.  1.
         23    2    1    2    0    0 -0.15974443174E+03  0.19284713476E+02  0.88396144437E+03  0.90324101246E+03  0.92554350596E+02 0.  0.
         23    2    1    2    0    0  0.74725126318E+02 -0.87494505881E+00  0.43667810693E+02  0.12551935170E+03  0.90904454944E+02 0.  0.
        -11    1    4    4    0    0 -0.12864345656E+02 -0.21490183994E+02  0.21100492273E+02  0.32749811777E+02  0.00000000000E+00 0. -1.
         11    1    4    4    0    0  0.87589471974E+02  0.20615238936E+02  0.22567318420E+02  0.92769539924E+02  0.00000000000E+00 0.  1.
        -13    1    3    3    0    0 -0.94853723736E+02 -0.34050597335E+02  0.43883052033E+03  0.45025425890E+03  0.00000000000E+00 0. -1.
         13    1    3    3    0    0 -0.64890708002E+02  0.53335310811E+02  0.44513092404E+03  0.45298675356E+03  0.00000000000E+00 0.  1.
          1    1    1    2  501    0  0.85019305420E+02 -0.18409768417E+02  0.61825230963E+02  0.10672188647E+03  0.00000000000E+00 0. -1.
<scales pt_clust_5="13000.00000" pt_clust_6="13000.00000" pt_clust_7="13000.00000" pt_clust_8="13000.00000" pt_clust_9="13000.00000"></scales>
<clustering>
<clus scale="   90.904">  5  6 -1 -1</clus>
<clus scale="   86.990">  5  9 -1 -1</clus>
<clus scale="   92.554">  7  8 -1 -1</clus>
<clus scale="  185.625">  1  7  2 -1</clus>
<clus scale="  206.899">  2  5  1 -1</clus>
</clustering>
</event>
<event>
 9    1  0.3303741E-006  0.3189552E+03  0.7546771E-02  0.1120708E+00
         21   -1    0    0  501  502  0.00000000000E+00  0.00000000000E+00  0.39415451925E+03  0.39415451925E+03  0.00000000000E+00 0. -1.
          1   -1    0    0  502    0 -0.00000000000E+00 -0.00000000000E+00 -0.14347461372E+03  0.14347461372E+03  0.00000000000E+00 0. -1.
         23    2    1    2    0    0  0.34397815674E+02  0.11363572718E+02 -0.38502703133E+02  0.10709577026E+03  0.93138098284E+02 0.  0.
         23    2    1    2    0    0  0.75355766289E+02 -0.10792776644E+03  0.88675244132E+02  0.18239288738E+03  0.89871976521E+02 0.  0.
        -11    1    3    3    0    0 -0.96995693448E+01  0.41570607954E+02 -0.27219975682E+01  0.42773898138E+02  0.00000000000E+00 0.  1.
         11    1    3    3    0    0  0.44097385018E+02 -0.30207035236E+02 -0.35780705565E+02  0.64321872127E+02  0.00000000000E+00 0. -1.
        -13    1    4    4    0    0 -0.20812037514E+02 -0.23373369808E+02  0.15884027981E+02  0.35096405323E+02  0.00000000000E+00 0.  1.
         13    1    4    4    0    0  0.96167803803E+02 -0.84554396635E+02  0.72791216151E+02  0.14729648206E+03  0.00000000000E+00 0. -1.
          1    1    1    2  501    0 -0.10975358196E+03  0.96564193724E+02  0.20050736453E+03  0.24814047532E+03  0.00000000000E+00 0. -1.
<scales pt_clust_5="13000.00000" pt_clust_6="13000.00000" pt_clust_7="13000.00000" pt_clust_8="13000.00000" pt_clust_9="13000.00000"></scales>
<clustering>
<clus scale="   89.872">  7  8 -1 -1</clus>
<clus scale="   93.138">  5  6 -1 -1</clus>
<clus scale="   99.935">  2  5  1 -1</clus>
<clus scale="  140.409">  7  9 -1 -1</clus>
<clus scale="  318.955">  1  5  2 -1</clus>
</clustering>
</event>
<event>
 9    1  0.3303741E-006  0.2718801E+03  0.7546771E-02  0.1129097E+00
         21   -1    0    0  501  502  0.00000000000E+00  0.00000000000E+00  0.34371192137E+03  0.34371192137E+03  0.00000000000E+00 0. -1.
          1   -1    0    0  502    0 -0.00000000000E+00 -0.00000000000E+00 -0.12082044366E+03  0.12082044366E+03  0.00000000000E+00 0. -1.
         23    2    1    2    0    0 -0.34289324867E+02  0.81818995444E+02  0.10611793272E+03  0.16863564110E+03  0.96472058083E+02 0.  0.
         23    2    1    2    0    0  0.32550576059E+02 -0.15200904363E+03  0.27611354739E+02  0.18240856471E+03  0.91346637723E+02 0.  0.
        -11    1    4    4    0    0  0.36408071372E+02 -0.62711389960E+02  0.52620707791E+02  0.89594670489E+02  0.00000000000E+00 0.  1.
         11    1    4    4    0    0 -0.38574953126E+01 -0.89297653667E+02 -0.25009353052E+02  0.92813894222E+02  0.00000000000E+00 0. -1.
        -13    1    3    3    0    0 -0.64242333625E+02  0.29380651614E+02  0.55447186124E+02  0.89803622243E+02  0.00000000000E+00 0.  1.
         13    1    3    3    0    0  0.29953008758E+02  0.52438343830E+02  0.50670746591E+02  0.78832018859E+02  0.00000000000E+00 0. -1.
          1    1    1    2  501    0  0.17387488077E+01  0.70190048183E+02  0.89162190253E+02  0.11348815922E+03  0.00000000000E+00 0. -1.
<scales pt_clust_5="13000.00000" pt_clust_6="13000.00000" pt_clust_7="13000.00000" pt_clust_8="13000.00000" pt_clust_9="13000.00000"></scales>
<clustering>
<clus scale="   91.347">  5  6 -1 -1</clus>
<clus scale="   70.212">  5  9 -1 -1</clus>
<clus scale="   96.472">  7  8 -1 -1</clus>
<clus scale="  131.061">  2  7  1 -1</clus>
<clus scale="  271.880">  1  5  2 -1</clus>
</clustering>
</event>
<event>
 9    1  0.3303741E-006  0.3201834E+03  0.7546771E-02  0.1095104E+00
         21   -1    0    0  501  502  0.00000000000E+00  0.00000000000E+00  0.21511896216E+03  0.21511896216E+03  0.00000000000E+00 0.  1.
         -2   -1    0    0    0  501 -0.00000000000E+00 -0.00000000000E+00 -0.48643207687E+03  0.48643207687E+03  0.00000000000E+00 0.  1.
         23    2    1    2    0    0  0.16209595814E+03  0.38512728654E+02 -0.32535079362E+03  0.37683961480E+03  0.91633107872E+02 0.  0.
         23    2    1    2    0    0 -0.36108575888E+02 -0.13013010136E+03  0.12620449619E+02  0.16352224857E+03  0.91337711254E+02 0.  0.
        -11    1    4    4    0    0 -0.42058280583E+02 -0.77667220360E+02  0.47457152892E+02  0.10026603335E+03  0.00000000000E+00 0.  1.
         11    1    4    4    0    0  0.59497046953E+01 -0.52462881002E+02 -0.34836703273E+02  0.63256215220E+02  0.00000000000E+00 0. -1.
        -13    1    3    3    0    0  0.94239966956E+02  0.55725769332E+02 -0.13372072077E+03  0.17282292644E+03  0.00000000000E+00 0.  1.
         13    1    3    3    0    0  0.67855991183E+02 -0.17213040678E+02 -0.19163007285E+03  0.20401668836E+03  0.00000000000E+00 0. -1.
         -2    1    1    2    0  502 -0.12598738225E+03  0.91617372708E+02  0.41417229284E+02  0.16118917566E+03  0.00000000000E+00 0.  1.
<scales pt_clust_5="13000.00000" pt_clust_6="13000.00000" pt_clust_7="13000.00000" pt_clust_8="13000.00000" pt_clust_9="13000.00000"></scales>
<clustering>
<clus scale="   91.338">  5  6 -1 -1</clus>
<clus scale="   91.633">  7  8 -1 -1</clus>
<clus scale="  155.777">  5  9 -1 -1</clus>
<clus scale="  190.145">  2  7  1 -1</clus>
<clus scale="  320.183">  1  5  2 -1</clus>
</clustering>
</event>
<event>
 9    1  0.3303741E-006  0.1825828E+03  0.7546771E-02  0.1175389E+00
         21   -1    0    0  501  502  0.00000000000E+00  0.00000000000E+00  0.56875954216E+02  0.56875954216E+02  0.00000000000E+00 0.  1.
          1   -1    0    0  502    0 -0.00000000000E+00 -0.00000000000E+00 -0.48289711277E+03  0.48289711277E+03  0.00000000000E+00 0. -1.
         23    2    1    2    0    0  0.82548013978E+02  0.78442945964E+02 -0.14866884550E+03  0.20771769020E+03  0.89870700554E+02 0.  0.
         23    2    1    2    0    0 -0.12058658846E+02 -0.46381670210E+02 -0.17119666388E+03  0.20065637968E+03  0.93048451867E+02 0.  0.
        -13    1    3    3    0    0 -0.36670160159E+01  0.50208107986E+02 -0.77489121938E+02  0.92405979962E+02  0.00000000000E+00 0. -1.
         13    1    3    3    0    0  0.86215029994E+02  0.28234837978E+02 -0.71179723560E+02  0.11531171024E+03  0.00000000000E+00 0.  1.
        -13    1    4    4    0    0 -0.45737260444E+02 -0.43244349448E+02 -0.14433646234E+03  0.15746423439E+03  0.00000000000E+00 0. -1.
         13    1    4    4    0    0  0.33678601599E+02 -0.31373207622E+01 -0.26860201547E+02  0.43192145285E+02  0.00000000000E+00 0.  1.
          1    1    1    2  501    0 -0.70489355132E+02 -0.32061275753E+02 -0.10615564917E+03  0.13139899711E+03  0.00000000000E+00 0. -1.
<scales pt_clust_5="13000.00000" pt_clust_6="13000.00000" pt_clust_7="13000.00000" pt_clust_8="13000.00000" pt_clust_9="13000.00000"></scales>
<clustering>
<clus scale="   89.871">  5  6 -1 -1</clus>
<clus scale="   93.048">  7  8 -1 -1</clus>
<clus scale="   77.438">  7  9 -1 -1</clus>
<clus scale="  145.066">  2  5  1 -1</clus>
<clus scale="  182.583">  1  5  2 -1</clus>
</clustering>
</event>
<event>
 9    1  0.3303741E-006  0.2342726E+03  0.7546771E-02  0.1127028E+00
          1   -1    0    0  502    0 -0.00000000000E+00  0.00000000000E+00  0.65025204206E+03  0.65025204206E+03  0.00000000000E+00 0. -1.
         21   -1    0    0  501  502  0.00000000000E+00 -0.00000000000E+00 -0.12379639923E+03  0.12379639923E+03  0.00000000000E+00 0. -1.
         23    2    1    2    0    0 -0.19232046543E+03 -0.34603003180E+02  0.20562767537E+02  0.21654396867E+03  0.91016117844E+02 0.  0.
         23    2    1    2    0    0  0.90603535477E+02  0.21685216094E+02  0.30927023537E+03  0.33575311276E+03  0.91666924294E+02 0.  0.
        -11    1    3    3    0    0 -0.82154857536E+02  0.12887679612E+02 -0.27089244661E+02  0.87460505823E+02  0.00000000000E+00 0.  1.
         11    1    3    3    0    0 -0.11016560790E+03 -0.47490682793E+02  0.47652012198E+02  0.12908346285E+03  0.00000000000E+00 0. -1.
        -13    1    4    4    0    0  0.70413073345E+02  0.21562684898E+02  0.30667920197E+03  0.31539670765E+03  0.00000000000E+00 0.  1.
         13    1    4    4    0    0  0.20190462133E+02  0.12253119659E+00  0.25910333977E+01  0.20356405112E+02  0.00000000000E+00 0. -1.
          1    1    1    2  501    0  0.10171692995E+03  0.12917787086E+02  0.19662263993E+03  0.22175135985E+03  0.00000000000E+00 0. -1.
<scales pt_clust_5="13000.00000" pt_clust_6="13000.00000" pt_clust_7="13000.00000" pt_clust_8="13000.00000" pt_clust_9="13000.00000"></scales>
<clustering>
<clus scale="   91.016">  5  6 -1 -1</clus>
<clus scale="   91.667">  7  8 -1 -1</clus>
<clus scale="  102.534">  7  9 -1 -1</clus>
<clus scale="  215.566">  1  5  2 -1</clus>
<clus scale="  234.273">  2  5  1 -1</clus>
</clustering>
</event>
<event>
 9    1  0.3303741E-006  0.1219229E+03  0.7546771E-02  0.1252221E+00
         -2   -1    0    0    0  501 -0.00000000000E+00  0.00000000000E+00  0.63097977929E+02  0.63097977929E+02  0.00000000000E+00 0. -1.
         21   -1    0    0  501  502  0.00000000000E+00 -0.00000000000E+00 -0.33382417484E+03  0.33382417484E+03  0.00000000000E+00 0. -1.
         23    2    1    2    0    0  0.22403914607E+02  0.19370413088E+02  0.50319879989E+01  0.95413012380E+02  0.90560332019E+02 0.  0.
         23    2    1    2    0    0 -0.67985797287E+01 -0.32037905175E+02 -0.24921482178E+03  0.26821436665E+03  0.93585634718E+02 0.  0.
        -13    1    3    3    0    0  0.47218892106E+01 -0.34169179209E+02 -0.11985769515E+02  0.36516951083E+02  0.00000000000E+00 0.  1.
         13    1    3    3    0    0  0.17682025396E+02  0.53539592297E+02  0.17017757514E+02  0.58896061297E+02  0.00000000000E+00 0. -1.
        -13    1    4    4    0    0  0.34069334274E+02  0.45338242646E+01 -0.44196075730E+02  0.55987214703E+02  0.00000000000E+00 0.  1.
         13    1    4    4    0    0 -0.40867914003E+02 -0.36571729439E+02 -0.20501874605E+03  0.21222715194E+03  0.00000000000E+00 0. -1.
         -2    1    1    2    0  502 -0.15605334878E+02  0.12667492087E+02 -0.26543363125E+02  0.33294773740E+02  0.00000000000E+00 0. -1.
<scales pt_clust_5="13000.00000" pt_clust_6="13000.00000" pt_clust_7="13000.00000" pt_clust_8="13000.00000" pt_clust_9="13000.00000"></scales>
<clustering>
<clus scale="   90.560">  5  6 -1 -1</clus>
<clus scale="   93.586">  7  8 -1 -1</clus>
<clus scale="   20.100">  7  9 -1 -1</clus>
<clus scale="   95.280">  1  5  2 -1</clus>
<clus scale="  121.923">  2  5  1 -1</clus>
</clustering>
</event>
<event>
 9    1  0.3303741E-006  0.1543142E+03  0.7546771E-02  0.1218249E+00
          1   -1    0    0  502    0 -0.00000000000E+00  0.00000000000E+00  0.13686589708E+03  0.13686589708E+03  0.00000000000E+00 0. -1.
         21   -1    0    0  501  502  0.00000000000E+00 -0.00000000000E+00 -0.15145043045E+03  0.15145043045E+03  0.00000000000E+00 0.  1.
         23    2    1    2    0    0 -0.23033396052E+02 -0.68635875339E+01  0.65222112802E+02  0.11458672904E+03  0.91096368237E+02 0.  0.
         23    2    1    2    0    0  0.65041462956E+02  0.53940866477E+01 -0.64155310744E+02  0.12887648914E+03  0.90740054449E+02 0.  0.
        -11    1    3    3    0    0  0.12969179809E+02  0.35403639427E+02  0.34630870794E+02  0.51194868117E+02  0.00000000000E+00 0.  1.
         11    1    3    3    0    0 -0.36002575862E+02 -0.42267226960E+02  0.30591242008E+02  0.63391860922E+02  0.00000000000E+00 0. -1.
        -11    1    4    4    0    0  0.77780636716E+02  0.27078992528E+02 -0.63013618795E+02  0.10370060481E+03  0.00000000000E+00 0.  1.
         11    1    4    4    0    0 -0.12739173761E+02 -0.21684905880E+02 -0.11416919491E+01  0.25175884327E+02  0.00000000000E+00 0. -1.
          1    1    1    2  501    0 -0.42008066903E+02  0.14695008862E+01 -0.15651335436E+02  0.44853109354E+02  0.00000000000E+00 0. -1.
<scales pt_clust_5="13000.00000" pt_clust_6="13000.00000" pt_clust_7="13000.00000" pt_clust_8="13000.00000" pt_clust_9="13000.00000"></scales>
<clustering>
<clus scale="   90.740">  7  8 -1 -1</clus>
<clus scale="   42.034">  7  9 -1 -1</clus>
<clus scale="   91.096">  5  6 -1 -1</clus>
<clus scale="   94.214">  1  5  2 -1</clus>
<clus scale="  154.314">  2  5  1 -1</clus>
</clustering>
</event>
<event>
 9    1  0.3303741E-006  0.4105913E+03  0.7546771E-02  0.1085128E+00
         -1   -1    0    0    0  501 -0.00000000000E+00  0.00000000000E+00  0.87154866123E+02  0.87154866123E+02  0.00000000000E+00 0.  1.
         21   -1    0    0  501  502  0.00000000000E+00 -0.00000000000E+00 -0.82099821043E+03  0.82099821043E+03  0.00000000000E+00 0.  1.
         23    2    1    2    0    0  0.35525349814E+02  0.58852390479E+02 -0.22982979991E+03  0.25806472973E+03  0.95131558713E+02 0.  0.
         23    2    1    2    0    0  0.11416199726E+03  0.74076011374E+02 -0.82831456369E+02  0.18375090122E+03  0.91559414884E+02 0.  0.
        -11    1    3    3    0    0  0.59401931587E+02  0.56806385928E+02 -0.11868937744E+03  0.14437009134E+03  0.00000000000E+00 0.  1.
         11    1    3    3    0    0 -0.23876581772E+02  0.20460045505E+01 -0.11114042247E+03  0.11369463839E+03  0.00000000000E+00 0. -1.
        -11    1    4    4    0    0  0.59540401715E+02  0.81252246985E+02 -0.79915918149E+02  0.12858281786E+03  0.00000000000E+00 0.  1.
         11    1    4    4    0    0  0.54621595545E+02 -0.71762356112E+01 -0.29155382200E+01  0.55168083351E+02  0.00000000000E+00 0. -1.
         -1    1    1    2    0  502 -0.14968734707E+03 -0.13292840185E+03 -0.42118208803E+03  0.46633744560E+03  0.00000000000E+00 0.  1.
<scales pt_clust_5="13000.00000" pt_clust_6="13000.00000" pt_clust_7="13000.00000" pt_clust_8="13000.00000" pt_clust_9="13000.00000"></scales>
<clustering>
<clus scale="   91.559">  7  8 -1 -1</clus>
<clus scale="   95.132">  5  6 -1 -1</clus>
<clus scale="  117.370">  1  5  2 -1</clus>
<clus scale="  180.010">  7  9 -1 -1</clus>
<clus scale="  410.591">  2  5  1 -1</clus>
</clustering>
</event>
<event>
 9    1  0.3303741E-006  0.4288757E+03  0.7546771E-02  0.1066002E+00
          1   -1    0    0  502    0 -0.00000000000E+00  0.00000000000E+00  0.14534358368E+03  0.14534358368E+03  0.00000000000E+00 0. -1.
         21   -1    0    0  501  502  0.00000000000E+00 -0.00000000000E+00 -0.12748280721E+04  0.12748280721E+04  0.00000000000E+00 0. -1.
         23    2    1    2    0    0  0.13879834478E+03  0.41623503784E+02  0.37237841469E+02  0.17712083567E+03  0.94803148724E+02 0.  0.
         23    2    1    2    0    0 -0.21043919309E+03  0.11483498142E+03 -0.72582242169E+03  0.76975979148E+03  0.90775667477E+02 0.  0.
        -11    1    4    4    0    0 -0.98302114143E+02  0.10488659818E+03 -0.41108858342E+03  0.43549779281E+03  0.00000000000E+00 0. -1.
         11    1    4    4    0    0 -0.11213707895E+03  0.99483832379E+01 -0.31473383827E+03  0.33426199867E+03  0.00000000000E+00 0.  1.
        -13    1    3    3    0    0  0.11404802000E+03  0.26420834224E+02  0.67532942856E+02  0.13515069263E+03  0.00000000000E+00 0. -1.
         13    1    3    3    0    0  0.24750324784E+02  0.15202669560E+02 -0.30295101387E+02  0.41970143039E+02  0.00000000000E+00 0.  1.
          1    1    1    2  501    0  0.71640848306E+02 -0.15645848520E+03 -0.44089990823E+03  0.47329102867E+03  0.00000000000E+00 0. -1.
<scales pt_clust_5="13000.00000" pt_clust_6="13000.00000" pt_clust_7="13000.00000" pt_clust_8="13000.00000" pt_clust_9="13000.00000"></scales>
<clustering>
<clus scale="   90.776">  5  6 -1 -1</clus>
<clus scale="   94.803">  7  8 -1 -1</clus>
<clus scale="  172.080">  5  9 -1 -1</clus>
<clus scale="  173.162">  1  7  2 -1</clus>
<clus scale="  428.876">  2  5  1 -1</clus>
</clustering>
</event>
<event>
 9    1  0.3303741E-006  0.2207570E+03  0.7546771E-02  0.1159324E+00
          1   -1    0    0  502    0 -0.00000000000E+00  0.00000000000E+00  0.91767585051E+03  0.91767585051E+03  0.00000000000E+00 0. -1.
         21   -1    0    0  501  502  0.00000000000E+00 -0.00000000000E+00 -0.46518634492E+02  0.46518634492E+02  0.00000000000E+00 0. -1.
         23    2    1    2    0    0  0.93859848107E+01 -0.75114926241E+02  0.61357996171E+03  0.62496052514E+03  0.91460044379E+02 0.  0.
         23    2    1    2    0    0 -0.59091538995E+02 -0.20382064938E+02  0.17220917421E+03  0.20183662895E+03  0.84704111779E+02 0.  0.
        -13    1    4    4    0    0 -0.29989333521E+02 -0.52186956014E+02  0.80633705001E+02  0.10062123476E+03  0.00000000000E+00 0. -1.
         13    1    4    4    0    0 -0.29102205474E+02  0.31804891076E+02  0.91575469206E+02  0.10121539419E+03  0.00000000000E+00 0.  1.
        -13    1    3    3    0    0  0.17688719619E+02  0.17924439005E+02  0.11864529400E+03  0.12128842527E+03  0.00000000000E+00 0.  1.
         13    1    3    3    0    0 -0.83027348085E+01 -0.93039365246E+02  0.49493466771E+03  0.50367209987E+03  0.00000000000E+00 0. -1.
          1    1    1    2  501    0  0.49705554185E+02  0.95496991179E+02  0.85368080097E+02  0.13739733091E+03  0.00000000000E+00 0. -1.
<scales pt_clust_5="13000.00000" pt_clust_6="13000.00000" pt_clust_7="13000.00000" pt_clust_8="13000.00000" pt_clust_9="13000.00000"></scales>
<clustering>
<clus scale="   84.704">  5  6 -1 -1</clus>
<clus scale="   91.460">  7  8 -1 -1</clus>
<clus scale="  107.658">  5  9 -1 -1</clus>
<clus scale="  118.724">  1  7  2 -1</clus>
<clus scale="  220.757">  2  5  1 -1</clus>
</clustering>
</event>
<event>
 9    1  0.3303741E-006  0.2008005E+03  0.7546771E-02  0.1176201E+00
         -2   -1    0    0    0  501 -0.00000000000E+00  0.00000000000E+00  0.10186595305E+03  0.10186595305E+03  0.00000000000E+00 0.  1.
         21   -1    0    0  501  502  0.00000000000E+00 -0.00000000000E+00 -0.23574257672E+03  0.23574257672E+03  0.00000000000E+00 0.  1.
         23    2    1    2    0    0  0.54242913395E+02  0.49297877017E+01 -0.65350719640E+02  0.12543730288E+03  0.92180279543E+02 0.  0.
         23    2    1    2    0    0  0.30786820295E+02 -0.35697397846E+02 -0.28271101531E+01  0.10039898989E+03  0.88599278230E+02 0.  0.
        -13    1    3    3    0    0  0.76465751318E+02  0.18706230407E+02 -0.37366261790E+02  0.87138807089E+02  0.00000000000E+00 0.  1.
         13    1    3    3    0    0 -0.22222837922E+02 -0.13776442706E+02 -0.27984457850E+02  0.38298495794E+02  0.00000000000E+00 0. -1.
        -13    1    4    4    0    0  0.54466363770E+02 -0.43248939412E+02 -0.17258872809E+02  0.71658385645E+02  0.00000000000E+00 0.  1.
         13    1    4    4    0    0 -0.23679543475E+02  0.75515415659E+01  0.14431762656E+02  0.28740604248E+02  0.00000000000E+00 0. -1.
         -2    1    1    2    0  502 -0.85029733691E+02  0.30767610145E+02 -0.65698793884E+02  0.11177223700E+03  0.00000000000E+00 0.  1.
<scales pt_clust_5="13000.00000" pt_clust_6="13000.00000" pt_clust_7="13000.00000" pt_clust_8="13000.00000" pt_clust_9="13000.00000"></scales>
<clustering>
<clus scale="   88.599">  7  8 -1 -1</clus>
<clus scale="   90.425">  7  9 -1 -1</clus>
<clus scale="   92.180">  5  6 -1 -1</clus>
<clus scale="  107.069">  1  5  2 -1</clus>
<clus scale="  200.800">  2  5  1 -1</clus>
</clustering>
</event>
<event>
 9    1  0.3303741E-006  0.2171704E+03  0.7546771E-02  0.1150111E+00
          2   -1    0    0  502    0 -0.00000000000E+00  0.00000000000E+00  0.26645108866E+03  0.26645108866E+03  0.00000000000E+00 0. -1.
         21   -1    0    0  501  502  0.00000000000E+00 -0.00000000000E+00 -0.14090187686E+03  0.14090187686E+03  0.00000000000E+00 0. -1.
         23    2    1    2    0    0 -0.81617604364E+02  0.93942423917E+02  0.10938555922E+03  0.18958186016E+03  0.92138313333E+02 0.  0.
         23    2    1    2    0    0 -0.27514692586E+01 -0.97362301602E+02  0.20644436199E+02  0.13321394380E+03  0.88502958831E+02 0.  0.
        -11    1    4    4    0    0 -0.23722598089E+02  0.52248844448E+01 -0.62983231687E+01  0.25094420740E+02  0.00000000000E+00 0.  1.
         11    1    4    4    0    0  0.20971128830E+02 -0.10258718605E+03  0.26942759368E+02  0.10811952306E+03  0.00000000000E+00 0. -1.
        -11    1    3    3    0    0 -0.15620945523E+02 -0.16916130371E+02  0.31015399524E+02  0.38628026268E+02  0.00000000000E+00 0.  1.
         11    1    3    3    0    0 -0.65996658842E+02  0.11085855429E+03  0.78370159695E+02  0.15095383389E+03  0.00000000000E+00 0. -1.
          2    1    1    2  501    0  0.84369073623E+02  0.34198776852E+01 -0.44807836124E+01  0.84557161549E+02  0.00000000000E+00 0. -1.
<scales pt_clust_5="13000.00000" pt_clust_6="13000.00000" pt_clust_7="13000.00000" pt_clust_8="13000.00000" pt_clust_9="13000.00000"></scales>
<clustering>
<clus scale="   88.503">  5  6 -1 -1</clus>
<clus scale="   84.438">  5  9 -1 -1</clus>
<clus scale="   92.138">  7  8 -1 -1</clus>
<clus scale="  154.842">  1  7  2 -1</clus>
<clus scale="  217.170">  2  5  1 -1</clus>
</clustering>
</event>
<event>
 9    1  0.3303741E-006  0.2247460E+03  0.7546771E-02  0.1159658E+00
          2   -1    0    0  502    0 -0.00000000000E+00  0.00000000000E+00  0.20369089573E+03  0.20369089573E+03  0.00000000000E+00 0. -1.
         21   -1    0    0  501  502  0.00000000000E+00 -0.00000000000E+00 -0.20052892209E+03  0.20052892209E+03  0.00000000000E+00 0. -1.
         23    2    1    2    0    0  0.63072606906E+02  0.11894327975E+02  0.10879791090E+03  0.15588597518E+03  0.91344529463E+02 0.  0.
         23    2    1    2    0    0 -0.53779509852E+02  0.68838733718E+02 -0.10717097961E+03  0.16705318529E+03  0.93755751321E+02 0.  0.
        -11    1    3    3    0    0  0.40731080888E+02  0.25615842752E+02  0.11852626808E+03  0.12792055571E+03  0.00000000000E+00 0. -1.
         11    1    3    3    0    0  0.22341526018E+02 -0.13721514777E+02 -0.97283571785E+01  0.27965419467E+02  0.00000000000E+00 0.  1.
        -13    1    4    4    0    0 -0.51617895152E+01  0.20179615987E+02  0.15805251389E+02  0.26147025526E+02  0.00000000000E+00 0.  1.
         13    1    4    4    0    0 -0.48617720336E+02  0.48659117730E+02 -0.12297623100E+03  0.14090615977E+03  0.00000000000E+00 0. -1.
          2    1    1    2  501    0 -0.92930970544E+01 -0.80733061693E+02  0.15350423602E+01  0.81280657343E+02  0.00000000000E+00 0. -1.
<scales pt_clust_5="13000.00000" pt_clust_6="13000.00000" pt_clust_7="13000.00000" pt_clust_8="13000.00000" pt_clust_9="13000.00000"></scales>
<clustering>
<clus scale="   91.345">  5  6 -1 -1</clus>
<clus scale="   93.756">  7  8 -1 -1</clus>
<clus scale="   81.266">  7  9 -1 -1</clus>
<clus scale="  111.640">  1  5  2 -1</clus>
<clus scale="  224.746">  2  5  1 -1</clus>
</clustering>
</event>
<event>
 9    1  0.3303741E-006  0.3139979E+03  0.7546771E-02  0.1124565E+00
         21   -1    0    0  501  502  0.00000000000E+00  0.00000000000E+00  0.84753133630E+02  0.84753133630E+02  0.00000000000E+00 0. -1.
          2   -1    0    0  502    0 -0.00000000000E+00 -0.00000000000E+00 -0.51067970147E+03  0.51067970147E+03  0.00000000000E+00 0. -1.
         23    2    1    2    0    0  0.21441498829E+01  0.23749613262E+02 -0.14884412337E+03  0.17666156534E+03  0.92119998364E+02 0.  0.
         23    2    1    2    0    0  0.30974524329E+02 -0.29507311446E+01 -0.33504446763E+03  0.34884962640E+03  0.92049652805E+02 0.  0.
        -13    1    4    4    0    0 -0.14809134582E+02  0.30264658896E+02 -0.68113342673E+02  0.75991364610E+02  0.00000000000E+00 0.  1.
         13    1    4    4    0    0  0.45783658912E+02 -0.33215390041E+02 -0.26693112496E+03  0.27285826179E+03  0.00000000000E+00 0. -1.
        -13    1    3    3    0    0 -0.33372844115E+02  0.41295662913E+02 -0.64992962107E+02  0.83923558214E+02  0.00000000000E+00 0.  1.
         13    1    3    3    0    0  0.35516993998E+02 -0.17546049652E+02 -0.83851161265E+02  0.92738007131E+02  0.00000000000E+00 0. -1.
          2    1    1    2  501    0 -0.33118674212E+02 -0.20798882117E+02  0.57962023166E+02  0.69921643348E+02  0.00000000000E+00 0. -1.
<scales pt_clust_5="13000.00000" pt_clust_6="13000.00000" pt_clust_7="13000.00000" pt_clust_8="13000.00000" pt_clust_9="13000.00000"></scales>
<clustering>
<clus scale="   92.050">  5  6 -1 -1</clus>
<clus scale="   39.108">  5  9 -1 -1</clus>
<clus scale="   92.120">  7  8 -1 -1</clus>
<clus scale="   95.156">  2  7  1 -1</clus>
<clus scale="  313.998">  1  5  2 -1</clus>
</clustering>
</event>
<event>
 9    1  0.3303741E-006  0.1736599E+03  0.7546771E-02  0.1190024E+00
         21   -1    0    0  501  502  0.00000000000E+00  0.00000000000E+00  0.14179187207E+03  0.14179187207E+03  0.00000000000E+00 0.  1.
         -2   -1    0    0    0  501 -0.00000000000E+00 -0.00000000000E+00 -0.16823128429E+03  0.16823128429E+03  0.00000000000E+00 0.  1.
         23    2    1    2    0    0  0.21236756303E+02  0.79990174069E+02 -0.56114120610E+02  0.13384612582E+03  0.88975070105E+02 0.  0.
         23    2    1    2    0    0  0.41523594277E+01 -0.30369254415E+01  0.84462109112E+01  0.92409144230E+02  0.91878433017E+02 0.  0.
        -11    1    3    3    0    0  0.50949927515E+02  0.70586231738E+02 -0.54357971418E+02  0.10263089341E+03  0.00000000000E+00 0.  1.
         11    1    3    3    0    0 -0.29713171212E+02  0.94039423318E+01 -0.17561491919E+01  0.31215232417E+02  0.00000000000E+00 0. -1.
        -11    1    4    4    0    0 -0.19512729354E+02  0.30111043123E+02  0.29600280837E+02  0.46514493982E+02  0.00000000000E+00 0.  1.
         11    1    4    4    0    0  0.23665088781E+02 -0.33147968564E+02 -0.21154069926E+02  0.45894650248E+02  0.00000000000E+00 0. -1.
         -2    1    1    2    0  502 -0.25389115731E+02 -0.76953248628E+02  0.21228497479E+02  0.83767886312E+02  0.00000000000E+00 0.  1.
<scales pt_clust_5="13000.00000" pt_clust_6="13000.00000" pt_clust_7="13000.00000" pt_clust_8="13000.00000" pt_clust_9="13000.00000"></scales>
<clustering>
<clus scale="   88.975">  5  6 -1 -1</clus>
<clus scale="   91.878">  7  8 -1 -1</clus>
<clus scale="   81.033">  7  9 -1 -1</clus>
<clus scale="  121.515">  2  5  1 -1</clus>
<clus scale="  173.660">  1  5  2 -1</clus>
</clustering>
</event>
<event>
 9    1  0.3303741E-006  0.2655709E+03  0.7546771E-02  0.1136521E+00
          1   -1    0    0  502    0 -0.00000000000E+00  0.00000000000E+00  0.18161893246E+03  0.18161893246E+03  0.00000000000E+00 0. -1.
         21   -1    0    0  501  502  0.00000000000E+00 -0.00000000000E+00 -0.25010172178E+03  0.25010172178E+03  0.00000000000E+00 0.  1.
         23    2    1    2    0    0 -0.24408627677E+02  0.69339762900E+02 -0.11250208564E+03  0.16252633798E+03  0.91401900631E+02 0.  0.
         23    2    1    2    0    0  0.78240365000E+02 -0.10058138291E+03  0.10104703210E+03  0.18477833785E+03  0.87717513288E+02 0.  0.
        -11    1    3    3    0    0  0.28850723282E+02  0.19447604856E+02 -0.69753716901E+02  0.77949692688E+02  0.00000000000E+00 0.  1.
         11    1    3    3    0    0 -0.53259350959E+02  0.49892158043E+02 -0.42748368743E+02  0.84576645293E+02  0.00000000000E+00 0. -1.
        -13    1    4    4    0    0  0.59477988950E+02 -0.54743885244E+02  0.10426617346E+02  0.81506064133E+02  0.00000000000E+00 0.  1.
         13    1    4    4    0    0  0.18762376050E+02 -0.45837497667E+02  0.90620414759E+02  0.10327227372E+03  0.00000000000E+00 0. -1.
          1    1    1    2  501    0 -0.53831737323E+02  0.31241620011E+02 -0.57027735777E+02  0.84415978416E+02  0.00000000000E+00 0. -1.
<scales pt_clust_5="13000.00000" pt_clust_6="13000.00000" pt_clust_7="13000.00000" pt_clust_8="13000.00000" pt_clust_9="13000.00000"></scales>
<clustering>
<clus scale="   87.718">  7  8 -1 -1</clus>
<clus scale="   62.241">  7  9 -1 -1</clus>
<clus scale="   91.402">  5  6 -1 -1</clus>
<clus scale="  117.295">  1  5  2 -1</clus>
<clus scale="  265.571">  2  5  1 -1</clus>
</clustering>
</event>
<event>
 9    1  0.3303741E-006  0.2812137E+03  0.7546771E-02  0.1114467E+00
         21   -1    0    0  501  502  0.00000000000E+00  0.00000000000E+00  0.66735068504E+03  0.66735068504E+03  0.00000000000E+00 0. -1.
          1   -1    0    0  502    0 -0.00000000000E+00 -0.00000000000E+00 -0.76856606401E+02  0.76856606401E+02  0.00000000000E+00 0. -1.
         23    2    1    2    0    0 -0.98049663424E+02  0.10510775279E+03  0.24923342201E+03  0.30200826824E+03  0.91816769957E+02 0.  0.
         23    2    1    2    0    0 -0.14892366103E+02 -0.22643824135E+02  0.26801218353E+03  0.28433344628E+03  0.90996993447E+02 0.  0.
        -13    1    4    4    0    0 -0.27381058404E+02 -0.54240076009E+02  0.16259442561E+03  0.17357607970E+03  0.00000000000E+00 0. -1.
         13    1    4    4    0    0  0.12488692301E+02  0.31596251875E+02  0.10541775792E+03  0.11075736658E+03  0.00000000000E+00 0.  1.
        -13    1    3    3    0    0 -0.95890215847E+02  0.55928718387E+02  0.11878994162E+03  0.16258537839E+03  0.00000000000E+00 0. -1.
         13    1    3    3    0    0 -0.21594475767E+01  0.49179034407E+02  0.13044348039E+03  0.13942288985E+03  0.00000000000E+00 0.  1.
          1    1    1    2  501    0  0.11294202953E+03 -0.82463928659E+02  0.73248473106E+02  0.15786557692E+03  0.00000000000E+00 0. -1.
<scales pt_clust_5="13000.00000" pt_clust_6="13000.00000" pt_clust_7="13000.00000" pt_clust_8="13000.00000" pt_clust_9="13000.00000"></scales>
<clustering>
<clus scale="   90.997">  5  6 -1 -1</clus>
<clus scale="   91.817">  7  8 -1 -1</clus>
<clus scale="  139.844">  5  9 -1 -1</clus>
<clus scale="  170.563">  2  7  1 -1</clus>
<clus scale="  281.214">  1  5  2 -1</clus>
</clustering>
</event>
<event>
 9    1  0.3303741E-006  0.3778410E+03  0.7546771E-02  0.1058767E+00
          1   -1    0    0  502    0 -0.00000000000E+00  0.00000000000E+00  0.21522896523E+03  0.21522896523E+03  0.00000000000E+00 0. -1.
         21   -1    0    0  501  502  0.00000000000E+00 -0.00000000000E+00 -0.61165514931E+03  0.61165514931E+03  0.00000000000E+00 0.  1.
         23    2    1    2    0    0  0.22118290154E+03  0.19623654735E+03 -0.49075888344E+02  0.31364334851E+03  0.92374502962E+02 0.  0.
         23    2    1    2    0    0 -0.20091733774E+02 -0.13028770927E+03 -0.19576216862E+03  0.25292198592E+03  0.90929309597E+02 0.  0.
        -11    1    4    4    0    0 -0.25451715892E+02 -0.68084699386E+02 -0.35427512762E+02  0.80860526791E+02  0.00000000000E+00 0. -1.
         11    1    4    4    0    0  0.53599821183E+01 -0.62203009883E+02 -0.16033465586E+03  0.17206145913E+03  0.00000000000E+00 0.  1.
        -11    1    3    3    0    0  0.17822914850E+03  0.19797773516E+03 -0.47773043769E+02  0.27063458150E+03  0.00000000000E+00 0.  1.
         11    1    3    3    0    0  0.42953753038E+02 -0.17411878140E+01 -0.13028445750E+01  0.43008767002E+02  0.00000000000E+00 0. -1.
          1    1    1    2  501    0 -0.20109116776E+03 -0.65948838077E+02 -0.15158812712E+03  0.26031878011E+03  0.00000000000E+00 0. -1.
<scales pt_clust_5="13000.00000" pt_clust_6="13000.00000" pt_clust_7="13000.00000" pt_clust_8="13000.00000" pt_clust_9="13000.00000"></scales>
<clustering>
<clus scale="   90.929">  5  6 -1 -1</clus>
<clus scale="   92.375">  7  8 -1 -1</clus>
<clus scale="  211.629">  5  9 -1 -1</clus>
<clus scale="  309.780">  1  7  2 -1</clus>
<clus scale="  377.841">  2  5  1 -1</clus>
</clustering>
</event>
<event>
 9    1  0.3303741E-006  0.2134977E+03  0.7546771E-02  0.1174820E+00
          1   -1    0    0  502    0 -0.00000000000E+00  0.00000000000E+00  0.17959459762E+03  0.17959459762E+03  0.00000000000E+00 0. -1.
         21   -1    0    0  501  502  0.00000000000E+00 -0.00000000000E+00 -0.14441872699E+03  0.14441872699E+03  0.00000000000E+00 0. -1.
         23    2    1    2    0    0  0.10769024478E+02  0.43263898534E+01  0.58958852612E+02  0.10919504930E+03  0.91174135327E+02 0.  0.
         23    2    1    2    0    0  0.43994469209E+01  0.81032915735E+02  0.27822494713E+01  0.12414300251E+03  0.93904502523E+02 0.  0.
        -13    1    3    3    0    0  0.31371539238E+02  0.11876801742E+02  0.74903146356E+02  0.82071391043E+02  0.00000000000E+00 0.  1.
         13    1    3    3    0    0 -0.20602514760E+02 -0.75504118890E+01 -0.15944293744E+02  0.27123658255E+02  0.00000000000E+00 0. -1.
        -13    1    4    4    0    0  0.45506013817E+02  0.21332736564E+02 -0.79042865476E+01  0.50875934278E+02  0.00000000000E+00 0.  1.
         13    1    4    4    0    0 -0.41106566896E+02  0.59700179171E+02  0.10686536019E+02  0.73267068231E+02  0.00000000000E+00 0. -1.
          1    1    1    2  501    0 -0.15168471399E+02 -0.85359305589E+02 -0.26565231455E+02  0.90675272800E+02  0.00000000000E+00 0. -1.
<scales pt_clust_5="13000.00000" pt_clust_6="13000.00000" pt_clust_7="13000.00000" pt_clust_8="13000.00000" pt_clust_9="13000.00000"></scales>
<clustering>
<clus scale="   91.174">  5  6 -1 -1</clus>
<clus scale="   91.910">  1  5  2 -1</clus>
<clus scale="   93.905">  7  8 -1 -1</clus>
<clus scale="   84.699">  7  9 -1 -1</clus>
<clus scale="  213.498">  2  5  1 -1</clus>
</clustering>
</event>
<event>
 9    1  0.3303741E-006  0.8361053E+03  0.7546771E-02  0.1010670E+00
         21   -1    0    0  501  502  0.00000000000E+00  0.00000000000E+00  0.64534062627E+03  0.64534062627E+03  0.00000000000E+00 0.  1.
         -1   -1    0    0    0  501 -0.00000000000E+00 -0.00000000000E+00 -0.42046019771E+03  0.42046019771E+03  0.00000000000E+00 0.  1.
         23    2    1    2    0    0 -0.53871053526E+01  0.73380605880E+02 -0.11381777715E+03  0.16369849086E+03  0.91809450998E+02 0.  0.
         23    2    1    2    0    0  0.14202850371E+03  0.82323300669E+02 -0.23027859520E+03  0.29658670307E+03  0.89365649619E+02 0.  0.
        -13    1    3    3    0    0 -0.25089128409E+02 -0.13311840834E+02 -0.22320764461E+02  0.36123205794E+02  0.00000000000E+00 0. -1.
         13    1    3    3    0    0  0.19702023057E+02  0.86692446714E+02 -0.91497012686E+02  0.12757528507E+03  0.00000000000E+00 0.  1.
        -13    1    4    4    0    0  0.45897075785E+02 -0.15492888788E+02 -0.76379037119E+02  0.90445168361E+02  0.00000000000E+00 0.  1.
         13    1    4    4    0    0  0.96131427924E+02  0.97816189458E+02 -0.15389955809E+03  0.20614153471E+03  0.00000000000E+00 0. -1.
         -1    1    1    2    0  502 -0.13664139836E+03 -0.15570390655E+03  0.56897680090E+03  0.60551563004E+03  0.00000000000E+00 0.  1.
<scales pt_clust_5="13000.00000" pt_clust_6="13000.00000" pt_clust_7="13000.00000" pt_clust_8="13000.00000" pt_clust_9="13000.00000"></scales>
<clustering>
<clus scale="   89.366">  7  8 -1 -1</clus>
<clus scale="   91.809">  5  6 -1 -1</clus>
<clus scale="  117.655">  2  5  1 -1</clus>
<clus scale="  203.840">  7  9 -1 -1</clus>
<clus scale="  836.105">  1  5  2 -1</clus>
</clustering>
</event>
<event>
 9    1  0.3303741E-006  0.4178233E+03  0.7546771E-02  0.1067159E+00
          1   -1    0    0  502    0 -0.00000000000E+00  0.00000000000E+00  0.27218394145E+03  0.27218394145E+03  0.00000000000E+00 0. -1.
         21   -1    0    0  501  502  0.00000000000E+00 -0.00000000000E+00 -0.36198761557E+03  0.36198761557E+03  0.00000000000E+00 0. -1.
         23    2    1    2    0    0 -0.10141846732E+03  0.11980797253E+03  0.58857186788E+02  0.19068946023E+03  0.90877092880E+02 0.  0.
         23    2    1    2    0    0 -0.24381600934E+01 -0.22256048517E+02  0.11203140469E+03  0.14639114392E+03  0.91531716154E+02 0.  0.
        -13    1    4    4    0    0  0.22874006656E+02  0.29075754784E+02  0.44446538622E+02  0.57828319120E+02  0.00000000000E+00 0.  1.
         13    1    4    4    0    0 -0.25312166749E+02 -0.51331803301E+02  0.67584866065E+02  0.88562824801E+02  0.00000000000E+00 0. -1.
        -13    1    3    3    0    0 -0.10199621321E+03  0.58645505214E+02  0.53631521822E+02  0.12930144208E+03  0.00000000000E+00 0. -1.
         13    1    3    3    0    0  0.57774588087E+00  0.61162467319E+02  0.52256649661E+01  0.61388018156E+02  0.00000000000E+00 0.  1.
          1    1    1    2  501    0  0.10385662742E+03 -0.97551924016E+02 -0.26069226559E+03  0.29709095287E+03  0.00000000000E+00 0. -1.
<scales pt_clust_5="13000.00000" pt_clust_6="13000.00000" pt_clust_7="13000.00000" pt_clust_8="13000.00000" pt_clust_9="13000.00000"></scales>
<clustering>
<clus scale="   90.877">  7  8 -1 -1</clus>
<clus scale="   91.532">  5  6 -1 -1</clus>
<clus scale="  142.487">  5  9 -1 -1</clus>
<clus scale="  181.379">  1  7  2 -1</clus>
<clus scale="  417.823">  2  5  1 -1</clus>
</clustering>
</event>
<event>
 9    1  0.3303741E-006  0.3216785E+03  0.7546771E-02  0.1104701E+00
         21   -1    0    0  501  502  0.00000000000E+00  0.00000000000E+00  0.50503142446E+02  0.50503142446E+02  0.00000000000E+00 0. -1.
          2   -1    0    0  502    0 -0.00000000000E+00 -0.00000000000E+00 -0.10895515490E+04  0.10895515490E+04  0.00000000000E+00 0. -1.
         23    2    1    2    0    0 -0.74618829436E+02 -0.75991147302E+02 -0.36515003604E+03  0.39331773455E+03  0.10010827794E+03 0.  0.
         23    2    1    2    0    0  0.17408678405E+03  0.11791204982E+01 -0.43615725833E+03  0.47838727873E+03  0.91179141011E+02 0.  0.
        -13    1    4    4    0    0  0.75551959487E+02 -0.19630493319E+02 -0.29390569473E+03  0.30409539990E+03  0.00000000000E+00 0.  1.
         13    1    4    4    0    0  0.98534824559E+02  0.20809613817E+02 -0.14225156360E+03  0.17429187883E+03  0.00000000000E+00 0. -1.
        -13    1    3    3    0    0 -0.35208732891E+02  0.18623334792E+02 -0.14681843091E+03  0.15212539277E+03  0.00000000000E+00 0.  1.
         13    1    3    3    0    0 -0.39410096544E+02 -0.94614482094E+02 -0.21833160513E+03  0.24119234177E+03  0.00000000000E+00 0. -1.
          2    1    1    2  501    0 -0.99467954610E+02  0.74812026804E+02 -0.23774111215E+03  0.26834967813E+03  0.00000000000E+00 0. -1.
<scales pt_clust_5="13000.00000" pt_clust_6="13000.00000" pt_clust_7="13000.00000" pt_clust_8="13000.00000" pt_clust_9="13000.00000"></scales>
<clustering>
<clus scale="   91.179">  5  6 -1 -1</clus>
<clus scale="  100.108">  7  8 -1 -1</clus>
<clus scale="  124.462">  5  9 -1 -1</clus>
<clus scale="  146.165">  2  7  1 -1</clus>
<clus scale="  321.679">  1  5  2 -1</clus>
</clustering>
</event>
<event>
 9    1  0.3303741E-006  0.3568673E+03  0.7546771E-02  0.1096925E+00
         21   -1    0    0  501  502  0.00000000000E+00  0.00000000000E+00  0.52624456093E+03  0.52624456093E+03  0.00000000000E+00 0. -1.
          3   -1    0    0  502    0 -0.00000000000E+00 -0.00000000000E+00 -0.11757896363E+03  0.11757896363E+03  0.00000000000E+00 0. -1.
         23    2    1    2    0    0 -0.36896801724E+02  0.86489007386E+02  0.57034551178E+02  0.14282584407E+03  0.91129354924E+02 0.  0.
         23    2    1    2    0    0  0.17389948877E+03 -0.75031640206E+02  0.26656949230E+03  0.33932988699E+03  0.90634975346E+02 0.  0.
        -11    1    3    3    0    0 -0.21039600956E+02 -0.12766425526E+02  0.29876770828E+02  0.38707465226E+02  0.00000000000E+00 0. -1.
         11    1    3    3    0    0 -0.15857200768E+02  0.99255432912E+02  0.27157780350E+02  0.10411837884E+03  0.00000000000E+00 0.  1.
        -13    1    4    4    0    0  0.59445383942E+02 -0.73479600599E+02  0.10432925003E+03  0.14077498992E+03  0.00000000000E+00 0. -1.
         13    1    4    4    0    0  0.11445410482E+03 -0.15520396067E+01  0.16224024227E+03  0.19855489707E+03  0.00000000000E+00 0.  1.
          3    1    1    2  501    0 -0.13700268704E+03 -0.11457367181E+02  0.85061553814E+02  0.16166779350E+03  0.00000000000E+00 0. -1.
<scales pt_clust_5="13000.00000" pt_clust_6="13000.00000" pt_clust_7="13000.00000" pt_clust_8="13000.00000" pt_clust_9="13000.00000"></scales>
<clustering>
<clus scale="   90.635">  7  8 -1 -1</clus>
<clus scale="   91.129">  5  6 -1 -1</clus>
<clus scale="  130.944">  2  5  1 -1</clus>
<clus scale="  159.359">  7  9 -1 -1</clus>
<clus scale="  356.867">  1  5  2 -1</clus>
</clustering>
</event>
<event>
 9    1  0.3303741E-006  0.1771906E+03  0.7546771E-02  0.1195918E+00
         21   -1    0    0  501  502  0.00000000000E+00  0.00000000000E+00  0.20261362736E+03  0.20261362736E+03  0.00000000000E+00 0.  1.
         -1   -1    0    0    0  501 -0.00000000000E+00 -0.00000000000E+00 -0.96358199355E+02  0.96358199355E+02  0.00000000000E+00 0.  1.
         23    2    1    2    0    0 -0.42334994915E+02  0.44409167809E+01  0.22492456258E+02  0.10298009705E+03  0.91033050390E+02 0.  0.
         23    2    1    2    0    0 -0.17447219232E+02  0.16786976177E+02  0.10193776814E+02  0.98847697369E+02  0.95292949169E+02 0.  0.
        -13    1    4    4    0    0  0.34529208637E+02 -0.14006247663E+02  0.93998747656E+01  0.38429140874E+02  0.00000000000E+00 0. -1.
         13    1    4    4    0    0 -0.51976427869E+02  0.30793223841E+02  0.79390204853E+00  0.60418556495E+02  0.00000000000E+00 0.  1.
        -13    1    3    3    0    0 -0.35560825951E+02 -0.30900245644E+02 -0.16504038142E+02  0.49917740315E+02  0.00000000000E+00 0.  1.
         13    1    3    3    0    0 -0.67741689648E+01  0.35341162425E+02  0.38996494399E+02  0.53062356734E+02  0.00000000000E+00 0. -1.
         -1    1    1    2    0  502  0.59782214147E+02 -0.21227892958E+02  0.73569194931E+02  0.97144032296E+02  0.00000000000E+00 0.  1.
<scales pt_clust_5="13000.00000" pt_clust_6="13000.00000" pt_clust_7="13000.00000" pt_clust_8="13000.00000" pt_clust_9="13000.00000"></scales>
<clustering>
<clus scale="   91.033">  7  8 -1 -1</clus>
<clus scale="   95.293">  5  6 -1 -1</clus>
<clus scale="   63.439">  5  9 -1 -1</clus>
<clus scale="  100.494">  2  7  1 -1</clus>
<clus scale="  177.191">  1  5  2 -1</clus>
</clustering>
</event>
<event>
 9    1  0.3303741E-006  0.3655982E+03  0.7546771E-02  0.1091221E+00
         -4   -1    0    0    0  501 -0.00000000000E+00  0.00000000000E+00  0.10249846106E+03  0.10249846106E+03  0.00000000000E+00 0.  1.
         21   -1    0    0  501  502  0.00000000000E+00 -0.00000000000E+00 -0.62712013891E+03  0.62712013891E+03  0.00000000000E+00 0.  1.
         23    2    1    2    0    0  0.43498808658E+02 -0.96945704307E+02 -0.14313693107E+03  0.20123175055E+03  0.93356416266E+02 0.  0.
         23    2    1    2    0    0 -0.12155111805E+03 -0.78096217207E+02 -0.13873496878E+03  0.21909848557E+03  0.88786605824E+02 0.  0.
        -11    1    4    4    0    0  0.92072661048E+01 -0.21644988505E+02 -0.56909409172E+01  0.24200538941E+02  0.00000000000E+00 0. -1.
         11    1    4    4    0    0 -0.13075838416E+03 -0.56451228702E+02 -0.13304402786E+03  0.19489794663E+03  0.00000000000E+00 0.  1.
        -13    1    3    3    0    0  0.28355378502E+02  0.33559328871E+01 -0.71663252168E+02  0.77142151168E+02  0.00000000000E+00 0. -1.
         13    1    3    3    0    0  0.15143430156E+02 -0.10030163719E+03 -0.71473678898E+02  0.12408959939E+03  0.00000000000E+00 0.  1.
         -4    1    1    2    0  502  0.78052309394E+02  0.17504192151E+03 -0.24274977800E+03  0.30928836385E+03  0.00000000000E+00 0.  1.
<scales pt_clust_5="13000.00000" pt_clust_6="13000.00000" pt_clust_7="13000.00000" pt_clust_8="13000.00000" pt_clust_9="13000.00000"></scales>
<clustering>
<clus scale="   88.787">  5  6 -1 -1</clus>
<clus scale="   93.356">  7  8 -1 -1</clus>
<clus scale="  141.443">  1  7  2 -1</clus>
<clus scale="  163.558">  5  9 -1 -1</clus>
<clus scale="  365.598">  2  5  1 -1</clus>
</clustering>
</event>
<event>
 9    1  0.3303741E-006  0.3764518E+03  0.7546771E-02  0.1074610E+00
         21   -1    0    0  501  502  0.00000000000E+00  0.00000000000E+00  0.99536953848E+03  0.99536953848E+03  0.00000000000E+00 0.  1.
         -1   -1    0    0    0  501 -0.00000000000E+00 -0.00000000000E+00 -0.97669347177E+02  0.97669347177E+02  0.00000000000E+00 0.  1.
         23    2    1    2    0    0 -0.13822413236E+03  0.11742143808E+03  0.13682492503E+03  0.24412953038E+03  0.89355820225E+02 0.  0.
         23    2    1    2    0    0  0.30248377379E+02 -0.90948311946E+00  0.27602717695E+02  0.98627788256E+02  0.89720338265E+02 0.  0.
        -11    1    3    3    0    0 -0.49971109755E+02  0.21224631151E+01  0.92844889554E+01  0.50870604429E+02  0.00000000000E+00 0. -1.
         11    1    3    3    0    0 -0.88253022608E+02  0.11529897496E+03  0.12754043608E+03  0.19325892595E+03  0.00000000000E+00 0.  1.
        -13    1    4    4    0    0  0.42309813280E+02  0.32942336750E+02  0.51254568197E+00  0.53624439889E+02  0.00000000000E+00 0. -1.
         13    1    4    4    0    0 -0.12061435901E+02 -0.33851819870E+02  0.27090172013E+02  0.45003348366E+02  0.00000000000E+00 0.  1.
         -1    1    1    2    0  502  0.10797575498E+03 -0.11651195496E+03  0.73327254857E+03  0.75028156702E+03  0.00000000000E+00 0.  1.
<scales pt_clust_5="13000.00000" pt_clust_6="13000.00000" pt_clust_7="13000.00000" pt_clust_8="13000.00000" pt_clust_9="13000.00000"></scales>
<clustering>
<clus scale="   89.356">  5  6 -1 -1</clus>
<clus scale="   89.720">  7  8 -1 -1</clus>
<clus scale="  158.852">  7  9 -1 -1</clus>
<clus scale="  202.183">  2  5  1 -1</clus>
<clus scale="  376.452">  1  5  2 -1</clus>
</clustering>
</event>
<event>
 9    1  0.3303741E-006  0.1503401E+03  0.7546771E-02  0.1205787E+00
         21   -1    0    0  501  502  0.00000000000E+00  0.00000000000E+00  0.18698945368E+02  0.18698945368E+02  0.00000000000E+00 0.  1.
          1   -1    0    0  502    0 -0.00000000000E+00 -0.00000000000E+00 -0.11101147841E+04  0.11101147841E+04  0.00000000000E+00 0. -1.
         23    2    1    2    0    0  0.54331251374E+02 -0.79440573821E+02 -0.61745535118E+03  0.63158069068E+03  0.91544352606E+02 0.  0.
         23    2    1    2    0    0 -0.28371010759E+02  0.45262550550E+02 -0.35817342481E+03  0.37374735029E+03  0.92440612666E+02 0.  0.
        -13    1    3    3    0    0  0.45117485385E+02  0.44144636080E+01 -0.15497009915E+03  0.16146456765E+03  0.00000000000E+00 0. -1.
         13    1    3    3    0    0  0.92137659895E+01 -0.83855037429E+02 -0.46248525202E+03  0.47011612302E+03  0.00000000000E+00 0.  1.
        -13    1    4    4    0    0  0.25516431111E+02  0.41463307898E+02 -0.11950550796E+03  0.12904208845E+03  0.00000000000E+00 0.  1.
         13    1    4    4    0    0 -0.53887441870E+02  0.37992426522E+01 -0.23866791685E+03  0.24470526184E+03  0.00000000000E+00 0. -1.
          1    1    1    2  501    0 -0.25960240615E+02  0.34178023270E+02 -0.11578706278E+03  0.12348568854E+03  0.00000000000E+00 0. -1.
<scales pt_clust_5="13000.00000" pt_clust_6="13000.00000" pt_clust_7="13000.00000" pt_clust_8="13000.00000" pt_clust_9="13000.00000"></scales>
<clustering>
<clus scale="   91.544">  5  6 -1 -1</clus>
<clus scale="   92.441">  7  8 -1 -1</clus>
<clus scale="   42.919">  7  9 -1 -1</clus>
<clus scale="  132.827">  2  5  1 -1</clus>
<clus scale="  150.340">  1  5  2 -1</clus>
</clustering>
</event>
<event>
 9    1  0.3303741E-006  0.3117399E+03  0.7546771E-02  0.1115738E+00
         21   -1    0    0  501  502  0.00000000000E+00  0.00000000000E+00  0.32278352462E+03  0.32278352462E+03  0.00000000000E+00 0. -1.
          1   -1    0    0  502    0 -0.00000000000E+00 -0.00000000000E+00 -0.18127693905E+03  0.18127693905E+03  0.00000000000E+00 0. -1.
         23    2    1    2    0    0  0.78563228797E+02  0.30730296902E+01 -0.57520024428E+02  0.13420458059E+03  0.92307593457E+02 0.  0.
         23    2    1    2    0    0 -0.47729733209E+02 -0.33684951590E+02 -0.47643683071E+02  0.11938826503E+03  0.92578798300E+02 0.  0.
        -11    1    4    4    0    0 -0.38185909274E+02  0.89793818256E+01 -0.62004462473E+02  0.73371290923E+02  0.00000000000E+00 0.  1.
         11    1    4    4    0    0 -0.95438239345E+01 -0.42664333415E+02  0.14360779402E+02  0.46016974108E+02  0.00000000000E+00 0. -1.
        -11    1    3    3    0    0  0.58556053649E+02  0.39716648854E+02 -0.59443146840E+02  0.92410558495E+02  0.00000000000E+00 0. -1.
         11    1    3    3    0    0  0.20007175148E+02 -0.36643619163E+02  0.19231224121E+01  0.41794022092E+02  0.00000000000E+00 0.  1.
          1    1    1    2  501    0 -0.30833495588E+02  0.30611921899E+02  0.24667029306E+03  0.25046761805E+03  0.00000000000E+00 0. -1.
<scales pt_clust_5="13000.00000" pt_clust_6="13000.00000" pt_clust_7="13000.00000" pt_clust_8="13000.00000" pt_clust_9="13000.00000"></scales>
<clustering>
<clus scale="   92.308">  7  8 -1 -1</clus>
<clus scale="   92.579">  5  6 -1 -1</clus>
<clus scale="   43.449">  5  9 -1 -1</clus>
<clus scale="  121.253">  2  7  1 -1</clus>
<clus scale="  311.740">  1  5  2 -1</clus>
</clustering>
</event>
<event>
 9    1  0.3303741E-006  0.4920977E+03  0.7546771E-02  0.1033664E+00
          1   -1    0    0  502    0 -0.00000000000E+00  0.00000000000E+00  0.16996875153E+04  0.16996875153E+04  0.00000000000E+00 0. -1.
         21   -1    0    0  501  502  0.00000000000E+00 -0.00000000000E+00 -0.93758221446E+02  0.93758221446E+02  0.00000000000E+00 0. -1.
         23    2    1    2    0    0  0.25317872580E+03  0.10115547355E+03  0.78461660019E+03  0.83599357359E+03  0.94499464423E+02 0.  0.
         23    2    1    2    0    0  0.64782208818E+01  0.33499001195E+02  0.55016157894E+03  0.55860822808E+03  0.90560692932E+02 0.  0.
        -11    1    4    4    0    0 -0.23778421250E+02 -0.22746079117E+02  0.18528709707E+03  0.18818635916E+03  0.00000000000E+00 0.  1.
         11    1    4    4    0    0  0.30256642131E+02  0.56245080312E+02  0.36487448187E+03  0.37042186891E+03  0.00000000000E+00 0. -1.
        -11    1    3    3    0    0  0.74402808536E+02 -0.19462341260E+00  0.30985414779E+03  0.31866190343E+03  0.00000000000E+00 0.  1.
         11    1    3    3    0    0  0.17877591726E+03  0.10135009696E+03  0.47476245240E+03  0.51733167017E+03  0.00000000000E+00 0. -1.
          1    1    1    2  501    0 -0.25965694668E+03 -0.13465447474E+03  0.27115111472E+03  0.39884393507E+03  0.00000000000E+00 0. -1.
<scales pt_clust_5="13000.00000" pt_clust_6="13000.00000" pt_clust_7="13000.00000" pt_clust_8="13000.00000" pt_clust_9="13000.00000"></scales>
<clustering>
<clus scale="   90.561">  5  6 -1 -1</clus>
<clus scale="   94.499">  7  8 -1 -1</clus>
<clus scale="  288.552">  1  7  2 -1</clus>
<clus scale="  190.565">  5  9 -1 -1</clus>
<clus scale="  492.098">  2  5  1 -1</clus>
</clustering>
</event>
<event>
 9    1  0.3303741E-006  0.1914596E+03  0.7546771E-02  0.1179144E+00
          1   -1    0    0  502    0 -0.00000000000E+00  0.00000000000E+00  0.86422294595E+03  0.86422294595E+03  0.00000000000E+00 0. -1.
         21   -1    0    0  501  502  0.00000000000E+00 -0.00000000000E+00 -0.27304427189E+02  0.27304427189E+02  0.00000000000E+00 0. -1.
         23    2    1    2    0    0 -0.42039204695E+02  0.28707503392E+01  0.30006421751E+03  0.32155427538E+03  0.10762472508E+03 0.  0.
         23    2    1    2    0    0 -0.19894758880E+02  0.51862126761E+02  0.25425661273E+03  0.27553641995E+03  0.90489844618E+02 0.  0.
        -11    1    4    4    0    0 -0.11954904022E+02 -0.24774497210E+02  0.47493734176E+02  0.54884881599E+02  0.00000000000E+00 0.  1.
         11    1    4    4    0    0 -0.79398548588E+01  0.76636623971E+02  0.20676287856E+03  0.22065153836E+03  0.00000000000E+00 0. -1.
        -13    1    3    3    0    0 -0.32864037274E+02  0.51748977215E+02  0.12004228141E+03  0.13478928339E+03  0.00000000000E+00 0. -1.
         13    1    3    3    0    0 -0.91751674211E+01 -0.48878226876E+02  0.18002193610E+03  0.18676499200E+03  0.00000000000E+00 0.  1.
          1    1    1    2  501    0  0.61933963575E+02 -0.54732877100E+02  0.28259768852E+03  0.29443667780E+03  0.00000000000E+00 0. -1.
<scales pt_clust_5="13000.00000" pt_clust_6="13000.00000" pt_clust_7="13000.00000" pt_clust_8="13000.00000" pt_clust_9="13000.00000"></scales>
<clustering>
<clus scale="   90.490">  5  6 -1 -1</clus>
<clus scale="   82.653">  5  9 -1 -1</clus>
<clus scale="  107.625">  7  8 -1 -1</clus>
<clus scale="  115.580">  1  7  2 -1</clus>
<clus scale="  191.460">  2  5  1 -1</clus>
</clustering>
</event>
<event>
 9    1  0.3303741E-006  0.5178590E+03  0.7546771E-02  0.1067291E+00
          1   -1    0    0  502    0 -0.00000000000E+00  0.00000000000E+00  0.77286641493E+03  0.77286641493E+03  0.00000000000E+00 0. -1.
         21   -1    0    0  501  502  0.00000000000E+00 -0.00000000000E+00 -0.12684501360E+03  0.12684501360E+03  0.00000000000E+00 0. -1.
         23    2    1    2    0    0  0.25000403136E+02 -0.32689961179E+01  0.17787201415E+03  0.20161273895E+03  0.91507030322E+02 0.  0.
         23    2    1    2    0    0  0.45025399303E+02 -0.71694054697E+02  0.55183712233E+03  0.56571021195E+03  0.91304492018E+02 0.  0.
        -11    1    3    3    0    0 -0.22422002400E+02 -0.31374819864E+02  0.89534862959E+02  0.97486497518E+02  0.00000000000E+00 0. -1.
         11    1    3    3    0    0  0.47422405536E+02  0.28105823746E+02  0.88337151191E+02  0.10412624144E+03  0.00000000000E+00 0.  1.
        -13    1    4    4    0    0  0.23239620514E+02  0.17625278302E+02  0.83858005927E+02  0.88785672013E+02  0.00000000000E+00 0.  1.
         13    1    4    4    0    0  0.21785778788E+02 -0.89319332999E+02  0.46797911640E+03  0.47692453993E+03  0.00000000000E+00 0. -1.
          1    1    1    2  501    0 -0.70025802438E+02  0.74963050815E+02 -0.83687735152E+02  0.13238847763E+03  0.00000000000E+00 0. -1.
<scales pt_clust_5="13000.00000" pt_clust_6="13000.00000" pt_clust_7="13000.00000" pt_clust_8="13000.00000" pt_clust_9="13000.00000"></scales>
<clustering>
<clus scale="   91.304">  7  8 -1 -1</clus>
<clus scale="   91.507">  5  6 -1 -1</clus>
<clus scale="   94.917">  1  5  2 -1</clus>
<clus scale="  101.772">  7  9 -1 -1</clus>
<clus scale="  517.859">  2  5  1 -1</clus>
</clustering>
</event>
<event>
 9    1  0.3303741E-006  0.1615069E+03  0.7546771E-02  0.1208940E+00
         21   -1    0    0  501  502  0.00000000000E+00  0.00000000000E+00  0.13185366963E+03  0.13185366963E+03  0.00000000000E+00 0.  1.
         -4   -1    0    0    0  501 -0.00000000000E+00 -0.00000000000E+00 -0.43705071237E+03  0.43705071237E+03  0.00000000000E+00 0.  1.
         23    2    1    2    0    0  0.34085946957E+02  0.21088875459E+02 -0.37851506292E+03  0.39153468295E+03  0.91755995171E+02 0.  0.
         23    2    1    2    0    0  0.13448618311E+02 -0.33908795815E+02  0.13259064879E+02  0.99710421648E+02  0.91846032117E+02 0.  0.
        -11    1    3    3    0    0 -0.25911398149E+02  0.25592175562E+02 -0.19610686889E+03  0.19945993089E+03  0.00000000000E+00 0. -1.
         11    1    3    3    0    0  0.59997345105E+02 -0.45033001035E+01 -0.18240819403E+03  0.19207475206E+03  0.00000000000E+00 0.  1.
        -13    1    4    4    0    0  0.31503795793E+02 -0.43029384013E+02  0.39653577881E+02  0.66456175610E+02  0.00000000000E+00 0.  1.
         13    1    4    4    0    0 -0.18055177482E+02  0.91205881979E+01 -0.26394513002E+02  0.33254246039E+02  0.00000000000E+00 0. -1.
         -4    1    1    2    0  502 -0.47534565267E+02  0.12819920356E+02  0.60058955301E+02  0.77659277391E+02  0.00000000000E+00 0.  1.
<scales pt_clust_5="13000.00000" pt_clust_6="13000.00000" pt_clust_7="13000.00000" pt_clust_8="13000.00000" pt_clust_9="13000.00000"></scales>
<clustering>
<clus scale="   91.756">  5  6 -1 -1</clus>
<clus scale="   91.846">  7  8 -1 -1</clus>
<clus scale="   49.233">  7  9 -1 -1</clus>
<clus scale="  100.129">  2  5  1 -1</clus>
<clus scale="  161.507">  1  5  2 -1</clus>
</clustering>
</event>
<event>
 9    1  0.3303741E-006  0.3179291E+03  0.7546771E-02  0.1122811E+00
          2   -1    0    0  502    0 -0.00000000000E+00  0.00000000000E+00  0.28040253225E+03  0.28040253225E+03  0.00000000000E+00 0. -1.
         21   -1    0    0  501  502  0.00000000000E+00 -0.00000000000E+00 -0.42978820132E+03  0.42978820132E+03  0.00000000000E+00 0. -1.
         23    2    1    2    0    0  0.38818365920E+01  0.27256289815E+02  0.20973507763E+03  0.23055898492E+03  0.91709698227E+02 0.  0.
         23    2    1    2    0    0 -0.23472669534E+02  0.27616146329E+02  0.17805531736E+02  0.98228806401E+02  0.89544646370E+02 0.  0.
        -13    1    3    3    0    0  0.30970394331E+02  0.56716909615E+01  0.19149372180E+02  0.36851483800E+02  0.00000000000E+00 0.  1.
         13    1    3    3    0    0 -0.27088557739E+02  0.21584598853E+02  0.19058570545E+03  0.19370750112E+03  0.00000000000E+00 0. -1.
        -13    1    4    4    0    0  0.13018394807E+02  0.50710070925E+02  0.16969432206E+02  0.55035911240E+02  0.00000000000E+00 0. -1.
         13    1    4    4    0    0 -0.36491064341E+02 -0.23093924596E+02  0.83609953002E+00  0.43192895161E+02  0.00000000000E+00 0.  1.
          2    1    1    2  501    0  0.19590832942E+02 -0.54872436144E+02 -0.37692627844E+03  0.38140294226E+03  0.00000000000E+00 0. -1.
<scales pt_clust_5="13000.00000" pt_clust_6="13000.00000" pt_clust_7="13000.00000" pt_clust_8="13000.00000" pt_clust_9="13000.00000"></scales>
<clustering>
<clus scale="   89.545">  7  8 -1 -1</clus>
<clus scale="   58.265">  7  9 -1 -1</clus>
<clus scale="   91.710">  5  6 -1 -1</clus>
<clus scale="   95.753">  1  5  2 -1</clus>
<clus scale="  317.929">  2  5  1 -1</clus>
</clustering>
</event>
<event>
 9    1  0.3303741E-006  0.1934198E+03  0.7546771E-02  0.1185486E+00
         -3   -1    0    0    0  501 -0.00000000000E+00  0.00000000000E+00  0.16996317064E+03  0.16996317064E+03  0.00000000000E+00 0.  1.
         21   -1    0    0  501  502  0.00000000000E+00 -0.00000000000E+00 -0.14056499128E+03  0.14056499128E+03  0.00000000000E+00 0.  1.
         23    2    1    2    0    0 -0.31223959112E+02  0.24558349621E+02 -0.39818438533E+02  0.10509652632E+03  0.88779072078E+02 0.  0.
         23    2    1    2    0    0  0.72222030176E+02  0.85385315177E+01  0.91591544785E+02  0.14818757280E+03  0.91003392757E+02 0.  0.
        -11    1    3    3    0    0  0.15855318270E+02 -0.16997149558E+02 -0.35132822912E+02  0.42126113710E+02  0.00000000000E+00 0.  1.
         11    1    3    3    0    0 -0.47079277382E+02  0.41555499179E+02 -0.46856156214E+01  0.62970412613E+02  0.00000000000E+00 0. -1.
        -13    1    4    4    0    0  0.40377452255E+01 -0.30637387195E+02  0.51496195091E+01  0.31328444930E+02  0.00000000000E+00 0. -1.
         13    1    4    4    0    0  0.68184284950E+02  0.39175918713E+02  0.86441925276E+02  0.11685912787E+03  0.00000000000E+00 0.  1.
         -3    1    1    2    0  502 -0.40998071064E+02 -0.33096881139E+02 -0.22374926886E+02  0.57244062795E+02  0.00000000000E+00 0.  1.
<scales pt_clust_5="13000.00000" pt_clust_6="13000.00000" pt_clust_7="13000.00000" pt_clust_8="13000.00000" pt_clust_9="13000.00000"></scales>
<clustering>
<clus scale="   88.779">  5  6 -1 -1</clus>
<clus scale="   91.003">  7  8 -1 -1</clus>
<clus scale="   52.690">  7  9 -1 -1</clus>
<clus scale="   97.261">  1  5  2 -1</clus>
<clus scale="  193.420">  2  5  1 -1</clus>
</clustering>
</event>
<event>
 9    1  0.3986832E-006  0.2506457E+03  0.7546771E-02  0.1141871E+00
          2   -1    0    0  502    0 -0.00000000000E+00  0.00000000000E+00  0.16263591883E+03  0.16263591883E+03  0.00000000000E+00 0. -1.
         21   -1    0    0  501  502  0.00000000000E+00 -0.00000000000E+00 -0.28555172431E+03  0.28555172431E+03  0.00000000000E+00 0. -1.
         23    2    1    2    0    0 -0.79867549776E+02  0.21987255069E+02 -0.15264161956E+03  0.19578538328E+03  0.90389088900E+02 0.  0.
         23    2    1    2    0    0 -0.82940300353E+01 -0.50605122338E+01  0.10206015779E+03  0.13711463668E+03  0.91048053607E+02 0.  0.
        -11    1    4    4    0    0  0.20189207263E+02  0.22764214445E+02  0.90758832683E+02  0.95723451982E+02  0.00000000000E+00 0.  1.
         11    1    4    4    0    0 -0.28483237298E+02 -0.27824726679E+02  0.11301325109E+02  0.41391184701E+02  0.00000000000E+00 0. -1.
        -13    1    3    3    0    0 -0.23603540024E+00 -0.28348973318E+02 -0.32980537908E+02  0.43490641310E+02  0.00000000000E+00 0.  1.
         13    1    3    3    0    0 -0.79631514375E+02  0.50336228386E+02 -0.11966108165E+03  0.15229474197E+03  0.00000000000E+00 0. -1.
          2    1    1    2  501    0  0.88161579811E+02 -0.16926742835E+02 -0.72334343705E+02  0.11528762317E+03  0.00000000000E+00 0. -1.
<scales pt_clust_5="13000.00000" pt_clust_6="13000.00000" pt_clust_7="13000.00000" pt_clust_8="13000.00000" pt_clust_9="13000.00000"></scales>
<clustering>
<clus scale="   90.389">  7  8 -1 -1</clus>
<clus scale="   91.048">  5  6 -1 -1</clus>
<clus scale="   89.772">  5  9 -1 -1</clus>
<clus scale="  122.607">  1  7  2 -1</clus>
<clus scale="  250.646">  2  5  1 -1</clus>
</clustering>
</event>
<event>
 9    1  0.3303741E-006  0.1791858E+03  0.7546771E-02  0.1186825E+00
         21   -1    0    0  501  502  0.00000000000E+00  0.00000000000E+00  0.37290717043E+03  0.37290717043E+03  0.00000000000E+00 0.  1.
          2   -1    0    0  502    0 -0.00000000000E+00 -0.00000000000E+00 -0.61753583721E+02  0.61753583721E+02  0.00000000000E+00 0. -1.
         23    2    1    2    0    0  0.60604688279E+02  0.39595943578E+02  0.84523363319E+02  0.14575106567E+03  0.94119111812E+02 0.  0.
         23    2    1    2    0    0  0.40539765608E+01 -0.37333063323E+02  0.19274435959E+03  0.21587466037E+03  0.89673231750E+02 0.  0.
        -11    1    4    4    0    0  0.42255046406E+02  0.18766977601E+01  0.90562613228E+02  0.99952978225E+02  0.00000000000E+00 0.  1.
         11    1    4    4    0    0 -0.38201069846E+02 -0.39209761083E+02  0.10218174636E+03  0.11592168214E+03  0.00000000000E+00 0. -1.
        -11    1    3    3    0    0 -0.20225797805E+02  0.22809087219E+02  0.44666631955E+02  0.54078141304E+02  0.00000000000E+00 0. -1.
         11    1    3    3    0    0  0.80830486084E+02  0.16786856359E+02  0.39856731364E+02  0.91672924367E+02  0.00000000000E+00 0.  1.
          2    1    1    2  501    0 -0.64658664840E+02 -0.22628802553E+01  0.33885863801E+02  0.73035028113E+02  0.00000000000E+00 0. -1.
<scales pt_clust_5="13000.00000" pt_clust_6="13000.00000" pt_clust_7="13000.00000" pt_clust_8="13000.00000" pt_clust_9="13000.00000"></scales>
<clustering>
<clus scale="   89.673">  5  6 -1 -1</clus>
<clus scale="   64.698">  5  9 -1 -1</clus>
<clus scale="   94.119">  7  8 -1 -1</clus>
<clus scale="  118.740">  2  7  1 -1</clus>
<clus scale="  179.186">  1  5  2 -1</clus>
</clustering>
</event>
<event>
 9    1  0.3303741E-006  0.3998594E+03  0.7546771E-02  0.1084906E+00
         21   -1    0    0  501  502  0.00000000000E+00  0.00000000000E+00  0.14995975208E+03  0.14995975208E+03  0.00000000000E+00 0. -1.
          3   -1    0    0  502    0 -0.00000000000E+00 -0.00000000000E+00 -0.48168403819E+03  0.48168403819E+03  0.00000000000E+00 0. -1.
         23    2    1    2    0    0  0.15324774089E+02  0.86920878505E+02 -0.13532166419E+03  0.18615361327E+03  0.92472304579E+02 0.  0.
         23    2    1    2    0    0 -0.17435888627E+03 -0.86473758282E+02 -0.18921683825E+03  0.28629317878E+03  0.91005715468E+02 0.  0.
        -11    1    3    3    0    0  0.32242306530E+02  0.14799978783E+02 -0.44287312535E+01  0.35752193819E+02  0.00000000000E+00 0.  1.
         11    1    3    3    0    0 -0.16917532441E+02  0.72120899722E+02 -0.13089293294E+03  0.15040141946E+03  0.00000000000E+00 0. -1.
        -13    1    4    4    0    0 -0.16327078708E+03 -0.63512448649E+02 -0.11951319968E+03  0.21207212439E+03  0.00000000000E+00 0. -1.
         13    1    4    4    0    0 -0.11088099181E+02 -0.22961309633E+02 -0.69703638578E+02  0.74221054388E+02  0.00000000000E+00 0.  1.
          3    1    1    2  501    0  0.15903411218E+03 -0.44712022278E+00 -0.71857836652E+01  0.15919699821E+03  0.00000000000E+00 0. -1.
<scales pt_clust_5="13000.00000" pt_clust_6="13000.00000" pt_clust_7="13000.00000" pt_clust_8="13000.00000" pt_clust_9="13000.00000"></scales>
<clustering>
<clus scale="   91.006">  7  8 -1 -1</clus>
<clus scale="   92.472">  5  6 -1 -1</clus>
<clus scale="  127.833">  2  5  1 -1</clus>
<clus scale="  164.496">  7  9 -1 -1</clus>
<clus scale="  399.859">  1  5  2 -1</clus>
</clustering>
</event>
<event>
 9    1  0.3303741E-006  0.2001569E+03  0.7546771E-02  0.1175149E+00
          2   -1    0    0  502    0 -0.00000000000E+00  0.00000000000E+00  0.30352594095E+03  0.30352594095E+03  0.00000000000E+00 0. -1.
         21   -1    0    0  501  502  0.00000000000E+00 -0.00000000000E+00 -0.93353043552E+02  0.93353043552E+02  0.00000000000E+00 0. -1.
         23    2    1    2    0    0  0.21897410774E+02  0.56474046514E+02  0.15274123402E+03  0.18864546654E+03  0.92673690690E+02 0.  0.
         23    2    1    2    0    0  0.77339051905E+01 -0.28817843360E+02  0.10732480781E+03  0.14395127842E+03  0.91176064853E+02 0.  0.
        -11    1    3    3    0    0 -0.32584668206E+02  0.90323165773E+01  0.76360386087E+02  0.83511986614E+02  0.00000000000E+00 0. -1.
         11    1    3    3    0    0  0.54482078980E+02  0.47441729937E+02  0.76380847935E+02  0.10513347992E+03  0.00000000000E+00 0.  1.
        -13    1    4    4    0    0 -0.20669821789E+02 -0.13226542733E+02  0.10878345060E+03  0.11151691392E+03  0.00000000000E+00 0. -1.
         13    1    4    4    0    0  0.28403726979E+02 -0.15591300627E+02 -0.14586427943E+01  0.32434364498E+02  0.00000000000E+00 0.  1.
          2    1    1    2  501    0 -0.29631315965E+02 -0.27656203154E+02 -0.49893144437E+02  0.64282239542E+02  0.00000000000E+00 0. -1.
<scales pt_clust_5="13000.00000" pt_clust_6="13000.00000" pt_clust_7="13000.00000" pt_clust_8="13000.00000" pt_clust_9="13000.00000"></scales>
<clustering>
<clus scale="   91.176">  7  8 -1 -1</clus>
<clus scale="   40.532">  7  9 -1 -1</clus>
<clus scale="   92.674">  5  6 -1 -1</clus>
<clus scale="  110.712">  1  5  2 -1</clus>
<clus scale="  200.157">  2  5  1 -1</clus>
</clustering>
</event>
<event>
 9    1  0.3303741E-006  0.2834363E+03  0.7546771E-02  0.1131020E+00
         21   -1    0    0  501  502  0.00000000000E+00  0.00000000000E+00  0.81807478223E+03  0.81807478223E+03  0.00000000000E+00 0. -1.
          1   -1    0    0  502    0 -0.00000000000E+00 -0.00000000000E+00 -0.55383478644E+02  0.55383478644E+02  0.00000000000E+00 0. -1.
         23    2    1    2    0    0  0.42829511733E+02 -0.54002245433E+02  0.38954762718E+03  0.40487277368E+03  0.86162633641E+02 0.  0.
         23    2    1    2    0    0 -0.48721921511E+02  0.14320968611E+03  0.15999908548E+03  0.23745066809E+03  0.88883477597E+02 0.  0.
        -11    1    4    4    0    0 -0.38632859459E+02  0.15423981806E+02  0.15756904976E+02  0.44482323446E+02  0.00000000000E+00 0.  1.
         11    1    4    4    0    0 -0.10089062052E+02  0.12778570430E+03  0.14424218050E+03  0.19296834464E+03  0.00000000000E+00 0. -1.
        -13    1    3    3    0    0 -0.26411562709E+02 -0.11648761385E+02  0.11594754151E+03  0.11948680542E+03  0.00000000000E+00 0.  1.
         13    1    3    3    0    0  0.69241074442E+02 -0.42353484048E+02  0.27360008567E+03  0.28538596826E+03  0.00000000000E+00 0. -1.
          1    1    1    2  501    0  0.58924097789E+01 -0.89207440673E+02  0.21314459092E+03  0.23113481911E+03  0.00000000000E+00 0. -1.
<scales pt_clust_5="13000.00000" pt_clust_6="13000.00000" pt_clust_7="13000.00000" pt_clust_8="13000.00000" pt_clust_9="13000.00000"></scales>
<clustering>
<clus scale="   86.163">  7  8 -1 -1</clus>
<clus scale="   88.883">  5  6 -1 -1</clus>
<clus scale="   89.402">  5  9 -1 -1</clus>
<clus scale="  110.339">  2  7  1 -1</clus>
<clus scale="  283.436">  1  5  2 -1</clus>
</clustering>
</event>
<event>
 9    1  0.3303741E-006  0.6215226E+03  0.7546771E-02  0.1048356E+00
          2   -1    0    0  502    0 -0.00000000000E+00  0.00000000000E+00  0.95113217950E+03  0.95113217950E+03  0.00000000000E+00 0. -1.
         21   -1    0    0  501  502  0.00000000000E+00 -0.00000000000E+00 -0.15233248041E+03  0.15233248041E+03  0.00000000000E+00 0. -1.
         23    2    1    2    0    0 -0.54069531369E+01  0.21474361873E+02  0.27566938962E+03  0.29108812506E+03  0.90820156467E+02 0.  0.
         23    2    1    2    0    0 -0.21033721141E+03 -0.60794636481E+02 -0.84490270749E+01  0.23733895384E+03  0.91217666157E+02 0.  0.
        -11    1    4    4    0    0 -0.42944713527E+02 -0.51575914741E+01  0.35034329175E+02  0.55661956401E+02  0.00000000000E+00 0.  1.
         11    1    4    4    0    0 -0.16739249789E+03 -0.55637045007E+02 -0.43483356250E+02  0.18167699743E+03  0.00000000000E+00 0. -1.
        -13    1    3    3    0    0  0.15913582570E+02 -0.31820268834E+02  0.12047912947E+03  0.12562241940E+03  0.00000000000E+00 0.  1.
         13    1    3    3    0    0 -0.21320535707E+02  0.53294630706E+02  0.15519026015E+03  0.16546570566E+03  0.00000000000E+00 0. -1.
          2    1    1    2  501    0  0.21574416455E+03  0.39320274608E+02  0.53157933654E+03  0.57503758101E+03  0.00000000000E+00 0. -1.
<scales pt_clust_5="13000.00000" pt_clust_6="13000.00000" pt_clust_7="13000.00000" pt_clust_8="13000.00000" pt_clust_9="13000.00000"></scales>
<clustering>
<clus scale="   90.820">  7  8 -1 -1</clus>
<clus scale="   91.218">  5  6 -1 -1</clus>
<clus scale="   93.481">  1  7  2 -1</clus>
<clus scale="  218.848">  5  9 -1 -1</clus>
<clus scale="  621.523">  2  5  1 -1</clus>
</clustering>
</event>
<event>
 9    1  0.3303741E-006  0.2220164E+03  0.7546771E-02  0.1158072E+00
         -1   -1    0    0    0  501 -0.00000000000E+00  0.00000000000E+00  0.76786025863E+02  0.76786025863E+02  0.00000000000E+00 0.  1.
         21   -1    0    0  501  502  0.00000000000E+00 -0.00000000000E+00 -0.41575888791E+03  0.41575888791E+03  0.00000000000E+00 0. -1.
         23    2    1    2    0    0 -0.59342646586E+02 -0.51069123492E+02 -0.19125710645E+03  0.22587803592E+03  0.91170177495E+02 0.  0.
         23    2    1    2    0    0  0.69874174733E+02 -0.26920951271E+02 -0.14737332463E+02  0.11214624536E+03  0.82173313606E+02 0.  0.
        -11    1    3    3    0    0 -0.62250743818E+02  0.42738507400E+01 -0.12329155434E+03  0.13818186667E+03  0.00000000000E+00 0. -1.
         11    1    3    3    0    0  0.29080972323E+01 -0.55342974232E+02 -0.67965552108E+02  0.87696169242E+02  0.00000000000E+00 0.  1.
        -13    1    4    4    0    0  0.40123182384E+02 -0.73018091810E+01  0.33078572974E+02  0.52510743395E+02  0.00000000000E+00 0.  1.
         13    1    4    4    0    0  0.29750992350E+02 -0.19619142090E+02 -0.47815905438E+02  0.59635501968E+02  0.00000000000E+00 0. -1.
         -1    1    1    2    0  502 -0.10531528147E+02  0.77990074763E+02 -0.13297842314E+03  0.15452063250E+03  0.00000000000E+00 0.  1.
<scales pt_clust_5="13000.00000" pt_clust_6="13000.00000" pt_clust_7="13000.00000" pt_clust_8="13000.00000" pt_clust_9="13000.00000"></scales>
<clustering>
<clus scale="   82.173">  7  8 -1 -1</clus>
<clus scale="   78.698">  7  9 -1 -1</clus>
<clus scale="   91.170">  5  6 -1 -1</clus>
<clus scale="  120.173">  1  5  2 -1</clus>
<clus scale="  222.016">  2  5  1 -1</clus>
</clustering>
</event>
<event>
 9    1  0.3303741E-006  0.2281335E+03  0.7546771E-02  0.1158710E+00
         -1   -1    0    0    0  501 -0.00000000000E+00  0.00000000000E+00  0.31575949573E+03  0.31575949573E+03  0.00000000000E+00 0.  1.
         21   -1    0    0  501  502  0.00000000000E+00 -0.00000000000E+00 -0.15898139181E+03  0.15898139181E+03  0.00000000000E+00 0.  1.
         23    2    1    2    0    0  0.53314290352E+02  0.28936533657E+02  0.21340249504E+03  0.23968512610E+03  0.90711621352E+02 0.  0.
         23    2    1    2    0    0 -0.11173334185E+03 -0.53733573162E+02 -0.72411030653E+02  0.16965777422E+03  0.90381228300E+02 0.  0.
        -11    1    3    3    0    0  0.23896244795E+02  0.33587752175E+02  0.20448057020E+03  0.20859403443E+03  0.00000000000E+00 0.  1.
         11    1    3    3    0    0  0.29418045556E+02 -0.46512185181E+01  0.89219248363E+01  0.31091091664E+02  0.00000000000E+00 0. -1.
        -11    1    4    4    0    0 -0.55088916315E+02 -0.60068065758E+02 -0.77454747827E+02  0.11243753459E+03  0.00000000000E+00 0.  1.
         11    1    4    4    0    0 -0.56644425530E+02  0.63344925956E+01  0.50437171743E+01  0.57220239628E+02  0.00000000000E+00 0. -1.
         -1    1    1    2    0  502  0.58419051493E+02  0.24797039505E+02  0.15786639536E+02  0.65397987228E+02  0.00000000000E+00 0.  1.
<scales pt_clust_5="13000.00000" pt_clust_6="13000.00000" pt_clust_7="13000.00000" pt_clust_8="13000.00000" pt_clust_9="13000.00000"></scales>
<clustering>
<clus scale="   90.381">  7  8 -1 -1</clus>
<clus scale="   63.464">  7  9 -1 -1</clus>
<clus scale="   90.712">  5  6 -1 -1</clus>
<clus scale="  109.125">  1  5  2 -1</clus>
<clus scale="  228.133">  2  5  1 -1</clus>
</clustering>
</event>
<event>
 9    1  0.3303741E-006  0.4849425E+03  0.7546771E-02  0.1051478E+00
         21   -1    0    0  501  502  0.00000000000E+00  0.00000000000E+00  0.85452661381E+02  0.85452661381E+02  0.00000000000E+00 0. -1.
          2   -1    0    0  502    0 -0.00000000000E+00 -0.00000000000E+00 -0.13542744938E+04  0.13542744938E+04  0.00000000000E+00 0. -1.
         23    2    1    2    0    0  0.59339019636E+02 -0.14364766544E+03 -0.49268795520E+03  0.52454794704E+03  0.90847985702E+02 0.  0.
         23    2    1    2    0    0 -0.20349140082E+03  0.41705875996E+02 -0.67372294279E+03  0.71107130305E+03  0.92583281808E+02 0.  0.
        -11    1    4    4    0    0 -0.25331872268E+02  0.26062671129E+02 -0.47496349615E+02  0.59806937772E+02  0.00000000000E+00 0.  1.
         11    1    4    4    0    0 -0.17815952856E+03  0.15643204867E+02 -0.62622659318E+03  0.65126436528E+03  0.00000000000E+00 0. -1.
        -13    1    3    3    0    0  0.21342453207E+02 -0.62803787778E+02 -0.88454593942E+02  0.11056234105E+03  0.00000000000E+00 0.  1.
         13    1    3    3    0    0  0.37996566429E+02 -0.80843877666E+02 -0.40423336126E+03  0.41398560599E+03  0.00000000000E+00 0. -1.
          2    1    1    2  501    0  0.14415238119E+03  0.10194178945E+03 -0.10241093446E+03  0.20410790513E+03  0.00000000000E+00 0. -1.
<scales pt_clust_5="13000.00000" pt_clust_6="13000.00000" pt_clust_7="13000.00000" pt_clust_8="13000.00000" pt_clust_9="13000.00000"></scales>
<clustering>
<clus scale="   90.848">  7  8 -1 -1</clus>
<clus scale="   92.583">  5  6 -1 -1</clus>
<clus scale="  176.556">  5  9 -1 -1</clus>
<clus scale="  180.025">  2  7  1 -1</clus>
<clus scale="  484.942">  1  5  2 -1</clus>
</clustering>
</event>
<event>
 9    1  0.3303741E-006  0.1805303E+03  0.7546771E-02  0.1186145E+00
         -3   -1    0    0    0  501 -0.00000000000E+00  0.00000000000E+00  0.92328400550E+02  0.92328400550E+02  0.00000000000E+00 0.  1.
         21   -1    0    0  501  502  0.00000000000E+00 -0.00000000000E+00 -0.27246877483E+03  0.27246877483E+03  0.00000000000E+00 0.  1.
         23    2    1    2    0    0  0.59853934379E+02  0.48614389787E+02 -0.12675421665E+02  0.11855403564E+03  0.89154588767E+02 0.  0.
         23    2    1    2    0    0  0.11696682495E+02 -0.99306760102E+01 -0.68694912668E+02  0.11829220665E+03  0.95071680431E+02 0.  0.
        -13    1    3    3    0    0  0.69766718428E+02  0.25853287388E+02  0.20446230088E+02  0.77161102856E+02  0.00000000000E+00 0.  1.
         13    1    3    3    0    0 -0.99127840496E+01  0.22761102399E+02 -0.33121651753E+02  0.41392932789E+02  0.00000000000E+00 0. -1.
        -13    1    4    4    0    0  0.10898718096E+02 -0.40424338702E+02 -0.76140677359E+02  0.86892531119E+02  0.00000000000E+00 0.  1.
         13    1    4    4    0    0  0.79796439823E+00  0.30493662692E+02  0.74457646905E+01  0.31399675530E+02  0.00000000000E+00 0. -1.
         -3    1    1    2    0  502 -0.71550616874E+02 -0.38683713777E+02 -0.98770039948E+02  0.12795093309E+03  0.00000000000E+00 0.  1.
<scales pt_clust_5="13000.00000" pt_clust_6="13000.00000" pt_clust_7="13000.00000" pt_clust_8="13000.00000" pt_clust_9="13000.00000"></scales>
<clustering>
<clus scale="   89.155">  5  6 -1 -1</clus>
<clus scale="   95.072">  7  8 -1 -1</clus>
<clus scale="   81.338">  7  9 -1 -1</clus>
<clus scale="  117.874">  1  5  2 -1</clus>
<clus scale="  180.530">  2  5  1 -1</clus>
</clustering>
</event>
<event>
 9    1  0.3303741E-006  0.2714362E+03  0.7546771E-02  0.1139724E+00
         -1   -1    0    0    0  501 -0.00000000000E+00  0.00000000000E+00  0.26538393277E+03  0.26538393277E+03  0.00000000000E+00 0.  1.
         21   -1    0    0  501  502  0.00000000000E+00 -0.00000000000E+00 -0.67206087408E+03  0.67206087408E+03  0.00000000000E+00 0. -1.
         23    2    1    2    0    0 -0.27195201566E+02  0.23537318823E+02  0.22664824375E+03  0.24840316757E+03  0.95084819483E+02 0.  0.
         23    2    1    2    0    0  0.11301925802E+03 -0.70779971125E+02 -0.29939642592E+03  0.34103868951E+03  0.94265640043E+02 0.  0.
        -11    1    3    3    0    0 -0.27989548479E+02 -0.30903663497E+02  0.13992563038E+03  0.14600559331E+03  0.00000000000E+00 0. -1.
         11    1    3    3    0    0  0.79434691255E+00  0.54440982320E+02  0.86722613371E+02  0.10239757425E+03  0.00000000000E+00 0.  1.
        -11    1    4    4    0    0  0.37603047803E+02  0.11495667643E+02 -0.30066520639E+02  0.49498840815E+02  0.00000000000E+00 0.  1.
         11    1    4    4    0    0  0.75416210218E+02 -0.82275638769E+02 -0.26932990528E+03  0.29153984870E+03  0.00000000000E+00 0. -1.
         -1    1    1    2    0  502 -0.85824056455E+02  0.47242652302E+02 -0.33392875914E+03  0.34800294976E+03  0.00000000000E+00 0.  1.
<scales pt_clust_5="13000.00000" pt_clust_6="13000.00000" pt_clust_7="13000.00000" pt_clust_8="13000.00000" pt_clust_9="13000.00000"></scales>
<clustering>
<clus scale="   94.266">  7  8 -1 -1</clus>
<clus scale="   95.085">  5  6 -1 -1</clus>
<clus scale="   97.968">  7  9 -1 -1</clus>
<clus scale="  101.660">  1  5  2 -1</clus>
<clus scale="  271.436">  2  5  1 -1</clus>
</clustering>
</event>
<event>
 9    1  0.3303741E-006  0.2281618E+03  0.7546771E-02  0.1144129E+00
         21   -1    0    0  501  502  0.00000000000E+00  0.00000000000E+00  0.98244197453E+02  0.98244197453E+02  0.00000000000E+00 0. -1.
         -3   -1    0    0    0  501 -0.00000000000E+00 -0.00000000000E+00 -0.37478447333E+03  0.37478447333E+03  0.00000000000E+00 0.  1.
         23    2    1    2    0    0 -0.78997508170E+02 -0.93796645284E+02 -0.90227873972E+02  0.17846095873E+03  0.93106538899E+02 0.  0.
         23    2    1    2    0    0  0.35065245585E+02 -0.59554416171E+01 -0.15122079296E+03  0.18006031686E+03  0.91043674954E+02 0.  0.
        -11    1    3    3    0    0 -0.12480946720E+02  0.18732055960E+02 -0.73269795058E+01  0.23671683087E+02  0.00000000000E+00 0.  1.
         11    1    3    3    0    0 -0.66516561450E+02 -0.11252870124E+03 -0.82900894466E+02  0.15478927564E+03  0.00000000000E+00 0. -1.
        -13    1    4    4    0    0  0.13894648123E+02  0.28111851731E+02 -0.13183227455E+03  0.13551046479E+03  0.00000000000E+00 0.  1.
         13    1    4    4    0    0  0.21170597462E+02 -0.34067293348E+02 -0.19388518413E+02  0.44549852068E+02  0.00000000000E+00 0. -1.
         -3    1    1    2    0  502  0.43932262585E+02  0.99752086901E+02 -0.35091608946E+02  0.11450739520E+03  0.00000000000E+00 0.  1.
<scales pt_clust_5="13000.00000" pt_clust_6="13000.00000" pt_clust_7="13000.00000" pt_clust_8="13000.00000" pt_clust_9="13000.00000"></scales>
<clustering>
<clus scale="   91.044">  7  8 -1 -1</clus>
<clus scale="   93.107">  5  6 -1 -1</clus>
<clus scale="  108.998">  7  9 -1 -1</clus>
<clus scale="  153.972">  2  5  1 -1</clus>
<clus scale="  228.162">  1  5  2 -1</clus>
</clustering>
</event>
<event>
 9    1  0.3303741E-006  0.2257491E+03  0.7546771E-02  0.1162119E+00
         21   -1    0    0  501  502  0.00000000000E+00  0.00000000000E+00  0.50161695729E+02  0.50161695729E+02  0.00000000000E+00 0. -1.
         -2   -1    0    0    0  501 -0.00000000000E+00 -0.00000000000E+00 -0.54312213265E+03  0.54312213265E+03  0.00000000000E+00 0.  1.
         23    2    1    2    0    0  0.50153475178E+02 -0.12586648776E+02 -0.16805962111E+03  0.19765369619E+03  0.90272656842E+02 0.  0.
         23    2    1    2    0    0  0.80749492306E+00  0.22195543203E+02 -0.33098279584E+03  0.34341574904E+03  0.88833953886E+02 0.  0.
        -13    1    4    4    0    0 -0.40477125684E+02  0.28872399304E+02 -0.18398955598E+03  0.19058900770E+03  0.00000000000E+00 0.  1.
         13    1    4    4    0    0  0.41284620607E+02 -0.66768561009E+01 -0.14699323986E+03  0.15282674135E+03  0.00000000000E+00 0. -1.
        -13    1    3    3    0    0  0.23591684714E+02 -0.37067149418E+02 -0.15181750126E+03  0.15804776127E+03  0.00000000000E+00 0. -1.
         13    1    3    3    0    0  0.26561790464E+02  0.24480500642E+02 -0.16242119850E+02  0.39605934929E+02  0.00000000000E+00 0.  1.
         -2    1    1    2    0  502 -0.50960970101E+02 -0.96088944273E+01  0.60819800256E+01  0.52214383141E+02  0.00000000000E+00 0.  1.
<scales pt_clust_5="13000.00000" pt_clust_6="13000.00000" pt_clust_7="13000.00000" pt_clust_8="13000.00000" pt_clust_9="13000.00000"></scales>
<clustering>
<clus scale="   88.834">  5  6 -1 -1</clus>
<clus scale="   51.859">  5  9 -1 -1</clus>
<clus scale="   90.273">  7  8 -1 -1</clus>
<clus scale="  104.033">  2  7  1 -1</clus>
<clus scale="  225.749">  1  5  2 -1</clus>
</clustering>
</event>
<event>
 9    1  0.3303741E-006  0.2819062E+03  0.7546771E-02  0.1137542E+00
          2   -1    0    0  502    0 -0.00000000000E+00  0.00000000000E+00  0.42340858643E+03  0.42340858643E+03  0.00000000000E+00 0. -1.
         21   -1    0    0  501  502  0.00000000000E+00 -0.00000000000E+00 -0.94819063818E+02  0.94819063818E+02  0.00000000000E+00 0. -1.
         23    2    1    2    0    0  0.24863866850E+02 -0.68909219982E+01  0.16922690461E+03  0.19439504775E+03  0.92119447806E+02 0.  0.
         23    2    1    2    0    0 -0.61979340442E+02 -0.98940555371E+02  0.15096027714E+03  0.21136723310E+03  0.90864898694E+02 0.  0.
        -13    1    4    4    0    0  0.20856680341E+02 -0.28441783700E+02  0.59883843744E+02  0.69498279953E+02  0.00000000000E+00 0.  1.
         13    1    4    4    0    0 -0.82836020784E+02 -0.70498771671E+02  0.91076433399E+02  0.14186895315E+03  0.00000000000E+00 0. -1.
        -13    1    3    3    0    0  0.49105498852E+02 -0.30574360954E+02  0.13162001627E+03  0.14377054722E+03  0.00000000000E+00 0.  1.
         13    1    3    3    0    0 -0.24241632002E+02  0.23683438956E+02  0.37606888338E+02  0.50624500525E+02  0.00000000000E+00 0. -1.
          2    1    1    2  501    0  0.37115473593E+02  0.10583147737E+03  0.84023408573E+01  0.11246536940E+03  0.00000000000E+00 0. -1.
<scales pt_clust_5="13000.00000" pt_clust_6="13000.00000" pt_clust_7="13000.00000" pt_clust_8="13000.00000" pt_clust_9="13000.00000"></scales>
<clustering>
<clus scale="   90.865">  5  6 -1 -1</clus>
<clus scale="   92.119">  7  8 -1 -1</clus>
<clus scale="   95.664">  1  7  2 -1</clus>
<clus scale="  112.767">  5  9 -1 -1</clus>
<clus scale="  281.906">  2  5  1 -1</clus>
</clustering>
</event>
<event>
 9    1  0.3303741E-006  0.3818448E+03  0.7546771E-02  0.1062793E+00
         21   -1    0    0  501  502  0.00000000000E+00  0.00000000000E+00  0.86212293753E+03  0.86212293753E+03  0.00000000000E+00 0.  1.
         -1   -1    0    0    0  501 -0.00000000000E+00 -0.00000000000E+00 -0.22174839370E+03  0.22174839370E+03  0.00000000000E+00 0.  1.
         23    2    1    2    0    0  0.18357401108E+03  0.17288481344E+03 -0.70169386609E+02  0.27722509120E+03  0.91331440989E+02 0.  0.
         23    2    1    2    0    0 -0.81818319760E+02 -0.11848409258E+03  0.12904643430E+03  0.21381152684E+03  0.91267021206E+02 0.  0.
        -13    1    3    3    0    0  0.38995613205E+02  0.58022869549E+02  0.18604111608E+02  0.72342409475E+02  0.00000000000E+00 0. -1.
         13    1    3    3    0    0  0.14457839787E+03  0.11486194389E+03 -0.88773498217E+02  0.20488268173E+03  0.00000000000E+00 0.  1.
        -13    1    4    4    0    0 -0.99178623778E+02 -0.10497741451E+03  0.93608487711E+02  0.17210231243E+03  0.00000000000E+00 0. -1.
         13    1    4    4    0    0  0.17360304018E+02 -0.13506678070E+02  0.35437946591E+02  0.41709214409E+02  0.00000000000E+00 0.  1.
         -1    1    1    2    0  502 -0.10175569132E+03 -0.54400720865E+02  0.58149749614E+03  0.59283471319E+03  0.00000000000E+00 0.  1.
<scales pt_clust_5="13000.00000" pt_clust_6="13000.00000" pt_clust_7="13000.00000" pt_clust_8="13000.00000" pt_clust_9="13000.00000"></scales>
<clustering>
<clus scale="   91.267">  7  8 -1 -1</clus>
<clus scale="   91.331">  5  6 -1 -1</clus>
<clus scale="  115.385">  7  9 -1 -1</clus>
<clus scale="  268.198">  2  5  1 -1</clus>
<clus scale="  381.845">  1  5  2 -1</clus>
</clustering>
</event>
<event>
 9    1  0.3303741E-006  0.2137469E+03  0.7546771E-02  0.1172761E+00
         21   -1    0    0  501  502  0.00000000000E+00  0.00000000000E+00  0.15842329635E+03  0.15842329635E+03  0.00000000000E+00 0.  1.
         -4   -1    0    0    0  501 -0.00000000000E+00 -0.00000000000E+00 -0.16473929875E+03  0.16473929875E+03  0.00000000000E+00 0.  1.
         23    2    1    2    0    0 -0.33768879701E+02 -0.18551183545E+02 -0.44903071577E+02  0.10596062568E+03  0.87902700249E+02 0.  0.
         23    2    1    2    0    0 -0.42350633070E+02  0.66505861669E+02  0.41997178112E+02  0.12717163995E+03  0.90511089272E+02 0.  0.
        -13    1    3    3    0    0  0.15490505217E+02 -0.30843543740E+02  0.48767448196E+01  0.34857747809E+02  0.00000000000E+00 0. -1.
         13    1    3    3    0    0 -0.49259384918E+02  0.12292360194E+02 -0.49779816396E+02  0.71102877875E+02  0.00000000000E+00 0.  1.
        -13    1    4    4    0    0 -0.36398768440E+02  0.47270108679E+01  0.52668056420E+02  0.64196099124E+02  0.00000000000E+00 0. -1.
         13    1    4    4    0    0 -0.59518646303E+01  0.61778850801E+02 -0.10670878307E+02  0.62975540829E+02  0.00000000000E+00 0.  1.
         -4    1    1    2    0  502  0.76119512772E+02 -0.47954678123E+02 -0.34101089360E+01  0.90030329453E+02  0.00000000000E+00 0.  1.
<scales pt_clust_5="13000.00000" pt_clust_6="13000.00000" pt_clust_7="13000.00000" pt_clust_8="13000.00000" pt_clust_9="13000.00000"></scales>
<clustering>
<clus scale="   87.903">  5  6 -1 -1</clus>
<clus scale="   90.511">  7  8 -1 -1</clus>
<clus scale="   89.966">  7  9 -1 -1</clus>
<clus scale="   95.976">  2  5  1 -1</clus>
<clus scale="  213.747">  1  5  2 -1</clus>
</clustering>
</event>
<event>
 9    1  0.3303741E-006  0.1722073E+03  0.7546771E-02  0.1203875E+00
         -1   -1    0    0    0  501 -0.00000000000E+00  0.00000000000E+00  0.27461155661E+03  0.27461155661E+03  0.00000000000E+00 0.  1.
         21   -1    0    0  501  502  0.00000000000E+00 -0.00000000000E+00 -0.10870798954E+03  0.10870798954E+03  0.00000000000E+00 0.  1.
         23    2    1    2    0    0 -0.88162750547E+01 -0.18831844529E+02  0.18834542261E+03  0.20965605968E+03  0.89717891579E+02 0.  0.
         23    2    1    2    0    0 -0.18655317124E+02  0.41726385683E+02  0.32779540128E+02  0.10787404254E+03  0.92049979276E+02 0.  0.
        -11    1    3    3    0    0  0.26710802449E+02 -0.41791717522E+02  0.94788751359E+02  0.10698094225E+03  0.00000000000E+00 0. -1.
         11    1    3    3    0    0 -0.35527077504E+02  0.22959872993E+02  0.93556671253E+02  0.10267511743E+03  0.00000000000E+00 0.  1.
        -13    1    4    4    0    0 -0.33091293353E+02 -0.86077070620E+01  0.42571803691E+02  0.54602974151E+02  0.00000000000E+00 0.  1.
         13    1    4    4    0    0  0.14435976229E+02  0.50334092745E+02 -0.97922635628E+01  0.53271068394E+02  0.00000000000E+00 0. -1.
         -1    1    1    2    0  502  0.27471592178E+02 -0.22894541154E+02 -0.55221395673E+02  0.65789443922E+02  0.00000000000E+00 0.  1.
<scales pt_clust_5="13000.00000" pt_clust_6="13000.00000" pt_clust_7="13000.00000" pt_clust_8="13000.00000" pt_clust_9="13000.00000"></scales>
<clustering>
<clus scale="   89.718">  5  6 -1 -1</clus>
<clus scale="   92.050">  7  8 -1 -1</clus>
<clus scale="   35.761">  7  9 -1 -1</clus>
<clus scale="   92.096">  1  5  2 -1</clus>
<clus scale="  172.207">  2  5  1 -1</clus>
</clustering>
</event>
<event>
 9    1  0.3303741E-006  0.2733490E+03  0.7546771E-02  0.1138002E+00
         21   -1    0    0  501  502  0.00000000000E+00  0.00000000000E+00  0.78418425711E+02  0.78418425711E+02  0.00000000000E+00 0. -1.
          1   -1    0    0  502    0 -0.00000000000E+00 -0.00000000000E+00 -0.45991841733E+03  0.45991841733E+03  0.00000000000E+00 0. -1.
         23    2    1    2    0    0  0.42726502177E+02 -0.26877583364E+02 -0.13486551712E+03  0.17016808930E+03  0.90667041601E+02 0.  0.
         23    2    1    2    0    0  0.11502741052E+02 -0.38445415718E+02 -0.26402558729E+03  0.28150644455E+03  0.89028110956E+02 0.  0.
        -11    1    3    3    0    0  0.28050728808E+02 -0.57035758491E+02 -0.11441840471E+03  0.13088732738E+03  0.00000000000E+00 0. -1.
         11    1    3    3    0    0  0.14675773369E+02  0.30158175127E+02 -0.20447112413E+02  0.39280761920E+02  0.00000000000E+00 0.  1.
        -13    1    4    4    0    0 -0.33652763713E+02 -0.18999177978E+02 -0.18045381351E+03  0.18454553931E+03  0.00000000000E+00 0. -1.
         13    1    4    4    0    0  0.45155504766E+02 -0.19446237740E+02 -0.83571773781E+02  0.96960905244E+02  0.00000000000E+00 0.  1.
          1    1    1    2  501    0 -0.54229243229E+02  0.65322999082E+02  0.17391112785E+02  0.86662309190E+02  0.00000000000E+00 0. -1.
<scales pt_clust_5="13000.00000" pt_clust_6="13000.00000" pt_clust_7="13000.00000" pt_clust_8="13000.00000" pt_clust_9="13000.00000"></scales>
<clustering>
<clus scale="   89.028">  7  8 -1 -1</clus>
<clus scale="   84.899">  7  9 -1 -1</clus>
<clus scale="   90.667">  5  6 -1 -1</clus>
<clus scale="  103.771">  2  5  1 -1</clus>
<clus scale="  273.349">  1  5  2 -1</clus>
</clustering>
</event>
<event>
 9    1  0.3303741E-006  0.1485287E+03  0.7546771E-02  0.1220495E+00
         21   -1    0    0  501  502  0.00000000000E+00  0.00000000000E+00  0.28366322120E+03  0.28366322120E+03  0.00000000000E+00 0. -1.
         -3   -1    0    0    0  501 -0.00000000000E+00 -0.00000000000E+00 -0.58096459060E+02  0.58096459060E+02  0.00000000000E+00 0.  1.
         23    2    1    2    0    0  0.11373929086E+01 -0.42987181609E+02  0.52305538452E+02  0.11354877282E+03  0.91149673678E+02 0.  0.
         23    2    1    2    0    0  0.13836614792E+02 -0.85515244300E+00  0.64583518042E+02  0.11007025031E+03  0.88046839842E+02 0.  0.
        -13    1    4    4    0    0  0.36617544150E+02  0.53227358775E+01 -0.43033011173E+01  0.37251771197E+02  0.00000000000E+00 0.  1.
         13    1    4    4    0    0 -0.22780929358E+02 -0.61778883205E+01  0.68886819159E+02  0.72818479113E+02  0.00000000000E+00 0. -1.
        -13    1    3    3    0    0  0.16341326290E+02  0.25440297981E+02  0.20785881232E+02  0.36691968670E+02  0.00000000000E+00 0.  1.
         13    1    3    3    0    0 -0.15203933381E+02 -0.68427479590E+02  0.31519657220E+02  0.76856804153E+02  0.00000000000E+00 0. -1.
         -3    1    1    2    0  502 -0.14974007701E+02  0.43842334052E+02  0.10867770564E+03  0.11814065712E+03  0.00000000000E+00 0.  1.
<scales pt_clust_5="13000.00000" pt_clust_6="13000.00000" pt_clust_7="13000.00000" pt_clust_8="13000.00000" pt_clust_9="13000.00000"></scales>
<clustering>
<clus scale="   88.047">  5  6 -1 -1</clus>
<clus scale="   46.329">  5  9 -1 -1</clus>
<clus scale="   91.150">  7  8 -1 -1</clus>
<clus scale="  100.784">  2  7  1 -1</clus>
<clus scale="  148.529">  1  5  2 -1</clus>
</clustering>
</event>
<event>
 9    1  0.3303741E-006  0.1251450E+03  0.7546771E-02  0.1243253E+00
          2   -1    0    0  502    0 -0.00000000000E+00  0.00000000000E+00  0.19421586883E+03  0.19421586883E+03  0.00000000000E+00 0.  1.
         21   -1    0    0  501  502  0.00000000000E+00 -0.00000000000E+00 -0.69094145514E+02  0.69094145514E+02  0.00000000000E+00 0. -1.
         23    2    1    2    0    0  0.46537900395E+02  0.25923052894E+02  0.69869316133E+02  0.12651056192E+03  0.91024282997E+02 0.  0.
         23    2    1    2    0    0 -0.25547230573E+02 -0.35692822805E+02  0.45553894012E+02  0.11169730548E+03  0.92057005172E+02 0.  0.
        -13    1    4    4    0    0 -0.28639057029E+02 -0.61275125039E+02  0.10896027832E+02  0.68509561074E+02  0.00000000000E+00 0. -1.
         13    1    4    4    0    0  0.30918264556E+01  0.25582302234E+02  0.34657866180E+02  0.43187744402E+02  0.00000000000E+00 0.  1.
        -13    1    3    3    0    0  0.59700502502E+02 -0.15165162766E+02  0.48294494263E+02  0.78271900046E+02  0.00000000000E+00 0. -1.
         13    1    3    3    0    0 -0.13162602106E+02  0.41088215661E+02  0.21574821870E+02  0.48238661871E+02  0.00000000000E+00 0.  1.
          2    1    1    2  501    0 -0.20990669822E+02  0.97697699105E+01  0.96985131681E+01  0.25102146947E+02  0.00000000000E+00 0.  1.
<scales pt_clust_5="13000.00000" pt_clust_6="13000.00000" pt_clust_7="13000.00000" pt_clust_8="13000.00000" pt_clust_9="13000.00000"></scales>
<clustering>
<clus scale="   91.024">  7  8 -1 -1</clus>
<clus scale="   92.057">  5  6 -1 -1</clus>
<clus scale="   23.153">  5  9 -1 -1</clus>
<clus scale="  105.467">  1  7  2 -1</clus>
<clus scale="  125.145">  2  5  1 -1</clus>
</clustering>
</event>
<event>
 9    1  0.3303741E-006  0.4039011E+03  0.7546771E-02  0.1081294E+00
         21   -1    0    0  501  502  0.00000000000E+00  0.00000000000E+00  0.17096468720E+04  0.17096468720E+04  0.00000000000E+00 0.  1.
         -1   -1    0    0    0  501 -0.00000000000E+00 -0.00000000000E+00 -0.44676446240E+02  0.44676446240E+02  0.00000000000E+00 0.  1.
         23    2    1    2    0    0 -0.53438233686E+02 -0.86250245447E+02  0.27834321680E+03  0.31006879424E+03  0.91503886047E+02 0.  0.
         23    2    1    2    0    0  0.41930282850E+02 -0.74341330089E+02  0.13950219768E+03  0.18677972075E+03  0.90227595259E+02 0.  0.
        -13    1    3    3    0    0 -0.31175881070E+02 -0.23447639308E+01  0.16155168976E+03  0.16454902596E+03  0.00000000000E+00 0. -1.
         13    1    3    3    0    0 -0.22262352616E+02 -0.83905481516E+02  0.11679152704E+03  0.14551976828E+03  0.00000000000E+00 0.  1.
        -13    1    4    4    0    0  0.21893650047E+02  0.17287181697E+02  0.17653440743E+02  0.33012460276E+02  0.00000000000E+00 0. -1.
         13    1    4    4    0    0  0.20036632803E+02 -0.91628511787E+02  0.12184875694E+03  0.15376726048E+03  0.00000000000E+00 0.  1.
         -1    1    1    2    0  502  0.11507950836E+02  0.16059157554E+03  0.12471250113E+04  0.12574748033E+04  0.00000000000E+00 0.  1.
<scales pt_clust_5="13000.00000" pt_clust_6="13000.00000" pt_clust_7="13000.00000" pt_clust_8="13000.00000" pt_clust_9="13000.00000"></scales>
<clustering>
<clus scale="   90.228">  7  8 -1 -1</clus>
<clus scale="   91.504">  5  6 -1 -1</clus>
<clus scale="  136.630">  2  5  1 -1</clus>
<clus scale="  145.114">  7  9 -1 -1</clus>
<clus scale="  403.901">  1  5  2 -1</clus>
</clustering>
</event>
<event>
 9    1  0.3303741E-006  0.2889820E+03  0.7546771E-02  0.1105597E+00
         21   -1    0    0  501  502  0.00000000000E+00  0.00000000000E+00  0.41531706449E+03  0.41531706449E+03  0.00000000000E+00 0. -1.
          1   -1    0    0  502    0 -0.00000000000E+00 -0.00000000000E+00 -0.40502285791E+03  0.40502285791E+03  0.00000000000E+00 0. -1.
         23    2    1    2    0    0 -0.16413073074E+03  0.57021975704E+02 -0.32353794499E+03  0.37880340360E+03  0.92869878013E+02 0.  0.
         23    2    1    2    0    0 -0.17222015168E+02 -0.64899683899E+01  0.59437906622E+02  0.10876857584E+03  0.89213344575E+02 0.  0.
        -11    1    3    3    0    0 -0.12310579478E+03 -0.24573066781E+01 -0.17970698225E+03  0.21784323385E+03  0.00000000000E+00 0.  1.
         11    1    3    3    0    0 -0.41024935966E+02  0.59479282382E+02 -0.14383096273E+03  0.16096016974E+03  0.00000000000E+00 0. -1.
        -13    1    4    4    0    0 -0.52117581190E+02  0.63070115608E+01  0.25193303691E+02  0.58229916837E+02  0.00000000000E+00 0.  1.
         13    1    4    4    0    0  0.34895566022E+02 -0.12796979951E+02  0.34244602931E+02  0.50538659002E+02  0.00000000000E+00 0. -1.
          1    1    1    2  501    0  0.18135274591E+03 -0.50532007314E+02  0.27439424494E+03  0.33276794297E+03  0.00000000000E+00 0. -1.
<scales pt_clust_5="13000.00000" pt_clust_6="13000.00000" pt_clust_7="13000.00000" pt_clust_8="13000.00000" pt_clust_9="13000.00000"></scales>
<clustering>
<clus scale="   89.213">  7  8 -1 -1</clus>
<clus scale="   92.870">  5  6 -1 -1</clus>
<clus scale="  188.261">  7  9 -1 -1</clus>
<clus scale="  197.016">  2  5  1 -1</clus>
<clus scale="  288.982">  1  5  2 -1</clus>
</clustering>
</event>
<event>
 9    1  0.3303741E-006  0.2281294E+03  0.7546771E-02  0.1139820E+00
          2   -1    0    0  502    0 -0.00000000000E+00  0.00000000000E+00  0.56267864270E+03  0.56267864270E+03  0.00000000000E+00 0. -1.
         21   -1    0    0  501  502  0.00000000000E+00 -0.00000000000E+00 -0.94910103990E+02  0.94910103990E+02  0.00000000000E+00 0. -1.
         23    2    1    2    0    0  0.11129162701E+03  0.92644166566E+02  0.44164522708E+02  0.17646156402E+03  0.90660965509E+02 0.  0.
         23    2    1    2    0    0 -0.42884242276E+02 -0.10538195082E+03  0.35515793117E+03  0.38352242888E+03  0.89486778856E+02 0.  0.
        -11    1    4    4    0    0 -0.41267298618E+02 -0.48464199984E+01  0.13987675624E+03  0.14591773250E+03  0.00000000000E+00 0.  1.
         11    1    4    4    0    0 -0.16169436576E+01 -0.10053553082E+03  0.21528117493E+03  0.23760469638E+03  0.00000000000E+00 0. -1.
        -11    1    3    3    0    0 -0.71900862924E+01  0.39403885523E+02  0.28510240429E+01  0.40155844821E+02  0.00000000000E+00 0.  1.
         11    1    3    3    0    0  0.11848171330E+03  0.53240281043E+02  0.41313498665E+02  0.13630571919E+03  0.00000000000E+00 0. -1.
          2    1    1    2  501    0 -0.68407384737E+02  0.12737784249E+02  0.68446084833E+02  0.97604753793E+02  0.00000000000E+00 0. -1.
<scales pt_clust_5="13000.00000" pt_clust_6="13000.00000" pt_clust_7="13000.00000" pt_clust_8="13000.00000" pt_clust_9="13000.00000"></scales>
<clustering>
<clus scale="   89.487">  5  6 -1 -1</clus>
<clus scale="   69.583">  5  9 -1 -1</clus>
<clus scale="   90.661">  7  8 -1 -1</clus>
<clus scale="  170.846">  1  7  2 -1</clus>
<clus scale="  228.129">  2  5  1 -1</clus>
</clustering>
</event>
<event>
 9    1  0.3303741E-006  0.2230710E+03  0.7546771E-02  0.1156968E+00
          2   -1    0    0  502    0 -0.00000000000E+00  0.00000000000E+00  0.50529169709E+03  0.50529169709E+03  0.00000000000E+00 0. -1.
         21   -1    0    0  501  502  0.00000000000E+00 -0.00000000000E+00 -0.61532643805E+02  0.61532643805E+02  0.00000000000E+00 0.  1.
         23    2    1    2    0    0  0.82186177359E+02  0.42130218504E+01  0.21700185317E+03  0.24873710691E+03  0.89487578874E+02 0.  0.
         23    2    1    2    0    0  0.23770583472E+02 -0.56549921718E+02  0.10220419308E+03  0.14639146288E+03  0.84981345223E+02 0.  0.
        -11    1    3    3    0    0  0.80879937799E+02 -0.18978459101E+02  0.10267961720E+03  0.13207895380E+03  0.00000000000E+00 0.  1.
         11    1    3    3    0    0  0.13062395608E+01  0.23191480951E+02  0.11432223596E+03  0.11665815311E+03  0.00000000000E+00 0. -1.
        -11    1    4    4    0    0  0.39771641134E+02 -0.25555334397E+02  0.10708001397E+02  0.48471845937E+02  0.00000000000E+00 0.  1.
         11    1    4    4    0    0 -0.16001057661E+02 -0.30994587321E+02  0.91496191687E+02  0.97919616946E+02  0.00000000000E+00 0. -1.
          2    1    1    2  501    0 -0.10595676083E+03  0.52336899868E+02  0.12455300703E+03  0.17169577110E+03  0.00000000000E+00 0. -1.
<scales pt_clust_5="13000.00000" pt_clust_6="13000.00000" pt_clust_7="13000.00000" pt_clust_8="13000.00000" pt_clust_9="13000.00000"></scales>
<clustering>
<clus scale="   84.981">  7  8 -1 -1</clus>
<clus scale="   89.488">  5  6 -1 -1</clus>
<clus scale="  118.178">  7  9 -1 -1</clus>
<clus scale="  121.574">  1  5  2 -1</clus>
<clus scale="  223.071">  2  5  1 -1</clus>
</clustering>
</event>
<event>
 9    1  0.3303741E-006  0.1888415E+03  0.7546771E-02  0.1176009E+00
         -1   -1    0    0    0  501 -0.00000000000E+00  0.00000000000E+00  0.35952465506E+03  0.35952465506E+03  0.00000000000E+00 0.  1.
         21   -1    0    0  501  502  0.00000000000E+00 -0.00000000000E+00 -0.89847252755E+02  0.89847252755E+02  0.00000000000E+00 0. -1.
         23    2    1    2    0    0 -0.67464537243E+02  0.55808837290E+02  0.21822394676E+03  0.25364616447E+03  0.95124106859E+02 0.  0.
         23    2    1    2    0    0  0.88249558779E+02 -0.84351199280E+01  0.73153571150E+01  0.12772237615E+03  0.91653450816E+02 0.  0.
        -11    1    3    3    0    0 -0.86826293924E+02  0.20894459920E+02  0.14729844304E+03  0.17225624835E+03  0.00000000000E+00 0.  1.
         11    1    3    3    0    0  0.19361756680E+02  0.34914377370E+02  0.70925503719E+02  0.81389916124E+02  0.00000000000E+00 0. -1.
        -11    1    4    4    0    0  0.35808547522E+02  0.31497057504E+01 -0.41670019711E+02  0.55032383781E+02  0.00000000000E+00 0. -1.
         11    1    4    4    0    0  0.52441011257E+02 -0.11584825678E+02  0.48985376826E+02  0.72689992368E+02  0.00000000000E+00 0.  1.
         -1    1    1    2    0  502 -0.20785021535E+02 -0.47373717362E+02  0.44138098428E+02  0.68003367195E+02  0.00000000000E+00 0.  1.
<scales pt_clust_5="13000.00000" pt_clust_6="13000.00000" pt_clust_7="13000.00000" pt_clust_8="13000.00000" pt_clust_9="13000.00000"></scales>
<clustering>
<clus scale="   91.653">  7  8 -1 -1</clus>
<clus scale="   51.733">  7  9 -1 -1</clus>
<clus scale="   95.124">  5  6 -1 -1</clus>
<clus scale="  129.285">  1  5  2 -1</clus>
<clus scale="  188.841">  2  5  1 -1</clus>
</clustering>
</event>
<event>
 9    1  0.3303741E-006  0.1930867E+03  0.7546771E-02  0.1186069E+00
          1   -1    0    0  502    0 -0.00000000000E+00  0.00000000000E+00  0.39166203401E+03  0.39166203401E+03  0.00000000000E+00 0. -1.
         21   -1    0    0  501  502  0.00000000000E+00 -0.00000000000E+00 -0.81107247070E+02  0.81107247070E+02  0.00000000000E+00 0. -1.
         23    2    1    2    0    0 -0.24879296662E+02 -0.74631258917E+01 -0.11581492037E+02  0.97197362695E+02  0.92943631878E+02 0.  0.
         23    2    1    2    0    0  0.49243072866E+02  0.68525956533E+02  0.17742514654E+03  0.21662672428E+03  0.91251126594E+02 0.  0.
        -11    1    3    3    0    0 -0.37185976786E+02 -0.41326610369E+02  0.80373114385E+01  0.56171914417E+02  0.00000000000E+00 0.  1.
         11    1    3    3    0    0  0.12306680124E+02  0.33863484477E+02 -0.19618803476E+02  0.41025448278E+02  0.00000000000E+00 0. -1.
        -13    1    4    4    0    0  0.24786040968E-01  0.51359633629E+02  0.28270992338E+02  0.58626458093E+02  0.00000000000E+00 0.  1.
         13    1    4    4    0    0  0.49218286825E+02  0.17166322904E+02  0.14915415420E+03  0.15800026619E+03  0.00000000000E+00 0. -1.
          1    1    1    2  501    0 -0.24363776203E+02 -0.61062830641E+02  0.14471113244E+03  0.15894519410E+03  0.00000000000E+00 0. -1.
<scales pt_clust_5="13000.00000" pt_clust_6="13000.00000" pt_clust_7="13000.00000" pt_clust_8="13000.00000" pt_clust_9="13000.00000"></scales>
<clustering>
<clus scale="   91.251">  7  8 -1 -1</clus>
<clus scale="   65.744">  7  9 -1 -1</clus>
<clus scale="   92.944">  5  6 -1 -1</clus>
<clus scale="   96.505">  1  5  2 -1</clus>
<clus scale="  193.087">  2  5  1 -1</clus>
</clustering>
</event>
<event>
 9    1  0.3303741E-006  0.1844078E+03  0.7546771E-02  0.1194160E+00
          2   -1    0    0  502    0 -0.00000000000E+00  0.00000000000E+00  0.57444339301E+03  0.57444339301E+03  0.00000000000E+00 0. -1.
         21   -1    0    0  501  502  0.00000000000E+00 -0.00000000000E+00 -0.33528063054E+02  0.33528063054E+02  0.00000000000E+00 0.  1.
         23    2    1    2    0    0 -0.25158976412E+01  0.31078340174E+02  0.19846363411E+03  0.21902494450E+03  0.87246313867E+02 0.  0.
         23    2    1    2    0    0  0.38375855234E+01  0.31102679916E+02  0.86532971225E+02  0.12557867045E+03  0.85439707407E+02 0.  0.
        -13    1    3    3    0    0  0.37343009959E+01  0.59886437453E+02  0.10399300155E+03  0.12006196219E+03  0.00000000000E+00 0.  1.
         13    1    3    3    0    0 -0.62501986370E+01 -0.28808097279E+02  0.94470632560E+02  0.98962982313E+02  0.00000000000E+00 0. -1.
        -13    1    4    4    0    0 -0.29498020543E+02 -0.11304159878E+02  0.54072924406E+02  0.62624263671E+02  0.00000000000E+00 0. -1.
         13    1    4    4    0    0  0.33335606066E+02  0.42406839795E+02  0.32460046819E+02  0.62954406777E+02  0.00000000000E+00 0.  1.
          2    1    1    2  501    0 -0.13216878822E+01 -0.62181020090E+02  0.25591872462E+03  0.26336784111E+03  0.00000000000E+00 0. -1.
<scales pt_clust_5="13000.00000" pt_clust_6="13000.00000" pt_clust_7="13000.00000" pt_clust_8="13000.00000" pt_clust_9="13000.00000"></scales>
<clustering>
<clus scale="   85.440">  7  8 -1 -1</clus>
<clus scale="   62.195">  7  9 -1 -1</clus>
<clus scale="   87.246">  5  6 -1 -1</clus>
<clus scale="   92.650">  1  5  2 -1</clus>
<clus scale="  184.408">  2  5  1 -1</clus>
</clustering>
</event>
<event>
 9    1  0.3303741E-006  0.2256401E+03  0.7546771E-02  0.1164873E+00
         21   -1    0    0  501  502  0.00000000000E+00  0.00000000000E+00  0.43959509544E+03  0.43959509544E+03  0.00000000000E+00 0.  1.
          4   -1    0    0  502    0 -0.00000000000E+00 -0.00000000000E+00 -0.63072276824E+02  0.63072276824E+02  0.00000000000E+00 0. -1.
         23    2    1    2    0    0 -0.28629745055E+02  0.18553356763E+02  0.17345805274E+03  0.19910722143E+03  0.91608406909E+02 0.  0.
         23    2    1    2    0    0  0.48159099184E+01  0.18551271714E+02  0.11885986378E+01  0.96925596373E+02  0.95004293561E+02 0.  0.
        -11    1    4    4    0    0 -0.35910923569E+02 -0.18700724850E+02  0.81304737523E+01  0.41296684430E+02  0.00000000000E+00 0.  1.
         11    1    4    4    0    0  0.40726833487E+02  0.37251996564E+02 -0.69418751145E+01  0.55628911943E+02  0.00000000000E+00 0. -1.
        -13    1    3    3    0    0  0.25351975054E+02 -0.18265076282E+02  0.42471769609E+02  0.52727477319E+02  0.00000000000E+00 0. -1.
         13    1    3    3    0    0 -0.53981720109E+02  0.36818433045E+02  0.13098628313E+03  0.14637974411E+03  0.00000000000E+00 0.  1.
          4    1    1    2  501    0  0.23813835137E+02 -0.37104628477E+02  0.20187616724E+03  0.20663455447E+03  0.00000000000E+00 0. -1.
<scales pt_clust_5="13000.00000" pt_clust_6="13000.00000" pt_clust_7="13000.00000" pt_clust_8="13000.00000" pt_clust_9="13000.00000"></scales>
<clustering>
<clus scale="   91.608">  7  8 -1 -1</clus>
<clus scale="   95.004">  5  6 -1 -1</clus>
<clus scale="   44.089">  5  9 -1 -1</clus>
<clus scale="   97.755">  2  7  1 -1</clus>
<clus scale="  225.640">  1  5  2 -1</clus>
</clustering>
</event>
<event>
 9    1  0.3303741E-006  0.2418561E+03  0.7546771E-02  0.1146514E+00
         21   -1    0    0  501  502  0.00000000000E+00  0.00000000000E+00  0.42048837326E+02  0.42048837326E+02  0.00000000000E+00 0. -1.
          2   -1    0    0  502    0 -0.00000000000E+00 -0.00000000000E+00 -0.89147094187E+03  0.89147094187E+03  0.00000000000E+00 0. -1.
         23    2    1    2    0    0  0.70885900805E+02  0.40029698402E+02 -0.45277557764E+03  0.46895239518E+03  0.91013392148E+02 0.  0.
         23    2    1    2    0    0  0.14055543849E+02  0.20614852904E+02 -0.32327289541E+03  0.33698799531E+03  0.91831441267E+02 0.  0.
        -11    1    3    3    0    0  0.45123198728E+02 -0.16159338978E+02 -0.10110171199E+03  0.11188736956E+03  0.00000000000E+00 0.  1.
         11    1    3    3    0    0  0.25762702077E+02  0.56189037380E+02 -0.35167386565E+03  0.35706502562E+03  0.00000000000E+00 0. -1.
        -13    1    4    4    0    0 -0.14666966235E+02  0.50109301496E+02 -0.21225713065E+03  0.21858442650E+03  0.00000000000E+00 0. -1.
         13    1    4    4    0    0  0.28722510083E+02 -0.29494448593E+02 -0.11101576476E+03  0.11840356882E+03  0.00000000000E+00 0.  1.
          2    1    1    2  501    0 -0.84941444653E+02 -0.60644551306E+02 -0.73373631491E+02  0.12757938870E+03  0.00000000000E+00 0. -1.
<scales pt_clust_5="13000.00000" pt_clust_6="13000.00000" pt_clust_7="13000.00000" pt_clust_8="13000.00000" pt_clust_9="13000.00000"></scales>
<clustering>
<clus scale="   91.013">  5  6 -1 -1</clus>
<clus scale="   91.831">  7  8 -1 -1</clus>
<clus scale="  104.369">  7  9 -1 -1</clus>
<clus scale="  122.109">  2  5  1 -1</clus>
<clus scale="  241.856">  1  5  2 -1</clus>
</clustering>
</event>
<event>
 9    1  0.3303741E-006  0.3296296E+03  0.7546771E-02  0.1075390E+00
          2   -1    0    0  502    0 -0.00000000000E+00  0.00000000000E+00  0.75983791112E+03  0.75983791112E+03  0.00000000000E+00 0. -1.
         21   -1    0    0  501  502  0.00000000000E+00 -0.00000000000E+00 -0.41283228637E+03  0.41283228637E+03  0.00000000000E+00 0. -1.
         23    2    1    2    0    0  0.13734731844E+03  0.24244905976E+03  0.65703159965E+03  0.72015307573E+03  0.96354019523E+02 0.  0.
         23    2    1    2    0    0 -0.92954014808E+02 -0.99528528685E+02 -0.23339175995E+03  0.28438072918E+03  0.88624537366E+02 0.  0.
        -11    1    3    3    0    0 -0.19109349914E+01  0.45130162076E+02  0.53051848117E+02  0.69676981782E+02  0.00000000000E+00 0.  1.
         11    1    3    3    0    0  0.13925825343E+03  0.19731889768E+03  0.60397975153E+03  0.65047609395E+03  0.00000000000E+00 0. -1.
        -11    1    4    4    0    0  0.16236607147E+02 -0.21676221499E+02 -0.26955441746E+02  0.38211017127E+02  0.00000000000E+00 0.  1.
         11    1    4    4    0    0 -0.10919062196E+03 -0.77852307187E+02 -0.20643631820E+03  0.24616971205E+03  0.00000000000E+00 0. -1.
          2    1    1    2  501    0 -0.44393303633E+02 -0.14292053107E+03 -0.76634214958E+02  0.16813639259E+03  0.00000000000E+00 0. -1.
<scales pt_clust_5="13000.00000" pt_clust_6="13000.00000" pt_clust_7="13000.00000" pt_clust_8="13000.00000" pt_clust_9="13000.00000"></scales>
<clustering>
<clus scale="   88.625">  7  8 -1 -1</clus>
<clus scale="   96.354">  5  6 -1 -1</clus>
<clus scale="  149.656">  7  9 -1 -1</clus>
<clus scale="  294.839">  1  5  2 -1</clus>
<clus scale="  329.630">  2  5  1 -1</clus>
</clustering>
</event>
<event>
 9    1  0.3303741E-006  0.4501364E+03  0.7546771E-02  0.1082879E+00
         21   -1    0    0  501  502  0.00000000000E+00  0.00000000000E+00  0.98722421057E+02  0.98722421057E+02  0.00000000000E+00 0. -1.
          3   -1    0    0  502    0 -0.00000000000E+00 -0.00000000000E+00 -0.90049583108E+03  0.90049583108E+03  0.00000000000E+00 0. -1.
         23    2    1    2    0    0 -0.22902389254E+02 -0.10246926003E+02 -0.34573435740E+03  0.35844182735E+03  0.91207339493E+02 0.  0.
         23    2    1    2    0    0  0.67309727499E+02  0.60505711717E+02 -0.52745782915E+03  0.54280398544E+03  0.90735133806E+02 0.  0.
        -11    1    4    4    0    0 -0.20650153090E+02  0.10458945452E+02 -0.55790240914E+02  0.60401732954E+02  0.00000000000E+00 0.  1.
         11    1    4    4    0    0  0.87959880589E+02  0.50046766265E+02 -0.47166758824E+03  0.48240225248E+03  0.00000000000E+00 0. -1.
        -13    1    3    3    0    0  0.34600771346E+02  0.53154000720E+01 -0.12470560777E+03  0.12952588724E+03  0.00000000000E+00 0. -1.
         13    1    3    3    0    0 -0.57503160599E+02 -0.15562326075E+02 -0.22102874963E+03  0.22891594011E+03  0.00000000000E+00 0.  1.
          3    1    1    2  501    0 -0.44407338245E+02 -0.50258785714E+02  0.71418776531E+02  0.97972439352E+02  0.00000000000E+00 0. -1.
<scales pt_clust_5="13000.00000" pt_clust_6="13000.00000" pt_clust_7="13000.00000" pt_clust_8="13000.00000" pt_clust_9="13000.00000"></scales>
<clustering>
<clus scale="   90.735">  5  6 -1 -1</clus>
<clus scale="   67.067">  5  9 -1 -1</clus>
<clus scale="   91.207">  7  8 -1 -1</clus>
<clus scale="   94.595">  2  7  1 -1</clus>
<clus scale="  450.136">  1  5  2 -1</clus>
</clustering>
</event>
<event>
 9    1  0.3303741E-006  0.1476545E+03  0.7546771E-02  0.1214467E+00
          1   -1    0    0  502    0 -0.00000000000E+00  0.00000000000E+00  0.48155801498E+03  0.48155801498E+03  0.00000000000E+00 0. -1.
         21   -1    0    0  501  502  0.00000000000E+00 -0.00000000000E+00 -0.54276177410E+02  0.54276177410E+02  0.00000000000E+00 0. -1.
         23    2    1    2    0    0  0.41276156934E+02 -0.57744922988E+02  0.35061947892E+03  0.36946420118E+03  0.92366550725E+02 0.  0.
         23    2    1    2    0    0 -0.11516952481E+02  0.19412470581E+02  0.75658124245E+02  0.11783139168E+03  0.87467713428E+02 0.  0.
        -13    1    3    3    0    0  0.34503003499E+02 -0.78822266521E+02  0.32190548330E+03  0.33320646321E+03  0.00000000000E+00 0. -1.
         13    1    3    3    0    0  0.67731534352E+01  0.21077343533E+02  0.28713995627E+02  0.36257737970E+02  0.00000000000E+00 0.  1.
        -13    1    4    4    0    0 -0.20492349341E+01  0.53760347635E+02  0.53510654146E+02  0.75879934428E+02  0.00000000000E+00 0. -1.
         13    1    4    4    0    0 -0.94677175466E+01 -0.34347877055E+02  0.22147470099E+02  0.41951457251E+02  0.00000000000E+00 0.  1.
          1    1    1    2  501    0 -0.29759204453E+02  0.38332452408E+02  0.10042344006E+01  0.48538599527E+02  0.00000000000E+00 0. -1.
<scales pt_clust_5="13000.00000" pt_clust_6="13000.00000" pt_clust_7="13000.00000" pt_clust_8="13000.00000" pt_clust_9="13000.00000"></scales>
<clustering>
<clus scale="   87.468">  7  8 -1 -1</clus>
<clus scale="   48.528">  7  9 -1 -1</clus>
<clus scale="   92.367">  5  6 -1 -1</clus>
<clus scale="  116.489">  1  5  2 -1</clus>
<clus scale="  147.655">  2  5  1 -1</clus>
</clustering>
</event>
<event>
 9    1  0.3303741E-006  0.5524680E+03  0.7546771E-02  0.1057014E+00
         -2   -1    0    0    0  501 -0.00000000000E+00  0.00000000000E+00  0.11783139823E+03  0.11783139823E+03  0.00000000000E+00 0.  1.
         21   -1    0    0  501  502  0.00000000000E+00 -0.00000000000E+00 -0.93510708049E+03  0.93510708049E+03  0.00000000000E+00 0.  1.
         23    2    1    2    0    0 -0.25648205286E+01  0.50925175607E+02 -0.19317419860E+03  0.21943772816E+03  0.90756232405E+02 0.  0.
         23    2    1    2    0    0  0.35143076208E+02  0.62042230921E+02  0.65855766368E+02  0.13359791120E+03  0.91799486324E+02 0.  0.
        -11    1    4    4    0    0 -0.78459125576E+01  0.54363314238E+02  0.41947119493E+00  0.54928173417E+02  0.00000000000E+00 0. -1.
         11    1    4    4    0    0  0.42988988765E+02  0.76789166827E+01  0.65436295173E+02  0.78669737781E+02  0.00000000000E+00 0.  1.
        -13    1    3    3    0    0  0.37787786094E+02  0.51257909458E+02 -0.12196865574E+03  0.13759230735E+03  0.00000000000E+00 0.  1.
         13    1    3    3    0    0 -0.40352606622E+02 -0.33273385062E+00 -0.71205542870E+02  0.81845420815E+02  0.00000000000E+00 0. -1.
         -2    1    1    2    0  502 -0.32578255679E+02 -0.11296740653E+03 -0.68995725002E+03  0.69990283936E+03  0.00000000000E+00 0.  1.
<scales pt_clust_5="13000.00000" pt_clust_6="13000.00000" pt_clust_7="13000.00000" pt_clust_8="13000.00000" pt_clust_9="13000.00000"></scales>
<clustering>
<clus scale="   90.756">  7  8 -1 -1</clus>
<clus scale="   91.799">  5  6 -1 -1</clus>
<clus scale="  104.099">  1  7  2 -1</clus>
<clus scale="  115.284">  5  9 -1 -1</clus>
<clus scale="  552.468">  2  5  1 -1</clus>
</clustering>
</event>
<event>
 9    1  0.3303741E-006  0.2025255E+03  0.7546771E-02  0.1176606E+00
         21   -1    0    0  501  502  0.00000000000E+00  0.00000000000E+00  0.63101267894E+03  0.63101267894E+03  0.00000000000E+00 0. -1.
         -2   -1    0    0    0  501 -0.00000000000E+00 -0.00000000000E+00 -0.89887400783E+02  0.89887400783E+02  0.00000000000E+00 0.  1.
         23    2    1    2    0    0 -0.12025580080E+02  0.34452274375E+02 -0.35825609708E+02  0.10943553022E+03  0.96752711471E+02 0.  0.
         23    2    1    2    0    0  0.72575072288E+02  0.22760147340E+02  0.31801852067E+03  0.33946184183E+03  0.91177832513E+02 0.  0.
        -13    1    4    4    0    0  0.17705812552E+01  0.34719882104E+02  0.18558775906E+03  0.18881584013E+03  0.00000000000E+00 0.  1.
         13    1    4    4    0    0  0.70804491033E+02 -0.11959734764E+02  0.13243076161E+03  0.15064600170E+03  0.00000000000E+00 0. -1.
        -13    1    3    3    0    0 -0.52940102789E+02  0.22368777505E+02 -0.68824834696E+01  0.57882512637E+02  0.00000000000E+00 0.  1.
         13    1    3    3    0    0  0.40914522709E+02  0.12083496869E+02 -0.28943126238E+02  0.51553017580E+02  0.00000000000E+00 0. -1.
         -2    1    1    2    0  502 -0.60549492208E+02 -0.57212421715E+02  0.25893236719E+03  0.27200270768E+03  0.00000000000E+00 0.  1.
<scales pt_clust_5="13000.00000" pt_clust_6="13000.00000" pt_clust_7="13000.00000" pt_clust_8="13000.00000" pt_clust_9="13000.00000"></scales>
<clustering>
<clus scale="   91.178">  5  6 -1 -1</clus>
<clus scale="   83.304">  5  9 -1 -1</clus>
<clus scale="   96.753">  7  8 -1 -1</clus>
<clus scale="  103.405">  2  7  1 -1</clus>
<clus scale="  202.525">  1  5  2 -1</clus>
</clustering>
</event>
<event>
 9    1  0.3303741E-006  0.2008528E+03  0.7546771E-02  0.1162596E+00
         21   -1    0    0  501  502  0.00000000000E+00  0.00000000000E+00  0.36866180074E+03  0.36866180074E+03  0.00000000000E+00 0.  1.
          1   -1    0    0  502    0 -0.00000000000E+00 -0.00000000000E+00 -0.83402977285E+02  0.83402977285E+02  0.00000000000E+00 0. -1.
         23    2    1    2    0    0  0.11116646909E+03 -0.50548923814E+01  0.87997287095E+02  0.17054398743E+03  0.94647732801E+02 0.  0.
         23    2    1    2    0    0 -0.12677622801E+02  0.11302794754E+02  0.51699398023E+02  0.10565884121E+03  0.90567586254E+02 0.  0.
        -11    1    3    3    0    0  0.94286213167E+02  0.18632961983E+02  0.10034304652E+03  0.13894532828E+03  0.00000000000E+00 0.  1.
         11    1    3    3    0    0  0.16880255921E+02 -0.23687854365E+02 -0.12345759421E+02  0.31598659149E+02  0.00000000000E+00 0. -1.
        -13    1    4    4    0    0 -0.36377993205E+02  0.39646331749E+02  0.21512252436E+02  0.57947968175E+02  0.00000000000E+00 0. -1.
         13    1    4    4    0    0  0.23700370404E+02 -0.28343536995E+02  0.30187145587E+02  0.47710873031E+02  0.00000000000E+00 0.  1.
          1    1    1    2  501    0 -0.98488846287E+02 -0.62479023723E+01  0.14556213834E+03  0.17586194940E+03  0.00000000000E+00 0. -1.
<scales pt_clust_5="13000.00000" pt_clust_6="13000.00000" pt_clust_7="13000.00000" pt_clust_8="13000.00000" pt_clust_9="13000.00000"></scales>
<clustering>
<clus scale="   90.568">  7  8 -1 -1</clus>
<clus scale="   94.648">  5  6 -1 -1</clus>
<clus scale="   98.687">  7  9 -1 -1</clus>
<clus scale="  146.088">  2  5  1 -1</clus>
<clus scale="  200.853">  1  5  2 -1</clus>
</clustering>
</event>
<event>
 9    1  0.3303741E-006  0.1823226E+03  0.7546771E-02  0.1195098E+00
         21   -1    0    0  501  502  0.00000000000E+00  0.00000000000E+00  0.19868722643E+03  0.19868722643E+03  0.00000000000E+00 0.  1.
         -1   -1    0    0    0  501 -0.00000000000E+00 -0.00000000000E+00 -0.97369891156E+02  0.97369891156E+02  0.00000000000E+00 0.  1.
         23    2    1    2    0    0 -0.21445399289E+02 -0.83094725101E+01  0.18109329545E+02  0.95644753785E+02  0.91055030755E+02 0.  0.
         23    2    1    2    0    0  0.34073309898E+01 -0.19220756772E+02 -0.18353422497E+02  0.93650904765E+02  0.89736260511E+02 0.  0.
        -13    1    3    3    0    0 -0.25018900194E+02  0.22012074888E+02  0.44289364628E+02  0.55425848003E+02  0.00000000000E+00 0. -1.
         13    1    3    3    0    0  0.35735009041E+01 -0.30321547398E+02 -0.26180035083E+02  0.40218905781E+02  0.00000000000E+00 0.  1.
        -13    1    4    4    0    0  0.79493018573E+01  0.35054027670E+02  0.69696246817E+00  0.35950827703E+02  0.00000000000E+00 0. -1.
         13    1    4    4    0    0 -0.45419708675E+01 -0.54274784442E+02 -0.19050384965E+02  0.57700077061E+02  0.00000000000E+00 0.  1.
         -1    1    1    2    0  502  0.18038068300E+02  0.27530229282E+02  0.10156142823E+03  0.10676145904E+03  0.00000000000E+00 0.  1.
<scales pt_clust_5="13000.00000" pt_clust_6="13000.00000" pt_clust_7="13000.00000" pt_clust_8="13000.00000" pt_clust_9="13000.00000"></scales>
<clustering>
<clus scale="   89.736">  7  8 -1 -1</clus>
<clus scale="   32.913">  7  9 -1 -1</clus>
<clus scale="   91.055">  5  6 -1 -1</clus>
<clus scale="   93.915">  2  5  1 -1</clus>
<clus scale="  182.323">  1  5  2 -1</clus>
</clustering>
</event>
<event>
 9    1  0.3303741E-006  0.1701287E+03  0.7546771E-02  0.1201577E+00
          2   -1    0    0  502    0 -0.00000000000E+00  0.00000000000E+00  0.11429527520E+03  0.11429527520E+03  0.00000000000E+00 0. -1.
         21   -1    0    0  501  502  0.00000000000E+00 -0.00000000000E+00 -0.16060462973E+03  0.16060462973E+03  0.00000000000E+00 0. -1.
         23    2    1    2    0    0 -0.83997501908E+01  0.41868577945E+02 -0.24977855785E+02  0.10343912150E+03  0.90841757773E+02 0.  0.
         23    2    1    2    0    0  0.44356502173E+02 -0.45671991527E+02  0.23712232649E+02  0.11370014193E+03  0.91170292321E+02 0.  0.
        -11    1    4    4    0    0 -0.26246941507E+02 -0.46788923828E+01 -0.50613020651E+01  0.27136889118E+02  0.00000000000E+00 0.  1.
         11    1    4    4    0    0  0.70603443680E+02 -0.40993099144E+02  0.28773534714E+02  0.86563252809E+02  0.00000000000E+00 0. -1.
        -11    1    3    3    0    0  0.76447152955E+01 -0.24057915951E+02 -0.25085840680E+02  0.35588262032E+02  0.00000000000E+00 0. -1.
         11    1    3    3    0    0 -0.16044465486E+02  0.65926493896E+02  0.10798489496E+00  0.67850859470E+02  0.00000000000E+00 0.  1.
          2    1    1    2  501    0 -0.35956751982E+02  0.38034135820E+01 -0.45043731394E+02  0.57760641495E+02  0.00000000000E+00 0. -1.
<scales pt_clust_5="13000.00000" pt_clust_6="13000.00000" pt_clust_7="13000.00000" pt_clust_8="13000.00000" pt_clust_9="13000.00000"></scales>
<clustering>
<clus scale="   90.842">  7  8 -1 -1</clus>
<clus scale="   91.170">  5  6 -1 -1</clus>
<clus scale="   36.157">  5  9 -1 -1</clus>
<clus scale="  100.378">  1  7  2 -1</clus>
<clus scale="  170.129">  2  5  1 -1</clus>
</clustering>
</event>
<event>
 9    1  0.3303741E-006  0.2395274E+03  0.7546771E-02  0.1155388E+00
         21   -1    0    0  501  502  0.00000000000E+00  0.00000000000E+00  0.13907988278E+03  0.13907988278E+03  0.00000000000E+00 0. -1.
         -1   -1    0    0    0  501 -0.00000000000E+00 -0.00000000000E+00 -0.21384239191E+03  0.21384239191E+03  0.00000000000E+00 0.  1.
         23    2    1    2    0    0  0.19903533049E+02 -0.40136570910E+02  0.31337190262E+00  0.10190478047E+03  0.91528089285E+02 0.  0.
         23    2    1    2    0    0 -0.10581277835E+03  0.31868957312E+02 -0.80526332375E+02  0.16453940866E+03  0.91524599398E+02 0.  0.
        -11    1    4    4    0    0 -0.91649755001E+02 -0.97382107836E+01 -0.28582468949E+02  0.96495947439E+02  0.00000000000E+00 0. -1.
         11    1    4    4    0    0 -0.14163023344E+02  0.41607168095E+02 -0.51943863426E+02  0.68043461220E+02  0.00000000000E+00 0.  1.
        -13    1    3    3    0    0 -0.36327874674E+02 -0.19171813977E+02  0.64486803912E+01  0.41579543146E+02  0.00000000000E+00 0. -1.
         13    1    3    3    0    0  0.56231407722E+02 -0.20964756933E+02 -0.61353084885E+01  0.60325237322E+02  0.00000000000E+00 0.  1.
         -1    1    1    2    0  502  0.85909245296E+02  0.82676135978E+01  0.54504513374E+01  0.86478085558E+02  0.00000000000E+00 0.  1.
<scales pt_clust_5="13000.00000" pt_clust_6="13000.00000" pt_clust_7="13000.00000" pt_clust_8="13000.00000" pt_clust_9="13000.00000"></scales>
<clustering>
<clus scale="   91.525">  5  6 -1 -1</clus>
<clus scale="   86.306">  5  9 -1 -1</clus>
<clus scale="   91.528">  7  8 -1 -1</clus>
<clus scale="  101.904">  2  7  1 -1</clus>
<clus scale="  239.527">  1  5  2 -1</clus>
</clustering>
</event>
<event>
 9    1  0.3303741E-006  0.2195978E+03  0.7546771E-02  0.1153715E+00
          4   -1    0    0  502    0 -0.00000000000E+00  0.00000000000E+00  0.85653141683E+02  0.85653141683E+02  0.00000000000E+00 0. -1.
         21   -1    0    0  501  502  0.00000000000E+00 -0.00000000000E+00 -0.52478765285E+03  0.52478765285E+03  0.00000000000E+00 0.  1.
         23    2    1    2    0    0  0.12657014116E+02  0.10246991609E+03 -0.22359981912E+02  0.13935247796E+03  0.90878273604E+02 0.  0.
         23    2    1    2    0    0 -0.73996849009E+00 -0.13965676156E+03 -0.38769717577E+03  0.42240187146E+03  0.92788373768E+02 0.  0.
        -11    1    3    3    0    0  0.48634552136E+02  0.31865100525E+02 -0.61445067627E+01  0.58467591504E+02  0.00000000000E+00 0.  1.
         11    1    3    3    0    0 -0.35977538021E+02  0.70604815561E+02 -0.16215475149E+02  0.80884886454E+02  0.00000000000E+00 0. -1.
        -13    1    4    4    0    0 -0.45578993078E+02 -0.88623491068E+02 -0.22400331384E+03  0.24517147548E+03  0.00000000000E+00 0.  1.
         13    1    4    4    0    0  0.44839024588E+02 -0.51033270491E+02 -0.16369386194E+03  0.17723039598E+03  0.00000000000E+00 0. -1.
          4    1    1    2  501    0 -0.11917045625E+02  0.37186845473E+02 -0.29077353484E+02  0.48686445119E+02  0.00000000000E+00 0. -1.
<scales pt_clust_5="13000.00000" pt_clust_6="13000.00000" pt_clust_7="13000.00000" pt_clust_8="13000.00000" pt_clust_9="13000.00000"></scales>
<clustering>
<clus scale="   90.878">  5  6 -1 -1</clus>
<clus scale="   92.788">  7  8 -1 -1</clus>
<clus scale="   39.050">  7  9 -1 -1</clus>
<clus scale="  137.547">  1  5  2 -1</clus>
<clus scale="  219.598">  2  5  1 -1</clus>
</clustering>
</event>
<event>
 9    1  0.3303741E-006  0.2928435E+03  0.7546771E-02  0.1120562E+00
         21   -1    0    0  501  502  0.00000000000E+00  0.00000000000E+00  0.80628059857E+02  0.80628059857E+02  0.00000000000E+00 0. -1.
         -3   -1    0    0    0  501 -0.00000000000E+00 -0.00000000000E+00 -0.57716983627E+03  0.57716983627E+03  0.00000000000E+00 0.  1.
         23    2    1    2    0    0 -0.14266507095E+02  0.91183128338E+02 -0.94409695467E+02  0.16033682660E+03  0.90976981963E+02 0.  0.
         23    2    1    2    0    0  0.10872627419E+02 -0.17889665479E+03 -0.31580113047E+03  0.37434237008E+03  0.90992466229E+02 0.  0.
        -13    1    3    3    0    0 -0.50277441392E+02  0.41342052068E+02 -0.65666694912E+02  0.92461349778E+02  0.00000000000E+00 0.  1.
         13    1    3    3    0    0  0.36010934297E+02  0.49841076269E+02 -0.28743000555E+02  0.67875476820E+02  0.00000000000E+00 0. -1.
        -13    1    4    4    0    0  0.25165519592E+02 -0.15629874285E+03 -0.19781374850E+03  0.25336313759E+03  0.00000000000E+00 0. -1.
         13    1    4    4    0    0 -0.14292892173E+02 -0.22597911940E+02 -0.11798738197E+03  0.12097923249E+03  0.00000000000E+00 0.  1.
         -3    1    1    2    0  502  0.33938796762E+01  0.87713526457E+02 -0.86330950479E+02  0.12311869945E+03  0.00000000000E+00 0.  1.
<scales pt_clust_5="13000.00000" pt_clust_6="13000.00000" pt_clust_7="13000.00000" pt_clust_8="13000.00000" pt_clust_9="13000.00000"></scales>
<clustering>
<clus scale="   90.977">  5  6 -1 -1</clus>
<clus scale="   90.992">  7  8 -1 -1</clus>
<clus scale="   87.779">  7  9 -1 -1</clus>
<clus scale="  129.594">  2  5  1 -1</clus>
<clus scale="  292.843">  1  5  2 -1</clus>
</clustering>
</event>
<event>
 9    1  0.3303741E-006  0.2981684E+03  0.7546771E-02  0.1127870E+00
         21   -1    0    0  501  502  0.00000000000E+00  0.00000000000E+00  0.10197907805E+03  0.10197907805E+03  0.00000000000E+00 0.  1.
          2   -1    0    0  502    0 -0.00000000000E+00 -0.00000000000E+00 -0.48452431108E+03  0.48452431108E+03  0.00000000000E+00 0. -1.
         23    2    1    2    0    0 -0.37769458519E+02 -0.26723333097E+02 -0.11848191688E+01  0.10241646775E+03  0.91362248993E+02 0.  0.
         23    2    1    2    0    0  0.88104676744E+02 -0.97348879503E+01 -0.39955198504E+03  0.41932760284E+03  0.91305244363E+02 0.  0.
        -13    1    3    3    0    0  0.30087257918E+02 -0.74022356391E+01  0.57827467251E+01  0.31519459722E+02  0.00000000000E+00 0.  1.
         13    1    3    3    0    0 -0.67856716437E+02 -0.19321097458E+02 -0.69675658939E+01  0.70897008027E+02  0.00000000000E+00 0. -1.
        -13    1    4    4    0    0  0.53503180212E+01 -0.37328412395E+02 -0.86796519396E+02  0.94634412631E+02  0.00000000000E+00 0.  1.
         13    1    4    4    0    0  0.82754358723E+02  0.27593524444E+02 -0.31275546565E+03  0.32469319021E+03  0.00000000000E+00 0. -1.
          2    1    1    2  501    0 -0.50335218225E+02  0.36458221047E+02  0.18191571175E+02  0.64759318538E+02  0.00000000000E+00 0. -1.
<scales pt_clust_5="13000.00000" pt_clust_6="13000.00000" pt_clust_7="13000.00000" pt_clust_8="13000.00000" pt_clust_9="13000.00000"></scales>
<clustering>
<clus scale="   91.305">  7  8 -1 -1</clus>
<clus scale="   62.152">  7  9 -1 -1</clus>
<clus scale="   91.362">  5  6 -1 -1</clus>
<clus scale="  102.410">  2  5  1 -1</clus>
<clus scale="  298.168">  1  5  2 -1</clus>
</clustering>
</event>
<event>
 9    1  0.3303741E-006  0.1882450E+03  0.7546771E-02  0.1175378E+00
         21   -1    0    0  501  502  0.00000000000E+00  0.00000000000E+00  0.28687590686E+02  0.28687590686E+02  0.00000000000E+00 0.  1.
          2   -1    0    0  502    0 -0.00000000000E+00 -0.00000000000E+00 -0.96405174767E+03  0.96405174767E+03  0.00000000000E+00 0. -1.
         23    2    1    2    0    0  0.15733266907E+02 -0.94324344216E+02 -0.26192149749E+03  0.29348174080E+03  0.91564423977E+02 0.  0.
         23    2    1    2    0    0 -0.57372115306E+02  0.57121775128E+02 -0.35184168898E+03  0.37284526770E+03  0.93094375423E+02 0.  0.
        -11    1    3    3    0    0 -0.10477903562E+02 -0.51441619196E+02 -0.40162563321E+02  0.66098851284E+02  0.00000000000E+00 0.  1.
         11    1    3    3    0    0  0.26211170468E+02 -0.42882725020E+02 -0.22175893417E+03  0.22738288952E+03  0.00000000000E+00 0. -1.
        -13    1    4    4    0    0 -0.70953484442E+02  0.84574590928E+01 -0.17789298574E+03  0.19170769401E+03  0.00000000000E+00 0.  1.
         13    1    4    4    0    0  0.13581369136E+02  0.48664316036E+02 -0.17394870324E+03  0.18113757369E+03  0.00000000000E+00 0. -1.
          2    1    1    2  501    0  0.41638848400E+02  0.37202569088E+02 -0.32160097052E+03  0.32641232985E+03  0.00000000000E+00 0. -1.
<scales pt_clust_5="13000.00000" pt_clust_6="13000.00000" pt_clust_7="13000.00000" pt_clust_8="13000.00000" pt_clust_9="13000.00000"></scales>
<clustering>
<clus scale="   91.564">  5  6 -1 -1</clus>
<clus scale="   93.094">  7  8 -1 -1</clus>
<clus scale="   55.838">  7  9 -1 -1</clus>
<clus scale="  132.396">  2  5  1 -1</clus>
<clus scale="  188.245">  1  5  2 -1</clus>
</clustering>
</event>
<event>
 9    1  0.3303741E-006  0.3409202E+03  0.7546771E-02  0.1112556E+00
         21   -1    0    0  501  502  0.00000000000E+00  0.00000000000E+00  0.12250874015E+03  0.12250874015E+03  0.00000000000E+00 0. -1.
          1   -1    0    0  502    0 -0.00000000000E+00 -0.00000000000E+00 -0.61676707606E+03  0.61676707606E+03  0.00000000000E+00 0. -1.
         23    2    1    2    0    0 -0.91291696279E+01 -0.41305950043E+02 -0.35851121895E+03  0.37232366398E+03  0.91132285140E+02 0.  0.
         23    2    1    2    0    0  0.78789537276E+01  0.62771354327E+01 -0.24208649700E+03  0.25498499347E+03  0.79435473981E+02 0.  0.
        -13    1    4    4    0    0 -0.33097893978E+02  0.26628215583E+00 -0.15576022028E+03  0.15923814779E+03  0.00000000000E+00 0. -1.
         13    1    4    4    0    0  0.40976847706E+02  0.60108532769E+01 -0.86326276721E+02  0.95746845680E+02  0.00000000000E+00 0.  1.
        -13    1    3    3    0    0  0.12831297236E+02  0.26367847056E+02 -0.10445937524E+03  0.10849731159E+03  0.00000000000E+00 0.  1.
         13    1    3    3    0    0 -0.21960466864E+02 -0.67673797099E+02 -0.25405184371E+03  0.26382635238E+03  0.00000000000E+00 0. -1.
          1    1    1    2  501    0  0.12502159003E+01  0.35028814611E+02  0.10633938004E+03  0.11196715876E+03  0.00000000000E+00 0. -1.
<scales pt_clust_5="13000.00000" pt_clust_6="13000.00000" pt_clust_7="13000.00000" pt_clust_8="13000.00000" pt_clust_9="13000.00000"></scales>
<clustering>
<clus scale="   79.435">  5  6 -1 -1</clus>
<clus scale="   35.051">  5  9 -1 -1</clus>
<clus scale="   91.132">  7  8 -1 -1</clus>
<clus scale="  100.472">  2  7  1 -1</clus>
<clus scale="  340.920">  1  5  2 -1</clus>
</clustering>
</event>
<event>
 9    1  0.3303741E-006  0.2855271E+03  0.7546771E-02  0.1126006E+00
          1   -1    0    0  502    0 -0.00000000000E+00  0.00000000000E+00  0.56846857078E+03  0.56846857078E+03  0.00000000000E+00 0. -1.
         21   -1    0    0  501  502  0.00000000000E+00 -0.00000000000E+00 -0.14832689054E+03  0.14832689054E+03  0.00000000000E+00 0.  1.
         23    2    1    2    0    0  0.60463598244E+02  0.42384353979E+02 -0.76375942854E+02  0.14403420712E+03  0.97264011839E+02 0.  0.
         23    2    1    2    0    0 -0.76205454618E+02  0.78430167184E+02  0.37295415018E+03  0.39923348582E+03  0.91290829872E+02 0.  0.
        -11    1    4    4    0    0 -0.59754499059E+02  0.21751231615E+02  0.29320382425E+03  0.30002033062E+03  0.00000000000E+00 0. -1.
         11    1    4    4    0    0 -0.16450955559E+02  0.56678935569E+02  0.79750325939E+02  0.99213155194E+02  0.00000000000E+00 0.  1.
        -13    1    3    3    0    0 -0.26391065553E+02  0.63228849106E+01 -0.24869592185E+02  0.36809833334E+02  0.00000000000E+00 0. -1.
         13    1    3    3    0    0  0.86854663797E+02  0.36061469068E+02 -0.51506350669E+02  0.10722437379E+03  0.00000000000E+00 0.  1.
          1    1    1    2  501    0  0.15741856374E+02 -0.12081452116E+03  0.12356347291E+03  0.17352776839E+03  0.00000000000E+00 0. -1.
<scales pt_clust_5="13000.00000" pt_clust_6="13000.00000" pt_clust_7="13000.00000" pt_clust_8="13000.00000" pt_clust_9="13000.00000"></scales>
<clustering>
<clus scale="   91.291">  5  6 -1 -1</clus>
<clus scale="   97.264">  7  8 -1 -1</clus>
<clus scale="  121.836">  5  9 -1 -1</clus>
<clus scale="  122.117">  1  7  2 -1</clus>
<clus scale="  285.527">  2  5  1 -1</clus>
</clustering>
</event>
<event>
 9    1  0.3303741E-006  0.1471968E+03  0.7546771E-02  0.1226921E+00
         21   -1    0    0  501  502  0.00000000000E+00  0.00000000000E+00  0.85975615031E+02  0.85975615031E+02  0.00000000000E+00 0. -1.
          2   -1    0    0  502    0 -0.00000000000E+00 -0.00000000000E+00 -0.28664391084E+03  0.28664391084E+03  0.00000000000E+00 0. -1.
         23    2    1    2    0    0 -0.14093846862E+02  0.13245931743E+01 -0.20631774043E+03  0.22531439986E+03  0.89438122179E+02 0.  0.
         23    2    1    2    0    0 -0.23186277696E+02  0.28503413097E+02 -0.13772212908E+02  0.95761761489E+02  0.87353266016E+02 0.  0.
        -11    1    4    4    0    0 -0.12778207276E+02 -0.19664146061E+02 -0.34979279789E+02  0.42113076782E+02  0.00000000000E+00 0. -1.
         11    1    4    4    0    0 -0.10408070420E+02  0.48167559157E+02  0.21207066882E+02  0.53648684707E+02  0.00000000000E+00 0.  1.
        -13    1    3    3    0    0  0.31141464470E+02 -0.20260962718E+02 -0.59192844846E+02  0.69886266895E+02  0.00000000000E+00 0.  1.
         13    1    3    3    0    0 -0.45235311332E+02  0.21585555892E+02 -0.14712489559E+03  0.15542813296E+03  0.00000000000E+00 0. -1.
          2    1    1    2  501    0  0.37280124558E+02 -0.29828006271E+02  0.19421657532E+02  0.51543364524E+02  0.00000000000E+00 0. -1.
<scales pt_clust_5="13000.00000" pt_clust_6="13000.00000" pt_clust_7="13000.00000" pt_clust_8="13000.00000" pt_clust_9="13000.00000"></scales>
<clustering>
<clus scale="   87.353">  5  6 -1 -1</clus>
<clus scale="   47.744">  5  9 -1 -1</clus>
<clus scale="   89.438">  7  8 -1 -1</clus>
<clus scale="   90.551">  2  7  1 -1</clus>
<clus scale="  147.197">  1  5  2 -1</clus>
</clustering>
</event>
<event>
 9    1  0.3303741E-006  0.2846114E+03  0.7546771E-02  0.1122000E+00
         21   -1    0    0  501  502  0.00000000000E+00  0.00000000000E+00  0.41153431453E+02  0.41153431453E+02  0.00000000000E+00 0. -1.
          1   -1    0    0  502    0 -0.00000000000E+00 -0.00000000000E+00 -0.11810022127E+04  0.11810022127E+04  0.00000000000E+00 0. -1.
         23    2    1    2    0    0 -0.92721426576E+02 -0.40291400885E+02 -0.55864831823E+03  0.57500987312E+03  0.91256510952E+02 0.  0.
         23    2    1    2    0    0  0.14512992811E+03  0.90724316258E+02 -0.31172792264E+03  0.36803006025E+03  0.94753521858E+02 0.  0.
        -11    1    3    3    0    0 -0.10716196883E+02 -0.49319088707E+02 -0.15476108910E+03  0.16278268976E+03  0.00000000000E+00 0.  1.
         11    1    3    3    0    0 -0.82005229693E+02  0.90276878219E+01 -0.40388722913E+03  0.41222718336E+03  0.00000000000E+00 0. -1.
        -13    1    4    4    0    0  0.53073378987E+02  0.73072742297E+02 -0.90924864274E+02  0.12815514101E+03  0.00000000000E+00 0. -1.
         13    1    4    4    0    0  0.92056549126E+02  0.17651573961E+02 -0.22080305836E+03  0.23987491924E+03  0.00000000000E+00 0.  1.
          1    1    1    2  501    0 -0.52408501536E+02 -0.50432915373E+02 -0.26947254043E+03  0.27911571083E+03  0.00000000000E+00 0. -1.
<scales pt_clust_5="13000.00000" pt_clust_6="13000.00000" pt_clust_7="13000.00000" pt_clust_8="13000.00000" pt_clust_9="13000.00000"></scales>
<clustering>
<clus scale="   91.257">  5  6 -1 -1</clus>
<clus scale="   94.754">  7  8 -1 -1</clus>
<clus scale="   72.733">  7  9 -1 -1</clus>
<clus scale="  136.193">  2  5  1 -1</clus>
<clus scale="  284.611">  1  5  2 -1</clus>
</clustering>
</event>
<event>
 9    1  0.3303741E-006  0.5727127E+03  0.7546771E-02  0.1040354E+00
         21   -1    0    0  501  502  0.00000000000E+00  0.00000000000E+00  0.19173906804E+04  0.19173906804E+04  0.00000000000E+00 0. -1.
          2   -1    0    0  502    0 -0.00000000000E+00 -0.00000000000E+00 -0.14894933084E+03  0.14894933084E+03  0.00000000000E+00 0. -1.
         23    2    1    2    0    0  0.76544615388E+02 -0.92304766002E+02 -0.50985326577E+02  0.15890369382E+03  0.90948515170E+02 0.  0.
         23    2    1    2    0    0 -0.77056793236E+00 -0.19316889723E+03  0.36486208291E+03  0.42318732398E+03  0.92996532208E+02 0.  0.
        -11    1    3    3    0    0  0.81349597009E+02 -0.30670447406E+02 -0.17815263410E+02  0.88745799269E+02  0.00000000000E+00 0.  1.
         11    1    3    3    0    0 -0.48049816205E+01 -0.61634318596E+02 -0.33170063167E+02  0.70157894550E+02  0.00000000000E+00 0. -1.
        -13    1    4    4    0    0  0.22396799984E+01 -0.13691120802E+03  0.15938540032E+03  0.21012710649E+03  0.00000000000E+00 0. -1.
         13    1    4    4    0    0 -0.30102479308E+01 -0.56257689207E+02  0.20547668259E+03  0.21306021749E+03  0.00000000000E+00 0.  1.
          2    1    1    2  501    0 -0.75774047456E+02  0.28547366323E+03  0.14545645932E+04  0.14842489934E+04  0.00000000000E+00 0. -1.
<scales pt_clust_5="13000.00000" pt_clust_6="13000.00000" pt_clust_7="13000.00000" pt_clust_8="13000.00000" pt_clust_9="13000.00000"></scales>
<clustering>
<clus scale="   90.949">  5  6 -1 -1</clus>
<clus scale="   92.997">  7  8 -1 -1</clus>
<clus scale="  150.502">  2  5  1 -1</clus>
<clus scale="  259.200">  7  9 -1 -1</clus>
<clus scale="  572.713">  1  5  2 -1</clus>
</clustering>
</event>
<event>
 9    1  0.3303741E-006  0.2404067E+03  0.7546771E-02  0.1142184E+00
          2   -1    0    0  502    0 -0.00000000000E+00  0.00000000000E+00  0.32698444556E+03  0.32698444556E+03  0.00000000000E+00 0. -1.
         21   -1    0    0  501  502  0.00000000000E+00 -0.00000000000E+00 -0.13988659219E+03  0.13988659219E+03  0.00000000000E+00 0. -1.
         23    2    1    2    0    0 -0.27940409352E+02  0.94457055011E+02  0.17947924682E+03  0.22634362748E+03  0.96518578223E+02 0.  0.
         23    2    1    2    0    0  0.55565414496E+02 -0.42508891706E+02  0.86011480236E+02  0.14251110947E+03  0.89537257201E+02 0.  0.
        -11    1    3    3    0    0 -0.21829383629E+02 -0.16076343884E+02  0.32032553748E+02  0.41964929667E+02  0.00000000000E+00 0.  1.
         11    1    3    3    0    0 -0.61110257226E+01  0.11053339890E+03  0.14744669308E+03  0.18437869781E+03  0.00000000000E+00 0. -1.
        -11    1    4    4    0    0 -0.18102397720E+02  0.87684629382E+01  0.31601591647E+01  0.20360976192E+02  0.00000000000E+00 0. -1.
         11    1    4    4    0    0  0.73667812216E+02 -0.51277354644E+02  0.82851321071E+02  0.12215013328E+03  0.00000000000E+00 0.  1.
          2    1    1    2  501    0 -0.27625005144E+02 -0.51948163305E+02 -0.78392873691E+02  0.98016300815E+02  0.00000000000E+00 0. -1.
<scales pt_clust_5="13000.00000" pt_clust_6="13000.00000" pt_clust_7="13000.00000" pt_clust_8="13000.00000" pt_clust_9="13000.00000"></scales>
<clustering>
<clus scale="   89.537">  7  8 -1 -1</clus>
<clus scale="   58.837">  7  9 -1 -1</clus>
<clus scale="   96.519">  5  6 -1 -1</clus>
<clus scale="  137.908">  1  5  2 -1</clus>
<clus scale="  240.407">  2  5  1 -1</clus>
</clustering>
</event>
<event>
 9    1  0.3303741E-006  0.2692462E+03  0.7546771E-02  0.1118726E+00
          1   -1    0    0  502    0 -0.00000000000E+00  0.00000000000E+00  0.94449024634E+03  0.94449024634E+03  0.00000000000E+00 0. -1.
         21   -1    0    0  501  502  0.00000000000E+00 -0.00000000000E+00 -0.56838869228E+02  0.56838869228E+02  0.00000000000E+00 0. -1.
         23    2    1    2    0    0 -0.13630335655E+03 -0.51628011041E+02  0.49790782146E+03  0.52762716432E+03  0.96094585343E+02 0.  0.
         23    2    1    2    0    0  0.10881792043E+02  0.68628321384E+02  0.28842969196E+03  0.31157829975E+03  0.95189756691E+02 0.  0.
        -11    1    3    3    0    0 -0.54969301388E+02 -0.11087581872E+02  0.67616777971E+02  0.87844107543E+02  0.00000000000E+00 0.  1.
         11    1    3    3    0    0 -0.81334055164E+02 -0.40540429169E+02  0.43029104349E+03  0.43978305678E+03  0.00000000000E+00 0. -1.
        -13    1    4    4    0    0  0.53175627131E+02  0.43074699266E+02  0.16594244698E+03  0.17949922770E+03  0.00000000000E+00 0.  1.
         13    1    4    4    0    0 -0.42293835088E+02  0.25553622117E+02  0.12248724498E+03  0.13207907205E+03  0.00000000000E+00 0. -1.
          1    1    1    2  501    0  0.12542156451E+03 -0.17000310343E+02  0.10131386369E+03  0.16212365149E+03  0.00000000000E+00 0. -1.
<scales pt_clust_5="13000.00000" pt_clust_6="13000.00000" pt_clust_7="13000.00000" pt_clust_8="13000.00000" pt_clust_9="13000.00000"></scales>
<clustering>
<clus scale="   95.190">  7  8 -1 -1</clus>
<clus scale="   96.095">  5  6 -1 -1</clus>
<clus scale="  126.569">  7  9 -1 -1</clus>
<clus scale="  174.580">  1  5  2 -1</clus>
<clus scale="  269.246">  2  5  1 -1</clus>
</clustering>
</event>
<event>
 9    1  0.3303741E-006  0.2313547E+03  0.7546771E-02  0.1160011E+00
         -1   -1    0    0    0  501 -0.00000000000E+00  0.00000000000E+00  0.16670728462E+03  0.16670728462E+03  0.00000000000E+00 0.  1.
         21   -1    0    0  501  502  0.00000000000E+00 -0.00000000000E+00 -0.23453829374E+03  0.23453829374E+03  0.00000000000E+00 0.  1.
         23    2    1    2    0    0  0.28238995406E+02  0.37521300322E+02  0.77781623053E+02  0.12788126853E+03  0.89990827953E+02 0.  0.
         23    2    1    2    0    0  0.73792722401E+02 -0.38208532554E+02 -0.53172713913E+02  0.13568322103E+03  0.93152247019E+02 0.  0.
        -11    1    4    4    0    0 -0.88228228614E+01  0.19964797072E+02 -0.19237416829E+02  0.29094905595E+02  0.00000000000E+00 0. -1.
         11    1    4    4    0    0  0.82615545263E+02 -0.58173329626E+02 -0.33935297084E+02  0.10658831543E+03  0.00000000000E+00 0.  1.
        -11    1    3    3    0    0  0.16070104884E+02  0.64536386642E+02  0.71392504423E+02  0.97570913492E+02  0.00000000000E+00 0. -1.
         11    1    3    3    0    0  0.12168890523E+02 -0.27015086320E+02  0.63891186302E+01  0.30310355034E+02  0.00000000000E+00 0.  1.
         -1    1    1    2    0  502 -0.10203171781E+03  0.68723223234E+00 -0.92439918262E+02  0.13768108881E+03  0.00000000000E+00 0.  1.
<scales pt_clust_5="13000.00000" pt_clust_6="13000.00000" pt_clust_7="13000.00000" pt_clust_8="13000.00000" pt_clust_9="13000.00000"></scales>
<clustering>
<clus scale="   89.991">  7  8 -1 -1</clus>
<clus scale="   93.152">  5  6 -1 -1</clus>
<clus scale="  101.507">  1  7  2 -1</clus>
<clus scale="   93.086">  5  9 -1 -1</clus>
<clus scale="  231.355">  2  5  1 -1</clus>
</clustering>
</event>
<event>
 9    1  0.3303741E-006  0.2275007E+03  0.7546771E-02  0.1145788E+00
         21   -1    0    0  501  502  0.00000000000E+00  0.00000000000E+00  0.75670384031E+02  0.75670384031E+02  0.00000000000E+00 0. -1.
          2   -1    0    0  502    0 -0.00000000000E+00 -0.00000000000E+00 -0.50408289323E+03  0.50408289323E+03  0.00000000000E+00 0. -1.
         23    2    1    2    0    0 -0.62719903849E+02  0.98519587561E+02 -0.24774309819E+03  0.28923991465E+03  0.92968758480E+02 0.  0.
         23    2    1    2    0    0 -0.34057473007E+02 -0.65324648024E+02 -0.33099030368E+02  0.11094504156E+03  0.76065993248E+02 0.  0.
        -11    1    4    4    0    0 -0.65856162075E+01 -0.74217325917E+02 -0.12681597675E+02  0.75580452014E+02  0.00000000000E+00 0. -1.
         11    1    4    4    0    0 -0.27471856799E+02  0.88926778923E+01 -0.20417432694E+02  0.35364589548E+02  0.00000000000E+00 0.  1.
        -13    1    3    3    0    0  0.20875304173E+02  0.23796291577E+02 -0.92305157938E+02  0.97582190994E+02  0.00000000000E+00 0.  1.
         13    1    3    3    0    0 -0.83595208022E+02  0.74723295983E+02 -0.15543794025E+03  0.19165772365E+03  0.00000000000E+00 0. -1.
          2    1    1    2  501    0  0.96777376856E+02 -0.33194939536E+02 -0.14757038064E+03  0.17956832105E+03  0.00000000000E+00 0. -1.
<scales pt_clust_5="13000.00000" pt_clust_6="13000.00000" pt_clust_7="13000.00000" pt_clust_8="13000.00000" pt_clust_9="13000.00000"></scales>
<clustering>
<clus scale="   76.066">  5  6 -1 -1</clus>
<clus scale="   92.969">  7  8 -1 -1</clus>
<clus scale="  102.312">  5  9 -1 -1</clus>
<clus scale="  149.275">  2  7  1 -1</clus>
<clus scale="  227.501">  1  5  2 -1</clus>
</clustering>
</event>
<event>
 9    1  0.3303741E-006  0.3800319E+03  0.7546771E-02  0.1074481E+00
         21   -1    0    0  501  502  0.00000000000E+00  0.00000000000E+00  0.39925688248E+03  0.39925688248E+03  0.00000000000E+00 0.  1.
         -1   -1    0    0    0  501 -0.00000000000E+00 -0.00000000000E+00 -0.25372132266E+03  0.25372132266E+03  0.00000000000E+00 0.  1.
         23    2    1    2    0    0 -0.12962065842E+03 -0.11896898214E+03 -0.77998337550E+02  0.21207949284E+03  0.89100150527E+02 0.  0.
         23    2    1    2    0    0 -0.25976259757E+02 -0.12010875552E+02 -0.43760680622E+02  0.10502296819E+03  0.91081279503E+02 0.  0.
        -11    1    3    3    0    0 -0.43357447119E+02 -0.61851694157E+02 -0.78057337325E+02  0.10862066194E+03  0.00000000000E+00 0. -1.
         11    1    3    3    0    0 -0.86263211297E+02 -0.57117287981E+02  0.58999775685E-01  0.10345883090E+03  0.00000000000E+00 0.  1.
        -11    1    4    4    0    0  0.72554754051E+01 -0.46694054498E+02 -0.18450964265E+02  0.50728835302E+02  0.00000000000E+00 0.  1.
         11    1    4    4    0    0 -0.33231735162E+02  0.34683178946E+02 -0.25309716357E+02  0.54294132885E+02  0.00000000000E+00 0. -1.
         -1    1    1    2    0  502  0.15559691817E+03  0.13097985769E+03  0.26729457799E+03  0.33587574412E+03  0.00000000000E+00 0.  1.
<scales pt_clust_5="13000.00000" pt_clust_6="13000.00000" pt_clust_7="13000.00000" pt_clust_8="13000.00000" pt_clust_9="13000.00000"></scales>
<clustering>
<clus scale="   89.100">  5  6 -1 -1</clus>
<clus scale="   91.081">  7  8 -1 -1</clus>
<clus scale="  197.216">  2  5  1 -1</clus>
<clus scale="  147.945">  7  9 -1 -1</clus>
<clus scale="  380.032">  1  5  2 -1</clus>
</clustering>
</event>
<event>
 9    1  0.3303741E-006  0.2935408E+03  0.7546771E-02  0.1131519E+00
         21   -1    0    0  501  502  0.00000000000E+00  0.00000000000E+00  0.20804386248E+03  0.20804386248E+03  0.00000000000E+00 0. -1.
          2   -1    0    0  502    0 -0.00000000000E+00 -0.00000000000E+00 -0.22204462077E+03  0.22204462077E+03  0.00000000000E+00 0. -1.
         23    2    1    2    0    0 -0.30555042802E+02 -0.42594138642E+01 -0.83030463757E+02  0.12854031675E+03  0.93149352500E+02 0.  0.
         23    2    1    2    0    0  0.25182688336E+02  0.75517419994E+02 -0.73018196909E+02  0.14253819134E+03  0.92996937561E+02 0.  0.
        -11    1    3    3    0    0  0.18936004729E+02 -0.16314140783E+02  0.62380929628E+01  0.25761158134E+02  0.00000000000E+00 0.  1.
         11    1    3    3    0    0 -0.49491047531E+02  0.12054726919E+02 -0.89268556719E+02  0.10277915861E+03  0.00000000000E+00 0. -1.
        -13    1    4    4    0    0  0.56425735084E+02  0.49950522634E+02 -0.68635780928E+02  0.10193031303E+03  0.00000000000E+00 0.  1.
         13    1    4    4    0    0 -0.31243046748E+02  0.25566897360E+02 -0.43824159805E+01  0.40607878306E+02  0.00000000000E+00 0. -1.
          2    1    1    2  501    0  0.53723544660E+01 -0.71258006130E+02  0.14204790238E+03  0.15900997516E+03  0.00000000000E+00 0. -1.
<scales pt_clust_5="13000.00000" pt_clust_6="13000.00000" pt_clust_7="13000.00000" pt_clust_8="13000.00000" pt_clust_9="13000.00000"></scales>
<clustering>
<clus scale="   92.997">  7  8 -1 -1</clus>
<clus scale="   71.460">  7  9 -1 -1</clus>
<clus scale="   93.149">  5  6 -1 -1</clus>
<clus scale="   98.125">  2  5  1 -1</clus>
<clus scale="  293.541">  1  5  2 -1</clus>
</clustering>
</event>
<event>
 9    1  0.3303741E-006  0.4641287E+03  0.7546771E-02  0.1043045E+00
          1   -1    0    0  502    0 -0.00000000000E+00  0.00000000000E+00  0.61256277017E+03  0.61256277017E+03  0.00000000000E+00 0. -1.
         21   -1    0    0  501  502  0.00000000000E+00 -0.00000000000E+00 -0.21519472114E+03  0.21519472114E+03  0.00000000000E+00 0. -1.
         23    2    1    2    0    0 -0.23012646235E+03  0.83429698202E+02  0.15756646631E+03  0.30533981254E+03  0.92122237267E+02 0.  0.
         23    2    1    2    0    0 -0.39495193374E+02  0.87287185761E+02  0.11457272028E+03  0.17960233534E+03  0.99755538845E+02 0.  0.
        -13    1    3    3    0    0 -0.22004486261E+03  0.48693305354E+02  0.13506002698E+03  0.26273939643E+03  0.00000000000E+00 0.  1.
         13    1    3    3    0    0 -0.10081599741E+02  0.34736392849E+02  0.22506439325E+02  0.42600416108E+02  0.00000000000E+00 0. -1.
        -13    1    4    4    0    0 -0.33957186281E+00  0.66705121283E+02  0.11766582989E+03  0.13525877435E+03  0.00000000000E+00 0. -1.
         13    1    4    4    0    0 -0.39155621512E+02  0.20582064479E+02 -0.30931096162E+01  0.44343560990E+02  0.00000000000E+00 0.  1.
          1    1    1    2  501    0  0.26962165573E+03 -0.17071688396E+03  0.12522886244E+03  0.34281534344E+03  0.00000000000E+00 0. -1.
<scales pt_clust_5="13000.00000" pt_clust_6="13000.00000" pt_clust_7="13000.00000" pt_clust_8="13000.00000" pt_clust_9="13000.00000"></scales>
<clustering>
<clus scale="   92.122">  5  6 -1 -1</clus>
<clus scale="   99.756">  7  8 -1 -1</clus>
<clus scale="  261.544">  1  5  2 -1</clus>
<clus scale="  175.331">  7  9 -1 -1</clus>
<clus scale="  464.129">  2  5  1 -1</clus>
</clustering>
</event>
<event>
 9    1  0.3303741E-006  0.3012272E+03  0.7546771E-02  0.1103149E+00
         21   -1    0    0  501  502  0.00000000000E+00  0.00000000000E+00  0.56100608891E+02  0.56100608891E+02  0.00000000000E+00 0. -1.
          1   -1    0    0  502    0 -0.00000000000E+00 -0.00000000000E+00 -0.10783442353E+04  0.10783442353E+04  0.00000000000E+00 0. -1.
         23    2    1    2    0    0 -0.76494018717E+02  0.14075843240E+03 -0.47360516886E+03  0.50855188101E+03  0.93053148902E+02 0.  0.
         23    2    1    2    0    0 -0.28391358912E+02 -0.25456115835E+02 -0.39532335062E+03  0.40725836238E+03  0.90137334599E+02 0.  0.
        -11    1    4    4    0    0  0.28503309995E+02  0.59693038961E+01 -0.76024256879E+02  0.81411049027E+02  0.00000000000E+00 0.  1.
         11    1    4    4    0    0 -0.56894668908E+02 -0.31425419731E+02 -0.31929909374E+03  0.32584731335E+03  0.00000000000E+00 0. -1.
        -11    1    3    3    0    0 -0.26888772823E+02 -0.82839493616E+01 -0.76212684988E+02  0.81240404196E+02  0.00000000000E+00 0.  1.
         11    1    3    3    0    0 -0.49605245893E+02  0.14904238177E+03 -0.39739248387E+03  0.42731147682E+03  0.00000000000E+00 0. -1.
          1    1    1    2  501    0  0.10488537763E+03 -0.11530231657E+03 -0.15331510688E+03  0.21863460075E+03  0.00000000000E+00 0. -1.
<scales pt_clust_5="13000.00000" pt_clust_6="13000.00000" pt_clust_7="13000.00000" pt_clust_8="13000.00000" pt_clust_9="13000.00000"></scales>
<clustering>
<clus scale="   90.137">  5  6 -1 -1</clus>
<clus scale="   93.053">  7  8 -1 -1</clus>
<clus scale="  155.870">  5  9 -1 -1</clus>
<clus scale="  185.265">  2  7  1 -1</clus>
<clus scale="  301.227">  1  5  2 -1</clus>
</clustering>
</event>
<event>
 9    1  0.3303741E-006  0.3758130E+03  0.7546771E-02  0.1080336E+00
         21   -1    0    0  501  502  0.00000000000E+00  0.00000000000E+00  0.73231595369E+02  0.73231595369E+02  0.00000000000E+00 0. -1.
          2   -1    0    0  502    0 -0.00000000000E+00 -0.00000000000E+00 -0.10490453885E+04  0.10490453885E+04  0.00000000000E+00 0. -1.
         23    2    1    2    0    0 -0.12756528319E+03 -0.76680312122E+02 -0.24537531945E+03  0.30082963518E+03  0.90203382790E+02 0.  0.
         23    2    1    2    0    0 -0.70843888600E+02  0.12756910398E+03 -0.32240571310E+03  0.36488782104E+03  0.88909759070E+02 0.  0.
        -11    1    3    3    0    0  0.19086514840E+01 -0.39033959957E+02 -0.59934090350E+02  0.71549899835E+02  0.00000000000E+00 0.  1.
         11    1    3    3    0    0 -0.12947393467E+03 -0.37646352165E+02 -0.18544122910E+03  0.22927973535E+03  0.00000000000E+00 0. -1.
        -13    1    4    4    0    0 -0.81055834562E+02  0.93254596782E+02 -0.29490566611E+03  0.31974336591E+03  0.00000000000E+00 0. -1.
         13    1    4    4    0    0  0.10211945962E+02  0.34314507194E+02 -0.27500046992E+02  0.45144455128E+02  0.00000000000E+00 0.  1.
          2    1    1    2  501    0  0.19840917179E+03 -0.50888791853E+02 -0.40803276057E+03  0.45655952765E+03  0.00000000000E+00 0. -1.
<scales pt_clust_5="13000.00000" pt_clust_6="13000.00000" pt_clust_7="13000.00000" pt_clust_8="13000.00000" pt_clust_9="13000.00000"></scales>
<clustering>
<clus scale="   88.910">  7  8 -1 -1</clus>
<clus scale="   90.203">  5  6 -1 -1</clus>
<clus scale="  174.039">  2  5  1 -1</clus>
<clus scale="  158.045">  7  9 -1 -1</clus>
<clus scale="  375.813">  1  5  2 -1</clus>
</clustering>
</event>
<event>
 9    1  0.3303741E-006  0.2745885E+03  0.7546771E-02  0.1111374E+00
         -1   -1    0    0    0  501 -0.00000000000E+00  0.00000000000E+00  0.90823443110E+03  0.90823443110E+03  0.00000000000E+00 0.  1.
         21   -1    0    0  501  502  0.00000000000E+00 -0.00000000000E+00 -0.84269239797E+02  0.84269239797E+02  0.00000000000E+00 0.  1.
         23    2    1    2    0    0 -0.13723402330E+03  0.10656136478E+03  0.61875412590E+03  0.64970576329E+03  0.95249193792E+02 0.  0.
         23    2    1    2    0    0 -0.37051405691E+00  0.43384921642E+01  0.78715127846E+02  0.12546174129E+03  0.97599269362E+02 0.  0.
        -11    1    4    4    0    0  0.41950573279E+02 -0.11377391594E+02  0.12330611240E+02  0.45181186477E+02  0.00000000000E+00 0. -1.
         11    1    4    4    0    0 -0.42321087336E+02  0.15715883758E+02  0.66384516606E+02  0.80280554810E+02  0.00000000000E+00 0.  1.
        -13    1    3    3    0    0 -0.10360705539E+03  0.11204153938E+03  0.57102048683E+03  0.59106017024E+03  0.00000000000E+00 0.  1.
         13    1    3    3    0    0 -0.33626967913E+02 -0.54801745959E+01  0.47733639076E+02  0.58645593049E+02  0.00000000000E+00 0. -1.
         -1    1    1    2    0  502  0.13760453736E+03 -0.11089985695E+03  0.12649593756E+03  0.21733616632E+03  0.00000000000E+00 0.  1.
<scales pt_clust_5="13000.00000" pt_clust_6="13000.00000" pt_clust_7="13000.00000" pt_clust_8="13000.00000" pt_clust_9="13000.00000"></scales>
<clustering>
<clus scale="   95.249">  7  8 -1 -1</clus>
<clus scale="   97.599">  5  6 -1 -1</clus>
<clus scale="  176.731">  5  9 -1 -1</clus>
<clus scale="  198.144">  1  7  2 -1</clus>
<clus scale="  274.588">  2  5  1 -1</clus>
</clustering>
</event>
<event>
 9    1  0.3303741E-006  0.4375152E+03  0.7546771E-02  0.1061718E+00
         21   -1    0    0  501  502  0.00000000000E+00  0.00000000000E+00  0.45625666296E+03  0.45625666296E+03  0.00000000000E+00 0.  1.
         -2   -1    0    0    0  501 -0.00000000000E+00 -0.00000000000E+00 -0.21779333526E+03  0.21779333526E+03  0.00000000000E+00 0.  1.
         23    2    1    2    0    0 -0.14243880836E+03 -0.72228065516E+02  0.19350911619E+02  0.18473438198E+03  0.90810938387E+02 0.  0.
         23    2    1    2    0    0  0.16903680640E+03  0.21396254743E+03  0.18068696859E+03  0.34007543438E+03  0.93005950495E+02 0.  0.
        -13    1    3    3    0    0 -0.17952347674E+02  0.12632100416E+02  0.25877899437E+02  0.33934089456E+02  0.00000000000E+00 0.  1.
         13    1    3    3    0    0 -0.12448646068E+03 -0.84860165933E+02 -0.65269878181E+01  0.15080029253E+03  0.00000000000E+00 0. -1.
        -13    1    4    4    0    0  0.54674594684E+02  0.83435859812E+02  0.12041599540E+03  0.15636772670E+03  0.00000000000E+00 0.  1.
         13    1    4    4    0    0  0.11436221172E+03  0.13052668762E+03  0.60270973193E+02  0.18370770768E+03  0.00000000000E+00 0. -1.
         -2    1    1    2    0  502 -0.26597998046E+02 -0.14173448192E+03  0.38425447494E+02  0.14924018185E+03  0.00000000000E+00 0.  1.
<scales pt_clust_5="13000.00000" pt_clust_6="13000.00000" pt_clust_7="13000.00000" pt_clust_8="13000.00000" pt_clust_9="13000.00000"></scales>
<clustering>
<clus scale="   90.811">  5  6 -1 -1</clus>
<clus scale="   93.006">  7  8 -1 -1</clus>
<clus scale="  144.209">  7  9 -1 -1</clus>
<clus scale="  183.718">  2  5  1 -1</clus>
<clus scale="  437.515">  1  5  2 -1</clus>
</clustering>
</event>
<event>
 9    1  0.3303741E-006  0.1568580E+03  0.7546771E-02  0.1215132E+00
          2   -1    0    0  502    0 -0.00000000000E+00  0.00000000000E+00  0.13036643776E+03  0.13036643776E+03  0.00000000000E+00 0. -1.
         21   -1    0    0  501  502  0.00000000000E+00 -0.00000000000E+00 -0.14522990099E+03  0.14522990099E+03  0.00000000000E+00 0.  1.
         23    2    1    2    0    0 -0.15598098747E+02  0.30106417339E+02  0.47328790428E+02  0.10685893630E+03  0.89605361529E+02 0.  0.
         23    2    1    2    0    0  0.15409999554E+02  0.90772081581E+01  0.71812810231E+01  0.89062568254E+02  0.86952322986E+02 0.  0.
        -13    1    4    4    0    0  0.47506484828E+02 -0.12734565434E+02 -0.18523891252E+01  0.49218559538E+02  0.00000000000E+00 0.  1.
         13    1    4    4    0    0 -0.32096485274E+02  0.21811773592E+02  0.90336701483E+01  0.39844008716E+02  0.00000000000E+00 0. -1.
        -13    1    3    3    0    0  0.18887438078E+02  0.33025553415E+02 -0.10497900905E+02  0.39466801478E+02  0.00000000000E+00 0.  1.
         13    1    3    3    0    0 -0.34485536825E+02 -0.29191360760E+01  0.57826691333E+02  0.67392134824E+02  0.00000000000E+00 0. -1.
          2    1    1    2  501    0  0.18809919309E+00 -0.39183625497E+02 -0.69373534686E+02  0.79674834191E+02  0.00000000000E+00 0. -1.
<scales pt_clust_5="13000.00000" pt_clust_6="13000.00000" pt_clust_7="13000.00000" pt_clust_8="13000.00000" pt_clust_9="13000.00000"></scales>
<clustering>
<clus scale="   86.952">  5  6 -1 -1</clus>
<clus scale="   39.184">  5  9 -1 -1</clus>
<clus scale="   89.605">  7  8 -1 -1</clus>
<clus scale="   95.806">  1  7  2 -1</clus>
<clus scale="  156.858">  2  5  1 -1</clus>
</clustering>
</event>
<event>
 9    1  0.3303741E-006  0.4336832E+03  0.7546771E-02  0.1067620E+00
         21   -1    0    0  501  502  0.00000000000E+00  0.00000000000E+00  0.65794604038E+02  0.65794604038E+02  0.00000000000E+00 0. -1.
          2   -1    0    0  502    0 -0.00000000000E+00 -0.00000000000E+00 -0.13428699322E+04  0.13428699322E+04  0.00000000000E+00 0. -1.
         23    2    1    2    0    0  0.14372973669E+03  0.32255287219E+02 -0.37441408959E+03  0.40722637031E+03  0.62839202937E+02 0.  0.
         23    2    1    2    0    0 -0.22581326667E+03 -0.52693832707E+02 -0.87891317061E+03  0.91357798857E+03  0.91477365076E+02 0.  0.
        -11    1    4    4    0    0 -0.96091373249E+02  0.19762053224E+02 -0.41561934073E+03  0.42704042800E+03  0.00000000000E+00 0.  1.
         11    1    4    4    0    0 -0.12972189342E+03 -0.72455885932E+02 -0.46329382989E+03  0.48653756057E+03  0.00000000000E+00 0. -1.
        -13    1    3    3    0    0  0.61210232636E+02 -0.16915829968E+02 -0.13227011272E+03  0.14672498289E+03  0.00000000000E+00 0.  1.
         13    1    3    3    0    0  0.82519504051E+02  0.49171117187E+02 -0.24214397687E+03  0.26050138742E+03  0.00000000000E+00 0. -1.
          2    1    1    2  501    0  0.82083529981E+02  0.20438545489E+02 -0.23748067973E+02  0.87860177374E+02  0.00000000000E+00 0. -1.
<scales pt_clust_5="13000.00000" pt_clust_6="13000.00000" pt_clust_7="13000.00000" pt_clust_8="13000.00000" pt_clust_9="13000.00000"></scales>
<clustering>
<clus scale="   62.839">  7  8 -1 -1</clus>
<clus scale="   91.477">  5  6 -1 -1</clus>
<clus scale="   84.590">  5  9 -1 -1</clus>
<clus scale="  160.148">  2  7  1 -1</clus>
<clus scale="  433.683">  1  5  2 -1</clus>
</clustering>
</event>
<event>
 9    1  0.3303741E-006  0.2471240E+03  0.7546771E-02  0.1142813E+00
          2   -1    0    0  502    0 -0.00000000000E+00  0.00000000000E+00  0.72553979437E+03  0.72553979437E+03  0.00000000000E+00 0. -1.
         21   -1    0    0  501  502  0.00000000000E+00 -0.00000000000E+00 -0.47908576337E+02  0.47908576337E+02  0.00000000000E+00 0.  1.
         23    2    1    2    0    0 -0.36905848859E+02 -0.76909766102E+02  0.25037893594E+03  0.27987486672E+03  0.91450399964E+02 0.  0.
         23    2    1    2    0    0  0.66178137962E+02 -0.45616351457E+02  0.22733904820E+03  0.25727958220E+03  0.89718131466E+02 0.  0.
        -13    1    4    4    0    0  0.41621400282E+02 -0.52498154254E+02  0.22109641847E+03  0.23102385899E+03  0.00000000000E+00 0. -1.
         13    1    4    4    0    0  0.24556737680E+02  0.68818027967E+01  0.62426297308E+01  0.26255723208E+02  0.00000000000E+00 0.  1.
        -13    1    3    3    0    0  0.24568957232E+02  0.24181347475E+01  0.51111898300E+02  0.56761846190E+02  0.00000000000E+00 0. -1.
         13    1    3    3    0    0 -0.61474806091E+02 -0.79327900849E+02  0.19926703764E+03  0.22311302053E+03  0.00000000000E+00 0.  1.
          2    1    1    2  501    0 -0.29272289103E+02  0.12252611756E+03  0.19991323389E+03  0.23629392180E+03  0.00000000000E+00 0. -1.
<scales pt_clust_5="13000.00000" pt_clust_6="13000.00000" pt_clust_7="13000.00000" pt_clust_8="13000.00000" pt_clust_9="13000.00000"></scales>
<clustering>
<clus scale="   89.718">  5  6 -1 -1</clus>
<clus scale="   91.450">  7  8 -1 -1</clus>
<clus scale="  125.061">  1  7  2 -1</clus>
<clus scale="   97.970">  5  9 -1 -1</clus>
<clus scale="  247.124">  2  5  1 -1</clus>
</clustering>
</event>
<event>
 9    1  0.3303741E-006  0.3544644E+03  0.7546771E-02  0.1104944E+00
         21   -1    0    0  501  502  0.00000000000E+00  0.00000000000E+00  0.17154495118E+03  0.17154495118E+03  0.00000000000E+00 0. -1.
          1   -1    0    0  502    0 -0.00000000000E+00 -0.00000000000E+00 -0.32075606170E+03  0.32075606170E+03  0.00000000000E+00 0. -1.
         23    2    1    2    0    0  0.55248282652E+02 -0.18094981382E+02 -0.69752690160E+02  0.12903984661E+03  0.91684476012E+02 0.  0.
         23    2    1    2    0    0 -0.38792958008E+02 -0.30042671676E+02 -0.20367264061E+03  0.22903306242E+03  0.92553462595E+02 0.  0.
        -11    1    4    4    0    0 -0.33111101811E+02 -0.57168040084E+02 -0.87723163388E+02  0.10981749981E+03  0.00000000000E+00 0. -1.
         11    1    4    4    0    0 -0.56818561970E+01  0.27125368408E+02 -0.11594947722E+03  0.11921556261E+03  0.00000000000E+00 0.  1.
        -11    1    3    3    0    0 -0.12426059821E+02  0.25183178911E+02 -0.15131118822E+02  0.31899062988E+02  0.00000000000E+00 0.  1.
         11    1    3    3    0    0  0.67674342472E+02 -0.43278160293E+02 -0.54621571338E+02  0.97140783623E+02  0.00000000000E+00 0. -1.
          1    1    1    2  501    0 -0.16455324644E+02  0.48137653058E+02  0.12421422025E+03  0.13422810385E+03  0.00000000000E+00 0. -1.
<scales pt_clust_5="13000.00000" pt_clust_6="13000.00000" pt_clust_7="13000.00000" pt_clust_8="13000.00000" pt_clust_9="13000.00000"></scales>
<clustering>
<clus scale="   91.684">  7  8 -1 -1</clus>
<clus scale="   92.553">  5  6 -1 -1</clus>
<clus scale="   50.873">  5  9 -1 -1</clus>
<clus scale="  108.563">  2  7  1 -1</clus>
<clus scale="  354.464">  1  5  2 -1</clus>
</clustering>
</event>
<event>
 9    1  0.3303741E-006  0.1830225E+03  0.7546771E-02  0.1187959E+00
          2   -1    0    0  502    0 -0.00000000000E+00  0.00000000000E+00  0.46946774629E+03  0.46946774629E+03  0.00000000000E+00 0.  1.
         21   -1    0    0  501  502  0.00000000000E+00 -0.00000000000E+00 -0.56731758606E+02  0.56731758606E+02  0.00000000000E+00 0.  1.
         23    2    1    2    0    0  0.48603340981E+02  0.35695008564E+02  0.27932163283E+03  0.29971193817E+03  0.90389451387E+02 0.  0.
         23    2    1    2    0    0 -0.14103769476E+02  0.20538368304E+02  0.13073553655E+03  0.16046038161E+03  0.89638232150E+02 0.  0.
        -13    1    3    3    0    0  0.34457194547E+02  0.52808041346E+02  0.26694772662E+03  0.27429377724E+03  0.00000000000E+00 0.  1.
         13    1    3    3    0    0  0.14146146433E+02 -0.17113032782E+02  0.12373906213E+02  0.25418160926E+02  0.00000000000E+00 0. -1.
        -13    1    4    4    0    0  0.34800442942E+02 -0.58315700506E+01  0.34568770580E+02  0.49397145035E+02  0.00000000000E+00 0.  1.
         13    1    4    4    0    0 -0.48904212418E+02  0.26369938355E+02  0.96166765969E+02  0.11106323657E+03  0.00000000000E+00 0. -1.
          2    1    1    2  501    0 -0.34499571505E+02 -0.56233376868E+02  0.26788183084E+01  0.66027185125E+02  0.00000000000E+00 0.  1.
<scales pt_clust_5="13000.00000" pt_clust_6="13000.00000" pt_clust_7="13000.00000" pt_clust_8="13000.00000" pt_clust_9="13000.00000"></scales>
<clustering>
<clus scale="   89.638">  7  8 -1 -1</clus>
<clus scale="   65.973">  7  9 -1 -1</clus>
<clus scale="   90.389">  5  6 -1 -1</clus>
<clus scale="  108.659">  1  5  2 -1</clus>
<clus scale="  183.022">  2  5  1 -1</clus>
</clustering>
</event>
<event>
 9    1  0.3303741E-006  0.3216771E+03  0.7546771E-02  0.1105316E+00
         -1   -1    0    0    0  501 -0.00000000000E+00  0.00000000000E+00  0.43800556649E+03  0.43800556649E+03  0.00000000000E+00 0.  1.
         21   -1    0    0  501  502  0.00000000000E+00 -0.00000000000E+00 -0.13721704869E+03  0.13721704869E+03  0.00000000000E+00 0.  1.
         23    2    1    2    0    0 -0.83540537664E+02 -0.50256603105E+02  0.14513730049E+02  0.14460748011E+03  0.10581080925E+03 0.  0.
         23    2    1    2    0    0 -0.21592049816E+02 -0.70150135555E+02  0.23510907387E+03  0.26278017465E+03  0.91596317828E+02 0.  0.
        -13    1    3    3    0    0 -0.68417877151E+02 -0.80921887404E+02 -0.33683956907E+01  0.10602218572E+03  0.00000000000E+00 0.  1.
         13    1    3    3    0    0 -0.15122660513E+02  0.30665284298E+02  0.17882125740E+02  0.38585294389E+02  0.00000000000E+00 0. -1.
        -13    1    4    4    0    0  0.17763571812E+02 -0.70859904246E+02  0.11366342603E+03  0.13511493230E+03  0.00000000000E+00 0.  1.
         13    1    4    4    0    0 -0.39355621629E+02  0.70976869062E+00  0.12144564784E+03  0.12766524235E+03  0.00000000000E+00 0. -1.
         -1    1    1    2    0  502  0.10513258748E+03  0.12040673866E+03  0.51165713876E+02  0.16783496043E+03  0.00000000000E+00 0.  1.
<scales pt_clust_5="13000.00000" pt_clust_6="13000.00000" pt_clust_7="13000.00000" pt_clust_8="13000.00000" pt_clust_9="13000.00000"></scales>
<clustering>
<clus scale="   91.596">  7  8 -1 -1</clus>
<clus scale="  105.811">  5  6 -1 -1</clus>
<clus scale="  143.877">  1  5  2 -1</clus>
<clus scale="  131.812">  7  9 -1 -1</clus>
<clus scale="  321.677">  2  5  1 -1</clus>
</clustering>
</event>
<event>
 9    1  0.3303741E-006  0.2175844E+03  0.7546771E-02  0.1147505E+00
         21   -1    0    0  501  502  0.00000000000E+00  0.00000000000E+00  0.31753414710E+03  0.31753414710E+03  0.00000000000E+00 0.  1.
         -2   -1    0    0    0  501 -0.00000000000E+00 -0.00000000000E+00 -0.12481206274E+03  0.12481206274E+03  0.00000000000E+00 0.  1.
         23    2    1    2    0    0 -0.65367109998E+02 -0.11875955153E+03  0.20931790812E+02  0.16511907840E+03  0.91921053290E+02 0.  0.
         23    2    1    2    0    0  0.62744004243E+02  0.12756042294E+02  0.92104403047E+02  0.14458676881E+03  0.91228208191E+02 0.  0.
        -13    1    3    3    0    0 -0.80856587308E+02 -0.91283347777E+02 -0.81503066175E+01  0.12221646694E+03  0.00000000000E+00 0.  1.
         13    1    3    3    0    0  0.15489477309E+02 -0.27476203748E+02  0.29082097429E+02  0.42902611466E+02  0.00000000000E+00 0. -1.
        -13    1    4    4    0    0  0.85915642559E+02  0.15123816651E+02  0.64638829114E+02  0.10857442468E+03  0.00000000000E+00 0.  1.
         13    1    4    4    0    0 -0.23171638316E+02 -0.23677743571E+01  0.27465573934E+02  0.36012344122E+02  0.00000000000E+00 0. -1.
         -2    1    1    2    0  502  0.26231057550E+01  0.10600350923E+03  0.79685890503E+02  0.13264036263E+03  0.00000000000E+00 0.  1.
<scales pt_clust_5="13000.00000" pt_clust_6="13000.00000" pt_clust_7="13000.00000" pt_clust_8="13000.00000" pt_clust_9="13000.00000"></scales>
<clustering>
<clus scale="   91.228">  7  8 -1 -1</clus>
<clus scale="   91.921">  5  6 -1 -1</clus>
<clus scale="  106.036">  7  9 -1 -1</clus>
<clus scale="  163.787">  2  5  1 -1</clus>
<clus scale="  217.584">  1  5  2 -1</clus>
</clustering>
</event>
<event>
 9    1  0.3303741E-006  0.1799179E+03  0.7546771E-02  0.1189089E+00
          1   -1    0    0  502    0 -0.00000000000E+00  0.00000000000E+00  0.12251787414E+03  0.12251787414E+03  0.00000000000E+00 0. -1.
         21   -1    0    0  501  502  0.00000000000E+00 -0.00000000000E+00 -0.26209526811E+03  0.26209526811E+03  0.00000000000E+00 0. -1.
         23    2    1    2    0    0  0.34187504089E+00  0.66182660194E+02  0.50882051591E+02  0.12261077561E+03  0.89800655525E+02 0.  0.
         23    2    1    2    0    0 -0.40554705107E+02 -0.97515140253E+00 -0.12179632687E+03  0.15912518369E+03  0.94025761462E+02 0.  0.
        -11    1    3    3    0    0  0.42074625974E+02  0.29933851807E+02  0.71560128391E+01  0.52129820205E+02  0.00000000000E+00 0.  1.
         11    1    3    3    0    0 -0.41732750933E+02  0.36248808387E+02  0.43726038752E+02  0.70480955405E+02  0.00000000000E+00 0. -1.
        -11    1    4    4    0    0  0.50207451265E+01  0.32154606225E+02 -0.10189581975E+02  0.34102113775E+02  0.00000000000E+00 0. -1.
         11    1    4    4    0    0 -0.45575450234E+02 -0.33129757627E+02 -0.11160674490E+03  0.12502306992E+03  0.00000000000E+00 0.  1.
          1    1    1    2  501    0  0.40212830066E+02 -0.65207508791E+02 -0.68663118685E+02  0.10287718295E+03  0.00000000000E+00 0. -1.
<scales pt_clust_5="13000.00000" pt_clust_6="13000.00000" pt_clust_7="13000.00000" pt_clust_8="13000.00000" pt_clust_9="13000.00000"></scales>
<clustering>
<clus scale="   89.801">  5  6 -1 -1</clus>
<clus scale="   94.026">  7  8 -1 -1</clus>
<clus scale="   76.610">  7  9 -1 -1</clus>
<clus scale="  111.555">  1  5  2 -1</clus>
<clus scale="  179.918">  2  5  1 -1</clus>
</clustering>
</event>
<event>
 9    1  0.3303741E-006  0.1985103E+03  0.7546771E-02  0.1183956E+00
         -2   -1    0    0    0  501 -0.00000000000E+00  0.00000000000E+00  0.49198594962E+03  0.49198594962E+03  0.00000000000E+00 0.  1.
         21   -1    0    0  501  502  0.00000000000E+00 -0.00000000000E+00 -0.43267011382E+02  0.43267011382E+02  0.00000000000E+00 0. -1.
         23    2    1    2    0    0  0.15167078908E+02 -0.23240656472E+02  0.15256049572E+03  0.17871944186E+03  0.88858120889E+02 0.  0.
         23    2    1    2    0    0  0.95124668940E+01 -0.34315169393E+02  0.27235769547E+03  0.28953927587E+03  0.91576525985E+02 0.  0.
        -11    1    3    3    0    0 -0.23509984500E+02 -0.93190601604E+01  0.53127401210E+01  0.25841622648E+02  0.00000000000E+00 0. -1.
         11    1    3    3    0    0  0.38677063408E+02 -0.13921596312E+02  0.14724775560E+03  0.15287781921E+03  0.00000000000E+00 0.  1.
        -13    1    4    4    0    0  0.19345949521E+02  0.24507596023E+02  0.15250133156E+03  0.15566484560E+03  0.00000000000E+00 0.  1.
         13    1    4    4    0    0 -0.98334826266E+01 -0.58822765417E+02  0.11985636391E+03  0.13387443027E+03  0.00000000000E+00 0. -1.
         -2    1    1    2    0  502 -0.24679545802E+02  0.57555825865E+02  0.23800747049E+02  0.66994243276E+02  0.00000000000E+00 0.  1.
<scales pt_clust_5="13000.00000" pt_clust_6="13000.00000" pt_clust_7="13000.00000" pt_clust_8="13000.00000" pt_clust_9="13000.00000"></scales>
<clustering>
<clus scale="   88.858">  5  6 -1 -1</clus>
<clus scale="   91.577">  7  8 -1 -1</clus>
<clus scale="   62.624">  7  9 -1 -1</clus>
<clus scale="   93.091">  1  5  2 -1</clus>
<clus scale="  198.510">  2  5  1 -1</clus>
</clustering>
</event>
<event>
 9    1  0.3303741E-006  0.2068527E+03  0.7546771E-02  0.1175600E+00
         21   -1    0    0  501  502  0.00000000000E+00  0.00000000000E+00  0.28161539469E+02  0.28161539469E+02  0.00000000000E+00 0.  1.
         -1   -1    0    0    0  501 -0.00000000000E+00 -0.00000000000E+00 -0.84574000721E+03  0.84574000721E+03  0.00000000000E+00 0.  1.
         23    2    1    2    0    0 -0.30858391188E+02 -0.30886111492E+02 -0.31972524310E+03  0.33478572741E+03  0.89168716567E+02 0.  0.
         23    2    1    2    0    0 -0.26488859334E+02 -0.23030865416E+02 -0.40495156920E+03  0.41735184625E+03  0.94682151115E+02 0.  0.
        -13    1    4    4    0    0 -0.60990772333E+02 -0.26098479959E+02 -0.26513004084E+03  0.27330375687E+03  0.00000000000E+00 0.  1.
         13    1    4    4    0    0  0.34501912999E+02  0.30676145432E+01 -0.13982152836E+03  0.14404808938E+03  0.00000000000E+00 0. -1.
        -13    1    3    3    0    0 -0.24609122036E+02 -0.61497171549E+02 -0.24490606601E+03  0.25370552253E+03  0.00000000000E+00 0.  1.
         13    1    3    3    0    0 -0.62492691513E+01  0.30611060057E+02 -0.74819177090E+02  0.81080204879E+02  0.00000000000E+00 0. -1.
         -1    1    1    2    0  502  0.57347250521E+02  0.53916976908E+02 -0.92901655440E+02  0.12176397302E+03  0.00000000000E+00 0.  1.
<scales pt_clust_5="13000.00000" pt_clust_6="13000.00000" pt_clust_7="13000.00000" pt_clust_8="13000.00000" pt_clust_9="13000.00000"></scales>
<clustering>
<clus scale="   89.169">  7  8 -1 -1</clus>
<clus scale="   94.682">  5  6 -1 -1</clus>
<clus scale="   78.713">  5  9 -1 -1</clus>
<clus scale="   99.284">  2  7  1 -1</clus>
<clus scale="  206.853">  1  5  2 -1</clus>
</clustering>
</event>
<event>
 9    1  0.3303741E-006  0.2631394E+03  0.7546771E-02  0.1138652E+00
          4   -1    0    0  502    0 -0.00000000000E+00  0.00000000000E+00  0.47585238020E+02  0.47585238020E+02  0.00000000000E+00 0. -1.
         21   -1    0    0  501  502  0.00000000000E+00 -0.00000000000E+00 -0.75598454561E+03  0.75598454561E+03  0.00000000000E+00 0. -1.
         23    2    1    2    0    0  0.42035867886E+02  0.53602041563E+02 -0.25085509947E+03  0.27575441558E+03  0.92043596916E+02 0.  0.
         23    2    1    2    0    0  0.15860385238E+02  0.98206124632E+01 -0.39326760826E+02  0.10087246509E+03  0.90998152985E+02 0.  0.
        -13    1    3    3    0    0  0.47541507037E+02 -0.46334289297E+01 -0.16567298639E+03  0.17242158210E+03  0.00000000000E+00 0.  1.
         13    1    3    3    0    0 -0.55056391510E+01  0.58235470493E+02 -0.85182113080E+02  0.10333283348E+03  0.00000000000E+00 0. -1.
        -13    1    4    4    0    0 -0.74911236561E+01 -0.38436990109E+02 -0.19138765811E+02  0.43586827128E+02  0.00000000000E+00 0.  1.
         13    1    4    4    0    0  0.23351508894E+02  0.48257602572E+02 -0.20187995015E+02  0.57285637959E+02  0.00000000000E+00 0. -1.
          4    1    1    2  501    0 -0.57896253125E+02 -0.63422654026E+02 -0.41821744729E+03  0.42694290295E+03  0.00000000000E+00 0. -1.
<scales pt_clust_5="13000.00000" pt_clust_6="13000.00000" pt_clust_7="13000.00000" pt_clust_8="13000.00000" pt_clust_9="13000.00000"></scales>
<clustering>
<clus scale="   90.998">  7  8 -1 -1</clus>
<clus scale="   85.874">  7  9 -1 -1</clus>
<clus scale="   92.044">  5  6 -1 -1</clus>
<clus scale="  114.509">  1  5  2 -1</clus>
<clus scale="  263.139">  2  5  1 -1</clus>
</clustering>
</event>
<event>
 9    1  0.3303741E-006  0.3610862E+03  0.7546771E-02  0.1100975E+00
          2   -1    0    0  502    0 -0.00000000000E+00  0.00000000000E+00  0.20101550595E+03  0.20101550595E+03  0.00000000000E+00 0. -1.
         21   -1    0    0  501  502  0.00000000000E+00 -0.00000000000E+00 -0.41021158925E+03  0.41021158925E+03  0.00000000000E+00 0. -1.
         23    2    1    2    0    0  0.66480693643E+02 -0.11872793949E+02  0.87782111781E+02  0.14370241386E+03  0.91564396668E+02 0.  0.
         23    2    1    2    0    0 -0.94334556311E+02  0.44783872137E+02  0.27052843074E+02  0.14063771246E+03  0.90235836166E+02 0.  0.
        -11    1    4    4    0    0 -0.28660698423E+02 -0.21748754426E+02  0.30384843758E+02  0.47092278384E+02  0.00000000000E+00 0.  1.
         11    1    4    4    0    0 -0.65673857888E+02  0.66532626563E+02 -0.33320006844E+01  0.93545434073E+02  0.00000000000E+00 0. -1.
        -13    1    3    3    0    0  0.28218316588E+02  0.48026470506E+01 -0.15324544667E+02  0.32468145605E+02  0.00000000000E+00 0.  1.
         13    1    3    3    0    0  0.38262377054E+02 -0.16675441000E+02  0.10310665645E+03  0.11123426826E+03  0.00000000000E+00 0. -1.
          2    1    1    2  501    0  0.27853862669E+02 -0.32911078187E+02 -0.32403103816E+03  0.32688696888E+03  0.00000000000E+00 0. -1.
<scales pt_clust_5="13000.00000" pt_clust_6="13000.00000" pt_clust_7="13000.00000" pt_clust_8="13000.00000" pt_clust_9="13000.00000"></scales>
<clustering>
<clus scale="   90.236">  5  6 -1 -1</clus>
<clus scale="   43.116">  5  9 -1 -1</clus>
<clus scale="   91.564">  7  8 -1 -1</clus>
<clus scale="  113.775">  1  7  2 -1</clus>
<clus scale="  361.086">  2  5  1 -1</clus>
</clustering>
</event>
<event>
 9    1  0.3303741E-006  0.3204079E+03  0.7546771E-02  0.1107277E+00
         21   -1    0    0  501  502  0.00000000000E+00  0.00000000000E+00  0.20589856021E+03  0.20589856021E+03  0.00000000000E+00 0.  1.
          2   -1    0    0  502    0 -0.00000000000E+00 -0.00000000000E+00 -0.25760420837E+03  0.25760420837E+03  0.00000000000E+00 0. -1.
         23    2    1    2    0    0  0.10385865236E+03 -0.10693063777E+02 -0.34222443307E+02  0.14261820947E+03  0.90927535775E+02 0.  0.
         23    2    1    2    0    0 -0.17586766922E+03  0.84709451801E+02 -0.22291952904E+02  0.21750734565E+03  0.93313374960E+02 0.  0.
        -13    1    4    4    0    0 -0.13999907257E+03  0.97062194834E+02  0.55587125166E+01  0.17044561969E+03  0.00000000000E+00 0.  1.
         13    1    4    4    0    0 -0.35868596644E+02 -0.12352743033E+02 -0.27850665421E+02  0.47061725957E+02  0.00000000000E+00 0. -1.
        -13    1    3    3    0    0  0.13841092767E+01  0.26864467699E+02  0.35348469642E+01  0.27131356883E+02  0.00000000000E+00 0.  1.
         13    1    3    3    0    0  0.10247454308E+03 -0.37557531476E+02 -0.37757290271E+02  0.11548685258E+03  0.00000000000E+00 0. -1.
          2    1    1    2  501    0  0.72009016859E+02 -0.74016388024E+02  0.48087480550E+01  0.10337721346E+03  0.00000000000E+00 0. -1.
<scales pt_clust_5="13000.00000" pt_clust_6="13000.00000" pt_clust_7="13000.00000" pt_clust_8="13000.00000" pt_clust_9="13000.00000"></scales>
<clustering>
<clus scale="   90.928">  7  8 -1 -1</clus>
<clus scale="   93.313">  5  6 -1 -1</clus>
<clus scale="  103.265">  5  9 -1 -1</clus>
<clus scale="  138.451">  2  7  1 -1</clus>
<clus scale="  320.408">  1  5  2 -1</clus>
</clustering>
</event>
<event>
 9    1  0.3303741E-006  0.2768492E+03  0.7546771E-02  0.1103709E+00
         -1   -1    0    0    0  501 -0.00000000000E+00  0.00000000000E+00  0.26877308845E+03  0.26877308845E+03  0.00000000000E+00 0.  1.
         21   -1    0    0  501  502  0.00000000000E+00 -0.00000000000E+00 -0.25572332695E+03  0.25572332695E+03  0.00000000000E+00 0. -1.
         23    2    1    2    0    0 -0.10695474603E+03 -0.18849466106E+03 -0.50188077672E+02  0.24051663398E+03  0.91432232454E+02 0.  0.
         23    2    1    2    0    0  0.15869488027E+02  0.96654911620E+02  0.77539293499E+02  0.15384294805E+03  0.89784731653E+02 0.  0.
        -11    1    3    3    0    0 -0.24991903889E+02 -0.12927459599E+03 -0.45433809388E+02  0.13928656598E+03  0.00000000000E+00 0.  1.
         11    1    3    3    0    0 -0.81962842141E+02 -0.59220065078E+02 -0.47542682845E+01  0.10123006800E+03  0.00000000000E+00 0. -1.
        -13    1    4    4    0    0  0.20510779046E+02 -0.10069191227E+02  0.18548855297E+01  0.22924250683E+02  0.00000000000E+00 0.  1.
         13    1    4    4    0    0 -0.46412910192E+01  0.10672410285E+03  0.75684407969E+02  0.13091869737E+03  0.00000000000E+00 0. -1.
         -1    1    1    2    0  502  0.91085258003E+02  0.91839749444E+02 -0.14301454328E+02  0.13013683337E+03  0.00000000000E+00 0.  1.
<scales pt_clust_5="13000.00000" pt_clust_6="13000.00000" pt_clust_7="13000.00000" pt_clust_8="13000.00000" pt_clust_9="13000.00000"></scales>
<clustering>
<clus scale="   89.785">  7  8 -1 -1</clus>
<clus scale="   91.432">  5  6 -1 -1</clus>
<clus scale="  129.349">  7  9 -1 -1</clus>
<clus scale="  235.222">  1  5  2 -1</clus>
<clus scale="  276.849">  2  5  1 -1</clus>
</clustering>
</event>
<event>
 9    1  0.3303741E-006  0.3365086E+03  0.7546771E-02  0.1083977E+00
          1   -1    0    0  502    0 -0.00000000000E+00  0.00000000000E+00  0.16940663087E+03  0.16940663087E+03  0.00000000000E+00 0. -1.
         21   -1    0    0  501  502  0.00000000000E+00 -0.00000000000E+00 -0.46372145497E+03  0.46372145497E+03  0.00000000000E+00 0. -1.
         23    2    1    2    0    0 -0.19656291743E+03  0.34464516746E+02 -0.15454768997E+03  0.26874790173E+03  0.92280348857E+02 0.  0.
         23    2    1    2    0    0 -0.34376846444E+02 -0.22301405624E+02  0.57088748953E+01  0.91168937978E+02  0.81240776308E+02 0.  0.
        -11    1    3    3    0    0 -0.17114486608E+03 -0.64720272366E+01 -0.12726066176E+03  0.21337227644E+03  0.00000000000E+00 0.  1.
         11    1    3    3    0    0 -0.25418051358E+02  0.40936543983E+02 -0.27287028210E+02  0.55375625294E+02  0.00000000000E+00 0. -1.
        -11    1    4    4    0    0  0.39402312386E+01  0.25433709234E+02 -0.10580605837E+02  0.27827112813E+02  0.00000000000E+00 0.  1.
         11    1    4    4    0    0 -0.38317077683E+02 -0.47735114858E+02  0.16289480732E+02  0.63341825165E+02  0.00000000000E+00 0. -1.
          1    1    1    2  501    0  0.23093976388E+03 -0.12163111122E+02 -0.14547600902E+03  0.27321124613E+03  0.00000000000E+00 0. -1.
<scales pt_clust_5="13000.00000" pt_clust_6="13000.00000" pt_clust_7="13000.00000" pt_clust_8="13000.00000" pt_clust_9="13000.00000"></scales>
<clustering>
<clus scale="   81.241">  7  8 -1 -1</clus>
<clus scale="   92.280">  5  6 -1 -1</clus>
<clus scale="  219.865">  1  5  2 -1</clus>
<clus scale="  119.388">  7  9 -1 -1</clus>
<clus scale="  336.509">  2  5  1 -1</clus>
</clustering>
</event>
<event>
 9    1  0.3303741E-006  0.1805793E+03  0.7546771E-02  0.1191333E+00
         21   -1    0    0  501  502  0.00000000000E+00  0.00000000000E+00  0.24270391621E+03  0.24270391621E+03  0.00000000000E+00 0. -1.
         -1   -1    0    0    0  501 -0.00000000000E+00 -0.00000000000E+00 -0.87929789754E+02  0.87929789754E+02  0.00000000000E+00 0.  1.
         23    2    1    2    0    0  0.12519656437E+02 -0.50603849657E+02  0.24084597141E+02  0.10772420131E+03  0.91142439794E+02 0.  0.
         23    2    1    2    0    0  0.15344081613E+02  0.10183057729E+00  0.14287621483E+02  0.93000898407E+02  0.90606731356E+02 0.  0.
        -13    1    3    3    0    0  0.40991989280E+02 -0.79845551559E+01  0.35960540761E+02  0.55111312795E+02  0.00000000000E+00 0.  1.
         13    1    3    3    0    0 -0.28472332843E+02 -0.42619294501E+02 -0.11875943621E+02  0.52612888518E+02  0.00000000000E+00 0. -1.
        -13    1    4    4    0    0  0.33402437657E+01 -0.36926894387E+02  0.33158790476E+02  0.49741915356E+02  0.00000000000E+00 0. -1.
         13    1    4    4    0    0  0.12003837847E+02  0.37028724964E+02 -0.18871168993E+02  0.43258983052E+02  0.00000000000E+00 0.  1.
         -1    1    1    2    0  502 -0.27863738050E+02  0.50502019080E+02  0.11640190784E+03  0.12990860625E+03  0.00000000000E+00 0.  1.
<scales pt_clust_5="13000.00000" pt_clust_6="13000.00000" pt_clust_7="13000.00000" pt_clust_8="13000.00000" pt_clust_9="13000.00000"></scales>
<clustering>
<clus scale="   90.607">  7  8 -1 -1</clus>
<clus scale="   57.679">  7  9 -1 -1</clus>
<clus scale="   91.142">  5  6 -1 -1</clus>
<clus scale="  104.997">  2  5  1 -1</clus>
<clus scale="  180.579">  1  5  2 -1</clus>
</clustering>
</event>
<event>
 9    1  0.3303741E-006  0.6234567E+03  0.7546771E-02  0.1043300E+00
          3   -1    0    0  502    0 -0.00000000000E+00  0.00000000000E+00  0.13796146413E+03  0.13796146413E+03  0.00000000000E+00 0. -1.
         21   -1    0    0  501  502  0.00000000000E+00 -0.00000000000E+00 -0.11800399576E+04  0.11800399576E+04  0.00000000000E+00 0. -1.
         23    2    1    2    0    0 -0.56610988730E+02  0.41638767712E+01 -0.41162181796E+01  0.10719014776E+03  0.90833048009E+02 0.  0.
         23    2    1    2    0    0  0.33231148716E+03  0.12275796039E+02 -0.52200062931E+03  0.62557845892E+03  0.91006217404E+02 0.  0.
        -13    1    3    3    0    0 -0.59126613659E+02  0.34453171988E+02  0.16588792007E+02  0.70414242331E+02  0.00000000000E+00 0. -1.
         13    1    3    3    0    0  0.25156249292E+01 -0.30289295217E+02 -0.20705010187E+02  0.36775905432E+02  0.00000000000E+00 0.  1.
        -13    1    4    4    0    0  0.24391783804E+03  0.42172823941E+02 -0.33437914969E+03  0.41603350171E+03  0.00000000000E+00 0.  1.
         13    1    4    4    0    0  0.88393649113E+02 -0.29897027901E+02 -0.18762147962E+03  0.20954495721E+03  0.00000000000E+00 0. -1.
          3    1    1    2  501    0 -0.27570049843E+03 -0.16439672810E+02 -0.51596164600E+03  0.58523281505E+03  0.00000000000E+00 0. -1.
<scales pt_clust_5="13000.00000" pt_clust_6="13000.00000" pt_clust_7="13000.00000" pt_clust_8="13000.00000" pt_clust_9="13000.00000"></scales>
<clustering>
<clus scale="   90.833">  5  6 -1 -1</clus>
<clus scale="   91.006">  7  8 -1 -1</clus>
<clus scale="  107.111">  1  5  2 -1</clus>
<clus scale="  298.754">  7  9 -1 -1</clus>
<clus scale="  623.457">  2  5  1 -1</clus>
</clustering>
</event>
<event>
 9    1  0.3303741E-006  0.2198513E+03  0.7546771E-02  0.1159637E+00
          3   -1    0    0  502    0 -0.00000000000E+00  0.00000000000E+00  0.60790233575E+02  0.60790233575E+02  0.00000000000E+00 0. -1.
         21   -1    0    0  501  502  0.00000000000E+00 -0.00000000000E+00 -0.47310857924E+03  0.47310857924E+03  0.00000000000E+00 0. -1.
         23    2    1    2    0    0  0.69932950218E+02 -0.27922949774E+02 -0.14385099285E+03  0.18689835363E+03  0.92561211070E+02 0.  0.
         23    2    1    2    0    0 -0.34526239839E+02  0.50801337643E+02 -0.37617882842E+02  0.11233360265E+03  0.86202645148E+02 0.  0.
        -11    1    3    3    0    0 -0.18724472441E+02 -0.22144718914E+02 -0.23616426719E+02  0.37399599663E+02  0.00000000000E+00 0.  1.
         11    1    3    3    0    0  0.88657422659E+02 -0.57782308602E+01 -0.12023456613E+03  0.14949875397E+03  0.00000000000E+00 0. -1.
        -11    1    4    4    0    0  0.11569693462E+02  0.56494424793E+02 -0.30839702075E+02  0.65395451399E+02  0.00000000000E+00 0. -1.
         11    1    4    4    0    0 -0.46095933301E+02 -0.56930871496E+01 -0.67781807667E+01  0.46938151249E+02  0.00000000000E+00 0.  1.
          3    1    1    2  501    0 -0.35406710379E+02 -0.22878387869E+02 -0.23084946997E+03  0.23466685654E+03  0.00000000000E+00 0. -1.
<scales pt_clust_5="13000.00000" pt_clust_6="13000.00000" pt_clust_7="13000.00000" pt_clust_8="13000.00000" pt_clust_9="13000.00000"></scales>
<clustering>
<clus scale="   86.203">  7  8 -1 -1</clus>
<clus scale="   42.155">  7  9 -1 -1</clus>
<clus scale="   92.561">  5  6 -1 -1</clus>
<clus scale="  119.323">  1  5  2 -1</clus>
<clus scale="  219.851">  2  5  1 -1</clus>
</clustering>
</event>
<event>
 9    1  0.3303741E-006  0.3152703E+03  0.7546771E-02  0.1111588E+00
          2   -1    0    0  502    0 -0.00000000000E+00  0.00000000000E+00  0.68561240462E+02  0.68561240462E+02  0.00000000000E+00 0. -1.
         21   -1    0    0  501  502  0.00000000000E+00 -0.00000000000E+00 -0.75628175766E+03  0.75628175766E+03  0.00000000000E+00 0. -1.
         23    2    1    2    0    0 -0.78409104944E+02  0.40929443330E+02 -0.28550493471E+03  0.31379235699E+03  0.95547728863E+02 0.  0.
         23    2    1    2    0    0  0.78184743252E+01  0.10628688025E+03 -0.25465987911E+03  0.29098617635E+03  0.91996039849E+02 0.  0.
        -11    1    3    3    0    0  0.17479441236E+02 -0.11280587564E+02 -0.39359736279E+02  0.44519336942E+02  0.00000000000E+00 0.  1.
         11    1    3    3    0    0 -0.95888546181E+02  0.52210030894E+02 -0.24614519843E+03  0.26927302005E+03  0.00000000000E+00 0. -1.
        -13    1    4    4    0    0  0.47666018720E+02  0.40482869650E+02 -0.94646691020E+02  0.11344121031E+03  0.00000000000E+00 0.  1.
         13    1    4    4    0    0 -0.39847544395E+02  0.65804010597E+02 -0.16001318809E+03  0.17754496604E+03  0.00000000000E+00 0. -1.
          2    1    1    2  501    0  0.70590630619E+02 -0.14721632358E+03 -0.14755570338E+03  0.22006446478E+03  0.00000000000E+00 0. -1.
<scales pt_clust_5="13000.00000" pt_clust_6="13000.00000" pt_clust_7="13000.00000" pt_clust_8="13000.00000" pt_clust_9="13000.00000"></scales>
<clustering>
<clus scale="   91.996">  7  8 -1 -1</clus>
<clus scale="   95.548">  5  6 -1 -1</clus>
<clus scale="  130.202">  1  5  2 -1</clus>
<clus scale="  121.344">  7  9 -1 -1</clus>
<clus scale="  315.270">  2  5  1 -1</clus>
</clustering>
</event>
<event>
 9    1  0.3303741E-006  0.2577605E+03  0.7546771E-02  0.1134120E+00
         21   -1    0    0  501  502  0.00000000000E+00  0.00000000000E+00  0.45508079134E+02  0.45508079134E+02  0.00000000000E+00 0.  1.
          2   -1    0    0  502    0 -0.00000000000E+00 -0.00000000000E+00 -0.87924616088E+03  0.87924616088E+03  0.00000000000E+00 0. -1.
         23    2    1    2    0    0  0.10123075494E+03 -0.98866802095E+01 -0.36987671017E+03  0.39408690240E+03  0.90278977187E+02 0.  0.
         23    2    1    2    0    0 -0.13991546886E+03  0.69435219756E+02 -0.27355781491E+03  0.32754673469E+03  0.89751864271E+02 0.  0.
        -11    1    4    4    0    0 -0.10025106692E+03  0.35668044341E+01 -0.18350944094E+03  0.20913802482E+03  0.00000000000E+00 0. -1.
         11    1    4    4    0    0 -0.39664401938E+02  0.65868415322E+02 -0.90048373973E+02  0.11840870987E+03  0.00000000000E+00 0.  1.
        -11    1    3    3    0    0  0.73921483708E+02 -0.47431248198E+02 -0.21056916963E+03  0.22815232688E+03  0.00000000000E+00 0. -1.
         11    1    3    3    0    0  0.27309271234E+02  0.37544567988E+02 -0.15930754054E+03  0.16593457552E+03  0.00000000000E+00 0.  1.
          2    1    1    2  501    0  0.38684713921E+02 -0.59548539547E+02 -0.19030355666E+03  0.20312060292E+03  0.00000000000E+00 0. -1.
<scales pt_clust_5="13000.00000" pt_clust_6="13000.00000" pt_clust_7="13000.00000" pt_clust_8="13000.00000" pt_clust_9="13000.00000"></scales>
<clustering>
<clus scale="   89.752">  5  6 -1 -1</clus>
<clus scale="   71.011">  5  9 -1 -1</clus>
<clus scale="   90.279">  7  8 -1 -1</clus>
<clus scale="  135.999">  2  7  1 -1</clus>
<clus scale="  257.760">  1  5  2 -1</clus>
</clustering>
</event>
<event>
 9    1  0.3303741E-006  0.2467371E+03  0.7546771E-02  0.1150206E+00
         21   -1    0    0  501  502  0.00000000000E+00  0.00000000000E+00  0.20996677229E+03  0.20996677229E+03  0.00000000000E+00 0. -1.
          2   -1    0    0  502    0 -0.00000000000E+00 -0.00000000000E+00 -0.16125352333E+03  0.16125352333E+03  0.00000000000E+00 0. -1.
         23    2    1    2    0    0 -0.52105107368E+02 -0.24006522597E+02 -0.34467833781E+02  0.11083923388E+03  0.88351846961E+02 0.  0.
         23    2    1    2    0    0 -0.26673160893E+02  0.21696482279E+02 -0.45819829673E+02  0.10921033957E+03  0.92979818364E+02 0.  0.
        -11    1    4    4    0    0  0.12149697289E+02  0.37561967697E+02  0.87002815463E+01  0.40425381389E+02  0.00000000000E+00 0.  1.
         11    1    4    4    0    0 -0.38822858182E+02 -0.15865485418E+02 -0.54520111220E+02  0.68784958184E+02  0.00000000000E+00 0. -1.
        -13    1    3    3    0    0 -0.61811637862E+01  0.31924450818E+02 -0.59675184568E+01  0.33060378436E+02  0.00000000000E+00 0.  1.
         13    1    3    3    0    0 -0.45923943582E+02 -0.55930973415E+02 -0.28500315324E+02  0.77778855448E+02  0.00000000000E+00 0. -1.
          2    1    1    2  501    0  0.78778268261E+02  0.23100403182E+01  0.12900091241E+03  0.15117072216E+03  0.00000000000E+00 0. -1.
<scales pt_clust_5="13000.00000" pt_clust_6="13000.00000" pt_clust_7="13000.00000" pt_clust_8="13000.00000" pt_clust_9="13000.00000"></scales>
<clustering>
<clus scale="   88.352">  7  8 -1 -1</clus>
<clus scale="   92.980">  5  6 -1 -1</clus>
<clus scale="   78.812">  5  9 -1 -1</clus>
<clus scale="  105.344">  2  7  1 -1</clus>
<clus scale="  246.737">  1  5  2 -1</clus>
</clustering>
</event>
<event>
 9    1  0.3303741E-006  0.4050112E+03  0.7546771E-02  0.1075336E+00
         21   -1    0    0  501  502  0.00000000000E+00  0.00000000000E+00  0.40618593933E+03  0.40618593933E+03  0.00000000000E+00 0. -1.
          1   -1    0    0  502    0 -0.00000000000E+00 -0.00000000000E+00 -0.35309959048E+03  0.35309959048E+03  0.00000000000E+00 0. -1.
         23    2    1    2    0    0 -0.27685468223E+02  0.12785404382E+03 -0.21945834457E+03  0.27111067928E+03  0.90696713004E+02 0.  0.
         23    2    1    2    0    0  0.38700236365E+02  0.85464711210E+02 -0.98213513025E+01  0.13411722870E+03  0.95336493198E+02 0.  0.
        -11    1    4    4    0    0  0.41511183145E+02  0.18894660286E+01  0.18966804284E+02  0.45678091824E+02  0.00000000000E+00 0.  1.
         11    1    4    4    0    0 -0.28109467792E+01  0.83575245181E+02 -0.28788155587E+02  0.88439136874E+02  0.00000000000E+00 0. -1.
        -13    1    3    3    0    0  0.25224632509E+01  0.12884767111E+03 -0.17420170913E+03  0.21668945667E+03  0.00000000000E+00 0. -1.
         13    1    3    3    0    0 -0.30207931474E+02 -0.99362728627E+00 -0.45256635440E+02  0.54421222611E+02  0.00000000000E+00 0.  1.
          1    1    1    2  501    0 -0.11014768143E+02 -0.21331875503E+03  0.28236604472E+03  0.35405762183E+03  0.00000000000E+00 0. -1.
<scales pt_clust_5="13000.00000" pt_clust_6="13000.00000" pt_clust_7="13000.00000" pt_clust_8="13000.00000" pt_clust_9="13000.00000"></scales>
<clustering>
<clus scale="   90.697">  7  8 -1 -1</clus>
<clus scale="   95.336">  5  6 -1 -1</clus>
<clus scale="  159.182">  2  7  1 -1</clus>
<clus scale="  172.003">  5  9 -1 -1</clus>
<clus scale="  405.011">  1  5  2 -1</clus>
</clustering>
</event>
<event>
 9    1  0.3303741E-006  0.2328803E+03  0.7546771E-02  0.1160906E+00
          2   -1    0    0  502    0 -0.00000000000E+00  0.00000000000E+00  0.37625581448E+03  0.37625581448E+03  0.00000000000E+00 0. -1.
         21   -1    0    0  501  502  0.00000000000E+00 -0.00000000000E+00 -0.73680375786E+02  0.73680375786E+02  0.00000000000E+00 0.  1.
         23    2    1    2    0    0 -0.19353985864E+02  0.31465900520E+02  0.64385218008E+02  0.11681787292E+03  0.90201327432E+02 0.  0.
         23    2    1    2    0    0 -0.85020426297E+02 -0.29522706290E+02  0.13847811466E+03  0.18875662573E+03  0.91393722132E+02 0.  0.
        -11    1    4    4    0    0  0.14595755239E+02 -0.20185602501E+02  0.12468358316E+02  0.27855961272E+02  0.00000000000E+00 0. -1.
         11    1    4    4    0    0 -0.99616181536E+02 -0.93371037893E+01  0.12600975634E+03  0.16090066446E+03  0.00000000000E+00 0.  1.
        -13    1    3    3    0    0 -0.11759454695E+02 -0.26333254758E+02 -0.14575784478E+01  0.28876454349E+02  0.00000000000E+00 0.  1.
         13    1    3    3    0    0 -0.75945311699E+01  0.57799155278E+02  0.65842796456E+02  0.87941418568E+02  0.00000000000E+00 0. -1.
          2    1    1    2  501    0  0.10437441216E+03 -0.19431942304E+01  0.99712106033E+02  0.14436169162E+03  0.00000000000E+00 0. -1.
<scales pt_clust_5="13000.00000" pt_clust_6="13000.00000" pt_clust_7="13000.00000" pt_clust_8="13000.00000" pt_clust_9="13000.00000"></scales>
<clustering>
<clus scale="   90.201">  7  8 -1 -1</clus>
<clus scale="   91.394">  5  6 -1 -1</clus>
<clus scale="   97.473">  1  7  2 -1</clus>
<clus scale="   96.792">  5  9 -1 -1</clus>
<clus scale="  232.880">  2  5  1 -1</clus>
</clustering>
</event>
<event>
 9    1  0.3303741E-006  0.1988655E+03  0.7546771E-02  0.1177134E+00
         -1   -1    0    0    0  501 -0.00000000000E+00  0.00000000000E+00  0.45424467020E+03  0.45424467020E+03  0.00000000000E+00 0.  1.
         21   -1    0    0  501  502  0.00000000000E+00 -0.00000000000E+00 -0.36954336294E+03  0.36954336294E+03  0.00000000000E+00 0.  1.
         23    2    1    2    0    0 -0.50602609490E+02 -0.25942945715E+02  0.42016773961E+03  0.43380700708E+03  0.91727473850E+02 0.  0.
         23    2    1    2    0    0  0.27932542736E+01 -0.54192774119E+01 -0.66476984652E+02  0.11498166886E+03  0.93618501640E+02 0.  0.
        -11    1    3    3    0    0 -0.76326328092E+02 -0.88481252238E+01  0.28740692160E+03  0.29750081725E+03  0.00000000000E+00 0.  1.
         11    1    3    3    0    0  0.25723718602E+02 -0.17094820491E+02  0.13276081801E+03  0.13630618983E+03  0.00000000000E+00 0. -1.
        -13    1    4    4    0    0 -0.19827908187E+02  0.37670733629E+02 -0.44498543010E+02  0.61582062690E+02  0.00000000000E+00 0.  1.
         13    1    4    4    0    0  0.22621162460E+02 -0.43090011041E+02 -0.21978441642E+02  0.53399606174E+02  0.00000000000E+00 0. -1.
         -1    1    1    2    0  502  0.47809355216E+02  0.31362223126E+02 -0.26898944770E+03  0.27499935720E+03  0.00000000000E+00 0.  1.
<scales pt_clust_5="13000.00000" pt_clust_6="13000.00000" pt_clust_7="13000.00000" pt_clust_8="13000.00000" pt_clust_9="13000.00000"></scales>
<clustering>
<clus scale="   91.727">  5  6 -1 -1</clus>
<clus scale="   93.619">  7  8 -1 -1</clus>
<clus scale="   57.178">  7  9 -1 -1</clus>
<clus scale="  107.924">  1  5  2 -1</clus>
<clus scale="  198.865">  2  5  1 -1</clus>
</clustering>
</event>
<event>
 9    1  0.3303741E-006  0.1338925E+03  0.7546771E-02  0.1239662E+00
         21   -1    0    0  501  502  0.00000000000E+00  0.00000000000E+00  0.41272158691E+03  0.41272158691E+03  0.00000000000E+00 0.  1.
          1   -1    0    0  502    0 -0.00000000000E+00 -0.00000000000E+00 -0.39865389259E+02  0.39865389259E+02  0.00000000000E+00 0. -1.
         23    2    1    2    0    0  0.16367554581E+02  0.29150338546E+01  0.55085151965E+02  0.10776002234E+03  0.91112316299E+02 0.  0.
         23    2    1    2    0    0 -0.35222591615E+02  0.19676713257E+02  0.25056139716E+03  0.27145777560E+03  0.96335383863E+02 0.  0.
        -11    1    4    4    0    0  0.54498353681E+01 -0.35357002622E+02  0.94861299824E+02  0.10138286120E+03  0.00000000000E+00 0. -1.
         11    1    4    4    0    0 -0.40672426983E+02  0.55033715880E+02  0.15570009734E+03  0.17007491441E+03  0.00000000000E+00 0.  1.
        -11    1    3    3    0    0 -0.18316031972E+02 -0.36046669058E+02  0.25183784132E+02  0.47634676031E+02  0.00000000000E+00 0.  1.
         11    1    3    3    0    0  0.34683586552E+02  0.38961702912E+02  0.29901367834E+02  0.60125346305E+02  0.00000000000E+00 0. -1.
          1    1    1    2  501    0  0.18855037034E+02 -0.22591747112E+02  0.67209648525E+02  0.73369178228E+02  0.00000000000E+00 0. -1.
<scales pt_clust_5="13000.00000" pt_clust_6="13000.00000" pt_clust_7="13000.00000" pt_clust_8="13000.00000" pt_clust_9="13000.00000"></scales>
<clustering>
<clus scale="   91.112">  7  8 -1 -1</clus>
<clus scale="   92.617">  2  7  1 -1</clus>
<clus scale="   96.335">  5  6 -1 -1</clus>
<clus scale="   31.476">  5  9 -1 -1</clus>
<clus scale="  133.892">  1  5  2 -1</clus>
</clustering>
</event>
<event>
 9    1  0.3303741E-006  0.2728039E+03  0.7546771E-02  0.1112906E+00
         21   -1    0    0  501  502  0.00000000000E+00  0.00000000000E+00  0.65371104128E+02  0.65371104128E+02  0.00000000000E+00 0. -1.
          2   -1    0    0  502    0 -0.00000000000E+00 -0.00000000000E+00 -0.14374560472E+04  0.14374560472E+04  0.00000000000E+00 0. -1.
         23    2    1    2    0    0 -0.16882333136E+03 -0.26843662445E+02 -0.11017662558E+04  0.11187774913E+04  0.92478609514E+02 0.  0.
         23    2    1    2    0    0  0.42867865093E+02  0.59993182809E+02 -0.20926335897E+03  0.24020452351E+03  0.92033819141E+02 0.  0.
        -11    1    4    4    0    0  0.38289798430E+02  0.84156602079E+02 -0.15243911117E+03  0.17828663706E+03  0.00000000000E+00 0.  1.
         11    1    4    4    0    0  0.45780666630E+01 -0.24163419270E+02 -0.56824247799E+02  0.61917886456E+02  0.00000000000E+00 0. -1.
        -13    1    3    3    0    0 -0.90323951863E+01  0.24118548237E+02 -0.11398924601E+03  0.11686246933E+03  0.00000000000E+00 0.  1.
         13    1    3    3    0    0 -0.15979093617E+03 -0.50962210681E+02 -0.98777700980E+03  0.10019150220E+04  0.00000000000E+00 0. -1.
          2    1    1    2  501    0  0.12595546627E+03 -0.33149520364E+02 -0.61055328297E+02  0.14384513650E+03  0.00000000000E+00 0. -1.
<scales pt_clust_5="13000.00000" pt_clust_6="13000.00000" pt_clust_7="13000.00000" pt_clust_8="13000.00000" pt_clust_9="13000.00000"></scales>
<clustering>
<clus scale="   92.034">  5  6 -1 -1</clus>
<clus scale="   92.479">  7  8 -1 -1</clus>
<clus scale="  130.245">  5  9 -1 -1</clus>
<clus scale="  194.356">  2  7  1 -1</clus>
<clus scale="  272.804">  1  5  2 -1</clus>
</clustering>
</event>
<event>
 9    1  0.3303741E-006  0.2917177E+03  0.7546771E-02  0.1129791E+00
         -3   -1    0    0    0  501 -0.00000000000E+00  0.00000000000E+00  0.30048845032E+03  0.30048845032E+03  0.00000000000E+00 0.  1.
         21   -1    0    0  501  502  0.00000000000E+00 -0.00000000000E+00 -0.17331894333E+03  0.17331894333E+03  0.00000000000E+00 0.  1.
         23    2    1    2    0    0 -0.22610255561E+02 -0.44824833851E+02  0.14831958124E+03  0.18132394928E+03  0.91428589701E+02 0.  0.
         23    2    1    2    0    0  0.21314682384E+01 -0.24972959367E+02  0.10771827545E+03  0.14450316115E+03  0.93004004529E+02 0.  0.
        -13    1    3    3    0    0  0.26150389348E+02  0.89249959073E+01  0.20744587833E+02  0.34551936840E+02  0.00000000000E+00 0. -1.
         13    1    3    3    0    0 -0.48760644910E+02 -0.53749829758E+02  0.12757499341E+03  0.14677201244E+03  0.00000000000E+00 0.  1.
        -13    1    4    4    0    0  0.42482501598E+02 -0.29911079377E+02  0.40203976820E+02  0.65694713362E+02  0.00000000000E+00 0. -1.
         13    1    4    4    0    0 -0.40351033360E+02  0.49381200094E+01  0.67514298634E+02  0.78808447787E+02  0.00000000000E+00 0.  1.
         -3    1    1    2    0  502  0.20478787323E+02  0.69797793218E+02 -0.12886834971E+03  0.14798028323E+03  0.00000000000E+00 0.  1.
<scales pt_clust_5="13000.00000" pt_clust_6="13000.00000" pt_clust_7="13000.00000" pt_clust_8="13000.00000" pt_clust_9="13000.00000"></scales>
<clustering>
<clus scale="   91.429">  5  6 -1 -1</clus>
<clus scale="   93.004">  7  8 -1 -1</clus>
<clus scale="   72.740">  7  9 -1 -1</clus>
<clus scale="  104.306">  1  5  2 -1</clus>
<clus scale="  291.718">  2  5  1 -1</clus>
</clustering>
</event>
<event>
 9    1  0.3303741E-006  0.2438679E+03  0.7546771E-02  0.1122289E+00
         -3   -1    0    0    0  501 -0.00000000000E+00  0.00000000000E+00  0.11547492986E+04  0.11547492986E+04  0.00000000000E+00 0.  1.
         21   -1    0    0  501  502  0.00000000000E+00 -0.00000000000E+00 -0.52141128292E+02  0.52141128292E+02  0.00000000000E+00 0.  1.
         23    2    1    2    0    0 -0.59768424862E+02 -0.18521489079E+03  0.73470526084E+03  0.76550159055E+03  0.91236201447E+02 0.  0.
         23    2    1    2    0    0  0.77543624203E+02  0.13716832969E+03  0.22630314568E+03  0.29080688905E+03  0.92343752630E+02 0.  0.
        -11    1    4    4    0    0  0.31106243415E+02  0.12307810413E+03  0.12342662119E+03  0.17705916784E+03  0.00000000000E+00 0.  1.
         11    1    4    4    0    0  0.46437380788E+02  0.14090225558E+02  0.10287652449E+03  0.11374772121E+03  0.00000000000E+00 0. -1.
        -13    1    3    3    0    0  0.21633617962E+02 -0.71317734789E+02  0.27849344975E+03  0.28829296605E+03  0.00000000000E+00 0.  1.
         13    1    3    3    0    0 -0.81402042825E+02 -0.11389715600E+03  0.45621181108E+03  0.47720862450E+03  0.00000000000E+00 0. -1.
         -3    1    1    2    0  502 -0.17775199340E+02  0.48046561098E+02  0.14159976380E+03  0.15058194730E+03  0.00000000000E+00 0.  1.
<scales pt_clust_5="13000.00000" pt_clust_6="13000.00000" pt_clust_7="13000.00000" pt_clust_8="13000.00000" pt_clust_9="13000.00000"></scales>
<clustering>
<clus scale="   91.236">  7  8 -1 -1</clus>
<clus scale="   92.344">  5  6 -1 -1</clus>
<clus scale="   51.229">  5  9 -1 -1</clus>
<clus scale="  214.944">  1  7  2 -1</clus>
<clus scale="  243.868">  2  5  1 -1</clus>
</clustering>
</event>
<event>
 9    1  0.3303741E-006  0.2284319E+03  0.7546771E-02  0.1143240E+00
         -3   -1    0    0    0  501 -0.00000000000E+00  0.00000000000E+00  0.40012549949E+03  0.40012549949E+03  0.00000000000E+00 0.  1.
         21   -1    0    0  501  502  0.00000000000E+00 -0.00000000000E+00 -0.96434161291E+02  0.96434161291E+02  0.00000000000E+00 0.  1.
         23    2    1    2    0    0 -0.12320001136E+03  0.32062915492E+02  0.17278996866E+03  0.23327978039E+03  0.91415585750E+02 0.  0.
         23    2    1    2    0    0  0.46056787228E+02 -0.79785098123E+02  0.37076305790E+02  0.13277460720E+03  0.88133729827E+02 0.  0.
        -11    1    4    4    0    0  0.61740004306E+02 -0.18974044421E+02  0.21456205071E+02  0.68060349907E+02  0.00000000000E+00 0. -1.
         11    1    4    4    0    0 -0.15683217078E+02 -0.60811053702E+02  0.15620100719E+02  0.64714257291E+02  0.00000000000E+00 0.  1.
        -13    1    3    3    0    0 -0.13049276025E+03  0.91571061934E+01  0.13138734064E+03  0.18540454782E+03  0.00000000000E+00 0.  1.
         13    1    3    3    0    0  0.72927488924E+01  0.22905809299E+02  0.41402628024E+02  0.47875232567E+02  0.00000000000E+00 0. -1.
         -3    1    1    2    0  502  0.77143224133E+02  0.47722182631E+02  0.93825063750E+02  0.13050527320E+03  0.00000000000E+00 0.  1.
<scales pt_clust_5="13000.00000" pt_clust_6="13000.00000" pt_clust_7="13000.00000" pt_clust_8="13000.00000" pt_clust_9="13000.00000"></scales>
<clustering>
<clus scale="   88.134">  5  6 -1 -1</clus>
<clus scale="   90.711">  5  9 -1 -1</clus>
<clus scale="   91.416">  7  8 -1 -1</clus>
<clus scale="  156.726">  1  7  2 -1</clus>
<clus scale="  228.432">  2  5  1 -1</clus>
</clustering>
</event>
<event>
 9    1  0.3303741E-006  0.2259797E+03  0.7546771E-02  0.1162740E+00
         -1   -1    0    0    0  501 -0.00000000000E+00  0.00000000000E+00  0.19254821775E+03  0.19254821775E+03  0.00000000000E+00 0.  1.
         21   -1    0    0  501  502  0.00000000000E+00 -0.00000000000E+00 -0.43542520333E+03  0.43542520333E+03  0.00000000000E+00 0. -1.
         23    2    1    2    0    0 -0.17262806772E+02  0.42607711440E+02  0.14598186721E+03  0.17822011602E+03  0.91314197295E+02 0.  0.
         23    2    1    2    0    0 -0.62622450546E+02 -0.25835244277E+02 -0.33024630868E+03  0.34926250787E+03  0.91283316377E+02 0.  0.
        -11    1    4    4    0    0 -0.51054160880E+02  0.21048146279E+02 -0.24632908708E+03  0.25244320341E+03  0.00000000000E+00 0. -1.
         11    1    4    4    0    0 -0.11568289666E+02 -0.46883390556E+02 -0.83917221599E+02  0.96819304463E+02  0.00000000000E+00 0.  1.
        -13    1    3    3    0    0 -0.21543241125E+02  0.70414815492E+02  0.11291084389E+03  0.13480065336E+03  0.00000000000E+00 0.  1.
         13    1    3    3    0    0  0.42804343527E+01 -0.27807104051E+02  0.33071023328E+02  0.43419462663E+02  0.00000000000E+00 0. -1.
         -1    1    1    2    0  502  0.79885257319E+02 -0.16772467163E+02 -0.58612544116E+02  0.10049079719E+03  0.00000000000E+00 0.  1.
<scales pt_clust_5="13000.00000" pt_clust_6="13000.00000" pt_clust_7="13000.00000" pt_clust_8="13000.00000" pt_clust_9="13000.00000"></scales>
<clustering>
<clus scale="   91.283">  5  6 -1 -1</clus>
<clus scale="   81.627">  5  9 -1 -1</clus>
<clus scale="   91.314">  7  8 -1 -1</clus>
<clus scale="  102.234">  1  7  2 -1</clus>
<clus scale="  225.980">  2  5  1 -1</clus>
</clustering>
</event>
<event>
 9    1  0.3303741E-006  0.1876713E+03  0.7546771E-02  0.1192639E+00
         21   -1    0    0  501  502  0.00000000000E+00  0.00000000000E+00  0.63732148118E+02  0.63732148118E+02  0.00000000000E+00 0. -1.
          1   -1    0    0  502    0 -0.00000000000E+00 -0.00000000000E+00 -0.30526270651E+03  0.30526270651E+03  0.00000000000E+00 0. -1.
         23    2    1    2    0    0 -0.70958209097E+01 -0.33210498372E+01 -0.88249617414E+02  0.12668194551E+03  0.90547999963E+02 0.  0.
         23    2    1    2    0    0 -0.52639397921E+02 -0.10701222357E+02 -0.39785144648E+02  0.11329269260E+03  0.91471056017E+02 0.  0.
        -11    1    4    4    0    0 -0.20631254299E+02  0.17773292851E+02  0.24105987578E+02  0.36368079820E+02  0.00000000000E+00 0. -1.
         11    1    4    4    0    0 -0.32008143622E+02 -0.28474515207E+02 -0.63891132226E+02  0.76924612781E+02  0.00000000000E+00 0.  1.
        -11    1    3    3    0    0 -0.13332590110E+02 -0.44758915765E+02 -0.60472496049E+02  0.76407076098E+02  0.00000000000E+00 0. -1.
         11    1    3    3    0    0  0.62367692006E+01  0.41437865928E+02 -0.27777121365E+02  0.50274869408E+02  0.00000000000E+00 0.  1.
          1    1    1    2  501    0  0.59735218830E+02  0.14022272194E+02 -0.11349579633E+03  0.12902021652E+03  0.00000000000E+00 0. -1.
<scales pt_clust_5="13000.00000" pt_clust_6="13000.00000" pt_clust_7="13000.00000" pt_clust_8="13000.00000" pt_clust_9="13000.00000"></scales>
<clustering>
<clus scale="   90.548">  7  8 -1 -1</clus>
<clus scale="   90.886">  2  7  1 -1</clus>
<clus scale="   91.471">  5  6 -1 -1</clus>
<clus scale="   56.667">  5  9 -1 -1</clus>
<clus scale="  187.671">  1  5  2 -1</clus>
</clustering>
</event>
<event>
 9    1  0.3303741E-006  0.2990960E+03  0.7546771E-02  0.1106421E+00
         21   -1    0    0  501  502  0.00000000000E+00  0.00000000000E+00  0.86723620855E+02  0.86723620855E+02  0.00000000000E+00 0.  1.
          1   -1    0    0  502    0 -0.00000000000E+00 -0.00000000000E+00 -0.79299563645E+03  0.79299563645E+03  0.00000000000E+00 0. -1.
         23    2    1    2    0    0 -0.10436901611E+03  0.10417738484E+03 -0.46158947107E+03  0.49328946427E+03  0.92324626817E+02 0.  0.
         23    2    1    2    0    0 -0.62092013152E+02 -0.44841664660E+02 -0.12404671069E+03  0.17246015416E+03  0.92134278932E+02 0.  0.
        -11    1    4    4    0    0  0.93605641267E+01 -0.43658325734E+02 -0.69294423356E+02  0.82434135374E+02  0.00000000000E+00 0. -1.
         11    1    4    4    0    0 -0.71452577278E+02 -0.11833389261E+01 -0.54752287334E+02  0.90026018789E+02  0.00000000000E+00 0.  1.
        -13    1    3    3    0    0 -0.10835185369E+02  0.60359132020E+02 -0.10063581511E+03  0.11784817921E+03  0.00000000000E+00 0.  1.
         13    1    3    3    0    0 -0.93533830745E+02  0.43818252824E+02 -0.36095365597E+03  0.37544128506E+03  0.00000000000E+00 0. -1.
          1    1    1    2  501    0  0.16646102926E+03 -0.59335720184E+02 -0.12063583383E+03  0.21396963887E+03  0.00000000000E+00 0. -1.
<scales pt_clust_5="13000.00000" pt_clust_6="13000.00000" pt_clust_7="13000.00000" pt_clust_8="13000.00000" pt_clust_9="13000.00000"></scales>
<clustering>
<clus scale="   92.134">  5  6 -1 -1</clus>
<clus scale="   92.325">  7  8 -1 -1</clus>
<clus scale="  173.982">  2  7  1 -1</clus>
<clus scale="  111.202">  5  9 -1 -1</clus>
<clus scale="  299.096">  1  5  2 -1</clus>
</clustering>
</event>
<event>
 9    1  0.3303741E-006  0.3611323E+03  0.7546771E-02  0.1108469E+00
          1   -1    0    0  502    0 -0.00000000000E+00  0.00000000000E+00  0.10024942700E+03  0.10024942700E+03  0.00000000000E+00 0. -1.
         21   -1    0    0  501  502  0.00000000000E+00 -0.00000000000E+00 -0.75817663047E+03  0.75817663047E+03  0.00000000000E+00 0. -1.
         23    2    1    2    0    0  0.31215221020E+01  0.29518765616E+02  0.14745439250E+02  0.94943876452E+02  0.88970839455E+02 0.  0.
         23    2    1    2    0    0  0.69505228390E+02  0.74349108127E+02 -0.76220682151E+02  0.15371327286E+03  0.86367882998E+02 0.  0.
        -11    1    3    3    0    0 -0.24602890270E+02  0.52210270627E+02  0.57305418317E+01  0.58000462742E+02  0.00000000000E+00 0.  1.
         11    1    3    3    0    0  0.27724412373E+02 -0.22691505011E+02  0.90148974181E+01  0.36943413710E+02  0.00000000000E+00 0. -1.
        -13    1    4    4    0    0  0.67977302038E+02  0.19575469088E+02 -0.16450903281E+02  0.72627438350E+02  0.00000000000E+00 0. -1.
         13    1    4    4    0    0  0.15279263520E+01  0.54773639039E+02 -0.59769778870E+02  0.81085834513E+02  0.00000000000E+00 0.  1.
          1    1    1    2  501    0 -0.72626750492E+02 -0.10386787374E+03 -0.59645196057E+03  0.60976890815E+03  0.00000000000E+00 0. -1.
<scales pt_clust_5="13000.00000" pt_clust_6="13000.00000" pt_clust_7="13000.00000" pt_clust_8="13000.00000" pt_clust_9="13000.00000"></scales>
<clustering>
<clus scale="   86.368">  7  8 -1 -1</clus>
<clus scale="   88.971">  5  6 -1 -1</clus>
<clus scale="   93.792">  1  5  2 -1</clus>
<clus scale="  122.949">  7  9 -1 -1</clus>
<clus scale="  361.132">  2  5  1 -1</clus>
</clustering>
</event>
<event>
 9    1  0.3303741E-006  0.1795674E+03  0.7546771E-02  0.1183348E+00
          2   -1    0    0  502    0 -0.00000000000E+00  0.00000000000E+00  0.44009489286E+03  0.44009489286E+03  0.00000000000E+00 0. -1.
         21   -1    0    0  501  502  0.00000000000E+00 -0.00000000000E+00 -0.83569708218E+02  0.83569708218E+02  0.00000000000E+00 0.  1.
         23    2    1    2    0    0  0.28601843172E+02 -0.90977390507E+02  0.31433798494E+03  0.33920806738E+03  0.84609651838E+02 0.  0.
         23    2    1    2    0    0 -0.47800122920E+02  0.79793800748E+02  0.69902270951E+02  0.14893510637E+03  0.92970081403E+02 0.  0.
        -11    1    3    3    0    0  0.61652444066E+01 -0.10107567948E+03  0.27202126987E+03  0.29025828925E+03  0.00000000000E+00 0. -1.
         11    1    3    3    0    0  0.22436598765E+02  0.10098288969E+02  0.42316715073E+02  0.48949778128E+02  0.00000000000E+00 0.  1.
        -11    1    4    4    0    0 -0.28275718140E+02  0.98781643711E+02  0.45520205234E+02  0.11238068542E+03  0.00000000000E+00 0.  1.
         11    1    4    4    0    0 -0.19524404780E+02 -0.18987842963E+02  0.24382065717E+02  0.36554420950E+02  0.00000000000E+00 0. -1.
          2    1    1    2  501    0  0.19198279748E+02  0.11183589759E+02 -0.27715071248E+02  0.35521427328E+02  0.00000000000E+00 0. -1.
<scales pt_clust_5="13000.00000" pt_clust_6="13000.00000" pt_clust_7="13000.00000" pt_clust_8="13000.00000" pt_clust_9="13000.00000"></scales>
<clustering>
<clus scale="   84.610">  5  6 -1 -1</clus>
<clus scale="   92.970">  7  8 -1 -1</clus>
<clus scale="   22.218">  7  9 -1 -1</clus>
<clus scale="  127.490">  1  5  2 -1</clus>
<clus scale="  179.567">  2  5  1 -1</clus>
</clustering>
</event>
<event>
 9    1  0.3303741E-006  0.2146304E+03  0.7546771E-02  0.1168344E+00
         21   -1    0    0  501  502  0.00000000000E+00  0.00000000000E+00  0.50318668125E+02  0.50318668125E+02  0.00000000000E+00 0. -1.
          1   -1    0    0  502    0 -0.00000000000E+00 -0.00000000000E+00 -0.50729879710E+03  0.50729879710E+03  0.00000000000E+00 0. -1.
         23    2    1    2    0    0 -0.26057205761E+01 -0.50671547145E+02 -0.14553025687E+03  0.17937515795E+03  0.91771434313E+02 0.  0.
         23    2    1    2    0    0  0.35119100946E+01  0.95017501228E+02 -0.30453566584E+03  0.33335142767E+03  0.96646487314E+02 0.  0.
        -13    1    4    4    0    0  0.44441429200E+02  0.65931200025E+02 -0.13644659466E+03  0.15792288296E+03  0.00000000000E+00 0.  1.
         13    1    4    4    0    0 -0.40929519105E+02  0.29086301203E+02 -0.16808907118E+03  0.17542854472E+03  0.00000000000E+00 0. -1.
        -13    1    3    3    0    0 -0.38599904162E+02 -0.33964243249E+02 -0.12398023240E+03  0.13421855478E+03  0.00000000000E+00 0.  1.
         13    1    3    3    0    0  0.35994183586E+02 -0.16707303897E+02 -0.21550024469E+02  0.45156603173E+02  0.00000000000E+00 0. -1.
          1    1    1    2  501    0 -0.90618951851E+00 -0.44345954083E+02 -0.69142062638E+01  0.44890879599E+02  0.00000000000E+00 0. -1.
<scales pt_clust_5="13000.00000" pt_clust_6="13000.00000" pt_clust_7="13000.00000" pt_clust_8="13000.00000" pt_clust_9="13000.00000"></scales>
<clustering>
<clus scale="   91.771">  7  8 -1 -1</clus>
<clus scale="   96.646">  5  6 -1 -1</clus>
<clus scale="   44.355">  5  9 -1 -1</clus>
<clus scale="  104.864">  2  7  1 -1</clus>
<clus scale="  214.630">  1  5  2 -1</clus>
</clustering>
</event>
<event>
 9    1  0.3303741E-006  0.3719789E+03  0.7546771E-02  0.1107542E+00
         21   -1    0    0  501  502  0.00000000000E+00  0.00000000000E+00  0.14111183447E+03  0.14111183447E+03  0.00000000000E+00 0. -1.
          2   -1    0    0  502    0 -0.00000000000E+00 -0.00000000000E+00 -0.37754327366E+03  0.37754327366E+03  0.00000000000E+00 0. -1.
         23    2    1    2    0    0  0.19664582211E+02 -0.52071529960E+01 -0.63616846563E+02  0.10849274004E+03  0.85497141694E+02 0.  0.
         23    2    1    2    0    0  0.75469574587E+02 -0.28730087235E+00 -0.25635917662E+03  0.28343275700E+03  0.94437074672E+02 0.  0.
        -13    1    4    4    0    0  0.37788621604E+02 -0.12399928511E+02 -0.21399655427E+02  0.45162854230E+02  0.00000000000E+00 0.  1.
         13    1    4    4    0    0  0.37680952983E+02  0.12112627639E+02 -0.23495952120E+03  0.23826990277E+03  0.00000000000E+00 0. -1.
        -13    1    3    3    0    0  0.42565216697E+02  0.17588536327E+02 -0.11995596656E+02  0.47592526953E+02  0.00000000000E+00 0.  1.
         13    1    3    3    0    0 -0.22900634486E+02 -0.22795689323E+02 -0.51621249907E+02  0.60900213083E+02  0.00000000000E+00 0. -1.
          2    1    1    2  501    0 -0.95134156798E+02  0.54944538683E+01  0.83544583996E+02  0.12672961109E+03  0.00000000000E+00 0. -1.
<scales pt_clust_5="13000.00000" pt_clust_6="13000.00000" pt_clust_7="13000.00000" pt_clust_8="13000.00000" pt_clust_9="13000.00000"></scales>
<clustering>
<clus scale="   85.497">  7  8 -1 -1</clus>
<clus scale="   87.884">  2  7  1 -1</clus>
<clus scale="   94.437">  5  6 -1 -1</clus>
<clus scale="   93.817">  5  9 -1 -1</clus>
<clus scale="  371.979">  1  5  2 -1</clus>
</clustering>
</event>
<event>
 9    1  0.3303741E-006  0.3303273E+03  0.7546771E-02  0.1106223E+00
         21   -1    0    0  501  502  0.00000000000E+00  0.00000000000E+00  0.34579835683E+03  0.34579835683E+03  0.00000000000E+00 0. -1.
          1   -1    0    0  502    0 -0.00000000000E+00 -0.00000000000E+00 -0.15377029979E+03  0.15377029979E+03  0.00000000000E+00 0. -1.
         23    2    1    2    0    0 -0.49363276704E+02  0.67268278495E+02  0.39187605968E+02  0.13559568971E+03  0.99442285917E+02 0.  0.
         23    2    1    2    0    0  0.99823222252E+02 -0.32678984977E+01 -0.50860933163E+02  0.14457262807E+03  0.91318428607E+02 0.  0.
        -11    1    4    4    0    0  0.29332004849E+02 -0.19127894424E+02 -0.62253620755E+02  0.71426578742E+02  0.00000000000E+00 0.  1.
         11    1    4    4    0    0  0.70491217403E+02  0.15859995926E+02  0.11392687592E+02  0.73146049328E+02  0.00000000000E+00 0. -1.
        -13    1    3    3    0    0 -0.62565229189E+01 -0.23039092768E+02  0.24929438496E+02  0.34516963632E+02  0.00000000000E+00 0.  1.
         13    1    3    3    0    0 -0.43106753785E+02  0.90307371263E+02  0.14258167472E+02  0.10107872608E+03  0.00000000000E+00 0. -1.
          1    1    1    2  501    0 -0.50459945548E+02 -0.64000379997E+02  0.20370138423E+03  0.21940033884E+03  0.00000000000E+00 0. -1.
<scales pt_clust_5="13000.00000" pt_clust_6="13000.00000" pt_clust_7="13000.00000" pt_clust_8="13000.00000" pt_clust_9="13000.00000"></scales>
<clustering>
<clus scale="   91.318">  5  6 -1 -1</clus>
<clus scale="   81.500">  5  9 -1 -1</clus>
<clus scale="   99.442">  7  8 -1 -1</clus>
<clus scale="  129.810">  2  7  1 -1</clus>
<clus scale="  330.327">  1  5  2 -1</clus>
</clustering>
</event>
<event>
 9    1  0.3303741E-006  0.1352504E+03  0.7546771E-02  0.1236113E+00
          3   -1    0    0  502    0 -0.00000000000E+00  0.00000000000E+00  0.34290197167E+03  0.34290197167E+03  0.00000000000E+00 0. -1.
         21   -1    0    0  501  502  0.00000000000E+00 -0.00000000000E+00 -0.55302824191E+02  0.55302824191E+02  0.00000000000E+00 0.  1.
         23    2    1    2    0    0 -0.17103387193E+02  0.25547996552E+02  0.20399770394E+02  0.98724943362E+02  0.91570944237E+02 0.  0.
         23    2    1    2    0    0 -0.70512887829E+01  0.58717236594E+01  0.11877457048E+03  0.14585508104E+03  0.84155262823E+02 0.  0.
        -13    1    4    4    0    0 -0.22086923687E+02  0.38580253497E+02  0.87597442033E+02  0.98232275799E+02  0.00000000000E+00 0.  1.
         13    1    4    4    0    0  0.15035634904E+02 -0.32708529837E+02  0.31177128449E+02  0.47622805245E+02  0.00000000000E+00 0. -1.
        -13    1    3    3    0    0 -0.45062624810E+02  0.34430165065E+01  0.37933393017E+02  0.59003701775E+02  0.00000000000E+00 0. -1.
         13    1    3    3    0    0  0.27959237617E+02  0.22104980046E+02 -0.17533622623E+02  0.39721241587E+02  0.00000000000E+00 0.  1.
          3    1    1    2  501    0  0.24154675976E+02 -0.31419720211E+02  0.14842480661E+03  0.15362477146E+03  0.00000000000E+00 0. -1.
<scales pt_clust_5="13000.00000" pt_clust_6="13000.00000" pt_clust_7="13000.00000" pt_clust_8="13000.00000" pt_clust_9="13000.00000"></scales>
<clustering>
<clus scale="   84.155">  5  6 -1 -1</clus>
<clus scale="   39.631">  5  9 -1 -1</clus>
<clus scale="   91.571">  7  8 -1 -1</clus>
<clus scale="   96.594">  1  7  2 -1</clus>
<clus scale="  135.250">  2  5  1 -1</clus>
</clustering>
</event>
<event>
 9    1  0.3303741E-006  0.2253854E+03  0.7546771E-02  0.1142574E+00
         -1   -1    0    0    0  501 -0.00000000000E+00  0.00000000000E+00  0.14190734883E+03  0.14190734883E+03  0.00000000000E+00 0.  1.
         21   -1    0    0  501  502  0.00000000000E+00 -0.00000000000E+00 -0.30994671820E+03  0.30994671820E+03  0.00000000000E+00 0.  1.
         23    2    1    2    0    0 -0.12434879974E+03 -0.59125473138E+02  0.78153971934E+01  0.16598088398E+03  0.92358691225E+02 0.  0.
         23    2    1    2    0    0  0.99847484397E+02  0.10296821605E+03 -0.15787173606E+03  0.23252629986E+03  0.92590611963E+02 0.  0.
        -11    1    3    3    0    0 -0.26035915938E+02  0.85879183278E+01 -0.30114110268E+02  0.40724450852E+02  0.00000000000E+00 0. -1.
         11    1    3    3    0    0 -0.98312883797E+02 -0.67713391465E+02  0.37929507461E+02  0.12525643313E+03  0.00000000000E+00 0.  1.
        -11    1    4    4    0    0  0.11150994567E+01  0.58186024136E+02 -0.32043909553E+02  0.66435449806E+02  0.00000000000E+00 0. -1.
         11    1    4    4    0    0  0.98732384940E+02  0.44782191916E+02 -0.12582782650E+03  0.16609085005E+03  0.00000000000E+00 0.  1.
         -1    1    1    2    0  502  0.24501315339E+02 -0.43842742915E+02 -0.17983030501E+02  0.53346883186E+02  0.00000000000E+00 0.  1.
<scales pt_clust_5="13000.00000" pt_clust_6="13000.00000" pt_clust_7="13000.00000" pt_clust_8="13000.00000" pt_clust_9="13000.00000"></scales>
<clustering>
<clus scale="   92.359">  5  6 -1 -1</clus>
<clus scale="   92.591">  7  8 -1 -1</clus>
<clus scale="   50.225">  7  9 -1 -1</clus>
<clus scale="  165.797">  1  5  2 -1</clus>
<clus scale="  225.385">  2  5  1 -1</clus>
</clustering>
</event>
<event>
 9    1  0.3303741E-006  0.2732361E+03  0.7546771E-02  0.1115139E+00
         21   -1    0    0  501  502  0.00000000000E+00  0.00000000000E+00  0.30145570906E+03  0.30145570906E+03  0.00000000000E+00 0.  1.
         -3   -1    0    0    0  501 -0.00000000000E+00 -0.00000000000E+00 -0.17306908280E+03  0.17306908280E+03  0.00000000000E+00 0.  1.
         23    2    1    2    0    0  0.12593017999E+02 -0.15688359369E+03  0.65041169786E+02  0.19404199118E+03  0.93010184945E+02 0.  0.
         23    2    1    2    0    0  0.48117802693E+02 -0.18640127172E-01  0.88974106127E+01  0.10365320919E+03  0.91375601645E+02 0.  0.
        -11    1    3    3    0    0  0.88863725807E+01 -0.13712868247E+03  0.12732924818E+02  0.13800496566E+03  0.00000000000E+00 0.  1.
         11    1    3    3    0    0  0.37066454180E+01 -0.19754911224E+02  0.52308244967E+02  0.56037025521E+02  0.00000000000E+00 0. -1.
        -13    1    4    4    0    0 -0.25940772867E+02 -0.35908081467E+01  0.13311817215E+02  0.29377237407E+02  0.00000000000E+00 0. -1.
         13    1    4    4    0    0  0.74058575560E+02  0.35721680196E+01 -0.44144066028E+01  0.74275971781E+02  0.00000000000E+00 0.  1.
         -3    1    1    2    0  502 -0.60710820692E+02  0.15690223382E+03  0.54448045862E+02  0.17682959149E+03  0.00000000000E+00 0.  1.
<scales pt_clust_5="13000.00000" pt_clust_6="13000.00000" pt_clust_7="13000.00000" pt_clust_8="13000.00000" pt_clust_9="13000.00000"></scales>
<clustering>
<clus scale="   91.376">  7  8 -1 -1</clus>
<clus scale="   93.010">  5  6 -1 -1</clus>
<clus scale="  168.238">  7  9 -1 -1</clus>
<clus scale="  182.817">  2  5  1 -1</clus>
<clus scale="  273.236">  1  5  2 -1</clus>
</clustering>
</event>
<event>
 9    1  0.3303741E-006  0.2702017E+03  0.7546771E-02  0.1116263E+00
         21   -1    0    0  501  502  0.00000000000E+00  0.00000000000E+00  0.33537190307E+03  0.33537190307E+03  0.00000000000E+00 0. -1.
          1   -1    0    0  502    0 -0.00000000000E+00 -0.00000000000E+00 -0.32151543175E+03  0.32151543175E+03  0.00000000000E+00 0. -1.
         23    2    1    2    0    0  0.19644054989E+02 -0.15840158306E+03 -0.22897979564E+03  0.29359901927E+03  0.91058700243E+02 0.  0.
         23    2    1    2    0    0  0.25908712585E+02 -0.14304295024E+02  0.89685573183E+02  0.12800654838E+03  0.86407755126E+02 0.  0.
        -13    1    3    3    0    0  0.45251310584E+02 -0.91311665841E+02 -0.17943555002E+03  0.20635556218E+03  0.00000000000E+00 0. -1.
         13    1    3    3    0    0 -0.25607255595E+02 -0.67089917217E+02 -0.49544245618E+02  0.87243457091E+02  0.00000000000E+00 0.  1.
        -13    1    4    4    0    0  0.49319574624E+02  0.16821401234E+02  0.46337852103E+02  0.69732177064E+02  0.00000000000E+00 0. -1.
         13    1    4    4    0    0 -0.23410862039E+02 -0.31125696258E+02  0.43347721080E+02  0.58274371311E+02  0.00000000000E+00 0.  1.
          1    1    1    2  501    0 -0.45552767574E+02  0.17270587808E+03  0.15315069378E+03  0.23528176717E+03  0.00000000000E+00 0. -1.
<scales pt_clust_5="13000.00000" pt_clust_6="13000.00000" pt_clust_7="13000.00000" pt_clust_8="13000.00000" pt_clust_9="13000.00000"></scales>
<clustering>
<clus scale="   86.408">  7  8 -1 -1</clus>
<clus scale="   91.059">  5  6 -1 -1</clus>
<clus scale="  178.612">  7  9 -1 -1</clus>
<clus scale="  183.762">  2  5  1 -1</clus>
<clus scale="  270.202">  1  5  2 -1</clus>
</clustering>
</event>
<event>
 9    1  0.3303741E-006  0.3610815E+03  0.7546771E-02  0.1091114E+00
          1   -1    0    0  502    0 -0.00000000000E+00  0.00000000000E+00  0.50811676173E+02  0.50811676173E+02  0.00000000000E+00 0. -1.
         21   -1    0    0  501  502  0.00000000000E+00 -0.00000000000E+00 -0.14823983994E+04  0.14823983994E+04  0.00000000000E+00 0. -1.
         23    2    1    2    0    0  0.21076483885E+02  0.11209221829E+03 -0.19110881006E+03  0.24124827441E+03  0.93108909599E+02 0.  0.
         23    2    1    2    0    0  0.10319581063E+03 -0.18239247969E+02 -0.22126896495E+03  0.26092404078E+03  0.90218372343E+02 0.  0.
        -11    1    4    4    0    0  0.11628118570E+03 -0.72408105282E+00 -0.19028909654E+03  0.22300623019E+03  0.00000000000E+00 0. -1.
         11    1    4    4    0    0 -0.13085375076E+02 -0.17515166916E+02 -0.30979868407E+02  0.37917810584E+02  0.00000000000E+00 0.  1.
        -11    1    3    3    0    0  0.43565020317E+02  0.97395518536E+02 -0.99894003826E+02  0.14615953622E+03  0.00000000000E+00 0. -1.
         11    1    3    3    0    0 -0.22488536432E+02  0.14696699757E+02 -0.91214806233E+02  0.95088738190E+02  0.00000000000E+00 0.  1.
          1    1    1    2  501    0 -0.12427229451E+03 -0.93852970325E+02 -0.10192089482E+04  0.10310377604E+04  0.00000000000E+00 0. -1.
<scales pt_clust_5="13000.00000" pt_clust_6="13000.00000" pt_clust_7="13000.00000" pt_clust_8="13000.00000" pt_clust_9="13000.00000"></scales>
<clustering>
<clus scale="   90.218">  5  6 -1 -1</clus>
<clus scale="   93.109">  7  8 -1 -1</clus>
<clus scale="  147.235">  1  7  2 -1</clus>
<clus scale="  137.481">  5  9 -1 -1</clus>
<clus scale="  361.081">  2  5  1 -1</clus>
</clustering>
</event>
<event>
 9    1  0.3303741E-006  0.2111041E+03  0.7546771E-02  0.1170823E+00
         21   -1    0    0  501  502  0.00000000000E+00  0.00000000000E+00  0.12356087235E+03  0.12356087235E+03  0.00000000000E+00 0. -1.
          1   -1    0    0  502    0 -0.00000000000E+00 -0.00000000000E+00 -0.20350747433E+03  0.20350747433E+03  0.00000000000E+00 0. -1.
         23    2    1    2    0    0 -0.54839713557E+02  0.74015921633E+01 -0.43471424495E+02  0.11283624477E+03  0.88204737044E+02 0.  0.
         23    2    1    2    0    0  0.58985276081E+02 -0.81911394650E+02 -0.15990244071E+02  0.13684651635E+03  0.91008470837E+02 0.  0.
        -13    1    4    4    0    0 -0.92915268728E+01 -0.53033696169E+02 -0.29650405983E+02  0.61465860247E+02  0.00000000000E+00 0.  1.
         13    1    4    4    0    0  0.68276802954E+02 -0.28877698481E+02  0.13660161912E+02  0.75380656104E+02  0.00000000000E+00 0. -1.
        -13    1    3    3    0    0 -0.77449844824E+02 -0.58299157211E+01 -0.28989476036E+02  0.82902690556E+02  0.00000000000E+00 0. -1.
         13    1    3    3    0    0  0.22610131267E+02  0.13231507884E+02 -0.14481948458E+02  0.29933554215E+02  0.00000000000E+00 0.  1.
          1    1    1    2  501    0 -0.41455625239E+01  0.74509802487E+02 -0.20484933421E+02  0.77385585560E+02  0.00000000000E+00 0. -1.
<scales pt_clust_5="13000.00000" pt_clust_6="13000.00000" pt_clust_7="13000.00000" pt_clust_8="13000.00000" pt_clust_9="13000.00000"></scales>
<clustering>
<clus scale="   88.205">  7  8 -1 -1</clus>
<clus scale="   91.008">  5  6 -1 -1</clus>
<clus scale="   74.625">  5  9 -1 -1</clus>
<clus scale="  104.126">  2  7  1 -1</clus>
<clus scale="  211.104">  1  5  2 -1</clus>
</clustering>
</event>
<event>
 9    1  0.3303741E-006  0.2835051E+03  0.7546771E-02  0.1124132E+00
         21   -1    0    0  501  502  0.00000000000E+00  0.00000000000E+00  0.27783736341E+03  0.27783736341E+03  0.00000000000E+00 0. -1.
          2   -1    0    0  502    0 -0.00000000000E+00 -0.00000000000E+00 -0.43502315893E+03  0.43502315893E+03  0.00000000000E+00 0.  1.
         23    2    1    2    0    0 -0.19838583090E+02  0.94997286636E+02 -0.34759514354E+03  0.37134793131E+03  0.87514846908E+02 0.  0.
         23    2    1    2    0    0  0.84151422189E+02 -0.14969645353E+03  0.10364820758E+03  0.22045212836E+03  0.91464200147E+02 0.  0.
        -11    1    4    4    0    0  0.95644328582E+02 -0.13205430963E+03  0.11198637346E+03  0.19780577879E+03  0.00000000000E+00 0. -1.
         11    1    4    4    0    0 -0.11492906393E+02 -0.17642143897E+02 -0.83381658794E+01  0.22646349571E+02  0.00000000000E+00 0.  1.
        -11    1    3    3    0    0  0.98091546503E+01  0.56854158271E+02 -0.75621221657E+02  0.95116686194E+02  0.00000000000E+00 0. -1.
         11    1    3    3    0    0 -0.29647737740E+02  0.38143128365E+02 -0.27197392188E+03  0.27623124511E+03  0.00000000000E+00 0.  1.
          2    1    1    2  501    0 -0.64312839099E+02  0.54699166892E+02  0.86761140434E+02  0.12106046267E+03  0.00000000000E+00 0.  1.
<scales pt_clust_5="13000.00000" pt_clust_6="13000.00000" pt_clust_7="13000.00000" pt_clust_8="13000.00000" pt_clust_9="13000.00000"></scales>
<clustering>
<clus scale="   87.515">  7  8 -1 -1</clus>
<clus scale="   91.464">  5  6 -1 -1</clus>
<clus scale="   84.428">  5  9 -1 -1</clus>
<clus scale="  130.679">  2  7  1 -1</clus>
<clus scale="  283.505">  1  5  2 -1</clus>
</clustering>
</event>
<event>
 9    1  0.3303741E-006  0.3510350E+03  0.7546771E-02  0.1107906E+00
         21   -1    0    0  501  502  0.00000000000E+00  0.00000000000E+00  0.97803659560E+03  0.97803659560E+03  0.00000000000E+00 0.  1.
          1   -1    0    0  502    0 -0.00000000000E+00 -0.00000000000E+00 -0.13362931892E+03  0.13362931892E+03  0.00000000000E+00 0. -1.
         23    2    1    2    0    0  0.51347037558E+02  0.15926355352E+02 -0.74753725572E+02  0.12775405929E+03  0.88559658524E+02 0.  0.
         23    2    1    2    0    0 -0.14404042121E+03 -0.12140937049E+03  0.54851573162E+03  0.58755766200E+03  0.94162732297E+02 0.  0.
        -13    1    3    3    0    0  0.23659571175E+02  0.46195836798E+02 -0.12812184681E+02  0.53460104021E+02  0.00000000000E+00 0. -1.
         13    1    3    3    0    0  0.27687466383E+02 -0.30269481447E+02 -0.61941540891E+02  0.74293955270E+02  0.00000000000E+00 0.  1.
        -13    1    4    4    0    0 -0.36349027543E+02 -0.91116931761E+02  0.27911940368E+03  0.29585670276E+03  0.00000000000E+00 0.  1.
         13    1    4    4    0    0 -0.10769139366E+03 -0.30292438732E+02  0.26939632794E+03  0.29170095924E+03  0.00000000000E+00 0. -1.
          1    1    1    2  501    0  0.92693383648E+02  0.10548301514E+03  0.37064527062E+03  0.39635419323E+03  0.00000000000E+00 0. -1.
<scales pt_clust_5="13000.00000" pt_clust_6="13000.00000" pt_clust_7="13000.00000" pt_clust_8="13000.00000" pt_clust_9="13000.00000"></scales>
<clustering>
<clus scale="   88.560">  5  6 -1 -1</clus>
<clus scale="   94.163">  7  8 -1 -1</clus>
<clus scale="  103.600">  2  5  1 -1</clus>
<clus scale="  159.022">  7  9 -1 -1</clus>
<clus scale="  351.035">  1  5  2 -1</clus>
</clustering>
</event>
<event>
 9    1  0.3663829E-006  0.5324435E+03  0.7546771E-02  0.1051961E+00
         21   -1    0    0  501  502  0.00000000000E+00  0.00000000000E+00  0.15658366787E+03  0.15658366787E+03  0.00000000000E+00 0. -1.
          1   -1    0    0  502    0 -0.00000000000E+00 -0.00000000000E+00 -0.74181846379E+03  0.74181846379E+03  0.00000000000E+00 0. -1.
         23    2    1    2    0    0  0.97287540032E+02 -0.11325978497E+01 -0.20154904306E+03  0.24211650791E+03  0.92370116473E+02 0.  0.
         23    2    1    2    0    0 -0.67543967142E+02  0.70946086803E+02 -0.49985034741E+03  0.51753110528E+03  0.91610809365E+02 0.  0.
        -13    1    4    4    0    0  0.12364345643E+02  0.48706329452E+02 -0.21881193121E+03  0.22450800612E+03  0.00000000000E+00 0.  1.
         13    1    4    4    0    0 -0.79908312785E+02  0.22239757350E+02 -0.28103841620E+03  0.29302309916E+03  0.00000000000E+00 0. -1.
        -13    1    3    3    0    0  0.42179095752E+01 -0.19755454116E+02 -0.98166168451E+00  0.20224549146E+02  0.00000000000E+00 0.  1.
         13    1    3    3    0    0  0.93069630457E+02  0.18622856266E+02 -0.20056738138E+03  0.22189195876E+03  0.00000000000E+00 0. -1.
          1    1    1    2  501    0 -0.29743572891E+02 -0.69813488953E+02  0.11616459456E+03  0.13875451848E+03  0.00000000000E+00 0. -1.
<scales pt_clust_5="13000.00000" pt_clust_6="13000.00000" pt_clust_7="13000.00000" pt_clust_8="13000.00000" pt_clust_9="13000.00000"></scales>
<clustering>
<clus scale="   91.611">  5  6 -1 -1</clus>
<clus scale="   75.886">  5  9 -1 -1</clus>
<clus scale="   92.370">  7  8 -1 -1</clus>
<clus scale="  134.158">  2  7  1 -1</clus>
<clus scale="  532.443">  1  5  2 -1</clus>
</clustering>
</event>
<event>
 9    1  0.3303741E-006  0.1562877E+03  0.7546771E-02  0.1215895E+00
         21   -1    0    0  501  502  0.00000000000E+00  0.00000000000E+00  0.29941318108E+03  0.29941318108E+03  0.00000000000E+00 0.  1.
          2   -1    0    0  502    0 -0.00000000000E+00 -0.00000000000E+00 -0.10049588025E+03  0.10049588025E+03  0.00000000000E+00 0. -1.
         23    2    1    2    0    0  0.44107428157E+01 -0.25735598452E+02 -0.48751270214E+02  0.10705145951E+03  0.91659985575E+02 0.  0.
         23    2    1    2    0    0 -0.32343328946E+02  0.22871391435E+02  0.24597079447E+03  0.26472727130E+03  0.89496955051E+02 0.  0.
        -11    1    3    3    0    0  0.16759703963E+02  0.30971200923E+02 -0.79297585369E+01  0.36096870141E+02  0.00000000000E+00 0.  1.
         11    1    3    3    0    0 -0.12348961147E+02 -0.56706799375E+02 -0.40821511677E+02  0.70954589368E+02  0.00000000000E+00 0. -1.
        -13    1    4    4    0    0 -0.13795963730E+02 -0.28347142452E+02  0.36220566233E+02  0.48018939167E+02  0.00000000000E+00 0. -1.
         13    1    4    4    0    0 -0.18547365216E+02  0.51218533887E+02  0.20975022823E+03  0.21670833213E+03  0.00000000000E+00 0.  1.
          2    1    1    2  501    0  0.27932586130E+02  0.28642070170E+01  0.16977765761E+01  0.28130330518E+02  0.00000000000E+00 0. -1.
<scales pt_clust_5="13000.00000" pt_clust_6="13000.00000" pt_clust_7="13000.00000" pt_clust_8="13000.00000" pt_clust_9="13000.00000"></scales>
<clustering>
<clus scale="   89.497">  7  8 -1 -1</clus>
<clus scale="   28.079">  7  9 -1 -1</clus>
<clus scale="   91.660">  5  6 -1 -1</clus>
<clus scale="   95.306">  2  5  1 -1</clus>
<clus scale="  156.288">  1  5  2 -1</clus>
</clustering>
</event>
<event>
 9    1  0.3303741E-006  0.3559007E+03  0.7546771E-02  0.1081074E+00
          2   -1    0    0  502    0 -0.00000000000E+00  0.00000000000E+00  0.55581226780E+03  0.55581226780E+03  0.00000000000E+00 0. -1.
         21   -1    0    0  501  502  0.00000000000E+00 -0.00000000000E+00 -0.14999732550E+03  0.14999732550E+03  0.00000000000E+00 0. -1.
         23    2    1    2    0    0  0.16591372610E+03  0.68112034000E+02  0.60211412374E+02  0.20971775444E+03  0.90495904128E+02 0.  0.
         23    2    1    2    0    0  0.62653269908E+02 -0.28767071474E+02  0.16469170945E+03  0.20194904270E+03  0.94377328087E+02 0.  0.
        -11    1    3    3    0    0  0.12613074581E+03  0.97963683481E+01  0.18870569874E+02  0.12791025088E+03  0.00000000000E+00 0. -1.
         11    1    3    3    0    0  0.39782980289E+02  0.58315665652E+02  0.41340842500E+02  0.81807503566E+02  0.00000000000E+00 0.  1.
        -13    1    4    4    0    0 -0.20717204078E+02 -0.25496086415E+02  0.56019513394E+02  0.64941811249E+02  0.00000000000E+00 0.  1.
         13    1    4    4    0    0  0.83370473986E+02 -0.32709850592E+01  0.10867219605E+03  0.13700723145E+03  0.00000000000E+00 0. -1.
          2    1    1    2  501    0 -0.22856699601E+03 -0.39344962526E+02  0.18091182048E+03  0.29414279616E+03  0.00000000000E+00 0. -1.
<scales pt_clust_5="13000.00000" pt_clust_6="13000.00000" pt_clust_7="13000.00000" pt_clust_8="13000.00000" pt_clust_9="13000.00000"></scales>
<clustering>
<clus scale="   90.496">  5  6 -1 -1</clus>
<clus scale="   94.377">  7  8 -1 -1</clus>
<clus scale="  200.888">  1  5  2 -1</clus>
<clus scale="  134.928">  7  9 -1 -1</clus>
<clus scale="  355.901">  2  5  1 -1</clus>
</clustering>
</event>
<event>
 9    1  0.3303741E-006  0.2629557E+03  0.7546771E-02  0.1111054E+00
         21   -1    0    0  501  502  0.00000000000E+00  0.00000000000E+00  0.56871124290E+02  0.56871124290E+02  0.00000000000E+00 0.  1.
          2   -1    0    0  502    0 -0.00000000000E+00 -0.00000000000E+00 -0.13895215168E+04  0.13895215168E+04  0.00000000000E+00 0. -1.
         23    2    1    2    0    0  0.20048654993E+03  0.55841797616E+02 -0.98256918539E+03  0.10085541375E+04  0.91793687710E+02 0.  0.
         23    2    1    2    0    0 -0.12526994297E+03 -0.59461359380E+02 -0.31203380801E+03  0.35346881846E+03  0.91361350754E+02 0.  0.
        -11    1    4    4    0    0 -0.45590789571E+02 -0.51248711258E+02 -0.67843545387E+02  0.96476407220E+02  0.00000000000E+00 0.  1.
         11    1    4    4    0    0 -0.79679153399E+02 -0.82126481214E+01 -0.24419026262E+03  0.25699241124E+03  0.00000000000E+00 0. -1.
        -11    1    3    3    0    0  0.11353139573E+03 -0.11064263726E+02 -0.41024255756E+03  0.42580600252E+03  0.00000000000E+00 0.  1.
         11    1    3    3    0    0  0.86955154196E+02  0.66906061342E+02 -0.57232662784E+03  0.58274813497E+03  0.00000000000E+00 0. -1.
          2    1    1    2  501    0 -0.75216606958E+02  0.36195617637E+01 -0.38047399084E+02  0.84369685116E+02  0.00000000000E+00 0. -1.
<scales pt_clust_5="13000.00000" pt_clust_6="13000.00000" pt_clust_7="13000.00000" pt_clust_8="13000.00000" pt_clust_9="13000.00000"></scales>
<clustering>
<clus scale="   91.361">  5  6 -1 -1</clus>
<clus scale="   75.304">  5  9 -1 -1</clus>
<clus scale="   91.794">  7  8 -1 -1</clus>
<clus scale="  227.463">  2  7  1 -1</clus>
<clus scale="  262.956">  1  5  2 -1</clus>
</clustering>
</event>
<event>
 9    1  0.3303741E-006  0.1707776E+03  0.7546771E-02  0.1201169E+00
          1   -1    0    0  502    0 -0.00000000000E+00  0.00000000000E+00  0.41363372018E+03  0.41363372018E+03  0.00000000000E+00 0. -1.
         21   -1    0    0  501  502  0.00000000000E+00 -0.00000000000E+00 -0.44977991837E+02  0.44977991837E+02  0.00000000000E+00 0. -1.
         23    2    1    2    0    0  0.10238326908E+02  0.34968633365E+02  0.16301221118E+03  0.19130242264E+03  0.93252384721E+02 0.  0.
         23    2    1    2    0    0 -0.14364940266E+02 -0.65617120281E+02  0.20851552172E+03  0.23625116487E+03  0.88452993850E+02 0.  0.
        -11    1    3    3    0    0 -0.22223112875E+02  0.51102852436E+02  0.13313425940E+03  0.14432636384E+03  0.00000000000E+00 0. -1.
         11    1    3    3    0    0  0.32461439783E+02 -0.16134219071E+02  0.29877951782E+02  0.46976058801E+02  0.00000000000E+00 0.  1.
        -11    1    4    4    0    0 -0.32109053692E+02  0.18694781936E+01  0.27733367312E+02  0.42469117487E+02  0.00000000000E+00 0.  1.
         11    1    4    4    0    0  0.17744113426E+02 -0.67486598474E+02  0.18078215441E+03  0.19378204738E+03  0.00000000000E+00 0. -1.
          1    1    1    2  501    0  0.41266133578E+01  0.30648486916E+02 -0.28720045551E+01  0.31058124512E+02  0.00000000000E+00 0. -1.
<scales pt_clust_5="13000.00000" pt_clust_6="13000.00000" pt_clust_7="13000.00000" pt_clust_8="13000.00000" pt_clust_9="13000.00000"></scales>
<clustering>
<clus scale="   88.453">  7  8 -1 -1</clus>
<clus scale="   30.925">  7  9 -1 -1</clus>
<clus scale="   93.252">  5  6 -1 -1</clus>
<clus scale="  100.118">  1  5  2 -1</clus>
<clus scale="  170.778">  2  5  1 -1</clus>
</clustering>
</event>
<event>
 9    1  0.3303741E-006  0.2225358E+03  0.7546771E-02  0.1164279E+00
         21   -1    0    0  501  502  0.00000000000E+00  0.00000000000E+00  0.21805776088E+03  0.21805776088E+03  0.00000000000E+00 0. -1.
          1   -1    0    0  502    0 -0.00000000000E+00 -0.00000000000E+00 -0.12452539536E+03  0.12452539536E+03  0.00000000000E+00 0. -1.
         23    2    1    2    0    0  0.45030678274E+02 -0.18782458575E+02  0.53968429294E+02  0.11655771648E+03  0.91063533724E+02 0.  0.
         23    2    1    2    0    0 -0.10279557866E+03  0.11899936532E+02  0.75811167927E+02  0.15748337507E+03  0.91351741953E+02 0.  0.
        -13    1    3    3    0    0  0.10721418114E+02  0.33685553645E+02  0.24863854769E+01  0.35437937912E+02  0.00000000000E+00 0.  1.
         13    1    3    3    0    0  0.34309260160E+02 -0.52468012220E+02  0.51482043817E+02  0.81119778566E+02  0.00000000000E+00 0. -1.
        -13    1    4    4    0    0 -0.69149288027E+02 -0.67118574625E+01  0.92401670453E+02  0.11560597635E+03  0.00000000000E+00 0. -1.
         13    1    4    4    0    0 -0.33646290634E+02  0.18611793995E+02 -0.16590502526E+02  0.41877398716E+02  0.00000000000E+00 0.  1.
          1    1    1    2  501    0  0.57764900387E+02  0.68825220429E+01 -0.36247231704E+02  0.68542064694E+02  0.00000000000E+00 0. -1.
<scales pt_clust_5="13000.00000" pt_clust_6="13000.00000" pt_clust_7="13000.00000" pt_clust_8="13000.00000" pt_clust_9="13000.00000"></scales>
<clustering>
<clus scale="   91.064">  5  6 -1 -1</clus>
<clus scale="   91.352">  7  8 -1 -1</clus>
<clus scale="   58.174">  7  9 -1 -1</clus>
<clus scale="  103.311">  2  5  1 -1</clus>
<clus scale="  222.536">  1  5  2 -1</clus>
</clustering>
</event>
<event>
 9    1  0.3303741E-006  0.2991830E+03  0.7546771E-02  0.1131346E+00
          4   -1    0    0  502    0 -0.00000000000E+00  0.00000000000E+00  0.69350815323E+02  0.69350815323E+02  0.00000000000E+00 0. -1.
         21   -1    0    0  501  502  0.00000000000E+00 -0.00000000000E+00 -0.59544000481E+03  0.59544000481E+03  0.00000000000E+00 0. -1.
         23    2    1    2    0    0 -0.22409622642E+02  0.21675584610E+02 -0.59316329674E+02  0.11036558050E+03  0.87693285023E+02 0.  0.
         23    2    1    2    0    0  0.22287506886E+02 -0.93363189623E+02 -0.66215194589E+02  0.14750316995E+03  0.90328926768E+02 0.  0.
        -11    1    4    4    0    0 -0.18590297027E+02 -0.16646056436E+02  0.14516309803E+02  0.28868903490E+02  0.00000000000E+00 0.  1.
         11    1    4    4    0    0  0.40877803913E+02 -0.76717133186E+02 -0.80731504392E+02  0.11863426646E+03  0.00000000000E+00 0. -1.
        -13    1    3    3    0    0  0.27926744914E+02 -0.14103161699E+02 -0.21235733373E+02  0.37812149150E+02  0.00000000000E+00 0. -1.
         13    1    3    3    0    0 -0.50336367556E+02  0.35778746310E+02 -0.38080596301E+02  0.72553431351E+02  0.00000000000E+00 0.  1.
          4    1    1    2  501    0  0.12211575544E+00  0.71687605013E+02 -0.40055766523E+03  0.40692206968E+03  0.00000000000E+00 0. -1.
<scales pt_clust_5="13000.00000" pt_clust_6="13000.00000" pt_clust_7="13000.00000" pt_clust_8="13000.00000" pt_clust_9="13000.00000"></scales>
<clustering>
<clus scale="   87.693">  7  8 -1 -1</clus>
<clus scale="   90.329">  5  6 -1 -1</clus>
<clus scale="   71.688">  5  9 -1 -1</clus>
<clus scale="   93.071">  1  7  2 -1</clus>
<clus scale="  299.183">  2  5  1 -1</clus>
</clustering>
</event>
<event>
 9    1  0.3303741E-006  0.1633705E+03  0.7546771E-02  0.1204072E+00
         21   -1    0    0  501  502  0.00000000000E+00  0.00000000000E+00  0.29949842637E+03  0.29949842637E+03  0.00000000000E+00 0. -1.
          1   -1    0    0  502    0 -0.00000000000E+00 -0.00000000000E+00 -0.66440971002E+02  0.66440971002E+02  0.00000000000E+00 0. -1.
         23    2    1    2    0    0 -0.24837981106E+02 -0.49150186496E+02  0.43986116741E+02  0.11606364798E+03  0.92213479381E+02 0.  0.
         23    2    1    2    0    0 -0.22077429740E+02  0.38425928999E+02  0.72786147790E+02  0.12402539745E+03  0.90113877844E+02 0.  0.
        -13    1    4    4    0    0  0.35077286551E+02  0.96423969318E+01  0.28264963778E+02  0.46068427667E+02  0.00000000000E+00 0.  1.
         13    1    4    4    0    0 -0.57154716290E+02  0.28783532067E+02  0.44521184012E+02  0.77956969787E+02  0.00000000000E+00 0. -1.
        -13    1    3    3    0    0  0.30585735308E+02 -0.28007546442E+02  0.38335182547E+02  0.56475623795E+02  0.00000000000E+00 0.  1.
         13    1    3    3    0    0 -0.55423716414E+02 -0.21142640054E+02  0.56509341939E+01  0.59588024190E+02  0.00000000000E+00 0. -1.
          1    1    1    2  501    0  0.46915410846E+02  0.10724257497E+02  0.11628519084E+03  0.12585035193E+03  0.00000000000E+00 0. -1.
<scales pt_clust_5="13000.00000" pt_clust_6="13000.00000" pt_clust_7="13000.00000" pt_clust_8="13000.00000" pt_clust_9="13000.00000"></scales>
<clustering>
<clus scale="   90.114">  5  6 -1 -1</clus>
<clus scale="   48.126">  5  9 -1 -1</clus>
<clus scale="   92.213">  7  8 -1 -1</clus>
<clus scale="  107.406">  2  7  1 -1</clus>
<clus scale="  163.370">  1  5  2 -1</clus>
</clustering>
</event>
<event>
 9    1  0.3303741E-006  0.3546435E+03  0.7546771E-02  0.1086397E+00
          2   -1    0    0  502    0 -0.00000000000E+00  0.00000000000E+00  0.54696442548E+03  0.54696442548E+03  0.00000000000E+00 0. -1.
         21   -1    0    0  501  502  0.00000000000E+00 -0.00000000000E+00 -0.32421923211E+03  0.32421923211E+03  0.00000000000E+00 0. -1.
         23    2    1    2    0    0  0.14837832200E+03 -0.30945943664E+02  0.42703029128E+03  0.46191063722E+03  0.89625829055E+02 0.  0.
         23    2    1    2    0    0 -0.28709595232E+02 -0.24219464904E+02  0.58593012511E+02  0.11521736678E+03  0.91820897153E+02 0.  0.
        -13    1    3    3    0    0  0.87450261441E+02 -0.26313530477E+02  0.13131704997E+03  0.15995036019E+03  0.00000000000E+00 0.  1.
         13    1    3    3    0    0  0.60928060563E+02 -0.46324131867E+01  0.29571324131E+03  0.30196027703E+03  0.00000000000E+00 0. -1.
        -13    1    4    4    0    0  0.30957935074E+02 -0.57351832157E+01  0.30543089371E+01  0.31632497114E+02  0.00000000000E+00 0. -1.
         13    1    4    4    0    0 -0.59667530307E+02 -0.18484281688E+02  0.55538703574E+02  0.83584869666E+02  0.00000000000E+00 0.  1.
          2    1    1    2  501    0 -0.11966872677E+03  0.55165408567E+02 -0.26287811042E+03  0.29405565359E+03  0.00000000000E+00 0. -1.
<scales pt_clust_5="13000.00000" pt_clust_6="13000.00000" pt_clust_7="13000.00000" pt_clust_8="13000.00000" pt_clust_9="13000.00000"></scales>
<clustering>
<clus scale="   89.626">  5  6 -1 -1</clus>
<clus scale="   91.821">  7  8 -1 -1</clus>
<clus scale="  131.772">  7  9 -1 -1</clus>
<clus scale="  176.087">  1  5  2 -1</clus>
<clus scale="  354.643">  2  5  1 -1</clus>
</clustering>
</event>
<event>
 9    1  0.3303741E-006  0.1614943E+03  0.7546771E-02  0.1206463E+00
         21   -1    0    0  501  502  0.00000000000E+00  0.00000000000E+00  0.16240462779E+03  0.16240462779E+03  0.00000000000E+00 0.  1.
          2   -1    0    0  502    0 -0.00000000000E+00 -0.00000000000E+00 -0.14439433824E+03  0.14439433824E+03  0.00000000000E+00 0. -1.
         23    2    1    2    0    0  0.51243450530E+02 -0.88340331008E+01 -0.66220493464E+02  0.12465825837E+03  0.91927124738E+02 0.  0.
         23    2    1    2    0    0 -0.31543779965E+02 -0.36643552512E+01  0.11185343162E+03  0.14598413912E+03  0.88270839790E+02 0.  0.
        -11    1    4    4    0    0 -0.13662175415E+02 -0.30784285717E+02  0.10816938603E+03  0.11329140902E+03  0.00000000000E+00 0. -1.
         11    1    4    4    0    0 -0.17881604550E+02  0.27119930466E+02  0.36840455905E+01  0.32692730104E+02  0.00000000000E+00 0.  1.
        -13    1    3    3    0    0 -0.87931703660E+01  0.31822702818E+02 -0.18326682735E+02  0.37760714503E+02  0.00000000000E+00 0.  1.
         13    1    3    3    0    0  0.60036620896E+02 -0.40656735919E+02 -0.47893810729E+02  0.86897543868E+02  0.00000000000E+00 0. -1.
          2    1    1    2  501    0 -0.19699670565E+02  0.12498388352E+02 -0.27622648607E+02  0.36156568529E+02  0.00000000000E+00 0. -1.
<scales pt_clust_5="13000.00000" pt_clust_6="13000.00000" pt_clust_7="13000.00000" pt_clust_8="13000.00000" pt_clust_9="13000.00000"></scales>
<clustering>
<clus scale="   88.271">  5  6 -1 -1</clus>
<clus scale="   23.330">  5  9 -1 -1</clus>
<clus scale="   91.927">  7  8 -1 -1</clus>
<clus scale="  105.615">  2  7  1 -1</clus>
<clus scale="  161.494">  1  5  2 -1</clus>
</clustering>
</event>
<event>
 9    1  0.3303741E-006  0.2130141E+03  0.7546771E-02  0.1170687E+00
         21   -1    0    0  501  502  0.00000000000E+00  0.00000000000E+00  0.40775186866E+03  0.40775186866E+03  0.00000000000E+00 0.  1.
         -2   -1    0    0    0  501 -0.00000000000E+00 -0.00000000000E+00 -0.21412120274E+03  0.21412120274E+03  0.00000000000E+00 0.  1.
         23    2    1    2    0    0  0.37117065324E+02 -0.23696709378E+02 -0.17137191130E+03  0.19925992702E+03  0.91635014916E+02 0.  0.
         23    2    1    2    0    0 -0.14838951509E+02 -0.16006858954E+02  0.95171752712E+02  0.14896855454E+03  0.11250579413E+03 0.  0.
        -13    1    3    3    0    0 -0.10939894951E+02 -0.43025450321E+02 -0.47616160966E+02  0.65101224735E+02  0.00000000000E+00 0.  1.
         13    1    3    3    0    0  0.48056960275E+02  0.19328740943E+02 -0.12375575034E+03  0.13415870228E+03  0.00000000000E+00 0. -1.
        -13    1    4    4    0    0  0.47815785723E+02 -0.11621713836E+02  0.57693779324E+02  0.75828660607E+02  0.00000000000E+00 0.  1.
         13    1    4    4    0    0 -0.62654737232E+02 -0.43851451180E+01  0.37477973388E+02  0.73139893933E+02  0.00000000000E+00 0. -1.
         -2    1    1    2    0  502 -0.22278113815E+02  0.39703568332E+02  0.26983082451E+03  0.27364458984E+03  0.00000000000E+00 0.  1.
<scales pt_clust_5="13000.00000" pt_clust_6="13000.00000" pt_clust_7="13000.00000" pt_clust_8="13000.00000" pt_clust_9="13000.00000"></scales>
<clustering>
<clus scale="   91.635">  5  6 -1 -1</clus>
<clus scale="  101.667">  2  5  1 -1</clus>
<clus scale="  112.506">  7  8 -1 -1</clus>
<clus scale="   42.978">  7  9 -1 -1</clus>
<clus scale="  213.014">  1  5  2 -1</clus>
</clustering>
</event>
<event>
 9    1  0.3303741E-006  0.3739050E+03  0.7546771E-02  0.1100155E+00
          2   -1    0    0  502    0 -0.00000000000E+00  0.00000000000E+00  0.69882592208E+03  0.69882592208E+03  0.00000000000E+00 0. -1.
         21   -1    0    0  501  502  0.00000000000E+00 -0.00000000000E+00 -0.90616599847E+02  0.90616599847E+02  0.00000000000E+00 0.  1.
         23    2    1    2    0    0 -0.37703981132E+02 -0.25148986593E+02  0.25263310080E+03  0.27345858909E+03  0.94350700094E+02 0.  0.
         23    2    1    2    0    0  0.10127191892E+03  0.49943516018E+02  0.40594282383E+03  0.43117564290E+03  0.91501379553E+02 0.  0.
        -13    1    3    3    0    0 -0.42450489343E+02  0.24517415805E+02  0.80605196771E+02  0.94341642289E+02  0.00000000000E+00 0. -1.
         13    1    3    3    0    0  0.47465082112E+01 -0.49666402397E+02  0.17202790403E+03  0.17911694680E+03  0.00000000000E+00 0.  1.
        -13    1    4    4    0    0  0.64976198426E+02  0.72055399727E+02  0.33201763181E+03  0.34590402546E+03  0.00000000000E+00 0. -1.
         13    1    4    4    0    0  0.36295720497E+02 -0.22111883708E+02  0.73925192015E+02  0.85271617447E+02  0.00000000000E+00 0.  1.
          2    1    1    2  501    0 -0.63567937791E+02 -0.24794529425E+02 -0.50366602396E+02  0.84808289933E+02  0.00000000000E+00 0. -1.
<scales pt_clust_5="13000.00000" pt_clust_6="13000.00000" pt_clust_7="13000.00000" pt_clust_8="13000.00000" pt_clust_9="13000.00000"></scales>
<clustering>
<clus scale="   91.501">  7  8 -1 -1</clus>
<clus scale="   68.232">  7  9 -1 -1</clus>
<clus scale="   94.351">  5  6 -1 -1</clus>
<clus scale="  104.671">  1  5  2 -1</clus>
<clus scale="  373.905">  2  5  1 -1</clus>
</clustering>
</event>
<event>
 9    1  0.3303741E-006  0.4020175E+03  0.7546771E-02  0.1081218E+00
          1   -1    0    0  502    0 -0.00000000000E+00  0.00000000000E+00  0.40859074969E+03  0.40859074969E+03  0.00000000000E+00 0. -1.
         21   -1    0    0  501  502  0.00000000000E+00 -0.00000000000E+00 -0.21992326542E+03  0.21992326542E+03  0.00000000000E+00 0. -1.
         23    2    1    2    0    0 -0.78859391203E+02  0.72132211643E+02 -0.64843337458E+02  0.15323954438E+03  0.88633176696E+02 0.  0.
         23    2    1    2    0    0  0.16243166609E+03 -0.40851989643E+02  0.31374309710E+03  0.36761433692E+03  0.93019559881E+02 0.  0.
        -11    1    4    4    0    0  0.12498016819E+02 -0.24633785550E+02  0.11419978367E+03  0.11749303982E+03  0.00000000000E+00 0.  1.
         11    1    4    4    0    0  0.14993364927E+03 -0.16218204093E+02  0.19954331343E+03  0.25012129710E+03  0.00000000000E+00 0. -1.
        -13    1    3    3    0    0 -0.18983820269E+02  0.53939740053E+02 -0.70071965478E+02  0.90443138683E+02  0.00000000000E+00 0. -1.
         13    1    3    3    0    0 -0.59875570934E+02  0.18192471590E+02  0.52286280193E+01  0.62796405695E+02  0.00000000000E+00 0.  1.
          1    1    1    2  501    0 -0.83572274886E+02 -0.31280222000E+02 -0.60232275367E+02  0.10766013382E+03  0.00000000000E+00 0. -1.
<scales pt_clust_5="13000.00000" pt_clust_6="13000.00000" pt_clust_7="13000.00000" pt_clust_8="13000.00000" pt_clust_9="13000.00000"></scales>
<clustering>
<clus scale="   88.633">  7  8 -1 -1</clus>
<clus scale="   93.020">  5  6 -1 -1</clus>
<clus scale="   89.234">  5  9 -1 -1</clus>
<clus scale="  138.844">  1  7  2 -1</clus>
<clus scale="  402.018">  2  5  1 -1</clus>
</clustering>
</event>
<event>
 9    1  0.3303741E-006  0.2077262E+03  0.7546771E-02  0.1156992E+00
         21   -1    0    0  501  502  0.00000000000E+00  0.00000000000E+00  0.34581634100E+03  0.34581634100E+03  0.00000000000E+00 0. -1.
          1   -1    0    0  502    0 -0.00000000000E+00 -0.00000000000E+00 -0.31811127366E+03  0.31811127366E+03  0.00000000000E+00 0. -1.
         23    2    1    2    0    0  0.56900657752E+02  0.10613923989E+03 -0.26515621681E+03  0.30487622695E+03  0.90213476546E+02 0.  0.
         23    2    1    2    0    0  0.42578601352E+01 -0.38552070038E+02  0.80653138022E+02  0.12809535916E+03  0.91646608718E+02 0.  0.
        -11    1    3    3    0    0  0.89402869548E+01  0.70247746777E+02 -0.65625164189E+02  0.96547070555E+02  0.00000000000E+00 0.  1.
         11    1    3    3    0    0  0.47960370797E+02  0.35891493112E+02 -0.19953105262E+03  0.20832915639E+03  0.00000000000E+00 0. -1.
        -13    1    4    4    0    0 -0.28288923449E+02  0.14023799476E+02  0.49862781527E+02  0.59018870908E+02  0.00000000000E+00 0. -1.
         13    1    4    4    0    0  0.32546783584E+02 -0.52575869514E+02  0.30790356495E+02  0.69076488256E+02  0.00000000000E+00 0.  1.
          1    1    1    2  501    0 -0.61158517887E+02 -0.67587169851E+02  0.21220814613E+03  0.23095602855E+03  0.00000000000E+00 0. -1.
<scales pt_clust_5="13000.00000" pt_clust_6="13000.00000" pt_clust_7="13000.00000" pt_clust_8="13000.00000" pt_clust_9="13000.00000"></scales>
<clustering>
<clus scale="   90.213">  5  6 -1 -1</clus>
<clus scale="   91.647">  7  8 -1 -1</clus>
<clus scale="   91.150">  7  9 -1 -1</clus>
<clus scale="  150.472">  2  5  1 -1</clus>
<clus scale="  207.726">  1  5  2 -1</clus>
</clustering>
</event>
<event>
 9    1  0.3303741E-006  0.2329756E+03  0.7546771E-02  0.1150496E+00
         21   -1    0    0  501  502  0.00000000000E+00  0.00000000000E+00  0.71242746137E+02  0.71242746137E+02  0.00000000000E+00 0. -1.
          1   -1    0    0  502    0 -0.00000000000E+00 -0.00000000000E+00 -0.45474003327E+03  0.45474003327E+03  0.00000000000E+00 0. -1.
         23    2    1    2    0    0  0.74912905378E+02  0.31393751077E+02 -0.10348870589E+03  0.16172676252E+03  0.94064459125E+02 0.  0.
         23    2    1    2    0    0 -0.11906080304E+03  0.77532022409E+01 -0.26065035735E+03  0.30215721130E+03  0.95523738346E+02 0.  0.
        -13    1    3    3    0    0  0.15915157841E+02 -0.18949170388E+02  0.79182466189E+01  0.25981954065E+02  0.00000000000E+00 0.  1.
         13    1    3    3    0    0  0.58997747537E+02  0.50342921465E+02 -0.11140695251E+03  0.13574480846E+03  0.00000000000E+00 0. -1.
        -13    1    4    4    0    0 -0.53598588874E+02 -0.10680663609E+02 -0.31396623980E+02  0.63028829132E+02  0.00000000000E+00 0.  1.
         13    1    4    4    0    0 -0.65462214169E+02  0.18433865849E+02 -0.22925373337E+03  0.23912838217E+03  0.00000000000E+00 0. -1.
          1    1    1    2  501    0  0.44147897665E+02 -0.39146953317E+02 -0.19358223887E+02  0.62098805579E+02  0.00000000000E+00 0. -1.
<scales pt_clust_5="13000.00000" pt_clust_6="13000.00000" pt_clust_7="13000.00000" pt_clust_8="13000.00000" pt_clust_9="13000.00000"></scales>
<clustering>
<clus scale="   94.064">  5  6 -1 -1</clus>
<clus scale="   95.524">  7  8 -1 -1</clus>
<clus scale="   59.004">  7  9 -1 -1</clus>
<clus scale="  124.281">  2  5  1 -1</clus>
<clus scale="  232.976">  1  5  2 -1</clus>
</clustering>
</event>
<event>
 9    1  0.3303741E-006  0.1502506E+03  0.7546771E-02  0.1212600E+00
         21   -1    0    0  501  502  0.00000000000E+00  0.00000000000E+00  0.15906155477E+03  0.15906155477E+03  0.00000000000E+00 0. -1.
         -1   -1    0    0    0  501 -0.00000000000E+00 -0.00000000000E+00 -0.12391750549E+03  0.12391750549E+03  0.00000000000E+00 0.  1.
         23    2    1    2    0    0 -0.69426628587E+02 -0.15051605988E+02  0.61502192763E+02  0.13043404671E+03  0.90464983430E+02 0.  0.
         23    2    1    2    0    0  0.36774795663E+02  0.34580520803E+02 -0.47293141795E+00  0.10652800679E+03  0.93807220145E+02 0.  0.
        -11    1    3    3    0    0 -0.42132207081E+02  0.27783985673E+02  0.61609192850E+02  0.79641480253E+02  0.00000000000E+00 0. -1.
         11    1    3    3    0    0 -0.27294421506E+02 -0.42835591661E+02 -0.10700008696E+00  0.50792566458E+02  0.00000000000E+00 0.  1.
        -11    1    4    4    0    0  0.26172717532E+02 -0.29963854213E+02  0.79718780040E+01  0.40575787623E+02  0.00000000000E+00 0. -1.
         11    1    4    4    0    0  0.10602078131E+02  0.64544375015E+02 -0.84448094220E+01  0.65952219167E+02  0.00000000000E+00 0.  1.
         -1    1    1    2    0  502  0.32651832924E+02 -0.19528914814E+02 -0.25885212072E+02  0.46017006760E+02  0.00000000000E+00 0.  1.
<scales pt_clust_5="13000.00000" pt_clust_6="13000.00000" pt_clust_7="13000.00000" pt_clust_8="13000.00000" pt_clust_9="13000.00000"></scales>
<clustering>
<clus scale="   90.465">  5  6 -1 -1</clus>
<clus scale="   93.807">  7  8 -1 -1</clus>
<clus scale="   38.046">  7  9 -1 -1</clus>
<clus scale="  115.024">  2  5  1 -1</clus>
<clus scale="  150.251">  1  5  2 -1</clus>
</clustering>
</event>
<event>
 9    1  0.3303741E-006  0.9620010E+03  0.7546771E-02  0.9600294E-01
         21   -1    0    0  501  502  0.00000000000E+00  0.00000000000E+00  0.44862714264E+03  0.44862714264E+03  0.00000000000E+00 0. -1.
          2   -1    0    0  502    0 -0.00000000000E+00 -0.00000000000E+00 -0.14367237948E+04  0.14367237948E+04  0.00000000000E+00 0. -1.
         23    2    1    2    0    0  0.30861017552E+03 -0.23743471136E+03 -0.81470229564E+03  0.90784826739E+03  0.93984910971E+02 0.  0.
         23    2    1    2    0    0  0.24326040143E+03  0.96738064177E+02 -0.28435873912E+03  0.39727015252E+03  0.91813972797E+02 0.  0.
        -11    1    3    3    0    0  0.27239219123E+03 -0.19474479485E+03 -0.75543635474E+03  0.82632144292E+03  0.00000000000E+00 0. -1.
         11    1    3    3    0    0  0.36217984295E+02 -0.42689916511E+02 -0.59265940901E+02  0.81526824475E+02  0.00000000000E+00 0.  1.
        -13    1    4    4    0    0  0.19879840601E+03  0.96360255128E+02 -0.27335161979E+03  0.35146438375E+03  0.00000000000E+00 0.  1.
         13    1    4    4    0    0  0.44461995423E+02  0.37780904927E+00 -0.11007119330E+02  0.45805768770E+02  0.00000000000E+00 0. -1.
          2    1    1    2  501    0 -0.55187057695E+03  0.14069664719E+03  0.11096438258E+03  0.58023251756E+03  0.00000000000E+00 0. -1.
<scales pt_clust_5="13000.00000" pt_clust_6="13000.00000" pt_clust_7="13000.00000" pt_clust_8="13000.00000" pt_clust_9="13000.00000"></scales>
<clustering>
<clus scale="   91.814">  7  8 -1 -1</clus>
<clus scale="   93.985">  5  6 -1 -1</clus>
<clus scale="  400.560">  2  5  1 -1</clus>
<clus scale="  428.292">  7  9 -1 -1</clus>
<clus scale="  962.001">  1  5  2 -1</clus>
</clustering>
</event>
<event>
 9    1  0.3303741E-006  0.2252856E+03  0.7546771E-02  0.1134892E+00
          2   -1    0    0  502    0 -0.00000000000E+00  0.00000000000E+00  0.36382717632E+03  0.36382717632E+03  0.00000000000E+00 0. -1.
         21   -1    0    0  501  502  0.00000000000E+00 -0.00000000000E+00 -0.13529032867E+03  0.13529032867E+03  0.00000000000E+00 0. -1.
         23    2    1    2    0    0  0.14627669383E+03  0.10018585984E+03  0.17926175909E+03  0.26850602062E+03  0.92339737749E+02 0.  0.
         23    2    1    2    0    0 -0.75580780333E+02 -0.95772971915E+02  0.48262685426E+02  0.15977074239E+03  0.91172840332E+02 0.  0.
        -11    1    3    3    0    0  0.16067657277E+02 -0.17896567815E+02  0.19267069977E+02  0.30816825525E+02  0.00000000000E+00 0. -1.
         11    1    3    3    0    0  0.13020903655E+03  0.11808242765E+03  0.15999468912E+03  0.23768919510E+03  0.00000000000E+00 0.  1.
        -13    1    4    4    0    0 -0.85651766737E+02 -0.71266956494E+02  0.64451721847E+02  0.12872151600E+03  0.00000000000E+00 0.  1.
         13    1    4    4    0    0  0.10070986405E+02 -0.24506015421E+02 -0.16189036421E+02  0.31049226387E+02  0.00000000000E+00 0. -1.
          2    1    1    2  501    0 -0.70695913494E+02 -0.44128879216E+01  0.10124031348E+01  0.70840741983E+02  0.00000000000E+00 0. -1.
<scales pt_clust_5="13000.00000" pt_clust_6="13000.00000" pt_clust_7="13000.00000" pt_clust_8="13000.00000" pt_clust_9="13000.00000"></scales>
<clustering>
<clus scale="   91.173">  7  8 -1 -1</clus>
<clus scale="   70.834">  7  9 -1 -1</clus>
<clus scale="   92.340">  5  6 -1 -1</clus>
<clus scale="  199.902">  1  5  2 -1</clus>
<clus scale="  225.286">  2  5  1 -1</clus>
</clustering>
</event>
<event>
 9    1  0.3303741E-006  0.3214900E+03  0.7546771E-02  0.1110014E+00
          2   -1    0    0  502    0 -0.00000000000E+00  0.00000000000E+00  0.68830613378E+03  0.68830613378E+03  0.00000000000E+00 0. -1.
         21   -1    0    0  501  502  0.00000000000E+00 -0.00000000000E+00 -0.11916128768E+03  0.11916128768E+03  0.00000000000E+00 0. -1.
         23    2    1    2    0    0  0.82979362617E+02 -0.32257059844E+02  0.44475221383E+03  0.46275107262E+03  0.91694770739E+02 0.  0.
         23    2    1    2    0    0 -0.64225654704E+02 -0.23356695514E+02  0.21047996206E+03  0.24052604365E+03  0.94236369310E+02 0.  0.
        -11    1    4    4    0    0 -0.32789620007E+02 -0.57567230989E+02  0.15219486795E+03  0.16598922584E+03  0.00000000000E+00 0.  1.
         11    1    4    4    0    0 -0.31436034697E+02  0.34210535475E+02  0.58285094102E+02  0.74536817811E+02  0.00000000000E+00 0. -1.
        -13    1    3    3    0    0  0.25377073208E+02 -0.46118356852E+02  0.10063323400E+03  0.11356912639E+03  0.00000000000E+00 0.  1.
         13    1    3    3    0    0  0.57602289409E+02  0.13861297008E+02  0.34411897983E+03  0.34918194624E+03  0.00000000000E+00 0. -1.
          2    1    1    2  501    0 -0.18753707913E+02  0.55613755358E+02 -0.86087329776E+02  0.10419030518E+03  0.00000000000E+00 0. -1.
<scales pt_clust_5="13000.00000" pt_clust_6="13000.00000" pt_clust_7="13000.00000" pt_clust_8="13000.00000" pt_clust_9="13000.00000"></scales>
<clustering>
<clus scale="   91.695">  7  8 -1 -1</clus>
<clus scale="   94.236">  5  6 -1 -1</clus>
<clus scale="   58.691">  5  9 -1 -1</clus>
<clus scale="  127.805">  1  7  2 -1</clus>
<clus scale="  321.490">  2  5  1 -1</clus>
</clustering>
</event>
<event>
 9    1  0.3303741E-006  0.1430328E+03  0.7546771E-02  0.1227809E+00
         -1   -1    0    0    0  501 -0.00000000000E+00  0.00000000000E+00  0.25758449824E+02  0.25758449824E+02  0.00000000000E+00 0.  1.
         21   -1    0    0  501  502  0.00000000000E+00 -0.00000000000E+00 -0.56692908043E+03  0.56692908043E+03  0.00000000000E+00 0. -1.
         23    2    1    2    0    0 -0.30516650805E+02  0.75832805563E+01 -0.25437559293E+03  0.27220386787E+03  0.91647320112E+02 0.  0.
         23    2    1    2    0    0  0.29614459217E+01 -0.41661587810E+02 -0.16512454209E+03  0.19116108185E+03  0.86787019482E+02 0.  0.
        -11    1    3    3    0    0  0.21262318063E+02  0.12251921133E+01 -0.12348958724E+02  0.24618774273E+02  0.00000000000E+00 0.  1.
         11    1    3    3    0    0 -0.51778968868E+02  0.63580884430E+01 -0.24202663421E+03  0.24758509360E+03  0.00000000000E+00 0. -1.
        -13    1    4    4    0    0  0.28920503481E+02 -0.39424232777E+02 -0.15611406144E+03  0.16359176578E+03  0.00000000000E+00 0.  1.
         13    1    4    4    0    0 -0.25959057560E+02 -0.22373550327E+01 -0.90104806568E+01  0.27569316071E+02  0.00000000000E+00 0. -1.
         -1    1    1    2    0  502  0.27555204883E+02  0.34078307254E+02 -0.12167049558E+03  0.12932258053E+03  0.00000000000E+00 0.  1.
<scales pt_clust_5="13000.00000" pt_clust_6="13000.00000" pt_clust_7="13000.00000" pt_clust_8="13000.00000" pt_clust_9="13000.00000"></scales>
<clustering>
<clus scale="   86.787">  7  8 -1 -1</clus>
<clus scale="   43.825">  7  9 -1 -1</clus>
<clus scale="   91.647">  5  6 -1 -1</clus>
<clus scale="   96.892">  1  5  2 -1</clus>
<clus scale="  143.033">  2  5  1 -1</clus>
</clustering>
</event>
<event>
 9    1  0.3303741E-006  0.2268131E+03  0.7546771E-02  0.1160021E+00
          1   -1    0    0  502    0 -0.00000000000E+00  0.00000000000E+00  0.10066106345E+03  0.10066106345E+03  0.00000000000E+00 0. -1.
         21   -1    0    0  501  502  0.00000000000E+00 -0.00000000000E+00 -0.27859294530E+03  0.27859294530E+03  0.00000000000E+00 0. -1.
         23    2    1    2    0    0 -0.79845773714E+01  0.56086624473E+02 -0.48605712225E+02  0.11816119016E+03  0.91597427252E+02 0.  0.
         23    2    1    2    0    0  0.20671618230E+02  0.30044931093E+02  0.68695341216E+01  0.99448531370E+02  0.92264869848E+02 0.  0.
        -11    1    3    3    0    0 -0.49866315128E+02  0.30255062053E+02 -0.29636294352E+02  0.65424216520E+02  0.00000000000E+00 0. -1.
         11    1    3    3    0    0  0.41881737757E+02  0.25831562420E+02 -0.18969417874E+02  0.52736973643E+02  0.00000000000E+00 0.  1.
        -11    1    4    4    0    0 -0.18418412316E+02 -0.11382190746E+02 -0.25882968605E+02  0.33744929134E+02  0.00000000000E+00 0.  1.
         11    1    4    4    0    0  0.39090030546E+02  0.41427121838E+02  0.32752502727E+02  0.65703602236E+02  0.00000000000E+00 0. -1.
          1    1    1    2  501    0 -0.12687040858E+02 -0.86131555566E+02 -0.13619570375E+03  0.16164428722E+03  0.00000000000E+00 0. -1.
<scales pt_clust_5="13000.00000" pt_clust_6="13000.00000" pt_clust_7="13000.00000" pt_clust_8="13000.00000" pt_clust_9="13000.00000"></scales>
<clustering>
<clus scale="   91.597">  5  6 -1 -1</clus>
<clus scale="   92.265">  7  8 -1 -1</clus>
<clus scale="   87.061">  7  9 -1 -1</clus>
<clus scale="  107.701">  1  5  2 -1</clus>
<clus scale="  226.813">  2  5  1 -1</clus>
</clustering>
</event>
<event>
 9    1  0.3303741E-006  0.1709012E+03  0.7546771E-02  0.1205841E+00
         21   -1    0    0  501  502  0.00000000000E+00  0.00000000000E+00  0.39008374803E+02  0.39008374803E+02  0.00000000000E+00 0.  1.
          1   -1    0    0  502    0 -0.00000000000E+00 -0.00000000000E+00 -0.44679469205E+03  0.44679469205E+03  0.00000000000E+00 0. -1.
         23    2    1    2    0    0  0.92720985632E+00  0.10224029890E+02 -0.10861742387E+03  0.14126100045E+03  0.89730345902E+02 0.  0.
         23    2    1    2    0    0 -0.41768826564E+02  0.36048323647E+02 -0.14163430773E+03  0.17534893996E+03  0.87423435707E+02 0.  0.
        -13    1    3    3    0    0 -0.28595433377E+02  0.28227690779E+02 -0.96649852163E+02  0.10466945715E+03  0.00000000000E+00 0.  1.
         13    1    3    3    0    0  0.29522643234E+02 -0.18003660889E+02 -0.11967571708E+02  0.36591543306E+02  0.00000000000E+00 0. -1.
        -13    1    4    4    0    0 -0.51478842963E+01  0.57026058501E+02 -0.10438710038E+03  0.11905939185E+03  0.00000000000E+00 0.  1.
         13    1    4    4    0    0 -0.36620942267E+02 -0.20977734854E+02 -0.37247207344E+02  0.56289548116E+02  0.00000000000E+00 0. -1.
          1    1    1    2  501    0  0.40841616707E+02 -0.46272353538E+02 -0.15753458565E+03  0.16919312643E+03  0.00000000000E+00 0. -1.
<scales pt_clust_5="13000.00000" pt_clust_6="13000.00000" pt_clust_7="13000.00000" pt_clust_8="13000.00000" pt_clust_9="13000.00000"></scales>
<clustering>
<clus scale="   87.423">  7  8 -1 -1</clus>
<clus scale="   61.718">  7  9 -1 -1</clus>
<clus scale="   89.730">  5  6 -1 -1</clus>
<clus scale="   90.316">  2  5  1 -1</clus>
<clus scale="  170.901">  1  5  2 -1</clus>
</clustering>
</event>
<event>
 9    1  0.3303741E-006  0.2719809E+03  0.7546771E-02  0.1135345E+00
         21   -1    0    0  501  502  0.00000000000E+00  0.00000000000E+00  0.30561771989E+03  0.30561771989E+03  0.00000000000E+00 0.  1.
         -1   -1    0    0    0  501 -0.00000000000E+00 -0.00000000000E+00 -0.14186007089E+03  0.14186007089E+03  0.00000000000E+00 0.  1.
         23    2    1    2    0    0 -0.53552901045E+02  0.25206315582E+02  0.13246952278E+03  0.17370314094E+03  0.95505681242E+02 0.  0.
         23    2    1    2    0    0  0.74434255323E+02  0.26860606924E+02 -0.80137736820E+02  0.14902402528E+03  0.97591765420E+02 0.  0.
        -11    1    3    3    0    0 -0.27044466862E+02  0.60866950153E+02  0.66134912129E+02  0.93861682337E+02  0.00000000000E+00 0.  1.
         11    1    3    3    0    0 -0.26508434183E+02 -0.35660634570E+02  0.66334610655E+02  0.79841458601E+02  0.00000000000E+00 0. -1.
        -13    1    4    4    0    0  0.96841621455E+02  0.25079937811E+02 -0.51187704728E+02  0.11237207857E+03  0.00000000000E+00 0.  1.
         13    1    4    4    0    0 -0.22407366132E+02  0.17806691126E+01 -0.28950032091E+02  0.36651946709E+02  0.00000000000E+00 0. -1.
         -1    1    1    2    0  502 -0.20881354278E+02 -0.52066922506E+02  0.11142586304E+03  0.12475062457E+03  0.00000000000E+00 0.  1.
<scales pt_clust_5="13000.00000" pt_clust_6="13000.00000" pt_clust_7="13000.00000" pt_clust_8="13000.00000" pt_clust_9="13000.00000"></scales>
<clustering>
<clus scale="   95.506">  5  6 -1 -1</clus>
<clus scale="   97.592">  7  8 -1 -1</clus>
<clus scale="   56.098">  7  9 -1 -1</clus>
<clus scale="  112.359">  2  5  1 -1</clus>
<clus scale="  271.981">  1  5  2 -1</clus>
</clustering>
</event>
<event>
 9    1  0.3303741E-006  0.2891268E+03  0.7546771E-02  0.1116882E+00
          1   -1    0    0  502    0 -0.00000000000E+00  0.00000000000E+00  0.31038030528E+03  0.31038030528E+03  0.00000000000E+00 0. -1.
         21   -1    0    0  501  502  0.00000000000E+00 -0.00000000000E+00 -0.16183829546E+03  0.16183829546E+03  0.00000000000E+00 0. -1.
         23    2    1    2    0    0 -0.49936416491E+02  0.10460220366E+03  0.10174546664E+03  0.17932915667E+03  0.91496118766E+02 0.  0.
         23    2    1    2    0    0  0.10149670394E+02 -0.35042793517E+02  0.13891055759E+03  0.17079731348E+03  0.92436822184E+02 0.  0.
        -11    1    4    4    0    0  0.69176092846E+01  0.28481908918E+02  0.75467610024E+02  0.80959450446E+02  0.00000000000E+00 0.  1.
         11    1    4    4    0    0  0.32320611094E+01 -0.63524702436E+02  0.63442947563E+02  0.89837863031E+02  0.00000000000E+00 0. -1.
        -13    1    3    3    0    0 -0.18792675964E+02  0.23502041408E+02 -0.15147179993E+02  0.33688984579E+02  0.00000000000E+00 0.  1.
         13    1    3    3    0    0 -0.31143740526E+02  0.81100162251E+02  0.11689264663E+03  0.14564017209E+03  0.00000000000E+00 0. -1.
          1    1    1    2  501    0  0.39786746097E+02 -0.69559410141E+02 -0.92114014403E+02  0.12209213060E+03  0.00000000000E+00 0. -1.
<scales pt_clust_5="13000.00000" pt_clust_6="13000.00000" pt_clust_7="13000.00000" pt_clust_8="13000.00000" pt_clust_9="13000.00000"></scales>
<clustering>
<clus scale="   91.496">  7  8 -1 -1</clus>
<clus scale="   92.437">  5  6 -1 -1</clus>
<clus scale="   80.134">  5  9 -1 -1</clus>
<clus scale="  147.671">  1  7  2 -1</clus>
<clus scale="  289.127">  2  5  1 -1</clus>
</clustering>
</event>
<event>
 9    1  0.3303741E-006  0.2784426E+03  0.7546771E-02  0.1133560E+00
         21   -1    0    0  501  502  0.00000000000E+00  0.00000000000E+00  0.91724738337E+02  0.91724738337E+02  0.00000000000E+00 0.  1.
         -2   -1    0    0    0  501 -0.00000000000E+00 -0.00000000000E+00 -0.41181191794E+03  0.41181191794E+03  0.00000000000E+00 0.  1.
         23    2    1    2    0    0 -0.39397068479E+02  0.45334885451E+02 -0.10595528743E+03  0.15227786574E+03  0.91403745092E+02 0.  0.
         23    2    1    2    0    0 -0.61205573561E+02  0.43035184526E+02 -0.18131086115E+03  0.21339153217E+03  0.84048606692E+02 0.  0.
        -11    1    4    4    0    0 -0.42731269681E+02  0.62088057852E+02 -0.85526307072E+02  0.11399841024E+03  0.00000000000E+00 0.  1.
         11    1    4    4    0    0 -0.18474303880E+02 -0.19052873325E+02 -0.95784554079E+02  0.99393121924E+02  0.00000000000E+00 0. -1.
        -11    1    3    3    0    0  0.19096101088E+02  0.46977501687E+02 -0.53102792046E+02  0.73426516086E+02  0.00000000000E+00 0.  1.
         11    1    3    3    0    0 -0.58493169567E+02 -0.16426162360E+01 -0.52852495382E+02  0.78851349653E+02  0.00000000000E+00 0. -1.
         -2    1    1    2    0  502  0.10060264204E+03 -0.88370069977E+02 -0.32821031025E+02  0.13786725837E+03  0.00000000000E+00 0.  1.
<scales pt_clust_5="13000.00000" pt_clust_6="13000.00000" pt_clust_7="13000.00000" pt_clust_8="13000.00000" pt_clust_9="13000.00000"></scales>
<clustering>
<clus scale="   84.049">  5  6 -1 -1</clus>
<clus scale="   91.404">  7  8 -1 -1</clus>
<clus scale="  109.371">  2  7  1 -1</clus>
<clus scale="  115.961">  5  9 -1 -1</clus>
<clus scale="  278.443">  1  5  2 -1</clus>
</clustering>
</event>
<event>
 9    1  0.3303741E-006  0.4322814E+03  0.7546771E-02  0.1089127E+00
          1   -1    0    0  502    0 -0.00000000000E+00  0.00000000000E+00  0.61402338146E+03  0.61402338146E+03  0.00000000000E+00 0. -1.
         21   -1    0    0  501  502  0.00000000000E+00 -0.00000000000E+00 -0.20711041864E+03  0.20711041864E+03  0.00000000000E+00 0. -1.
         23    2    1    2    0    0  0.71673850495E+01  0.60098589376E+00  0.37713710963E+03  0.38782813639E+03  0.90147275757E+02 0.  0.
         23    2    1    2    0    0 -0.14230024406E+03  0.12815547005E+03  0.99115799849E+02  0.23418976095E+03  0.91365849144E+02 0.  0.
        -11    1    4    4    0    0 -0.15232785123E+02  0.64561583689E+02  0.52661075028E+02  0.84696072247E+02  0.00000000000E+00 0.  1.
         11    1    4    4    0    0 -0.12706745894E+03  0.63593886362E+02  0.46454724821E+02  0.14949368870E+03  0.00000000000E+00 0. -1.
        -11    1    3    3    0    0  0.18330604978E+02  0.40835795540E+02  0.25099235277E+03  0.25495241600E+03  0.00000000000E+00 0.  1.
         11    1    3    3    0    0 -0.11163219929E+02 -0.40234809646E+02  0.12614475686E+03  0.13287572039E+03  0.00000000000E+00 0. -1.
          1    1    1    2  501    0  0.13513285901E+03 -0.12875645594E+03 -0.69339946660E+02  0.19911590277E+03  0.00000000000E+00 0. -1.
<scales pt_clust_5="13000.00000" pt_clust_6="13000.00000" pt_clust_7="13000.00000" pt_clust_8="13000.00000" pt_clust_9="13000.00000"></scales>
<clustering>
<clus scale="   90.147">  7  8 -1 -1</clus>
<clus scale="   90.434">  1  7  2 -1</clus>
<clus scale="   91.366">  5  6 -1 -1</clus>
<clus scale="  187.997">  5  9 -1 -1</clus>
<clus scale="  432.281">  2  5  1 -1</clus>
</clustering>
</event>
<event>
 9    1  0.3303741E-006  0.2595440E+03  0.7546771E-02  0.1120186E+00
          1   -1    0    0  502    0 -0.00000000000E+00  0.00000000000E+00  0.33491766403E+03  0.33491766403E+03  0.00000000000E+00 0. -1.
         21   -1    0    0  501  502  0.00000000000E+00 -0.00000000000E+00 -0.31528694181E+03  0.31528694181E+03  0.00000000000E+00 0. -1.
         23    2    1    2    0    0  0.91247198221E+02 -0.13407376299E+03  0.24341424406E+03  0.30750627559E+03  0.94909378936E+02 0.  0.
         23    2    1    2    0    0 -0.96549237636E+01  0.12231493149E+03 -0.20748727311E+03  0.25866775790E+03  0.93828995793E+02 0.  0.
        -11    1    4    4    0    0  0.93701390103E+01  0.23381743346E+02 -0.12768205314E+03  0.13014304484E+03  0.00000000000E+00 0.  1.
         11    1    4    4    0    0 -0.19025062774E+02  0.98933188149E+02 -0.79805219979E+02  0.12852471306E+03  0.00000000000E+00 0. -1.
        -11    1    3    3    0    0  0.22973304497E+01 -0.64508561245E+02  0.14094240507E+03  0.15502062362E+03  0.00000000000E+00 0. -1.
         11    1    3    3    0    0  0.88949867772E+02 -0.69565201742E+02  0.10247183899E+03  0.15248565197E+03  0.00000000000E+00 0.  1.
          1    1    1    2  501    0 -0.81592274458E+02  0.11758831493E+02 -0.16296248725E+02  0.84030572364E+02  0.00000000000E+00 0. -1.
<scales pt_clust_5="13000.00000" pt_clust_6="13000.00000" pt_clust_7="13000.00000" pt_clust_8="13000.00000" pt_clust_9="13000.00000"></scales>
<clustering>
<clus scale="   93.829">  5  6 -1 -1</clus>
<clus scale="   82.435">  5  9 -1 -1</clus>
<clus scale="   94.909">  7  8 -1 -1</clus>
<clus scale="  187.909">  1  7  2 -1</clus>
<clus scale="  259.544">  2  5  1 -1</clus>
</clustering>
</event>
<event>
 9    1  0.3303741E-006  0.2976054E+03  0.7546771E-02  0.1099106E+00
          1   -1    0    0  502    0 -0.00000000000E+00  0.00000000000E+00  0.54142192332E+03  0.54142192332E+03  0.00000000000E+00 0. -1.
         21   -1    0    0  501  502  0.00000000000E+00 -0.00000000000E+00 -0.21600074728E+03  0.21600074728E+03  0.00000000000E+00 0. -1.
         23    2    1    2    0    0  0.12800381047E+03  0.14316462391E+03  0.39758379788E+03  0.45119336228E+03  0.92851972458E+02 0.  0.
         23    2    1    2    0    0 -0.41560485771E+02  0.66665522418E+01  0.25686029541E+02  0.10749282876E+03  0.95515544418E+02 0.  0.
        -13    1    3    3    0    0  0.92874647356E+02  0.69299000586E+02  0.31192998339E+03  0.33275872061E+03  0.00000000000E+00 0. -1.
         13    1    3    3    0    0  0.35129163118E+02  0.73865623322E+02  0.85653814498E+02  0.11843464167E+03  0.00000000000E+00 0.  1.
        -13    1    4    4    0    0  0.27390442549E+02  0.18518231083E+02  0.29079535801E+00  0.33064267532E+02  0.00000000000E+00 0.  1.
         13    1    4    4    0    0 -0.68950928321E+02 -0.11851678841E+02  0.25395234182E+02  0.74428561230E+02  0.00000000000E+00 0. -1.
          1    1    1    2  501    0 -0.86443324702E+02 -0.14983117615E+03 -0.97848651375E+02  0.19873647956E+03  0.00000000000E+00 0. -1.
<scales pt_clust_5="13000.00000" pt_clust_6="13000.00000" pt_clust_7="13000.00000" pt_clust_8="13000.00000" pt_clust_9="13000.00000"></scales>
<clustering>
<clus scale="   92.852">  5  6 -1 -1</clus>
<clus scale="   95.516">  7  8 -1 -1</clus>
<clus scale="  172.979">  7  9 -1 -1</clus>
<clus scale="  213.313">  1  5  2 -1</clus>
<clus scale="  297.605">  2  5  1 -1</clus>
</clustering>
</event>
<event>
 9    1  0.3303741E-006  0.2127255E+03  0.7546771E-02  0.1149285E+00
         21   -1    0    0  501  502  0.00000000000E+00  0.00000000000E+00  0.13730003490E+03  0.13730003490E+03  0.00000000000E+00 0. -1.
          2   -1    0    0  502    0 -0.00000000000E+00 -0.00000000000E+00 -0.26402521834E+03  0.26402521834E+03  0.00000000000E+00 0. -1.
         23    2    1    2    0    0  0.86781875546E+02  0.12284263085E+03 -0.52458247217E+02  0.17600834276E+03  0.74870976621E+02 0.  0.
         23    2    1    2    0    0 -0.26935667454E+02 -0.73608018287E+02 -0.37113347626E+01  0.12051372066E+03  0.91466454643E+02 0.  0.
        -11    1    3    3    0    0  0.33710233872E+02  0.32230377137E+02  0.17516162006E+02  0.49819604670E+02  0.00000000000E+00 0.  1.
         11    1    3    3    0    0  0.53071641675E+02  0.90612253717E+02 -0.69974409223E+02  0.12618873809E+03  0.00000000000E+00 0. -1.
        -11    1    4    4    0    0 -0.49564271913E+02 -0.32210784729E+02 -0.30230480652E+02  0.66393024209E+02  0.00000000000E+00 0.  1.
         11    1    4    4    0    0  0.22628604459E+02 -0.41397233558E+02  0.26519145889E+02  0.54120696455E+02  0.00000000000E+00 0. -1.
          2    1    1    2  501    0 -0.59846208092E+02 -0.49234612567E+02 -0.70555601469E+02  0.10480318982E+03  0.00000000000E+00 0. -1.
<scales pt_clust_5="13000.00000" pt_clust_6="13000.00000" pt_clust_7="13000.00000" pt_clust_8="13000.00000" pt_clust_9="13000.00000"></scales>
<clustering>
<clus scale="   74.871">  5  6 -1 -1</clus>
<clus scale="   91.466">  7  8 -1 -1</clus>
<clus scale="   77.496">  7  9 -1 -1</clus>
<clus scale="  168.009">  2  5  1 -1</clus>
<clus scale="  212.725">  1  5  2 -1</clus>
</clustering>
</event>
<event>
 9    1  0.3303741E-006  0.4183088E+03  0.7546771E-02  0.1079768E+00
         21   -1    0    0  501  502  0.00000000000E+00  0.00000000000E+00  0.43829437415E+03  0.43829437415E+03  0.00000000000E+00 0. -1.
          3   -1    0    0  502    0 -0.00000000000E+00 -0.00000000000E+00 -0.24575792349E+03  0.24575792349E+03  0.00000000000E+00 0. -1.
         23    2    1    2    0    0  0.86540650917E+02 -0.18613554766E+02 -0.10912566122E+03  0.16831758796E+03  0.92664188323E+02 0.  0.
         23    2    1    2    0    0 -0.17985686199E+03  0.11961847544E+03  0.29655942780E+03  0.37812676430E+03  0.91516584240E+02 0.  0.
        -11    1    4    4    0    0 -0.14408096905E+01  0.37354755300E+02  0.59065168611E+02  0.69900985824E+02  0.00000000000E+00 0. -1.
         11    1    4    4    0    0 -0.17841605230E+03  0.82263720141E+02  0.23749425919E+03  0.30822577847E+03  0.00000000000E+00 0.  1.
        -13    1    3    3    0    0  0.24349917344E+02 -0.47921755083E+02 -0.23923280947E+02  0.58836523148E+02  0.00000000000E+00 0.  1.
         13    1    3    3    0    0  0.62190733573E+02  0.29308200317E+02 -0.85202380270E+02  0.10948106481E+03  0.00000000000E+00 0. -1.
          3    1    1    2  501    0  0.93316211070E+02 -0.10100492068E+03  0.51026840872E+01  0.13760794539E+03  0.00000000000E+00 0. -1.
<scales pt_clust_5="13000.00000" pt_clust_6="13000.00000" pt_clust_7="13000.00000" pt_clust_8="13000.00000" pt_clust_9="13000.00000"></scales>
<clustering>
<clus scale="   91.517">  5  6 -1 -1</clus>
<clus scale="   92.664">  7  8 -1 -1</clus>
<clus scale="  128.150">  2  7  1 -1</clus>
<clus scale="  185.032">  5  9 -1 -1</clus>
<clus scale="  418.309">  1  5  2 -1</clus>
</clustering>
</event>
<event>
 9    1  0.3303741E-006  0.2746937E+03  0.7546771E-02  0.1117560E+00
         -1   -1    0    0    0  501 -0.00000000000E+00  0.00000000000E+00  0.55297508206E+03  0.55297508206E+03  0.00000000000E+00 0.  1.
         21   -1    0    0  501  502  0.00000000000E+00 -0.00000000000E+00 -0.99737444473E+02  0.99737444473E+02  0.00000000000E+00 0.  1.
         23    2    1    2    0    0 -0.43287600140E+02 -0.13521422855E+03  0.28233346437E+03  0.32919305419E+03  0.92190985951E+02 0.  0.
         23    2    1    2    0    0  0.71369635886E+02 -0.16965482084E+02  0.87377684244E+02  0.14766743392E+03  0.93751580405E+02 0.  0.
        -11    1    3    3    0    0  0.82401569037E+01 -0.76899079451E+02  0.20661631898E+03  0.22061657208E+03  0.00000000000E+00 0.  1.
         11    1    3    3    0    0 -0.51527757044E+02 -0.58315149096E+02  0.75717145390E+02  0.10857648210E+03  0.00000000000E+00 0. -1.
        -11    1    4    4    0    0  0.40429566954E+02 -0.54292950839E+02  0.34677778114E+02  0.76058021864E+02  0.00000000000E+00 0. -1.
         11    1    4    4    0    0  0.30940068932E+02  0.37327468756E+02  0.52699906130E+02  0.71609412058E+02  0.00000000000E+00 0.  1.
         -1    1    1    2    0  502 -0.28082035745E+02  0.15217971063E+03  0.83526488969E+02  0.17585203843E+03  0.00000000000E+00 0.  1.
<scales pt_clust_5="13000.00000" pt_clust_6="13000.00000" pt_clust_7="13000.00000" pt_clust_8="13000.00000" pt_clust_9="13000.00000"></scales>
<clustering>
<clus scale="   92.191">  5  6 -1 -1</clus>
<clus scale="   93.752">  7  8 -1 -1</clus>
<clus scale="  154.749">  7  9 -1 -1</clus>
<clus scale="  169.280">  1  5  2 -1</clus>
<clus scale="  274.694">  2  5  1 -1</clus>
</clustering>
</event>
<event>
 9    1  0.3303741E-006  0.1433384E+03  0.7546771E-02  0.1220734E+00
         -3   -1    0    0    0  501 -0.00000000000E+00  0.00000000000E+00  0.24258380205E+03  0.24258380205E+03  0.00000000000E+00 0.  1.
         21   -1    0    0  501  502  0.00000000000E+00 -0.00000000000E+00 -0.69714455155E+02  0.69714455155E+02  0.00000000000E+00 0.  1.
         23    2    1    2    0    0  0.10728814863E+02  0.64252123835E+02  0.10685667711E+03  0.15448959206E+03  0.90582789342E+02 0.  0.
         23    2    1    2    0    0 -0.39301403323E+02 -0.43360832270E+02  0.55804589205E+02  0.12097058996E+03  0.89972047770E+02 0.  0.
        -11    1    4    4    0    0  0.24684049579E+02 -0.17820943590E+02 -0.27306575655E+01  0.30567054565E+02  0.00000000000E+00 0. -1.
         11    1    4    4    0    0 -0.63985452902E+02 -0.25539888680E+02  0.58535246770E+02  0.90403535392E+02  0.00000000000E+00 0.  1.
        -11    1    3    3    0    0 -0.21749259292E+02  0.68904172359E+02  0.95533862396E+02  0.11978119265E+03  0.00000000000E+00 0.  1.
         11    1    3    3    0    0  0.32478074155E+02 -0.46520485241E+01  0.11322814713E+02  0.34708399406E+02  0.00000000000E+00 0. -1.
         -3    1    1    2    0  502  0.28572588460E+02 -0.20891291566E+02  0.10208080577E+02  0.36838075189E+02  0.00000000000E+00 0.  1.
<scales pt_clust_5="13000.00000" pt_clust_6="13000.00000" pt_clust_7="13000.00000" pt_clust_8="13000.00000" pt_clust_9="13000.00000"></scales>
<clustering>
<clus scale="   89.972">  5  6 -1 -1</clus>
<clus scale="   35.395">  5  9 -1 -1</clus>
<clus scale="   90.583">  7  8 -1 -1</clus>
<clus scale="  111.574">  1  7  2 -1</clus>
<clus scale="  143.338">  2  5  1 -1</clus>
</clustering>
</event>
<event>
 9    1  0.3303741E-006  0.2305427E+03  0.7546771E-02  0.1149229E+00
         21   -1    0    0  501  502  0.00000000000E+00  0.00000000000E+00  0.56699012995E+02  0.56699012995E+02  0.00000000000E+00 0. -1.
          2   -1    0    0  502    0 -0.00000000000E+00 -0.00000000000E+00 -0.58039024975E+03  0.58039024975E+03  0.00000000000E+00 0. -1.
         23    2    1    2    0    0  0.12871329618E+02  0.87923735232E+02 -0.18370738812E+03  0.22631078714E+03  0.97836156818E+02 0.  0.
         23    2    1    2    0    0  0.12174900925E+02  0.62266533015E+01 -0.28311271732E+03  0.29796919008E+03  0.91901186619E+02 0.  0.
        -11    1    4    4    0    0  0.44664718052E+02  0.24430523553E+02 -0.11474324488E+03  0.12553007515E+03  0.00000000000E+00 0. -1.
         11    1    4    4    0    0 -0.32489817127E+02 -0.18203870251E+02 -0.16836947244E+03  0.17243911493E+03  0.00000000000E+00 0.  1.
        -11    1    3    3    0    0  0.57730368669E+01  0.10780891957E+03 -0.16913634193E+03  0.20065690433E+03  0.00000000000E+00 0. -1.
         11    1    3    3    0    0  0.70982927513E+01 -0.19885184336E+02 -0.14571046192E+02  0.25653882809E+02  0.00000000000E+00 0.  1.
          2    1    1    2  501    0 -0.25046230543E+02 -0.94150388534E+02 -0.56871131312E+02  0.11280928553E+03  0.00000000000E+00 0. -1.
<scales pt_clust_5="13000.00000" pt_clust_6="13000.00000" pt_clust_7="13000.00000" pt_clust_8="13000.00000" pt_clust_9="13000.00000"></scales>
<clustering>
<clus scale="   91.901">  5  6 -1 -1</clus>
<clus scale="   97.425">  5  9 -1 -1</clus>
<clus scale="   97.836">  7  8 -1 -1</clus>
<clus scale="  132.167">  2  7  1 -1</clus>
<clus scale="  230.543">  1  5  2 -1</clus>
</clustering>
</event>
<event>
 9    1  0.3303741E-006  0.2018393E+03  0.7546771E-02  0.1161337E+00
         21   -1    0    0  501  502  0.00000000000E+00  0.00000000000E+00  0.44864445154E+03  0.44864445154E+03  0.00000000000E+00 0.  1.
         -2   -1    0    0    0  501 -0.00000000000E+00 -0.00000000000E+00 -0.68657624446E+02  0.68657624446E+02  0.00000000000E+00 0.  1.
         23    2    1    2    0    0  0.81983069654E+02  0.84735187283E+02  0.14224233309E+03  0.20543424686E+03  0.89828017828E+02 0.  0.
         23    2    1    2    0    0 -0.43817019338E+02 -0.63642723632E+00  0.83139565756E+02  0.13177914909E+03  0.92375432433E+02 0.  0.
        -13    1    4    4    0    0 -0.60402010823E+02 -0.30813007115E+02  0.55465839231E+02  0.87603102916E+02  0.00000000000E+00 0.  1.
         13    1    4    4    0    0  0.16584991485E+02  0.30176579879E+02  0.27673726525E+02  0.44176046173E+02  0.00000000000E+00 0. -1.
        -13    1    3    3    0    0  0.95732362822E+02  0.50436409791E+02  0.12282833447E+03  0.16369275021E+03  0.00000000000E+00 0.  1.
         13    1    3    3    0    0 -0.13749293168E+02  0.34298777492E+02  0.19413998625E+02  0.41741496651E+02  0.00000000000E+00 0. -1.
         -2    1    1    2    0  502 -0.38166050316E+02 -0.84098760047E+02  0.15460492825E+03  0.18008868003E+03  0.00000000000E+00 0.  1.
<scales pt_clust_5="13000.00000" pt_clust_6="13000.00000" pt_clust_7="13000.00000" pt_clust_8="13000.00000" pt_clust_9="13000.00000"></scales>
<clustering>
<clus scale="   89.828">  7  8 -1 -1</clus>
<clus scale="   92.375">  5  6 -1 -1</clus>
<clus scale="   92.354">  5  9 -1 -1</clus>
<clus scale="  148.224">  2  7  1 -1</clus>
<clus scale="  201.839">  1  5  2 -1</clus>
</clustering>
</event>
<event>
 9    1  0.3303741E-006  0.2836593E+03  0.7546771E-02  0.1136010E+00
         21   -1    0    0  501  502  0.00000000000E+00  0.00000000000E+00  0.29319026488E+03  0.29319026488E+03  0.00000000000E+00 0.  1.
         -3   -1    0    0    0  501 -0.00000000000E+00 -0.00000000000E+00 -0.17343364772E+03  0.17343364772E+03  0.00000000000E+00 0.  1.
         23    2    1    2    0    0 -0.34638733466E+02 -0.44063476332E+01 -0.74630826267E+02  0.12275024071E+03  0.90986832066E+02 0.  0.
         23    2    1    2    0    0  0.11713010838E+03  0.70140728207E+02  0.16807204116E+03  0.23516150090E+03  0.91725331532E+02 0.  0.
        -11    1    4    4    0    0  0.92900811262E+02  0.74702044261E+02  0.17292515421E+03  0.21003348568E+03  0.00000000000E+00 0.  1.
         11    1    4    4    0    0  0.24229297115E+02 -0.45613160542E+01 -0.48531130434E+01  0.25128015223E+02  0.00000000000E+00 0. -1.
        -13    1    3    3    0    0 -0.37636789437E+02 -0.43910248377E+02 -0.43586397257E+02  0.72418311617E+02  0.00000000000E+00 0. -1.
         13    1    3    3    0    0  0.29980559717E+01  0.39503900744E+02 -0.31044429010E+02  0.50331929092E+02  0.00000000000E+00 0.  1.
         -3    1    1    2    0  502 -0.82491374911E+02 -0.65734380574E+02  0.26315402264E+02  0.10871217099E+03  0.00000000000E+00 0.  1.
<scales pt_clust_5="13000.00000" pt_clust_6="13000.00000" pt_clust_7="13000.00000" pt_clust_8="13000.00000" pt_clust_9="13000.00000"></scales>
<clustering>
<clus scale="   90.987">  7  8 -1 -1</clus>
<clus scale="   91.725">  5  6 -1 -1</clus>
<clus scale="   97.457">  2  7  1 -1</clus>
<clus scale="  122.334">  5  9 -1 -1</clus>
<clus scale="  283.659">  1  5  2 -1</clus>
</clustering>
</event>
<event>
 9    1  0.3303741E-006  0.4253874E+03  0.7546771E-02  0.1059331E+00
         21   -1    0    0  501  502  0.00000000000E+00  0.00000000000E+00  0.56712221851E+03  0.56712221851E+03  0.00000000000E+00 0.  1.
         -1   -1    0    0    0  501 -0.00000000000E+00 -0.00000000000E+00 -0.26854800671E+03  0.26854800671E+03  0.00000000000E+00 0.  1.
         23    2    1    2    0    0 -0.23765964767E+02  0.19161002769E+03 -0.11476137719E+03  0.24254228134E+03  0.91527923312E+02 0.  0.
         23    2    1    2    0    0  0.99037618002E+02  0.60645853614E+02  0.76696247203E+02  0.16578159971E+03  0.90082490682E+02 0.  0.
        -11    1    4    4    0    0 -0.90054128996E+01  0.25100728829E+02 -0.30930471910E+01  0.26846060980E+02  0.00000000000E+00 0.  1.
         11    1    4    4    0    0  0.10804303090E+03  0.35545124785E+02  0.79789294394E+02  0.13893553873E+03  0.00000000000E+00 0. -1.
        -11    1    3    3    0    0 -0.40543317516E+02  0.12787581913E+03 -0.11491093509E+03  0.17663665734E+03  0.00000000000E+00 0.  1.
         11    1    3    3    0    0  0.16777352749E+02  0.63734208563E+02  0.14955789565E+00  0.65905623994E+02  0.00000000000E+00 0. -1.
         -1    1    1    2    0  502 -0.75271653236E+02 -0.25225588131E+03  0.33663934180E+03  0.42734634418E+03  0.00000000000E+00 0.  1.
<scales pt_clust_5="13000.00000" pt_clust_6="13000.00000" pt_clust_7="13000.00000" pt_clust_8="13000.00000" pt_clust_9="13000.00000"></scales>
<clustering>
<clus scale="   90.082">  5  6 -1 -1</clus>
<clus scale="   91.528">  7  8 -1 -1</clus>
<clus scale="  213.674">  2  7  1 -1</clus>
<clus scale="  178.387">  5  9 -1 -1</clus>
<clus scale="  425.387">  1  5  2 -1</clus>
</clustering>
</event>
<event>
 9    1  0.3303741E-006  0.2481303E+03  0.7546771E-02  0.1129091E+00
         -1   -1    0    0    0  501 -0.00000000000E+00  0.00000000000E+00  0.22294613591E+03  0.22294613591E+03  0.00000000000E+00 0.  1.
         21   -1    0    0  501  502  0.00000000000E+00 -0.00000000000E+00 -0.19838988391E+03  0.19838988391E+03  0.00000000000E+00 0. -1.
         23    2    1    2    0    0  0.12302284329E+03 -0.76373754545E+02  0.13361977392E+02  0.17295334676E+03  0.93630910284E+02 0.  0.
         23    2    1    2    0    0 -0.91574084900E+02  0.46985883345E+02  0.86463793354E+02  0.16167528105E+03  0.89829965400E+02 0.  0.
        -11    1    4    4    0    0 -0.57889686726E+02  0.72190418184E+02  0.71797147139E+02  0.11712174283E+03  0.00000000000E+00 0.  1.
         11    1    4    4    0    0 -0.33684398174E+02 -0.25204534840E+02  0.14666646215E+02  0.44553538221E+02  0.00000000000E+00 0. -1.
        -11    1    3    3    0    0  0.83416818461E+02 -0.94457792583E+02 -0.39953997193E+01  0.12608173302E+03  0.00000000000E+00 0. -1.
         11    1    3    3    0    0  0.39606024827E+02  0.18084038038E+02  0.17357377111E+02  0.46871613739E+02  0.00000000000E+00 0.  1.
         -1    1    1    2    0  502 -0.31448758388E+02  0.29387871201E+02 -0.75269518737E+02  0.86707392008E+02  0.00000000000E+00 0.  1.
<scales pt_clust_5="13000.00000" pt_clust_6="13000.00000" pt_clust_7="13000.00000" pt_clust_8="13000.00000" pt_clust_9="13000.00000"></scales>
<clustering>
<clus scale="   89.830">  5  6 -1 -1</clus>
<clus scale="   43.043">  5  9 -1 -1</clus>
<clus scale="   93.631">  7  8 -1 -1</clus>
<clus scale="  172.436">  1  7  2 -1</clus>
<clus scale="  248.130">  2  5  1 -1</clus>
</clustering>
</event>
<event>
 9    1  0.3303741E-006  0.3375766E+03  0.7546771E-02  0.1105980E+00
         21   -1    0    0  501  502  0.00000000000E+00  0.00000000000E+00  0.68924754559E+02  0.68924754559E+02  0.00000000000E+00 0. -1.
          2   -1    0    0  502    0 -0.00000000000E+00 -0.00000000000E+00 -0.92375462934E+03  0.92375462934E+03  0.00000000000E+00 0. -1.
         23    2    1    2    0    0 -0.73796186238E+02 -0.33990025285E+02 -0.44602166372E+03  0.46250760101E+03  0.91524628215E+02 0.  0.
         23    2    1    2    0    0  0.32320053211E+02  0.16755827228E+03 -0.19338066382E+03  0.27332596468E+03  0.90502162290E+02 0.  0.
        -11    1    3    3    0    0  0.21278083048E+02 -0.13225452599E+02 -0.88357000441E+02  0.91840235962E+02  0.00000000000E+00 0.  1.
         11    1    3    3    0    0 -0.95074269286E+02 -0.20764572687E+02 -0.35766466327E+03  0.37066736505E+03  0.00000000000E+00 0. -1.
        -13    1    4    4    0    0 -0.61526589429E+01  0.15121642772E+03 -0.14992177806E+03  0.21302770421E+03  0.00000000000E+00 0. -1.
         13    1    4    4    0    0  0.38472712154E+02  0.16341844562E+02 -0.43458885759E+02  0.60298260469E+02  0.00000000000E+00 0.  1.
          2    1    1    2  501    0  0.41476133028E+02 -0.13356824700E+03 -0.21542754724E+03  0.25684581820E+03  0.00000000000E+00 0. -1.
<scales pt_clust_5="13000.00000" pt_clust_6="13000.00000" pt_clust_7="13000.00000" pt_clust_8="13000.00000" pt_clust_9="13000.00000"></scales>
<clustering>
<clus scale="   90.502">  7  8 -1 -1</clus>
<clus scale="   91.525">  5  6 -1 -1</clus>
<clus scale="  122.384">  2  5  1 -1</clus>
<clus scale="  150.727">  7  9 -1 -1</clus>
<clus scale="  337.577">  1  5  2 -1</clus>
</clustering>
</event>
<event>
 9    1  0.3303741E-006  0.2159954E+03  0.7546771E-02  0.1169794E+00
         21   -1    0    0  501  502  0.00000000000E+00  0.00000000000E+00  0.15552733777E+03  0.15552733777E+03  0.00000000000E+00 0.  1.
          3   -1    0    0  502    0 -0.00000000000E+00 -0.00000000000E+00 -0.16181802310E+03  0.16181802310E+03  0.00000000000E+00 0. -1.
         23    2    1    2    0    0 -0.34127235473E+02  0.97475355431E+01 -0.17528612337E+02  0.10105783941E+03  0.92982536027E+02 0.  0.
         23    2    1    2    0    0  0.46858505771E+02 -0.81068605568E+02 -0.23205276504E+02  0.13606835579E+03  0.95959753111E+02 0.  0.
        -11    1    3    3    0    0 -0.55362792289E+02 -0.20051142517E+02  0.32627817180E+01  0.58972305625E+02  0.00000000000E+00 0.  1.
         11    1    3    3    0    0  0.21235556815E+02  0.29798678061E+02 -0.20791394055E+02  0.42085533787E+02  0.00000000000E+00 0. -1.
        -11    1    4    4    0    0 -0.27403567289E+01 -0.83678367437E+02 -0.21174632693E+02  0.86359387455E+02  0.00000000000E+00 0.  1.
         11    1    4    4    0    0  0.49598862500E+02  0.26097618698E+01 -0.20306438111E+01  0.49708968331E+02  0.00000000000E+00 0. -1.
          3    1    1    2  501    0 -0.12731270297E+02  0.71321070025E+02  0.34443203513E+02  0.80219165672E+02  0.00000000000E+00 0. -1.
<scales pt_clust_5="13000.00000" pt_clust_6="13000.00000" pt_clust_7="13000.00000" pt_clust_8="13000.00000" pt_clust_9="13000.00000"></scales>
<clustering>
<clus scale="   92.983">  5  6 -1 -1</clus>
<clus scale="   95.960">  7  8 -1 -1</clus>
<clus scale="   72.449">  7  9 -1 -1</clus>
<clus scale="   99.526">  2  5  1 -1</clus>
<clus scale="  215.995">  1  5  2 -1</clus>
</clustering>
</event>
<event>
 9    1  0.3303741E-006  0.1950038E+03  0.7546771E-02  0.1183966E+00
         21   -1    0    0  501  502  0.00000000000E+00  0.00000000000E+00  0.50790263958E+02  0.50790263958E+02  0.00000000000E+00 0.  1.
         -1   -1    0    0    0  501 -0.00000000000E+00 -0.00000000000E+00 -0.42923651962E+03  0.42923651962E+03  0.00000000000E+00 0.  1.
         23    2    1    2    0    0 -0.10039428189E+02 -0.20324097301E+02 -0.10052745770E+03  0.14051927137E+03  0.95530292713E+02 0.  0.
         23    2    1    2    0    0 -0.55476349748E+02  0.55882014999E+02 -0.19062712835E+03  0.22471849595E+03  0.89214771070E+02 0.  0.
        -11    1    3    3    0    0  0.42839686584E+01 -0.57250265236E+02 -0.69885883199E+02  0.90443252526E+02  0.00000000000E+00 0. -1.
         11    1    3    3    0    0 -0.14323396847E+02  0.36926167934E+02 -0.30641574504E+02  0.50076018847E+02  0.00000000000E+00 0.  1.
        -11    1    4    4    0    0 -0.73761118226E+02  0.46583649470E+02 -0.10423915496E+03  0.13592843848E+03  0.00000000000E+00 0.  1.
         11    1    4    4    0    0  0.18284768478E+02  0.92983655296E+01 -0.86387973384E+02  0.88790057468E+02  0.00000000000E+00 0. -1.
         -1    1    1    2    0  502  0.65515777937E+02 -0.35557917698E+02 -0.87291669610E+02  0.11478901626E+03  0.00000000000E+00 0.  1.
<scales pt_clust_5="13000.00000" pt_clust_6="13000.00000" pt_clust_7="13000.00000" pt_clust_8="13000.00000" pt_clust_9="13000.00000"></scales>
<clustering>
<clus scale="   89.215">  7  8 -1 -1</clus>
<clus scale="   74.543">  7  9 -1 -1</clus>
<clus scale="   95.530">  5  6 -1 -1</clus>
<clus scale="   98.183">  2  5  1 -1</clus>
<clus scale="  195.004">  1  5  2 -1</clus>
</clustering>
</event>
<event>
 9    1  0.3303741E-006  0.1892808E+03  0.7546771E-02  0.1177810E+00
          3   -1    0    0  502    0 -0.00000000000E+00  0.00000000000E+00  0.92477736735E+02  0.92477736735E+02  0.00000000000E+00 0. -1.
         21   -1    0    0  501  502  0.00000000000E+00 -0.00000000000E+00 -0.28975390552E+03  0.28975390552E+03  0.00000000000E+00 0.  1.
         23    2    1    2    0    0  0.61443617141E+02 -0.53233510464E+02 -0.13537204469E+03  0.18308508980E+03  0.92657621916E+02 0.  0.
         23    2    1    2    0    0  0.28005566314E+02  0.12357406859E+02 -0.40202511592E+02  0.98434228231E+02  0.84475073840E+02 0.  0.
        -13    1    4    4    0    0  0.64113631625E+01 -0.34027436969E+02 -0.30944141690E+02  0.46438259541E+02  0.00000000000E+00 0. -1.
         13    1    4    4    0    0  0.21594203152E+02  0.46384843828E+02 -0.92583699014E+01  0.51995968690E+02  0.00000000000E+00 0.  1.
        -13    1    3    3    0    0  0.82752668160E+02 -0.48897555285E+02 -0.85363279010E+02  0.12855296342E+03  0.00000000000E+00 0.  1.
         13    1    3    3    0    0 -0.21309051019E+02 -0.43359551787E+01 -0.50008765678E+02  0.54532126377E+02  0.00000000000E+00 0. -1.
          3    1    1    2  501    0 -0.89449183455E+02  0.40876103605E+02 -0.21701612510E+02  0.10071232423E+03  0.00000000000E+00 0. -1.
<scales pt_clust_5="13000.00000" pt_clust_6="13000.00000" pt_clust_7="13000.00000" pt_clust_8="13000.00000" pt_clust_9="13000.00000"></scales>
<clustering>
<clus scale="   84.475">  5  6 -1 -1</clus>
<clus scale="   92.658">  7  8 -1 -1</clus>
<clus scale="   98.346">  5  9 -1 -1</clus>
<clus scale="  123.266">  1  7  2 -1</clus>
<clus scale="  189.281">  2  5  1 -1</clus>
</clustering>
</event>
<event>
 9    1  0.3303741E-006  0.2771506E+03  0.7546771E-02  0.1104865E+00
          2   -1    0    0  502    0 -0.00000000000E+00  0.00000000000E+00  0.24143083045E+04  0.24143083045E+04  0.00000000000E+00 0. -1.
         21   -1    0    0  501  502  0.00000000000E+00 -0.00000000000E+00 -0.26443756098E+02  0.26443756098E+02  0.00000000000E+00 0.  1.
         23    2    1    2    0    0  0.85254897841E+02  0.19049614219E+03  0.10171827359E+04  0.10423311381E+04  0.90754092535E+02 0.  0.
         23    2    1    2    0    0 -0.49130177330E+02 -0.23811251995E+02  0.43262460129E+03  0.44498493647E+03  0.88694971700E+02 0.  0.
        -11    1    3    3    0    0 -0.17359144068E+02  0.10228305266E+02  0.87929114919E+02  0.90208022714E+02  0.00000000000E+00 0. -1.
         11    1    3    3    0    0  0.10261404191E+03  0.18026783693E+03  0.92925362101E+03  0.95212311535E+03  0.00000000000E+00 0.  1.
        -13    1    4    4    0    0  0.18718991674E+02  0.77897987347E+01  0.35617659323E+02  0.40984134360E+02  0.00000000000E+00 0. -1.
         13    1    4    4    0    0 -0.67849169004E+02 -0.31601050730E+02  0.39700694196E+03  0.40400080211E+03  0.00000000000E+00 0.  1.
          2    1    1    2  501    0 -0.36124720511E+02 -0.16668489020E+03  0.93805721121E+03  0.95343598608E+03  0.00000000000E+00 0. -1.
<scales pt_clust_5="13000.00000" pt_clust_6="13000.00000" pt_clust_7="13000.00000" pt_clust_8="13000.00000" pt_clust_9="13000.00000"></scales>
<clustering>
<clus scale="   88.695">  7  8 -1 -1</clus>
<clus scale="   90.754">  5  6 -1 -1</clus>
<clus scale="  170.555">  7  9 -1 -1</clus>
<clus scale="  227.582">  1  5  2 -1</clus>
<clus scale="  277.151">  2  5  1 -1</clus>
</clustering>
</event>
<event>
 9    1  0.3303741E-006  0.3224351E+03  0.7546771E-02  0.1122279E+00
          2   -1    0    0  502    0 -0.00000000000E+00  0.00000000000E+00  0.37312680129E+03  0.37312680129E+03  0.00000000000E+00 0. -1.
         21   -1    0    0  501  502  0.00000000000E+00 -0.00000000000E+00 -0.12002948841E+03  0.12002948841E+03  0.00000000000E+00 0.  1.
         23    2    1    2    0    0 -0.16926111856E+02 -0.15630481657E+02  0.98821206221E+02  0.13571327184E+03  0.90120231550E+02 0.  0.
         23    2    1    2    0    0 -0.32640017560E+01 -0.10596349179E+03 -0.19294064975E+02  0.14455962362E+03  0.96365494538E+02 0.  0.
        -11    1    3    3    0    0 -0.44324906406E+02 -0.34787339000E+02  0.78367222015E+02  0.96520867013E+02  0.00000000000E+00 0. -1.
         11    1    3    3    0    0  0.27398794550E+02  0.19156857343E+02  0.20453984206E+02  0.39192404825E+02  0.00000000000E+00 0.  1.
        -11    1    4    4    0    0  0.34927140821E+02 -0.89968855098E+02  0.48441648819E+01  0.96632116746E+02  0.00000000000E+00 0.  1.
         11    1    4    4    0    0 -0.38191142577E+02 -0.15994636691E+02 -0.24138229857E+02  0.47927506871E+02  0.00000000000E+00 0. -1.
          2    1    1    2  501    0  0.20190113612E+02  0.12159397345E+03  0.17357017163E+03  0.21288339424E+03  0.00000000000E+00 0. -1.
<scales pt_clust_5="13000.00000" pt_clust_6="13000.00000" pt_clust_7="13000.00000" pt_clust_8="13000.00000" pt_clust_9="13000.00000"></scales>
<clustering>
<clus scale="   90.120">  5  6 -1 -1</clus>
<clus scale="   93.019">  1  5  2 -1</clus>
<clus scale="   96.365">  7  8 -1 -1</clus>
<clus scale="  110.039">  7  9 -1 -1</clus>
<clus scale="  322.435">  2  5  1 -1</clus>
</clustering>
</event>
<event>
 9    1  0.3303741E-006  0.5103570E+03  0.7546771E-02  0.1030098E+00
         21   -1    0    0  501  502  0.00000000000E+00  0.00000000000E+00  0.18077937932E+03  0.18077937932E+03  0.00000000000E+00 0. -1.
          1   -1    0    0  502    0 -0.00000000000E+00 -0.00000000000E+00 -0.90172706206E+03  0.90172706206E+03  0.00000000000E+00 0. -1.
         23    2    1    2    0    0  0.20326504627E+03 -0.18230506514E+03 -0.18174026083E+03  0.34007198735E+03  0.89819921838E+02 0.  0.
         23    2    1    2    0    0 -0.12214059496E+03 -0.10683828457E+03 -0.30230726618E+03  0.35993381735E+03  0.10876546190E+03 0.  0.
        -11    1    3    3    0    0  0.59798554278E+02 -0.53534763438E+02 -0.10597302658E+03  0.13293652753E+03  0.00000000000E+00 0.  1.
         11    1    3    3    0    0  0.14346649199E+03 -0.12877030170E+03 -0.75767234249E+02  0.20713545981E+03  0.00000000000E+00 0. -1.
        -13    1    4    4    0    0 -0.18347973728E+02  0.19550022480E+02 -0.76946570608E+02  0.81483901768E+02  0.00000000000E+00 0.  1.
         13    1    4    4    0    0 -0.10379262123E+03 -0.12638830705E+03 -0.22536069557E+03  0.27844991559E+03  0.00000000000E+00 0. -1.
          1    1    1    2  501    0 -0.81124451309E+02  0.28914334971E+03 -0.23690015573E+03  0.38250063669E+03  0.00000000000E+00 0. -1.
<scales pt_clust_5="13000.00000" pt_clust_6="13000.00000" pt_clust_7="13000.00000" pt_clust_8="13000.00000" pt_clust_9="13000.00000"></scales>
<clustering>
<clus scale="   89.820">  5  6 -1 -1</clus>
<clus scale="  108.765">  7  8 -1 -1</clus>
<clus scale="  287.436">  2  5  1 -1</clus>
<clus scale="  201.765">  7  9 -1 -1</clus>
<clus scale="  510.357">  1  5  2 -1</clus>
</clustering>
</event>
<event>
 9    1  0.3303741E-006  0.2712391E+03  0.7546771E-02  0.1112327E+00
          1   -1    0    0  502    0 -0.00000000000E+00  0.00000000000E+00  0.10518292281E+04  0.10518292281E+04  0.00000000000E+00 0. -1.
         21   -1    0    0  501  502  0.00000000000E+00 -0.00000000000E+00 -0.94979388131E+02  0.94979388131E+02  0.00000000000E+00 0. -1.
         23    2    1    2    0    0 -0.53155695734E+02  0.17055814116E+03  0.81769614989E+03  0.84195714294E+03  0.91374118312E+02 0.  0.
         23    2    1    2    0    0  0.11055409359E+03 -0.10416048937E+03  0.12071161318E+03  0.21516683448E+03  0.93026114322E+02 0.  0.
        -13    1    3    3    0    0 -0.30137393665E+02  0.22116839517E+01  0.10302644719E+03  0.10736667482E+03  0.00000000000E+00 0.  1.
         13    1    3    3    0    0 -0.23018302069E+02  0.16834645721E+03  0.71466970270E+03  0.73459046811E+03  0.00000000000E+00 0. -1.
        -13    1    4    4    0    0 -0.13841120608E+02 -0.29219981348E+02  0.15632663791E+02  0.35913285938E+02  0.00000000000E+00 0.  1.
         13    1    4    4    0    0  0.12439521420E+03 -0.74940508024E+02  0.10507894939E+03  0.17925354854E+03  0.00000000000E+00 0. -1.
          1    1    1    2  501    0 -0.57398397857E+02 -0.66397651786E+02  0.18442076898E+02  0.89684638816E+02  0.00000000000E+00 0. -1.
<scales pt_clust_5="13000.00000" pt_clust_6="13000.00000" pt_clust_7="13000.00000" pt_clust_8="13000.00000" pt_clust_9="13000.00000"></scales>
<clustering>
<clus scale="   91.374">  5  6 -1 -1</clus>
<clus scale="   93.026">  7  8 -1 -1</clus>
<clus scale="   87.768">  7  9 -1 -1</clus>
<clus scale="  200.661">  1  5  2 -1</clus>
<clus scale="  271.239">  2  5  1 -1</clus>
</clustering>
</event>
<event>
 9    1  0.3303741E-006  0.2279061E+03  0.7546771E-02  0.1153930E+00
          1   -1    0    0  502    0 -0.00000000000E+00  0.00000000000E+00  0.28008983189E+03  0.28008983189E+03  0.00000000000E+00 0. -1.
         21   -1    0    0  501  502  0.00000000000E+00 -0.00000000000E+00 -0.11451677114E+03  0.11451677114E+03  0.00000000000E+00 0. -1.
         23    2    1    2    0    0  0.79112939852E+02 -0.23052484676E+02  0.19660375566E+02  0.12399302480E+03  0.90539856035E+02 0.  0.
         23    2    1    2    0    0 -0.78230244890E+02 -0.88518527639E+01  0.19094622624E+03  0.21541678740E+03  0.61201343676E+02 0.  0.
        -11    1    3    3    0    0  0.48248922855E+01 -0.35002457395E+02 -0.18217979367E+02  0.39753570676E+02  0.00000000000E+00 0. -1.
         11    1    3    3    0    0  0.74288047567E+02  0.11949972720E+02  0.37878354933E+02  0.84239454127E+02  0.00000000000E+00 0.  1.
        -13    1    4    4    0    0 -0.28202194188E+02 -0.29174564270E+02  0.11712139063E+03  0.12395135780E+03  0.00000000000E+00 0. -1.
         13    1    4    4    0    0 -0.50028050702E+02  0.20322711506E+02  0.73824835609E+02  0.91465429604E+02  0.00000000000E+00 0.  1.
          1    1    1    2  501    0 -0.88269496182E+00  0.31904337440E+02 -0.45033541051E+02  0.55196790826E+02  0.00000000000E+00 0. -1.
<scales pt_clust_5="13000.00000" pt_clust_6="13000.00000" pt_clust_7="13000.00000" pt_clust_8="13000.00000" pt_clust_9="13000.00000"></scales>
<clustering>
<clus scale="   61.201">  7  8 -1 -1</clus>
<clus scale="   31.917">  7  9 -1 -1</clus>
<clus scale="   90.540">  5  6 -1 -1</clus>
<clus scale="  122.424">  1  5  2 -1</clus>
<clus scale="  227.906">  2  5  1 -1</clus>
</clustering>
</event>
<event>
 9    1  0.3303741E-006  0.5197599E+03  0.7546771E-02  0.1049405E+00
         21   -1    0    0  501  502  0.00000000000E+00  0.00000000000E+00  0.28977261385E+03  0.28977261385E+03  0.00000000000E+00 0. -1.
          3   -1    0    0  502    0 -0.00000000000E+00 -0.00000000000E+00 -0.61621955981E+03  0.61621955981E+03  0.00000000000E+00 0. -1.
         23    2    1    2    0    0 -0.12498237646E+03 -0.27396722346E+02  0.13900136707E+03  0.20828701569E+03  0.87697924929E+02 0.  0.
         23    2    1    2    0    0  0.33476480996E+02 -0.16595341023E+03 -0.75404946552E+01  0.19229723084E+03  0.90885404660E+02 0.  0.
        -11    1    4    4    0    0 -0.10405854620E+02 -0.18385484247E+02 -0.30021994156E+02  0.36710052771E+02  0.00000000000E+00 0.  1.
         11    1    4    4    0    0  0.43882335616E+02 -0.14756792598E+03  0.22481499500E+02  0.15558717806E+03  0.00000000000E+00 0. -1.
        -11    1    3    3    0    0 -0.26623748806E+02  0.30718301971E+02  0.41511768164E+02  0.58100473083E+02  0.00000000000E+00 0.  1.
         11    1    3    3    0    0 -0.98358627651E+02 -0.58115024316E+02  0.97489598908E+02  0.15018654261E+03  0.00000000000E+00 0. -1.
          3    1    1    2  501    0  0.91505895460E+02  0.19335013258E+03 -0.45790781838E+03  0.50540792713E+03  0.00000000000E+00 0. -1.
<scales pt_clust_5="13000.00000" pt_clust_6="13000.00000" pt_clust_7="13000.00000" pt_clust_8="13000.00000" pt_clust_9="13000.00000"></scales>
<clustering>
<clus scale="   87.698">  7  8 -1 -1</clus>
<clus scale="   90.885">  5  6 -1 -1</clus>
<clus scale="  155.120">  2  7  1 -1</clus>
<clus scale="  171.082">  5  9 -1 -1</clus>
<clus scale="  519.760">  1  5  2 -1</clus>
</clustering>
</event>
<event>
 9    1  0.3303741E-006  0.1240114E+03  0.7546771E-02  0.1246421E+00
         21   -1    0    0  501  502  0.00000000000E+00  0.00000000000E+00  0.47027826535E+03  0.47027826535E+03  0.00000000000E+00 0.  1.
          1   -1    0    0  502    0 -0.00000000000E+00 -0.00000000000E+00 -0.42761240826E+02  0.42761240826E+02  0.00000000000E+00 0. -1.
         23    2    1    2    0    0 -0.33271999426E+02  0.16163608247E+02  0.35523230828E+03  0.36949888969E+03  0.94716146795E+02 0.  0.
         23    2    1    2    0    0  0.19772727113E+02 -0.35035713216E+02  0.61755582126E+02  0.11806024435E+03  0.92228018699E+02 0.  0.
        -11    1    4    4    0    0  0.41470978588E+02 -0.56225169259E+02  0.47955444106E+02  0.84739815569E+02  0.00000000000E+00 0. -1.
         11    1    4    4    0    0 -0.21698251476E+02  0.21189456043E+02  0.13800138020E+02  0.33320428777E+02  0.00000000000E+00 0.  1.
        -13    1    3    3    0    0 -0.66077078668E+02  0.18989025451E+02  0.24191082716E+03  0.25149077858E+03  0.00000000000E+00 0.  1.
         13    1    3    3    0    0  0.32805079241E+02 -0.28254172037E+01  0.11332148111E+03  0.11800811111E+03  0.00000000000E+00 0. -1.
          1    1    1    2  501    0  0.13499272314E+02  0.18872104969E+02  0.10529134123E+02  0.25480372139E+02  0.00000000000E+00 0. -1.
<scales pt_clust_5="13000.00000" pt_clust_6="13000.00000" pt_clust_7="13000.00000" pt_clust_8="13000.00000" pt_clust_9="13000.00000"></scales>
<clustering>
<clus scale="   92.228">  5  6 -1 -1</clus>
<clus scale="   23.203">  5  9 -1 -1</clus>
<clus scale="   94.716">  7  8 -1 -1</clus>
<clus scale="  101.683">  2  7  1 -1</clus>
<clus scale="  124.011">  1  5  2 -1</clus>
</clustering>
</event>
<event>
 9    1  0.3303741E-006  0.2913562E+03  0.7546771E-02  0.1134191E+00
         -3   -1    0    0    0  501 -0.00000000000E+00  0.00000000000E+00  0.10079520543E+04  0.10079520543E+04  0.00000000000E+00 0.  1.
         21   -1    0    0  501  502  0.00000000000E+00 -0.00000000000E+00 -0.36890428425E+02  0.36890428425E+02  0.00000000000E+00 0. -1.
         23    2    1    2    0    0  0.20935314031E+02  0.62599394338E+01  0.25493607026E+03  0.27171619898E+03  0.91432043899E+02 0.  0.
         23    2    1    2    0    0 -0.22708681580E+02  0.10745253022E+03  0.20956837142E+03  0.25395978691E+03  0.92276435749E+02 0.  0.
        -13    1    3    3    0    0 -0.34156422464E+02 -0.21356621376E+01  0.61137832654E+02  0.70064661777E+02  0.00000000000E+00 0.  1.
         13    1    3    3    0    0  0.55091736495E+02  0.83956015713E+01  0.19379823761E+03  0.20165153720E+03  0.00000000000E+00 0. -1.
        -13    1    4    4    0    0 -0.24710960963E+02  0.36274838199E+02  0.16317196300E+03  0.16897214263E+03  0.00000000000E+00 0.  1.
         13    1    4    4    0    0  0.20022793832E+01  0.71177692022E+02  0.46396408429E+02  0.84987644275E+02  0.00000000000E+00 0. -1.
         -3    1    1    2    0  502  0.17733675485E+01 -0.11371246965E+03  0.50655718423E+03  0.51916649688E+03  0.00000000000E+00 0.  1.
<scales pt_clust_5="13000.00000" pt_clust_6="13000.00000" pt_clust_7="13000.00000" pt_clust_8="13000.00000" pt_clust_9="13000.00000"></scales>
<clustering>
<clus scale="   91.432">  5  6 -1 -1</clus>
<clus scale="   92.276">  7  8 -1 -1</clus>
<clus scale="   94.007">  1  5  2 -1</clus>
<clus scale="  110.593">  7  9 -1 -1</clus>
<clus scale="  291.356">  2  5  1 -1</clus>
</clustering>
</event>
<event>
 9    1  0.4909510E-006  0.9508242E+03  0.7546771E-02  0.9685847E-01
         21   -1    0    0  501  502  0.00000000000E+00  0.00000000000E+00  0.35950315724E+03  0.35950315724E+03  0.00000000000E+00 0.  1.
         -3   -1    0    0    0  501 -0.00000000000E+00 -0.00000000000E+00 -0.11566668087E+04  0.11566668087E+04  0.00000000000E+00 0.  1.
         23    2    1    2    0    0 -0.32959759899E+02  0.29570963553E+03 -0.34272297197E+03  0.46232793804E+03  0.88076968940E+02 0.  0.
         23    2    1    2    0    0 -0.23284059683E+03 -0.32802768094E+02 -0.60115962322E+03  0.65222492293E+03  0.93347160482E+02 0.  0.
        -13    1    3    3    0    0 -0.62380417508E+02  0.22191552427E+03 -0.26420393834E+03  0.35063020040E+03  0.00000000000E+00 0.  1.
         13    1    3    3    0    0  0.29420657609E+02  0.73794111263E+02 -0.78519033634E+02  0.11169773764E+03  0.00000000000E+00 0. -1.
        -13    1    4    4    0    0 -0.22688527934E+03 -0.51994993811E+02 -0.55877148312E+03  0.60531477738E+03  0.00000000000E+00 0.  1.
         13    1    4    4    0    0 -0.59553174895E+01  0.19192225717E+02 -0.42388140098E+02  0.46910145548E+02  0.00000000000E+00 0. -1.
         -3    1    1    2    0  502  0.26580035672E+03 -0.26290686744E+03  0.14671894371E+03  0.40161710499E+03  0.00000000000E+00 0.  1.
<scales pt_clust_5="13000.00000" pt_clust_6="13000.00000" pt_clust_7="13000.00000" pt_clust_8="13000.00000" pt_clust_9="13000.00000"></scales>
<clustering>
<clus scale="   88.077">  5  6 -1 -1</clus>
<clus scale="   93.347">  7  8 -1 -1</clus>
<clus scale="  310.303">  2  5  1 -1</clus>
<clus scale="  336.244">  7  9 -1 -1</clus>
<clus scale="  950.824">  1  5  2 -1</clus>
</clustering>
</event>
<event>
 9    1  0.3303741E-006  0.2131606E+03  0.7546771E-02  0.1153469E+00
          1   -1    0    0  502    0 -0.00000000000E+00  0.00000000000E+00  0.35214119224E+03  0.35214119224E+03  0.00000000000E+00 0. -1.
         21   -1    0    0  501  502  0.00000000000E+00 -0.00000000000E+00 -0.14545517553E+03  0.14545517553E+03  0.00000000000E+00 0. -1.
         23    2    1    2    0    0 -0.10460994676E+03 -0.58561111206E+02  0.23814962285E+03  0.28212618501E+03  0.92235007992E+02 0.  0.
         23    2    1    2    0    0 -0.24844141055E+01  0.53265535636E+02 -0.14574165543E+02  0.10692296514E+03  0.91524447949E+02 0.  0.
        -11    1    3    3    0    0 -0.47482145017E+02 -0.74222285516E+02  0.10991833327E+03  0.14087420542E+03  0.00000000000E+00 0.  1.
         11    1    3    3    0    0 -0.57127801742E+02  0.15661174309E+02  0.12823128958E+03  0.14125197960E+03  0.00000000000E+00 0. -1.
        -13    1    4    4    0    0  0.10863750126E+02  0.76772364133E+02 -0.32230363432E+01  0.77604155331E+02  0.00000000000E+00 0.  1.
         13    1    4    4    0    0 -0.13348164232E+02 -0.23506828496E+02 -0.11351129200E+02  0.29318809806E+02  0.00000000000E+00 0. -1.
          1    1    1    2  501    0  0.10709436086E+03  0.52955755702E+01 -0.16889440594E+02  0.10854721762E+03  0.00000000000E+00 0. -1.
<scales pt_clust_5="13000.00000" pt_clust_6="13000.00000" pt_clust_7="13000.00000" pt_clust_8="13000.00000" pt_clust_9="13000.00000"></scales>
<clustering>
<clus scale="   91.524">  7  8 -1 -1</clus>
<clus scale="   92.235">  5  6 -1 -1</clus>
<clus scale="  107.225">  7  9 -1 -1</clus>
<clus scale="  151.261">  1  5  2 -1</clus>
<clus scale="  213.161">  2  5  1 -1</clus>
</clustering>
</event>
<event>
 9    1  0.3303741E-006  0.1874923E+03  0.7546771E-02  0.1188314E+00
         21   -1    0    0  501  502  0.00000000000E+00  0.00000000000E+00  0.32379630872E+02  0.32379630872E+02  0.00000000000E+00 0.  1.
          2   -1    0    0  502    0 -0.00000000000E+00 -0.00000000000E+00 -0.68191788222E+03  0.68191788222E+03  0.00000000000E+00 0. -1.
         23    2    1    2    0    0  0.16179615786E+02 -0.61183036603E+01 -0.31775163545E+03  0.33319948155E+03  0.98775397054E+02 0.  0.
         23    2    1    2    0    0  0.52321765394E+02 -0.30347970545E+02 -0.19162522810E+03  0.22088741078E+03  0.91719429488E+02 0.  0.
        -13    1    4    4    0    0  0.56771120939E+01  0.31279108419E+02 -0.44394131963E+02  0.54602666400E+02  0.00000000000E+00 0. -1.
         13    1    4    4    0    0  0.46644653300E+02 -0.61627078964E+02 -0.14723109614E+03  0.16628474438E+03  0.00000000000E+00 0.  1.
        -13    1    3    3    0    0  0.25024017730E+02 -0.48747253707E+02 -0.20882804489E+03  0.21589731018E+03  0.00000000000E+00 0.  1.
         13    1    3    3    0    0 -0.88444019438E+01  0.42628950046E+02 -0.10892359056E+03  0.11730217137E+03  0.00000000000E+00 0. -1.
          2    1    1    2  501    0 -0.68501381180E+02  0.36466274205E+02 -0.14016138779E+03  0.16021062076E+03  0.00000000000E+00 0. -1.
<scales pt_clust_5="13000.00000" pt_clust_6="13000.00000" pt_clust_7="13000.00000" pt_clust_8="13000.00000" pt_clust_9="13000.00000"></scales>
<clustering>
<clus scale="   91.719">  5  6 -1 -1</clus>
<clus scale="   77.603">  5  9 -1 -1</clus>
<clus scale="   98.775">  7  8 -1 -1</clus>
<clus scale="  100.279">  2  7  1 -1</clus>
<clus scale="  187.492">  1  5  2 -1</clus>
</clustering>
</event>
<event>
 9    1  0.3303741E-006  0.2783071E+03  0.7546771E-02  0.1122298E+00
          2   -1    0    0  502    0 -0.00000000000E+00  0.00000000000E+00  0.43755658893E+03  0.43755658893E+03  0.00000000000E+00 0. -1.
         21   -1    0    0  501  502  0.00000000000E+00 -0.00000000000E+00 -0.28865458834E+03  0.28865458834E+03  0.00000000000E+00 0.  1.
         23    2    1    2    0    0  0.10698351093E+03  0.30295184747E+02  0.35275265568E+03  0.38123302738E+03  0.92417072261E+02 0.  0.
         23    2    1    2    0    0 -0.16684234473E+02 -0.83986926336E+02 -0.20449062189E+03  0.23992020397E+03  0.91723074293E+02 0.  0.
        -11    1    3    3    0    0  0.89659480816E+02 -0.53968260682E+01  0.15165300415E+03  0.17625714709E+03  0.00000000000E+00 0.  1.
         11    1    3    3    0    0  0.17324030113E+02  0.35692010816E+02  0.20109965153E+03  0.20497588029E+03  0.00000000000E+00 0. -1.
        -11    1    4    4    0    0  0.14940670395E+02 -0.31966470729E+02 -0.10821292235E+02  0.36907712586E+02  0.00000000000E+00 0. -1.
         11    1    4    4    0    0 -0.31624904868E+02 -0.52020455606E+02 -0.19366932965E+03  0.20301249138E+03  0.00000000000E+00 0.  1.
          2    1    1    2  501    0 -0.90299276455E+02  0.53691741588E+02  0.63996680011E+00  0.10505794592E+03  0.00000000000E+00 0. -1.
<scales pt_clust_5="13000.00000" pt_clust_6="13000.00000" pt_clust_7="13000.00000" pt_clust_8="13000.00000" pt_clust_9="13000.00000"></scales>
<clustering>
<clus scale="   91.723">  7  8 -1 -1</clus>
<clus scale="   92.417">  5  6 -1 -1</clus>
<clus scale="  105.056">  7  9 -1 -1</clus>
<clus scale="  144.583">  1  5  2 -1</clus>
<clus scale="  278.307">  2  5  1 -1</clus>
</clustering>
</event>
<event>
 9    1  0.3303741E-006  0.2184767E+03  0.7546771E-02  0.1149759E+00
         -1   -1    0    0    0  501 -0.00000000000E+00  0.00000000000E+00  0.24145840939E+03  0.24145840939E+03  0.00000000000E+00 0.  1.
         21   -1    0    0  501  502  0.00000000000E+00 -0.00000000000E+00 -0.21451826072E+03  0.21451826072E+03  0.00000000000E+00 0.  1.
         23    2    1    2    0    0 -0.70947216914E+02 -0.10060371231E+03  0.14204430557E+03  0.20903324862E+03  0.91453265474E+02 0.  0.
         23    2    1    2    0    0  0.36038739664E+02  0.79320935405E+02 -0.12759134358E+01  0.12599538560E+03  0.91008833012E+02 0.  0.
        -11    1    3    3    0    0 -0.40848052792E+02 -0.11333494345E+03  0.10720198331E+03  0.16126263686E+03  0.00000000000E+00 0. -1.
         11    1    3    3    0    0 -0.30099164123E+02  0.12731231136E+02  0.34842322264E+02  0.47770611759E+02  0.00000000000E+00 0.  1.
        -13    1    4    4    0    0  0.53158892273E+02  0.21743116031E+02 -0.23349896792E+02  0.61998779041E+02  0.00000000000E+00 0. -1.
         13    1    4    4    0    0 -0.17120152608E+02  0.57577819374E+02  0.22073983357E+02  0.63996606554E+02  0.00000000000E+00 0.  1.
         -1    1    1    2    0  502  0.34908477250E+02  0.21282776908E+02 -0.11382824347E+03  0.12094803590E+03  0.00000000000E+00 0.  1.
<scales pt_clust_5="13000.00000" pt_clust_6="13000.00000" pt_clust_7="13000.00000" pt_clust_8="13000.00000" pt_clust_9="13000.00000"></scales>
<clustering>
<clus scale="   91.009">  7  8 -1 -1</clus>
<clus scale="   40.885">  7  9 -1 -1</clus>
<clus scale="   91.453">  5  6 -1 -1</clus>
<clus scale="  153.357">  1  5  2 -1</clus>
<clus scale="  218.477">  2  5  1 -1</clus>
</clustering>
</event>
<event>
 9    1  0.3303741E-006  0.1479114E+03  0.7546771E-02  0.1229707E+00
         21   -1    0    0  501  502  0.00000000000E+00  0.00000000000E+00  0.35807109695E+02  0.35807109695E+02  0.00000000000E+00 0.  1.
          2   -1    0    0  502    0 -0.00000000000E+00 -0.00000000000E+00 -0.46222030116E+03  0.46222030116E+03  0.00000000000E+00 0. -1.
         23    2    1    2    0    0 -0.83649032126E+01  0.33247783301E+02 -0.26963278925E+03  0.28248649378E+03  0.76950577832E+02 0.  0.
         23    2    1    2    0    0  0.22359697396E+02  0.10381772921E+02 -0.13530241258E+03  0.16493759229E+03  0.91049048462E+02 0.  0.
        -11    1    4    4    0    0  0.11633651720E+02 -0.27654487092E+02 -0.11807366057E+03  0.12182570267E+03  0.00000000000E+00 0. -1.
         11    1    4    4    0    0  0.10726045676E+02  0.38036260013E+02 -0.17228752002E+02  0.43111889626E+02  0.00000000000E+00 0.  1.
        -13    1    3    3    0    0  0.24349954503E+02  0.41109171993E+02 -0.12097358916E+03  0.13006726560E+03  0.00000000000E+00 0.  1.
         13    1    3    3    0    0 -0.32714857715E+02 -0.78613886928E+01 -0.14865920008E+03  0.15241922817E+03  0.00000000000E+00 0. -1.
          2    1    1    2  501    0 -0.13994794183E+02 -0.43629556222E+02 -0.21477989642E+02  0.50603324786E+02  0.00000000000E+00 0. -1.
<scales pt_clust_5="13000.00000" pt_clust_6="13000.00000" pt_clust_7="13000.00000" pt_clust_8="13000.00000" pt_clust_9="13000.00000"></scales>
<clustering>
<clus scale="   76.951">  7  8 -1 -1</clus>
<clus scale="   84.242">  2  7  1 -1</clus>
<clus scale="   91.049">  5  6 -1 -1</clus>
<clus scale="   40.337">  5  9 -1 -1</clus>
<clus scale="  147.911">  1  5  2 -1</clus>
</clustering>
</event>
<event>
 9    1  0.3303741E-006  0.1741440E+03  0.7546771E-02  0.1199227E+00
         -1   -1    0    0    0  501 -0.00000000000E+00  0.00000000000E+00  0.45446466534E+03  0.45446466534E+03  0.00000000000E+00 0.  1.
         21   -1    0    0  501  502  0.00000000000E+00 -0.00000000000E+00 -0.53822296626E+02  0.53822296626E+02  0.00000000000E+00 0.  1.
         23    2    1    2    0    0  0.36101275456E+01 -0.38525038406E+02  0.27897556270E+03  0.29585120046E+03  0.90572383317E+02 0.  0.
         23    2    1    2    0    0 -0.49294985541E+01  0.71996999264E+01  0.14717484327E+03  0.17201698449E+03  0.88618693441E+02 0.  0.
        -11    1    3    3    0    0 -0.39560092702E+02 -0.16173286960E+02  0.18696597967E+03  0.19178856509E+03  0.00000000000E+00 0. -1.
         11    1    3    3    0    0  0.43170220248E+02 -0.22351751446E+02  0.92009583038E+02  0.10406263537E+03  0.00000000000E+00 0.  1.
        -11    1    4    4    0    0  0.23178423332E+02 -0.31127418899E+02  0.45649032882E+02  0.59916522918E+02  0.00000000000E+00 0. -1.
         11    1    4    4    0    0 -0.28107921886E+02  0.38327118826E+02  0.10152581039E+03  0.11210046158E+03  0.00000000000E+00 0.  1.
         -1    1    1    2    0  502  0.13193710085E+01  0.31325338480E+02 -0.25508037261E+02  0.40418777018E+02  0.00000000000E+00 0.  1.
<scales pt_clust_5="13000.00000" pt_clust_6="13000.00000" pt_clust_7="13000.00000" pt_clust_8="13000.00000" pt_clust_9="13000.00000"></scales>
<clustering>
<clus scale="   88.619">  7  8 -1 -1</clus>
<clus scale="   31.353">  7  9 -1 -1</clus>
<clus scale="   90.572">  5  6 -1 -1</clus>
<clus scale="   98.491">  1  5  2 -1</clus>
<clus scale="  174.144">  2  5  1 -1</clus>
</clustering>
</event>
<event>
 9    1  0.3303741E-006  0.2039466E+03  0.7546771E-02  0.1181195E+00
         21   -1    0    0  501  502  0.00000000000E+00  0.00000000000E+00  0.76098390333E+02  0.76098390333E+02  0.00000000000E+00 0. -1.
          1   -1    0    0  502    0 -0.00000000000E+00 -0.00000000000E+00 -0.67719017266E+03  0.67719017266E+03  0.00000000000E+00 0. -1.
         23    2    1    2    0    0  0.64969705564E+01  0.32259856402E+01  0.25116228901E+02  0.94706216813E+02  0.91026506793E+02 0.  0.
         23    2    1    2    0    0 -0.53711061118E+02  0.61961445038E+02 -0.41048857331E+03  0.42833585357E+03  0.90810989831E+02 0.  0.
        -11    1    3    3    0    0 -0.85194264186E+01  0.45402674103E+02  0.16894089700E+02  0.49187332810E+02  0.00000000000E+00 0. -1.
         11    1    3    3    0    0  0.15016396975E+02 -0.42176688463E+02  0.82221392010E+01  0.45518884002E+02  0.00000000000E+00 0.  1.
        -11    1    4    4    0    0 -0.43071996102E+02  0.83549682762E+02 -0.36456033087E+03  0.37648370640E+03  0.00000000000E+00 0. -1.
         11    1    4    4    0    0 -0.10639065017E+02 -0.21588237724E+02 -0.45928242441E+02  0.51852147170E+02  0.00000000000E+00 0.  1.
          1    1    1    2  501    0  0.47214090562E+02 -0.65187430678E+02 -0.21571943791E+03  0.23024649261E+03  0.00000000000E+00 0. -1.
<scales pt_clust_5="13000.00000" pt_clust_6="13000.00000" pt_clust_7="13000.00000" pt_clust_8="13000.00000" pt_clust_9="13000.00000"></scales>
<clustering>
<clus scale="   90.811">  7  8 -1 -1</clus>
<clus scale="   80.490">  7  9 -1 -1</clus>
<clus scale="   91.027">  5  6 -1 -1</clus>
<clus scale="   91.315">  2  5  1 -1</clus>
<clus scale="  203.947">  1  5  2 -1</clus>
</clustering>
</event>
<event>
 9    1  0.3303741E-006  0.3206874E+03  0.7546771E-02  0.1087612E+00
          2   -1    0    0  502    0 -0.00000000000E+00  0.00000000000E+00  0.57421762776E+03  0.57421762776E+03  0.00000000000E+00 0. -1.
         21   -1    0    0  501  502  0.00000000000E+00 -0.00000000000E+00 -0.22573179192E+03  0.22573179192E+03  0.00000000000E+00 0. -1.
         23    2    1    2    0    0 -0.20577882950E+03 -0.23851782751E+02  0.41283800699E+03  0.47286902516E+03  0.10127221105E+03 0.  0.
         23    2    1    2    0    0 -0.10508237112E+01 -0.44664087633E+02 -0.20093110996E+02  0.10474777355E+03  0.92587137337E+02 0.  0.
        -11    1    4    4    0    0  0.27269504475E+02  0.26186791507E+01 -0.37956345929E+02  0.46809908685E+02  0.00000000000E+00 0.  1.
         11    1    4    4    0    0 -0.28320328186E+02 -0.47282766784E+02  0.17863234933E+02  0.57937864869E+02  0.00000000000E+00 0. -1.
        -13    1    3    3    0    0 -0.11517118087E+03  0.66144958280E+01  0.12749403797E+03  0.17193860002E+03  0.00000000000E+00 0. -1.
         13    1    3    3    0    0 -0.90607648627E+02 -0.30466278579E+02  0.28534396902E+03  0.30093042514E+03  0.00000000000E+00 0.  1.
          2    1    1    2  501    0  0.20682965321E+03  0.68515870384E+02 -0.44259060156E+02  0.22233262097E+03  0.00000000000E+00 0. -1.
<scales pt_clust_5="13000.00000" pt_clust_6="13000.00000" pt_clust_7="13000.00000" pt_clust_8="13000.00000" pt_clust_9="13000.00000"></scales>
<clustering>
<clus scale="   92.587">  5  6 -1 -1</clus>
<clus scale="  101.272">  7  8 -1 -1</clus>
<clus scale="  217.883">  5  9 -1 -1</clus>
<clus scale="  230.586">  1  7  2 -1</clus>
<clus scale="  320.687">  2  5  1 -1</clus>
</clustering>
</event>
<event>
 9    1  0.3303741E-006  0.3238195E+03  0.7546771E-02  0.1094608E+00
         21   -1    0    0  501  502  0.00000000000E+00  0.00000000000E+00  0.17858403468E+03  0.17858403468E+03  0.00000000000E+00 0. -1.
          2   -1    0    0  502    0 -0.00000000000E+00 -0.00000000000E+00 -0.61533489862E+03  0.61533489862E+03  0.00000000000E+00 0. -1.
         23    2    1    2    0    0  0.14295085349E+03  0.71256792879E+02 -0.43160141681E+03  0.47005849864E+03  0.95722160972E+02 0.  0.
         23    2    1    2    0    0 -0.19118621347E+03 -0.12952294488E+03 -0.13403534440E+02  0.24777019627E+03  0.88780932369E+02 0.  0.
        -11    1    3    3    0    0  0.24310557159E+02  0.55558991930E+02 -0.93920353165E+02  0.11179819995E+03  0.00000000000E+00 0.  1.
         11    1    3    3    0    0  0.11864029633E+03  0.15697800949E+02 -0.33768106365E+03  0.35826029868E+03  0.00000000000E+00 0. -1.
        -13    1    4    4    0    0 -0.42259944760E+02 -0.73946105600E+02 -0.23916823391E+02  0.88464365175E+02  0.00000000000E+00 0.  1.
         13    1    4    4    0    0 -0.14892626871E+03 -0.55576839283E+02  0.10513288951E+02  0.15930583110E+03  0.00000000000E+00 0. -1.
          2    1    1    2  501    0  0.48235359979E+02  0.58266152004E+02  0.82540873121E+01  0.76090238395E+02  0.00000000000E+00 0. -1.
<scales pt_clust_5="13000.00000" pt_clust_6="13000.00000" pt_clust_7="13000.00000" pt_clust_8="13000.00000" pt_clust_9="13000.00000"></scales>
<clustering>
<clus scale="   88.781">  7  8 -1 -1</clus>
<clus scale="   75.641">  7  9 -1 -1</clus>
<clus scale="   95.722">  5  6 -1 -1</clus>
<clus scale="  186.213">  2  5  1 -1</clus>
<clus scale="  323.819">  1  5  2 -1</clus>
</clustering>
</event>
<event>
 9    1  0.3303741E-006  0.8073572E+03  0.7546771E-02  0.9789671E-01
         21   -1    0    0  501  502  0.00000000000E+00  0.00000000000E+00  0.12453190640E+04  0.12453190640E+04  0.00000000000E+00 0.  1.
         -1   -1    0    0    0  501 -0.00000000000E+00 -0.00000000000E+00 -0.27771683049E+03  0.27771683049E+03  0.00000000000E+00 0.  1.
         23    2    1    2    0    0  0.33220889491E+03 -0.97567146992E+02  0.20924508770E+03  0.41536661487E+03  0.94147862390E+02 0.  0.
         23    2    1    2    0    0 -0.87684017466E+02 -0.17809743159E+02 -0.12770121750E+03  0.18127645492E+03  0.92454736420E+02 0.  0.
        -11    1    4    4    0    0 -0.96079363396E+02  0.11874248939E+02 -0.10602358988E+03  0.14357312934E+03  0.00000000000E+00 0. -1.
         11    1    4    4    0    0  0.83953459306E+01 -0.29683992098E+02 -0.21677627619E+02  0.37703325574E+02  0.00000000000E+00 0.  1.
        -13    1    3    3    0    0  0.39246075245E+02 -0.42526161683E+02  0.15713266772E+02  0.59963618989E+02  0.00000000000E+00 0. -1.
         13    1    3    3    0    0  0.29296281966E+03 -0.55040985309E+02  0.19353182092E+03  0.35540299588E+03  0.00000000000E+00 0.  1.
         -1    1    1    2    0  502 -0.24452487744E+03  0.11537689015E+03  0.88605836327E+03  0.92639282466E+03  0.00000000000E+00 0.  1.
<scales pt_clust_5="13000.00000" pt_clust_6="13000.00000" pt_clust_7="13000.00000" pt_clust_8="13000.00000" pt_clust_9="13000.00000"></scales>
<clustering>
<clus scale="   92.455">  5  6 -1 -1</clus>
<clus scale="   94.148">  7  8 -1 -1</clus>
<clus scale="  270.378">  5  9 -1 -1</clus>
<clus scale="  358.812">  2  7  1 -1</clus>
<clus scale="  807.357">  1  5  2 -1</clus>
</clustering>
</event>
<event>
 9    1  0.3303741E-006  0.4157822E+03  0.7546771E-02  0.1082874E+00
          1   -1    0    0  502    0 -0.00000000000E+00  0.00000000000E+00  0.49308552734E+03  0.49308552734E+03  0.00000000000E+00 0. -1.
         21   -1    0    0  501  502  0.00000000000E+00 -0.00000000000E+00 -0.20353029621E+03  0.20353029621E+03  0.00000000000E+00 0. -1.
         23    2    1    2    0    0  0.65517605621E+02  0.40256656236E+02  0.25200758976E+03  0.27914170884E+03  0.92190635644E+02 0.  0.
         23    2    1    2    0    0 -0.35153647686E+02  0.76466881783E+02  0.18728705058E+03  0.22520283516E+03  0.92503592855E+02 0.  0.
        -11    1    4    4    0    0 -0.50655991925E+02  0.90386493871E+02  0.16366109805E+03  0.19370261435E+03  0.00000000000E+00 0. -1.
         11    1    4    4    0    0  0.15502344239E+02 -0.13919612088E+02  0.23625952533E+02  0.31500220804E+02  0.00000000000E+00 0.  1.
        -11    1    3    3    0    0  0.35559852236E+01 -0.24832214924E+02  0.27013931980E+02  0.36865111555E+02  0.00000000000E+00 0.  1.
         11    1    3    3    0    0  0.61961620397E+02  0.65088871160E+02  0.22499365778E+03  0.24227659728E+03  0.00000000000E+00 0. -1.
          1    1    1    2  501    0 -0.30363957935E+02 -0.11672353802E+03 -0.14973940921E+03  0.19227127955E+03  0.00000000000E+00 0. -1.
<scales pt_clust_5="13000.00000" pt_clust_6="13000.00000" pt_clust_7="13000.00000" pt_clust_8="13000.00000" pt_clust_9="13000.00000"></scales>
<clustering>
<clus scale="   92.191">  7  8 -1 -1</clus>
<clus scale="   92.504">  5  6 -1 -1</clus>
<clus scale="  120.051">  1  7  2 -1</clus>
<clus scale="  115.532">  5  9 -1 -1</clus>
<clus scale="  415.782">  2  5  1 -1</clus>
</clustering>
</event>
<event>
 9    1  0.3303741E-006  0.4202438E+03  0.7546771E-02  0.1075391E+00
         21   -1    0    0  501  502  0.00000000000E+00  0.00000000000E+00  0.10708711669E+03  0.10708711669E+03  0.00000000000E+00 0.  1.
         -1   -1    0    0    0  501 -0.00000000000E+00 -0.00000000000E+00 -0.94953003008E+03  0.94953003008E+03  0.00000000000E+00 0.  1.
         23    2    1    2    0    0  0.10325157309E+03 -0.98357676499E+01 -0.48332701447E+03  0.50383413134E+03  0.97397121708E+02 0.  0.
         23    2    1    2    0    0  0.62233422560E+02  0.19094903972E+02 -0.36992545093E+03  0.38668707385E+03  0.91893631994E+02 0.  0.
        -11    1    3    3    0    0  0.30580858743E+02  0.42527639021E+02 -0.16212506227E+03  0.17037700790E+03  0.00000000000E+00 0. -1.
         11    1    3    3    0    0  0.72670714349E+02 -0.52363406671E+02 -0.32120195220E+03  0.33345712344E+03  0.00000000000E+00 0.  1.
        -11    1    4    4    0    0 -0.12560988831E+02 -0.20467366310E+02 -0.45977258357E+02  0.51870991991E+02  0.00000000000E+00 0. -1.
         11    1    4    4    0    0  0.74794411391E+02  0.39562270282E+02 -0.32394819257E+03  0.33481608186E+03  0.00000000000E+00 0.  1.
         -1    1    1    2    0  502 -0.16548499565E+03 -0.92591363222E+01  0.10809552006E+02  0.16609594157E+03  0.00000000000E+00 0.  1.
<scales pt_clust_5="13000.00000" pt_clust_6="13000.00000" pt_clust_7="13000.00000" pt_clust_8="13000.00000" pt_clust_9="13000.00000"></scales>
<clustering>
<clus scale="   91.894">  7  8 -1 -1</clus>
<clus scale="   97.397">  5  6 -1 -1</clus>
<clus scale="  142.281">  2  5  1 -1</clus>
<clus scale="  148.306">  7  9 -1 -1</clus>
<clus scale="  420.244">  1  5  2 -1</clus>
</clustering>
</event>
<event>
 9    1  0.3303741E-006  0.2217652E+03  0.7546771E-02  0.1142879E+00
         21   -1    0    0  501  502  0.00000000000E+00  0.00000000000E+00  0.27381281749E+02  0.27381281749E+02  0.00000000000E+00 0.  1.
          2   -1    0    0  502    0 -0.00000000000E+00 -0.00000000000E+00 -0.16453883949E+04  0.16453883949E+04  0.00000000000E+00 0. -1.
         23    2    1    2    0    0 -0.32876664835E+02  0.13911493186E+03 -0.10288460535E+04  0.10432535385E+04  0.97056192754E+02 0.  0.
         23    2    1    2    0    0 -0.76366924837E+01 -0.72056200745E+02 -0.48503721793E+03  0.49920888598E+03  0.93263036251E+02 0.  0.
        -11    1    4    4    0    0 -0.22343201652E+02 -0.90760380866E+02 -0.40856992284E+03  0.41912533596E+03  0.00000000000E+00 0.  1.
         11    1    4    4    0    0  0.14706509168E+02  0.18704180122E+02 -0.76467295083E+02  0.80083550017E+02  0.00000000000E+00 0. -1.
        -11    1    3    3    0    0 -0.42787390319E+02  0.10859240859E+02 -0.26386637118E+03  0.26753344786E+03  0.00000000000E+00 0.  1.
         11    1    3    3    0    0  0.99107254836E+01  0.12825569100E+03 -0.76497968227E+03  0.77572009065E+03  0.00000000000E+00 0. -1.
          2    1    1    2  501    0  0.40513357319E+02 -0.67058731116E+02 -0.10412384179E+03  0.13030725217E+03  0.00000000000E+00 0. -1.
<scales pt_clust_5="13000.00000" pt_clust_6="13000.00000" pt_clust_7="13000.00000" pt_clust_8="13000.00000" pt_clust_9="13000.00000"></scales>
<clustering>
<clus scale="   93.263">  5  6 -1 -1</clus>
<clus scale="   78.347">  5  9 -1 -1</clus>
<clus scale="   97.056">  7  8 -1 -1</clus>
<clus scale="  172.782">  2  7  1 -1</clus>
<clus scale="  221.765">  1  5  2 -1</clus>
</clustering>
</event>
<event>
 9    1  0.3303741E-006  0.3738100E+03  0.7546771E-02  0.1102549E+00
         -1   -1    0    0    0  501 -0.00000000000E+00  0.00000000000E+00  0.35432961665E+02  0.35432961665E+02  0.00000000000E+00 0.  1.
         21   -1    0    0  501  502  0.00000000000E+00 -0.00000000000E+00 -0.15850956905E+04  0.15850956905E+04  0.00000000000E+00 0.  1.
         23    2    1    2    0    0  0.48011618479E+02 -0.41298328027E+01 -0.27028983665E+03  0.28766372134E+03  0.85858312049E+02 0.  0.
         23    2    1    2    0    0  0.41514453361E+02 -0.13587062374E+03 -0.34957187473E+03  0.38833066600E+03  0.91738401571E+02 0.  0.
        -13    1    3    3    0    0  0.49349652059E+02 -0.39400652025E+02 -0.17121918304E+03  0.18249330996E+03  0.00000000000E+00 0.  1.
         13    1    3    3    0    0 -0.13380335805E+01  0.35270819223E+02 -0.99070653614E+02  0.10517041138E+03  0.00000000000E+00 0. -1.
        -13    1    4    4    0    0  0.47115782204E+01 -0.12833155678E+03 -0.29831073872E+03  0.32477759200E+03  0.00000000000E+00 0.  1.
         13    1    4    4    0    0  0.36802875140E+02 -0.75390669608E+01 -0.51261136009E+02  0.63553073995E+02  0.00000000000E+00 0. -1.
         -1    1    1    2    0  502 -0.89526071839E+02  0.14000045654E+03 -0.92980101742E+03  0.94453426479E+03  0.00000000000E+00 0.  1.
<scales pt_clust_5="13000.00000" pt_clust_6="13000.00000" pt_clust_7="13000.00000" pt_clust_8="13000.00000" pt_clust_9="13000.00000"></scales>
<clustering>
<clus scale="   85.858">  5  6 -1 -1</clus>
<clus scale="   91.738">  7  8 -1 -1</clus>
<clus scale="   98.457">  1  5  2 -1</clus>
<clus scale="  158.446">  7  9 -1 -1</clus>
<clus scale="  373.810">  2  5  1 -1</clus>
</clustering>
</event>
<event>
 9    1  0.3303741E-006  0.2286080E+03  0.7546771E-02  0.1165536E+00
         -1   -1    0    0    0  501 -0.00000000000E+00  0.00000000000E+00  0.34280208135E+03  0.34280208135E+03  0.00000000000E+00 0.  1.
         21   -1    0    0  501  502  0.00000000000E+00 -0.00000000000E+00 -0.93385081393E+02  0.93385081393E+02  0.00000000000E+00 0.  1.
         23    2    1    2    0    0 -0.14023334378E+02  0.10868483860E+02  0.17109951753E+03  0.19453608214E+03  0.90854083602E+02 0.  0.
         23    2    1    2    0    0 -0.20930877141E+02  0.43132118440E+02  0.12498696772E+03  0.16217842614E+03  0.91551179928E+02 0.  0.
        -13    1    4    4    0    0  0.26957861150E+01 -0.26373799857E+02  0.16632002310E+02  0.31296454791E+02  0.00000000000E+00 0. -1.
         13    1    4    4    0    0 -0.23626663256E+02  0.69505918297E+02  0.10835496541E+03  0.13088197135E+03  0.00000000000E+00 0.  1.
        -13    1    3    3    0    0  0.36645864217E+02  0.18327438062E+02  0.67354998538E+02  0.78838506950E+02  0.00000000000E+00 0.  1.
         13    1    3    3    0    0 -0.50669198595E+02 -0.74589542020E+01  0.10374451899E+03  0.11569757519E+03  0.00000000000E+00 0. -1.
         -1    1    1    2    0  502  0.34954211519E+02 -0.54000602300E+02 -0.46669485285E+02  0.79472654469E+02  0.00000000000E+00 0.  1.
<scales pt_clust_5="13000.00000" pt_clust_6="13000.00000" pt_clust_7="13000.00000" pt_clust_8="13000.00000" pt_clust_9="13000.00000"></scales>
<clustering>
<clus scale="   90.854">  7  8 -1 -1</clus>
<clus scale="   91.551">  5  6 -1 -1</clus>
<clus scale="   64.326">  5  9 -1 -1</clus>
<clus scale="   92.570">  1  7  2 -1</clus>
<clus scale="  228.608">  2  5  1 -1</clus>
</clustering>
</event>
<event>
 9    1  0.3303741E-006  0.3259040E+03  0.7546771E-02  0.1115572E+00
          1   -1    0    0  502    0 -0.00000000000E+00  0.00000000000E+00  0.74356764176E+03  0.74356764176E+03  0.00000000000E+00 0. -1.
         21   -1    0    0  501  502  0.00000000000E+00 -0.00000000000E+00 -0.96975833011E+02  0.96975833011E+02  0.00000000000E+00 0. -1.
         23    2    1    2    0    0  0.10352044341E+02 -0.55374602133E+02  0.44443553165E+03  0.45703260108E+03  0.90456316928E+02 0.  0.
         23    2    1    2    0    0  0.96710238073E+02  0.95350669613E+02  0.21460661310E+03  0.26855249360E+03  0.87291598025E+02 0.  0.
        -11    1    4    4    0    0 -0.11501958612E+02  0.32092039477E+02  0.64822816275E+02  0.73240641446E+02  0.00000000000E+00 0.  1.
         11    1    4    4    0    0  0.10821219669E+03  0.63258630136E+02  0.14978379683E+03  0.19531185215E+03  0.00000000000E+00 0. -1.
        -11    1    3    3    0    0 -0.37371058057E+02 -0.10704915443E+02  0.12221565851E+03  0.12824920421E+03  0.00000000000E+00 0.  1.
         11    1    3    3    0    0  0.47723102398E+02 -0.44669686689E+02  0.32221987314E+03  0.32878339687E+03  0.00000000000E+00 0. -1.
          1    1    1    2  501    0 -0.10706228241E+03 -0.39976067480E+02 -0.12450336007E+02  0.11495838009E+03  0.00000000000E+00 0. -1.
<scales pt_clust_5="13000.00000" pt_clust_6="13000.00000" pt_clust_7="13000.00000" pt_clust_8="13000.00000" pt_clust_9="13000.00000"></scales>
<clustering>
<clus scale="   87.292">  5  6 -1 -1</clus>
<clus scale="   90.456">  7  8 -1 -1</clus>
<clus scale="  106.564">  1  7  2 -1</clus>
<clus scale="  116.381">  5  9 -1 -1</clus>
<clus scale="  325.904">  2  5  1 -1</clus>
</clustering>
</event>
<event>
 9    1  0.3303741E-006  0.1644264E+03  0.7546771E-02  0.1203441E+00
         21   -1    0    0  501  502  0.00000000000E+00  0.00000000000E+00  0.12600833687E+03  0.12600833687E+03  0.00000000000E+00 0. -1.
          2   -1    0    0  502    0 -0.00000000000E+00 -0.00000000000E+00 -0.32585858891E+03  0.32585858891E+03  0.00000000000E+00 0. -1.
         23    2    1    2    0    0 -0.53087223097E+02 -0.86712611065E+01 -0.25658909849E+03  0.27792632115E+03  0.92258498246E+02 0.  0.
         23    2    1    2    0    0  0.70775564511E+02  0.31035055891E+02  0.74172266802E+02  0.14051993910E+03  0.90950387010E+02 0.  0.
        -11    1    3    3    0    0 -0.70590327708E+02 -0.31739885324E+02 -0.19747264984E+03  0.21209870844E+03  0.00000000000E+00 0. -1.
         11    1    3    3    0    0  0.17503104612E+02  0.23068624217E+02 -0.59116448649E+02  0.65827612711E+02  0.00000000000E+00 0.  1.
        -13    1    4    4    0    0  0.93070684365E+01 -0.18121360407E+02 -0.12136365135E+02  0.23712793690E+02  0.00000000000E+00 0.  1.
         13    1    4    4    0    0  0.61468496075E+02  0.49156416298E+02  0.86308631937E+02  0.11680714541E+03  0.00000000000E+00 0. -1.
          2    1    1    2  501    0 -0.17688341415E+02 -0.22363794785E+02 -0.17433420347E+02  0.33420665526E+02  0.00000000000E+00 0. -1.
<scales pt_clust_5="13000.00000" pt_clust_6="13000.00000" pt_clust_7="13000.00000" pt_clust_8="13000.00000" pt_clust_9="13000.00000"></scales>
<clustering>
<clus scale="   90.950">  7  8 -1 -1</clus>
<clus scale="   28.513">  7  9 -1 -1</clus>
<clus scale="   92.258">  5  6 -1 -1</clus>
<clus scale="  106.795">  2  5  1 -1</clus>
<clus scale="  164.426">  1  5  2 -1</clus>
</clustering>
</event>
<event>
 9    1  0.3303741E-006  0.3130256E+03  0.7546771E-02  0.1093711E+00
          3   -1    0    0  502    0 -0.00000000000E+00  0.00000000000E+00  0.51002302791E+03  0.51002302791E+03  0.00000000000E+00 0. -1.
         21   -1    0    0  501  502  0.00000000000E+00 -0.00000000000E+00 -0.27900957866E+03  0.27900957866E+03  0.00000000000E+00 0. -1.
         23    2    1    2    0    0  0.15407697611E+03 -0.11060726367E+03  0.38585342706E+03  0.43980425150E+03  0.92580943589E+02 0.  0.
         23    2    1    2    0    0 -0.66948556132E+02  0.13498373328E+03 -0.84417039924E+01  0.17712946369E+03  0.92740860039E+02 0.  0.
        -11    1    3    3    0    0  0.51310071343E+02 -0.25889384690E+02  0.42364271019E+02  0.71398285132E+02  0.00000000000E+00 0.  1.
         11    1    3    3    0    0  0.10276690477E+03 -0.84717878982E+02  0.34348915604E+03  0.36840596636E+03  0.00000000000E+00 0. -1.
        -11    1    4    4    0    0 -0.68657343884E+02  0.45155656193E+02 -0.24739178321E+02  0.85818943709E+02  0.00000000000E+00 0.  1.
         11    1    4    4    0    0  0.17087877515E+01  0.89828077088E+02  0.16297474328E+02  0.91310519977E+02  0.00000000000E+00 0. -1.
          3    1    1    2  501    0 -0.87128419978E+02 -0.24376469609E+02 -0.14639827382E+03  0.17209889139E+03  0.00000000000E+00 0. -1.
<scales pt_clust_5="13000.00000" pt_clust_6="13000.00000" pt_clust_7="13000.00000" pt_clust_8="13000.00000" pt_clust_9="13000.00000"></scales>
<clustering>
<clus scale="   92.581">  5  6 -1 -1</clus>
<clus scale="   92.741">  7  8 -1 -1</clus>
<clus scale="   90.474">  7  9 -1 -1</clus>
<clus scale="  211.057">  1  5  2 -1</clus>
<clus scale="  313.026">  2  5  1 -1</clus>
</clustering>
</event>
<event>
 9    1  0.3303741E-006  0.1326969E+03  0.7546771E-02  0.1233360E+00
         21   -1    0    0  501  502  0.00000000000E+00  0.00000000000E+00  0.17953189256E+03  0.17953189256E+03  0.00000000000E+00 0. -1.
         -1   -1    0    0    0  501 -0.00000000000E+00 -0.00000000000E+00 -0.98723744259E+02  0.98723744259E+02  0.00000000000E+00 0.  1.
         23    2    1    2    0    0 -0.41898069524E+02 -0.34926916786E+02 -0.21958349721E+02  0.11041818464E+03  0.93459449129E+02 0.  0.
         23    2    1    2    0    0  0.34647793620E+02  0.30446281684E+01  0.90107674454E+02  0.13277618234E+03  0.91106433573E+02 0.  0.
        -11    1    4    4    0    0 -0.24469532204E+02  0.17846409556E+02  0.95345498774E+01  0.31751535107E+02  0.00000000000E+00 0.  1.
         11    1    4    4    0    0  0.59117325824E+02 -0.14801781387E+02  0.80573124577E+02  0.10102464723E+03  0.00000000000E+00 0. -1.
        -11    1    3    3    0    0 -0.51611591508E+01  0.28575376335E+02  0.95602821752E+01  0.30571043354E+02  0.00000000000E+00 0.  1.
         11    1    3    3    0    0 -0.36736910374E+02 -0.63502293122E+02 -0.31518631896E+02  0.79847141290E+02  0.00000000000E+00 0. -1.
         -1    1    1    2    0  502  0.72502759040E+01  0.31882288618E+02  0.12658823569E+02  0.35061269834E+02  0.00000000000E+00 0.  1.
<scales pt_clust_5="13000.00000" pt_clust_6="13000.00000" pt_clust_7="13000.00000" pt_clust_8="13000.00000" pt_clust_9="13000.00000"></scales>
<clustering>
<clus scale="   91.106">  5  6 -1 -1</clus>
<clus scale="   32.696">  5  9 -1 -1</clus>
<clus scale="   93.459">  7  8 -1 -1</clus>
<clus scale="  108.213">  2  7  1 -1</clus>
<clus scale="  132.697">  1  5  2 -1</clus>
</clustering>
</event>
<event>
 9    1  0.3303741E-006  0.2263845E+03  0.7546771E-02  0.1157490E+00
          2   -1    0    0  502    0 -0.00000000000E+00  0.00000000000E+00  0.32097597140E+03  0.32097597140E+03  0.00000000000E+00 0. -1.
         21   -1    0    0  501  502  0.00000000000E+00 -0.00000000000E+00 -0.99417840096E+02  0.99417840096E+02  0.00000000000E+00 0. -1.
         23    2    1    2    0    0  0.48817655111E+02  0.50977599185E+02  0.13682485986E+03  0.17867148244E+03  0.90667399283E+02 0.  0.
         23    2    1    2    0    0  0.24475115322E+02 -0.76690896935E+02 -0.60860128645E+01  0.12221857898E+03  0.91759558376E+02 0.  0.
        -13    1    4    4    0    0 -0.29194892035E+02 -0.14656280915E+02  0.17240208545E+02  0.36937421159E+02  0.00000000000E+00 0.  1.
         13    1    4    4    0    0  0.53670007358E+02 -0.62034616020E+02 -0.23326221410E+02  0.85281157824E+02  0.00000000000E+00 0. -1.
        -13    1    3    3    0    0 -0.87971279576E+01  0.25698387695E+02  0.10443014713E+03  0.10790482946E+03  0.00000000000E+00 0.  1.
         13    1    3    3    0    0  0.57614783069E+02  0.25279211490E+02  0.32394712729E+02  0.70766652983E+02  0.00000000000E+00 0. -1.
          2    1    1    2  501    0 -0.73292770434E+02  0.25713297750E+02  0.90819284302E+02  0.11950375007E+03  0.00000000000E+00 0. -1.
<scales pt_clust_5="13000.00000" pt_clust_6="13000.00000" pt_clust_7="13000.00000" pt_clust_8="13000.00000" pt_clust_9="13000.00000"></scales>
<clustering>
<clus scale="   90.667">  7  8 -1 -1</clus>
<clus scale="   91.760">  5  6 -1 -1</clus>
<clus scale="   77.672">  5  9 -1 -1</clus>
<clus scale="  114.902">  1  7  2 -1</clus>
<clus scale="  226.385">  2  5  1 -1</clus>
</clustering>
</event>
<event>
 9    1  0.3303741E-006  0.5609183E+03  0.7546771E-02  0.1045988E+00
          2   -1    0    0  502    0 -0.00000000000E+00  0.00000000000E+00  0.91556693729E+03  0.91556693729E+03  0.00000000000E+00 0. -1.
         21   -1    0    0  501  502  0.00000000000E+00 -0.00000000000E+00 -0.13663007812E+03  0.13663007812E+03  0.00000000000E+00 0. -1.
         23    2    1    2    0    0 -0.90550840966E+02  0.44698586312E+02  0.87331657691E+02  0.16172122950E+03  0.91266199759E+02 0.  0.
         23    2    1    2    0    0  0.92464527997E+02  0.18981244855E+03  0.93522757871E+02  0.24805715524E+03  0.90594654724E+02 0.  0.
        -11    1    4    4    0    0  0.10290117299E+03  0.11904135838E+03  0.74128387236E+02  0.17393824824E+03  0.00000000000E+00 0.  1.
         11    1    4    4    0    0 -0.10436644993E+02  0.70771090163E+02  0.19394370635E+02  0.74118906994E+02  0.00000000000E+00 0. -1.
        -11    1    3    3    0    0 -0.40974491845E+02  0.22669526901E+02  0.95972272371E+02  0.10678714106E+03  0.00000000000E+00 0.  1.
         11    1    3    3    0    0 -0.49576349120E+02  0.22029059412E+02 -0.86406146805E+01  0.54934088440E+02  0.00000000000E+00 0. -1.
          2    1    1    2  501    0 -0.19136870311E+01 -0.23451103486E+03  0.59808244361E+03  0.64241863066E+03  0.00000000000E+00 0. -1.
<scales pt_clust_5="13000.00000" pt_clust_6="13000.00000" pt_clust_7="13000.00000" pt_clust_8="13000.00000" pt_clust_9="13000.00000"></scales>
<clustering>
<clus scale="   90.595">  5  6 -1 -1</clus>
<clus scale="   91.266">  7  8 -1 -1</clus>
<clus scale="  136.114">  1  7  2 -1</clus>
<clus scale="  212.372">  5  9 -1 -1</clus>
<clus scale="  560.918">  2  5  1 -1</clus>
</clustering>
</event>
<event>
 9    1  0.3303741E-006  0.7320913E+03  0.7546771E-02  0.9726968E-01
         21   -1    0    0  501  502  0.00000000000E+00  0.00000000000E+00  0.48606832267E+03  0.48606832267E+03  0.00000000000E+00 0.  1.
          2   -1    0    0  502    0 -0.00000000000E+00 -0.00000000000E+00 -0.90223418772E+03  0.90223418772E+03  0.00000000000E+00 0. -1.
         23    2    1    2    0    0  0.34936902186E+03  0.46966977567E+03 -0.18321935280E+03  0.62004360932E+03  0.90754253898E+02 0.  0.
         23    2    1    2    0    0 -0.10053094763E+03 -0.18505285217E+03 -0.30671363085E+03  0.38307223448E+03  0.91214340747E+02 0.  0.
        -11    1    4    4    0    0 -0.90269605595E+02 -0.77729323899E+02 -0.18935279317E+03  0.22370724121E+03  0.00000000000E+00 0.  1.
         11    1    4    4    0    0 -0.10261342030E+02 -0.10732352827E+03 -0.11736083767E+03  0.15936499327E+03  0.00000000000E+00 0. -1.
        -13    1    3    3    0    0  0.30034793794E+03  0.38107893066E+03 -0.18362122958E+03  0.51879359207E+03  0.00000000000E+00 0.  1.
         13    1    3    3    0    0  0.49021083916E+02  0.88590845006E+02  0.40187677619E+00  0.10125001725E+03  0.00000000000E+00 0. -1.
          2    1    1    2  501    0 -0.24883807423E+03 -0.28461692350E+03  0.73767118595E+02  0.38518666659E+03  0.00000000000E+00 0. -1.
<scales pt_clust_5="13000.00000" pt_clust_6="13000.00000" pt_clust_7="13000.00000" pt_clust_8="13000.00000" pt_clust_9="13000.00000"></scales>
<clustering>
<clus scale="   90.754">  7  8 -1 -1</clus>
<clus scale="   91.214">  5  6 -1 -1</clus>
<clus scale="  378.057">  5  9 -1 -1</clus>
<clus scale="  592.356">  2  7  1 -1</clus>
<clus scale="  732.091">  1  5  2 -1</clus>
</clustering>
</event>
<event>
 9    1  0.3303741E-006  0.1700136E+03  0.7546771E-02  0.1201597E+00
         21   -1    0    0  501  502  0.00000000000E+00  0.00000000000E+00  0.38322771767E+03  0.38322771767E+03  0.00000000000E+00 0.  1.
         -4   -1    0    0    0  501 -0.00000000000E+00 -0.00000000000E+00 -0.56013491130E+02  0.56013491130E+02  0.00000000000E+00 0.  1.
         23    2    1    2    0    0  0.56678350197E+02  0.38153090444E+01  0.45849140120E+02  0.11049977241E+03  0.82952179536E+02 0.  0.
         23    2    1    2    0    0 -0.37017472401E+02 -0.52012281611E+02  0.22992009523E+03  0.25555615509E+03  0.91488400967E+02 0.  0.
        -11    1    3    3    0    0  0.33900755305E+02  0.39001004646E+02  0.45084358878E+02  0.68577977434E+02  0.00000000000E+00 0.  1.
         11    1    3    3    0    0  0.22777594892E+02 -0.35185695601E+02  0.76478124228E+00  0.41921794980E+02  0.00000000000E+00 0. -1.
        -13    1    4    4    0    0 -0.44304307140E+01 -0.44975036950E+02  0.33316477972E+02  0.56145973760E+02  0.00000000000E+00 0.  1.
         13    1    4    4    0    0 -0.32587041687E+02 -0.70372446605E+01  0.19660361726E+03  0.19941018133E+03  0.00000000000E+00 0. -1.
         -4    1    1    2    0  502 -0.19660877796E+02  0.48196972567E+02  0.51444991193E+02  0.73185281301E+02  0.00000000000E+00 0.  1.
<scales pt_clust_5="13000.00000" pt_clust_6="13000.00000" pt_clust_7="13000.00000" pt_clust_8="13000.00000" pt_clust_9="13000.00000"></scales>
<clustering>
<clus scale="   82.952">  5  6 -1 -1</clus>
<clus scale="   91.488">  7  8 -1 -1</clus>
<clus scale="   52.053">  7  9 -1 -1</clus>
<clus scale="  100.539">  2  5  1 -1</clus>
<clus scale="  170.014">  1  5  2 -1</clus>
</clustering>
</event>
<event>
 9    1  0.3303741E-006  0.2805909E+03  0.7546771E-02  0.1139769E+00
          2   -1    0    0  502    0 -0.00000000000E+00  0.00000000000E+00  0.15508664053E+03  0.15508664053E+03  0.00000000000E+00 0. -1.
         21   -1    0    0  501  502  0.00000000000E+00 -0.00000000000E+00 -0.40681211271E+03  0.40681211271E+03  0.00000000000E+00 0. -1.
         23    2    1    2    0    0 -0.43066139016E+01 -0.14084880328E+02  0.83881280126E+02  0.12444802570E+03  0.90743105352E+02 0.  0.
         23    2    1    2    0    0 -0.24929372548E+02 -0.82200396646E+02 -0.48754110138E+02  0.13346053726E+03  0.89757300125E+02 0.  0.
        -13    1    3    3    0    0 -0.35701899803E+02  0.22981820181E+02  0.30532099748E+02  0.52297216211E+02  0.00000000000E+00 0.  1.
         13    1    3    3    0    0  0.31395285901E+02 -0.37066700510E+02  0.53349180378E+02  0.72150809493E+02  0.00000000000E+00 0. -1.
        -13    1    4    4    0    0  0.19810297821E+02 -0.58074333434E+02  0.23187568854E+01  0.61404012386E+02  0.00000000000E+00 0. -1.
         13    1    4    4    0    0 -0.44739670369E+02 -0.24126063212E+02 -0.51072867023E+02  0.72056524873E+02  0.00000000000E+00 0.  1.
          2    1    1    2  501    0  0.29235986450E+02  0.96285276975E+02 -0.28685264217E+03  0.30399019028E+03  0.00000000000E+00 0. -1.
<scales pt_clust_5="13000.00000" pt_clust_6="13000.00000" pt_clust_7="13000.00000" pt_clust_8="13000.00000" pt_clust_9="13000.00000"></scales>
<clustering>
<clus scale="   89.757">  7  8 -1 -1</clus>
<clus scale="   90.743">  5  6 -1 -1</clus>
<clus scale="   91.931">  1  5  2 -1</clus>
<clus scale="   98.148">  7  9 -1 -1</clus>
<clus scale="  280.591">  2  5  1 -1</clus>
</clustering>
</event>
<event>
 9    1  0.3303741E-006  0.4529629E+03  0.7546771E-02  0.1075511E+00
          1   -1    0    0  502    0 -0.00000000000E+00  0.00000000000E+00  0.14288038591E+03  0.14288038591E+03  0.00000000000E+00 0. -1.
         21   -1    0    0  501  502  0.00000000000E+00 -0.00000000000E+00 -0.56099521421E+03  0.56099521421E+03  0.00000000000E+00 0. -1.
         23    2    1    2    0    0 -0.15151743775E+02 -0.64939679093E+02 -0.85942757135E+02  0.14216955817E+03  0.91538453701E+02 0.  0.
         23    2    1    2    0    0  0.21723744983E+03  0.47783725025E+02 -0.13008303994E+03  0.27539688056E+03  0.97192852388E+02 0.  0.
        -11    1    3    3    0    0 -0.40263361888E+02 -0.43183887148E+02 -0.10817411163E+02  0.60025018151E+02  0.00000000000E+00 0. -1.
         11    1    3    3    0    0  0.25111618113E+02 -0.21755791945E+02 -0.75125345972E+02  0.82144540019E+02  0.00000000000E+00 0.  1.
        -13    1    4    4    0    0  0.15871280136E+03  0.69097798831E+02 -0.12375766794E+03  0.21279149300E+03  0.00000000000E+00 0. -1.
         13    1    4    4    0    0  0.58524648469E+02 -0.21314073806E+02 -0.63253720026E+01  0.62605387561E+02  0.00000000000E+00 0.  1.
          1    1    1    2  501    0 -0.20208570606E+03  0.17155954069E+02 -0.20208903123E+03  0.28630916139E+03  0.00000000000E+00 0. -1.
<scales pt_clust_5="13000.00000" pt_clust_6="13000.00000" pt_clust_7="13000.00000" pt_clust_8="13000.00000" pt_clust_9="13000.00000"></scales>
<clustering>
<clus scale="   91.538">  5  6 -1 -1</clus>
<clus scale="   97.193">  7  8 -1 -1</clus>
<clus scale="  113.252">  1  5  2 -1</clus>
<clus scale="  207.752">  7  9 -1 -1</clus>
<clus scale="  452.963">  2  5  1 -1</clus>
</clustering>
</event>
<event>
 9    1  0.3303741E-006  0.3131430E+03  0.7546771E-02  0.1089758E+00
          3   -1    0    0  502    0 -0.00000000000E+00  0.00000000000E+00  0.73455260977E+02  0.73455260977E+02  0.00000000000E+00 0. -1.
         21   -1    0    0  501  502  0.00000000000E+00 -0.00000000000E+00 -0.10196990634E+04  0.10196990634E+04  0.00000000000E+00 0. -1.
         23    2    1    2    0    0 -0.16898441297E+03  0.13334430882E+03 -0.42137525826E+03  0.48197059642E+03  0.91663029737E+02 0.  0.
         23    2    1    2    0    0  0.23268107938E+00 -0.16594410750E+02 -0.84001605052E+02  0.12490053503E+03  0.90930992470E+02 0.  0.
        -11    1    3    3    0    0 -0.48152202854E+02 -0.59730736091E+00 -0.51835910602E+02  0.70752759973E+02  0.00000000000E+00 0.  1.
         11    1    3    3    0    0 -0.12083221011E+03  0.13394161619E+03 -0.36953934765E+03  0.41121783645E+03  0.00000000000E+00 0. -1.
        -13    1    4    4    0    0  0.45837770458E+01  0.32964065619E+02 -0.82754554851E+01  0.34294661358E+02  0.00000000000E+00 0.  1.
         13    1    4    4    0    0 -0.43510959665E+01 -0.49558476370E+02 -0.75726149567E+02  0.90605873675E+02  0.00000000000E+00 0. -1.
          3    1    1    2  501    0  0.16875173189E+03 -0.11674989807E+03 -0.44086693908E+03  0.48628319289E+03  0.00000000000E+00 0. -1.
<scales pt_clust_5="13000.00000" pt_clust_6="13000.00000" pt_clust_7="13000.00000" pt_clust_8="13000.00000" pt_clust_9="13000.00000"></scales>
<clustering>
<clus scale="   90.931">  7  8 -1 -1</clus>
<clus scale="   91.663">  5  6 -1 -1</clus>
<clus scale="  205.202">  7  9 -1 -1</clus>
<clus scale="  233.963">  1  5  2 -1</clus>
<clus scale="  313.143">  2  5  1 -1</clus>
</clustering>
</event>
<event>
 9    1  0.3303741E-006  0.3499615E+03  0.7546771E-02  0.1068729E+00
         21   -1    0    0  501  502  0.00000000000E+00  0.00000000000E+00  0.25492238695E+03  0.25492238695E+03  0.00000000000E+00 0. -1.
          2   -1    0    0  502    0 -0.00000000000E+00 -0.00000000000E+00 -0.52775017905E+03  0.52775017905E+03  0.00000000000E+00 0. -1.
         23    2    1    2    0    0  0.51580803681E+02  0.27597391767E+03 -0.31286749099E+03  0.43042805405E+03  0.92520593658E+02 0.  0.
         23    2    1    2    0    0 -0.67418178967E+02 -0.10460461524E+03 -0.44111441009E+02  0.16067292057E+03  0.91556713528E+02 0.  0.
        -13    1    3    3    0    0  0.32461801261E+02  0.29611289287E+02 -0.77940136536E+02  0.89472129055E+02  0.00000000000E+00 0.  1.
         13    1    3    3    0    0  0.19119002420E+02  0.24636262839E+03 -0.23492735446E+03  0.34095592500E+03  0.00000000000E+00 0. -1.
        -13    1    4    4    0    0 -0.59389545368E+02 -0.71216925921E+02  0.13395823707E+02  0.93693205354E+02  0.00000000000E+00 0.  1.
         13    1    4    4    0    0 -0.80286335987E+01 -0.33387689322E+02 -0.57507264716E+02  0.66979715219E+02  0.00000000000E+00 0. -1.
          2    1    1    2  501    0  0.15837375285E+02 -0.17136930243E+03  0.84151139902E+02  0.19157159137E+03  0.00000000000E+00 0. -1.
<scales pt_clust_5="13000.00000" pt_clust_6="13000.00000" pt_clust_7="13000.00000" pt_clust_8="13000.00000" pt_clust_9="13000.00000"></scales>
<clustering>
<clus scale="   91.557">  7  8 -1 -1</clus>
<clus scale="   92.521">  5  6 -1 -1</clus>
<clus scale="  172.100">  7  9 -1 -1</clus>
<clus scale="  295.605">  2  5  1 -1</clus>
<clus scale="  349.961">  1  5  2 -1</clus>
</clustering>
</event>
<event>
 9    1  0.3303741E-006  0.2039890E+03  0.7546771E-02  0.1178330E+00
          1   -1    0    0  502    0 -0.00000000000E+00  0.00000000000E+00  0.58584324886E+03  0.58584324886E+03  0.00000000000E+00 0. -1.
         21   -1    0    0  501  502  0.00000000000E+00 -0.00000000000E+00 -0.53310390392E+02  0.53310390392E+02  0.00000000000E+00 0. -1.
         23    2    1    2    0    0 -0.27389696148E+02  0.21842170617E+02  0.38509786680E+02  0.10467229995E+03  0.90807548335E+02 0.  0.
         23    2    1    2    0    0  0.29447490634E+02  0.36682021678E+02  0.44866274796E+03  0.46040789885E+03  0.92002426590E+02 0.  0.
        -11    1    3    3    0    0 -0.48922942039E+02 -0.92748684706E+01  0.43982510408E+02  0.66437479367E+02  0.00000000000E+00 0.  1.
         11    1    3    3    0    0  0.21533245890E+02  0.31117039087E+02 -0.54727237283E+01  0.38234820585E+02  0.00000000000E+00 0. -1.
        -13    1    4    4    0    0  0.54972190649E+02 -0.24662311142E+01  0.28189283311E+03  0.28721349794E+03  0.00000000000E+00 0.  1.
         13    1    4    4    0    0 -0.25524700015E+02  0.39148252793E+02  0.16676991486E+03  0.17319440092E+03  0.00000000000E+00 0. -1.
          1    1    1    2  501    0 -0.20577944856E+01 -0.58524192295E+02  0.45360323826E+02  0.74073440447E+02  0.00000000000E+00 0. -1.
<scales pt_clust_5="13000.00000" pt_clust_6="13000.00000" pt_clust_7="13000.00000" pt_clust_8="13000.00000" pt_clust_9="13000.00000"></scales>
<clustering>
<clus scale="   90.808">  5  6 -1 -1</clus>
<clus scale="   92.002">  7  8 -1 -1</clus>
<clus scale="   58.560">  7  9 -1 -1</clus>
<clus scale="   97.331">  1  5  2 -1</clus>
<clus scale="  203.989">  2  5  1 -1</clus>
</clustering>
</event>
<event>
 9    1  0.3303741E-006  0.1616472E+03  0.7546771E-02  0.1209358E+00
         21   -1    0    0  501  502  0.00000000000E+00  0.00000000000E+00  0.94257796793E+02  0.94257796793E+02  0.00000000000E+00 0. -1.
          4   -1    0    0  502    0 -0.00000000000E+00 -0.00000000000E+00 -0.18211860689E+03  0.18211860689E+03  0.00000000000E+00 0. -1.
         23    2    1    2    0    0 -0.38131985895E+02 -0.80428909474E+01 -0.47390199149E+02  0.10974005790E+03  0.90985234453E+02 0.  0.
         23    2    1    2    0    0 -0.14274202162E+02 -0.10198928039E+02 -0.53252573107E+02  0.10969294350E+03  0.94281145153E+02 0.  0.
        -13    1    4    4    0    0 -0.36769535195E+02 -0.27662197987E+02  0.35516267219E+01  0.46149864228E+02  0.00000000000E+00 0. -1.
         13    1    4    4    0    0  0.22495333033E+02  0.17463269948E+02 -0.56804199829E+02  0.63543079275E+02  0.00000000000E+00 0.  1.
        -13    1    3    3    0    0  0.25855018115E+01  0.26350624001E+02  0.12744334996E+02  0.29384660613E+02  0.00000000000E+00 0.  1.
         13    1    3    3    0    0 -0.40717487707E+02 -0.34393514948E+02 -0.60134534146E+02  0.80355397283E+02  0.00000000000E+00 0. -1.
          4    1    1    2  501    0  0.52406188057E+02  0.18241818987E+02  0.12781962162E+02  0.56943402281E+02  0.00000000000E+00 0. -1.
<scales pt_clust_5="13000.00000" pt_clust_6="13000.00000" pt_clust_7="13000.00000" pt_clust_8="13000.00000" pt_clust_9="13000.00000"></scales>
<clustering>
<clus scale="   90.985">  7  8 -1 -1</clus>
<clus scale="   94.281">  5  6 -1 -1</clus>
<clus scale="   55.490">  5  9 -1 -1</clus>
<clus scale="   98.980">  2  7  1 -1</clus>
<clus scale="  161.647">  1  5  2 -1</clus>
</clustering>
</event>
<event>
 9    1  0.3303741E-006  0.2632361E+03  0.7546771E-02  0.1122476E+00
         -2   -1    0    0    0  501 -0.00000000000E+00  0.00000000000E+00  0.79119867821E+02  0.79119867821E+02  0.00000000000E+00 0.  1.
         21   -1    0    0  501  502  0.00000000000E+00 -0.00000000000E+00 -0.69646212298E+03  0.69646212298E+03  0.00000000000E+00 0.  1.
         23    2    1    2    0    0  0.77185306733E+01 -0.14340713547E+03 -0.39839396333E+03  0.43319100072E+03  0.91167488018E+02 0.  0.
         23    2    1    2    0    0 -0.62330085664E+02  0.57674751142E+02 -0.32407749396E+02  0.12995314592E+03  0.92877023072E+02 0.  0.
        -11    1    4    4    0    0  0.56752325277E+01  0.57466199222E+02 -0.12355256711E+02  0.59052728012E+02  0.00000000000E+00 0.  1.
         11    1    4    4    0    0 -0.68005318191E+02  0.20855191989E+00 -0.20052492685E+02  0.70900417905E+02  0.00000000000E+00 0. -1.
        -13    1    3    3    0    0  0.37430522111E+02 -0.10364154550E+03 -0.33510206357E+03  0.35275488225E+03  0.00000000000E+00 0.  1.
         13    1    3    3    0    0 -0.29711991438E+02 -0.39765589960E+02 -0.63291899752E+02  0.80436118469E+02  0.00000000000E+00 0. -1.
         -2    1    1    2    0  502  0.54611554990E+02  0.85732384323E+02 -0.18654054244E+03  0.21243784416E+03  0.00000000000E+00 0.  1.
<scales pt_clust_5="13000.00000" pt_clust_6="13000.00000" pt_clust_7="13000.00000" pt_clust_8="13000.00000" pt_clust_9="13000.00000"></scales>
<clustering>
<clus scale="   91.167">  7  8 -1 -1</clus>
<clus scale="   92.877">  5  6 -1 -1</clus>
<clus scale="  101.649">  5  9 -1 -1</clus>
<clus scale="  170.108">  1  7  2 -1</clus>
<clus scale="  263.236">  2  5  1 -1</clus>
</clustering>
</event>
<event>
 9    1  0.3303741E-006  0.2023166E+03  0.7546771E-02  0.1174420E+00
         21   -1    0    0  501  502  0.00000000000E+00  0.00000000000E+00  0.47393330282E+03  0.47393330282E+03  0.00000000000E+00 0. -1.
          4   -1    0    0  502    0 -0.00000000000E+00 -0.00000000000E+00 -0.53342889113E+02  0.53342889113E+02  0.00000000000E+00 0. -1.
         23    2    1    2    0    0 -0.52740762241E+02 -0.26973361214E+02  0.98446935870E+02  0.14687058248E+03  0.91487805732E+02 0.  0.
         23    2    1    2    0    0 -0.27695584457E+01  0.87732578247E+02  0.16716381186E+03  0.20492975635E+03  0.79673014897E+02 0.  0.
        -11    1    3    3    0    0 -0.21141927383E+02 -0.56079176756E+02  0.32534419989E+02  0.68193428152E+02  0.00000000000E+00 0. -1.
         11    1    3    3    0    0 -0.31598834858E+02  0.29105815542E+02  0.65912515881E+02  0.78677154324E+02  0.00000000000E+00 0.  1.
        -13    1    4    4    0    0 -0.29392021618E+02  0.13718793674E+02  0.20117421136E+02  0.38168139434E+02  0.00000000000E+00 0.  1.
         13    1    4    4    0    0  0.26622463172E+02  0.74013784573E+02  0.14704639072E+03  0.16676161691E+03  0.00000000000E+00 0. -1.
          4    1    1    2  501    0  0.55510320687E+02 -0.60759217033E+02  0.15497966598E+03  0.17547585311E+03  0.00000000000E+00 0. -1.
<scales pt_clust_5="13000.00000" pt_clust_6="13000.00000" pt_clust_7="13000.00000" pt_clust_8="13000.00000" pt_clust_9="13000.00000"></scales>
<clustering>
<clus scale="   79.673">  7  8 -1 -1</clus>
<clus scale="   82.299">  7  9 -1 -1</clus>
<clus scale="   91.488">  5  6 -1 -1</clus>
<clus scale="  108.992">  2  5  1 -1</clus>
<clus scale="  202.317">  1  5  2 -1</clus>
</clustering>
</event>
<event>
 9    1  0.3303741E-006  0.1813033E+03  0.7546771E-02  0.1188125E+00
          1   -1    0    0  502    0 -0.00000000000E+00  0.00000000000E+00  0.17335025159E+03  0.17335025159E+03  0.00000000000E+00 0. -1.
         21   -1    0    0  501  502  0.00000000000E+00 -0.00000000000E+00 -0.16709802517E+03  0.16709802517E+03  0.00000000000E+00 0. -1.
         23    2    1    2    0    0 -0.57206725642E+02 -0.26474040927E+02  0.87638408819E+02  0.14171580698E+03  0.91811736436E+02 0.  0.
         23    2    1    2    0    0 -0.91728285102E+01 -0.26796778592E+02 -0.52221612619E+02  0.10876248838E+03  0.91104192703E+02 0.  0.
        -11    1    3    3    0    0 -0.40448562359E+02 -0.38287405442E+02  0.42655570389E+01  0.55858809415E+02  0.00000000000E+00 0. -1.
         11    1    3    3    0    0 -0.16758163283E+02  0.11813364515E+02  0.83372851780E+02  0.85856997570E+02  0.00000000000E+00 0.  1.
        -13    1    4    4    0    0  0.34595139001E+02 -0.12604131340E+01  0.18378351934E+01  0.34666841823E+02  0.00000000000E+00 0.  1.
         13    1    4    4    0    0 -0.43767967511E+02 -0.25536365458E+02 -0.54059447812E+02  0.74095646557E+02  0.00000000000E+00 0. -1.
          1    1    1    2  501    0  0.66379554152E+02  0.53270819519E+02 -0.29164569783E+02  0.89969981395E+02  0.00000000000E+00 0. -1.
<scales pt_clust_5="13000.00000" pt_clust_6="13000.00000" pt_clust_7="13000.00000" pt_clust_8="13000.00000" pt_clust_9="13000.00000"></scales>
<clustering>
<clus scale="   91.104">  7  8 -1 -1</clus>
<clus scale="   85.112">  7  9 -1 -1</clus>
<clus scale="   91.812">  5  6 -1 -1</clus>
<clus scale="  111.368">  1  5  2 -1</clus>
<clus scale="  181.303">  2  5  1 -1</clus>
</clustering>
</event>
<event>
 9    1  0.3303741E-006  0.5340196E+03  0.7546771E-02  0.1023688E+00
         21   -1    0    0  501  502  0.00000000000E+00  0.00000000000E+00  0.18109616244E+03  0.18109616244E+03  0.00000000000E+00 0. -1.
          1   -1    0    0  502    0 -0.00000000000E+00 -0.00000000000E+00 -0.12520169475E+04  0.12520169475E+04  0.00000000000E+00 0. -1.
         23    2    1    2    0    0 -0.18623316391E+03  0.21798047199E+03 -0.75213291247E+03  0.81117850703E+03  0.10054041350E+03 0.  0.
         23    2    1    2    0    0  0.16146984382E+03 -0.23051029542E+03 -0.42171817075E+03  0.51532848303E+03  0.92248160504E+02 0.  0.
        -13    1    3    3    0    0 -0.99011053037E+02  0.43400314850E+02 -0.24496207123E+03  0.26775584456E+03  0.00000000000E+00 0. -1.
         13    1    3    3    0    0 -0.87222110873E+02  0.17458015714E+03 -0.50717084124E+03  0.54342266248E+03  0.00000000000E+00 0.  1.
        -13    1    4    4    0    0  0.15236743672E+03 -0.19139730014E+03 -0.29969296987E+03  0.38686514248E+03  0.00000000000E+00 0. -1.
         13    1    4    4    0    0  0.91024070989E+01 -0.39112995282E+02 -0.12202520088E+03  0.12846334055E+03  0.00000000000E+00 0.  1.
          1    1    1    2  501    0  0.24763320093E+02  0.12529823434E+02  0.10293029821E+03  0.10660611983E+03  0.00000000000E+00 0. -1.
<scales pt_clust_5="13000.00000" pt_clust_6="13000.00000" pt_clust_7="13000.00000" pt_clust_8="13000.00000" pt_clust_9="13000.00000"></scales>
<clustering>
<clus scale="   92.248">  7  8 -1 -1</clus>
<clus scale="   27.753">  7  9 -1 -1</clus>
<clus scale="  100.540">  5  6 -1 -1</clus>
<clus scale="  303.820">  2  5  1 -1</clus>
<clus scale="  534.020">  1  5  2 -1</clus>
</clustering>
</event>
<event>
 9    1  0.3303741E-006  0.1973912E+03  0.7546771E-02  0.1183621E+00
         21   -1    0    0  501  502  0.00000000000E+00  0.00000000000E+00  0.14204961657E+03  0.14204961657E+03  0.00000000000E+00 0.  1.
         -3   -1    0    0    0  501 -0.00000000000E+00 -0.00000000000E+00 -0.15187660204E+03  0.15187660204E+03  0.00000000000E+00 0.  1.
         23    2    1    2    0    0 -0.30368326497E+02 -0.57303640391E+01 -0.14433700676E+02  0.96481261206E+02  0.90250926435E+02 0.  0.
         23    2    1    2    0    0  0.13447155568E+01 -0.45405975809E+02 -0.53014208271E+02  0.11511959031E+03  0.91534162445E+02 0.  0.
        -11    1    3    3    0    0 -0.62184034143E+02 -0.82101433173E+01 -0.15279288774E+02  0.64557859483E+02  0.00000000000E+00 0.  1.
         11    1    3    3    0    0  0.31815707646E+02  0.24797792782E+01  0.84558809767E+00  0.31923401722E+02  0.00000000000E+00 0. -1.
        -11    1    4    4    0    0 -0.13831236037E+02  0.24027392360E+02 -0.28949379029E+02  0.40083478144E+02  0.00000000000E+00 0. -1.
         11    1    4    4    0    0  0.15175951593E+02 -0.69433368169E+02 -0.24064829242E+02  0.75036112162E+02  0.00000000000E+00 0.  1.
         -3    1    1    2    0  502  0.29023610941E+02  0.51136339848E+02  0.57620923479E+02  0.82325367097E+02  0.00000000000E+00 0.  1.
<scales pt_clust_5="13000.00000" pt_clust_6="13000.00000" pt_clust_7="13000.00000" pt_clust_8="13000.00000" pt_clust_9="13000.00000"></scales>
<clustering>
<clus scale="   90.251">  5  6 -1 -1</clus>
<clus scale="   91.534">  7  8 -1 -1</clus>
<clus scale="   58.799">  7  9 -1 -1</clus>
<clus scale="   95.396">  2  5  1 -1</clus>
<clus scale="  197.391">  1  5  2 -1</clus>
</clustering>
</event>
<event>
 9    1  0.3303741E-006  0.1749769E+03  0.7546771E-02  0.1199335E+00
         21   -1    0    0  501  502  0.00000000000E+00  0.00000000000E+00  0.29793071893E+02  0.29793071893E+02  0.00000000000E+00 0.  1.
          2   -1    0    0  502    0 -0.00000000000E+00 -0.00000000000E+00 -0.62371578332E+03  0.62371578332E+03  0.00000000000E+00 0. -1.
         23    2    1    2    0    0 -0.25127935305E+02  0.18309970974E+02 -0.18823605258E+03  0.21169600968E+03  0.91737238083E+02 0.  0.
         23    2    1    2    0    0 -0.21411613137E+02 -0.49328017851E+02 -0.18400260746E+03  0.21318242884E+03  0.93263486380E+02 0.  0.
        -11    1    4    4    0    0 -0.57958815202E+02 -0.35972891933E+02 -0.12708655334E+03  0.14423683736E+03  0.00000000000E+00 0.  1.
         11    1    4    4    0    0  0.36547202065E+02 -0.13355125918E+02 -0.56916054123E+02  0.68945591476E+02  0.00000000000E+00 0. -1.
        -11    1    3    3    0    0  0.29922334877E+02  0.15521573558E+02 -0.11619953568E+03  0.12099007175E+03  0.00000000000E+00 0. -1.
         11    1    3    3    0    0 -0.55050270182E+02  0.27883974157E+01 -0.72036516904E+02  0.90705937926E+02  0.00000000000E+00 0.  1.
          2    1    1    2  501    0  0.46539548442E+02  0.31018046877E+02 -0.22168405138E+03  0.22863041669E+03  0.00000000000E+00 0. -1.
<scales pt_clust_5="13000.00000" pt_clust_6="13000.00000" pt_clust_7="13000.00000" pt_clust_8="13000.00000" pt_clust_9="13000.00000"></scales>
<clustering>
<clus scale="   91.737">  7  8 -1 -1</clus>
<clus scale="   93.263">  5  6 -1 -1</clus>
<clus scale="   55.929">  5  9 -1 -1</clus>
<clus scale="   96.863">  2  7  1 -1</clus>
<clus scale="  174.977">  1  5  2 -1</clus>
</clustering>
</event>
<event>
 9    1  0.3303741E-006  0.2342017E+03  0.7546771E-02  0.1136082E+00
         21   -1    0    0  501  502  0.00000000000E+00  0.00000000000E+00  0.91356933127E+02  0.91356933127E+02  0.00000000000E+00 0. -1.
          2   -1    0    0  502    0 -0.00000000000E+00 -0.00000000000E+00 -0.51475495220E+03  0.51475495220E+03  0.00000000000E+00 0. -1.
         23    2    1    2    0    0 -0.13616605474E+03 -0.55447058811E+02 -0.80033533310E+02  0.19048030280E+03  0.90894491058E+02 0.  0.
         23    2    1    2    0    0  0.60876287398E+02  0.38358281644E+02 -0.31076660433E+03  0.33182706449E+03  0.91411368097E+02 0.  0.
        -13    1    4    4    0    0 -0.19324846081E+02  0.24777596480E+02 -0.53923035425E+02  0.62410517646E+02  0.00000000000E+00 0.  1.
         13    1    4    4    0    0  0.80201133479E+02  0.13580685163E+02 -0.25684356891E+03  0.26941654684E+03  0.00000000000E+00 0. -1.
        -13    1    3    3    0    0 -0.14761536697E+02  0.16572719445E+02  0.85998939992E+01  0.23801600203E+02  0.00000000000E+00 0.  1.
         13    1    3    3    0    0 -0.12140451804E+03 -0.72019778256E+02 -0.88633427310E+02  0.16667870259E+03  0.00000000000E+00 0. -1.
          2    1    1    2  501    0  0.75289767343E+02  0.17088777168E+02 -0.32597881431E+02  0.83804518049E+02  0.00000000000E+00 0. -1.
<scales pt_clust_5="13000.00000" pt_clust_6="13000.00000" pt_clust_7="13000.00000" pt_clust_8="13000.00000" pt_clust_9="13000.00000"></scales>
<clustering>
<clus scale="   90.894">  7  8 -1 -1</clus>
<clus scale="   91.411">  5  6 -1 -1</clus>
<clus scale="   77.205">  5  9 -1 -1</clus>
<clus scale="  172.851">  2  7  1 -1</clus>
<clus scale="  234.202">  1  5  2 -1</clus>
</clustering>
</event>
<event>
 9    1  0.3303741E-006  0.2602677E+03  0.7546771E-02  0.1144266E+00
         21   -1    0    0  501  502  0.00000000000E+00  0.00000000000E+00  0.91224842315E+03  0.91224842315E+03  0.00000000000E+00 0. -1.
          1   -1    0    0  502    0 -0.00000000000E+00 -0.00000000000E+00 -0.14968901604E+03  0.14968901604E+03  0.00000000000E+00 0. -1.
         23    2    1    2    0    0  0.21121813317E+02  0.43944227352E+02 -0.11025239772E+03  0.15114672620E+03  0.91172997763E+02 0.  0.
         23    2    1    2    0    0 -0.11867935784E+02 -0.13731330268E+03  0.58670539174E+03  0.60969222729E+03  0.92225833337E+02 0.  0.
        -11    1    4    4    0    0 -0.49445840945E+02 -0.51517309162E+02  0.28312757095E+03  0.29199340021E+03  0.00000000000E+00 0.  1.
         11    1    4    4    0    0  0.37577905161E+02 -0.85795993520E+02  0.30357782078E+03  0.31769882709E+03  0.00000000000E+00 0. -1.
        -13    1    3    3    0    0  0.86133208446E+01 -0.18066799601E+02  0.41298901330E+01  0.20436597963E+02  0.00000000000E+00 0.  1.
         13    1    3    3    0    0  0.12508492472E+02  0.62011026953E+02 -0.11438228786E+03  0.13071012823E+03  0.00000000000E+00 0. -1.
          1    1    1    2  501    0 -0.92538775330E+01  0.93369075330E+02  0.28610641310E+03  0.30109848570E+03  0.00000000000E+00 0. -1.
<scales pt_clust_5="13000.00000" pt_clust_6="13000.00000" pt_clust_7="13000.00000" pt_clust_8="13000.00000" pt_clust_9="13000.00000"></scales>
<clustering>
<clus scale="   91.173">  7  8 -1 -1</clus>
<clus scale="   92.226">  5  6 -1 -1</clus>
<clus scale="   93.827">  5  9 -1 -1</clus>
<clus scale="  103.391">  2  7  1 -1</clus>
<clus scale="  260.268">  1  5  2 -1</clus>
</clustering>
</event>
<event>
 9    1  0.3303741E-006  0.2119265E+03  0.7546771E-02  0.1174952E+00
          1   -1    0    0  502    0 -0.00000000000E+00  0.00000000000E+00  0.27032462952E+03  0.27032462952E+03  0.00000000000E+00 0. -1.
         21   -1    0    0  501  502  0.00000000000E+00 -0.00000000000E+00 -0.11501679451E+03  0.11501679451E+03  0.00000000000E+00 0.  1.
         23    2    1    2    0    0 -0.20106967988E+02  0.11704491879E+01  0.14566785080E+03  0.17319581663E+03  0.91498677740E+02 0.  0.
         23    2    1    2    0    0 -0.43780654774E+02  0.47206693666E+02  0.50090341305E+02  0.12237808721E+03  0.91225743504E+02 0.  0.
        -13    1    4    4    0    0  0.11238839402E+02  0.36431445266E+02  0.54084030518E+02  0.66171323640E+02  0.00000000000E+00 0.  1.
         13    1    4    4    0    0 -0.55019494176E+02  0.10775248401E+02 -0.39936892132E+01  0.56206763570E+02  0.00000000000E+00 0. -1.
        -13    1    3    3    0    0 -0.24855812776E+02  0.41318948386E+02  0.10649269088E+03  0.11690064215E+03  0.00000000000E+00 0. -1.
         13    1    3    3    0    0  0.47488447876E+01 -0.40148499198E+02  0.39175159917E+02  0.56295174475E+02  0.00000000000E+00 0.  1.
          1    1    1    2  501    0  0.63887622762E+02 -0.48377142854E+02 -0.40450357085E+02  0.89767520191E+02  0.00000000000E+00 0. -1.
<scales pt_clust_5="13000.00000" pt_clust_6="13000.00000" pt_clust_7="13000.00000" pt_clust_8="13000.00000" pt_clust_9="13000.00000"></scales>
<clustering>
<clus scale="   91.226">  5  6 -1 -1</clus>
<clus scale="   80.137">  5  9 -1 -1</clus>
<clus scale="   91.499">  7  8 -1 -1</clus>
<clus scale="   93.689">  1  7  2 -1</clus>
<clus scale="  211.926">  2  5  1 -1</clus>
</clustering>
</event>
<event>
 9    1  0.3303741E-006  0.8938296E+03  0.7546771E-02  0.1003012E+00
          1   -1    0    0  502    0 -0.00000000000E+00  0.00000000000E+00  0.12492258080E+04  0.12492258080E+04  0.00000000000E+00 0. -1.
         21   -1    0    0  501  502  0.00000000000E+00 -0.00000000000E+00 -0.20806892131E+03  0.20806892131E+03  0.00000000000E+00 0. -1.
         23    2    1    2    0    0 -0.79757537363E+02  0.13056003631E+02  0.87788337124E+02  0.15045004646E+03  0.91633511046E+02 0.  0.
         23    2    1    2    0    0 -0.12374689094E+02 -0.30292719309E+03  0.95132279345E+03  0.10026772310E+04  0.91807161863E+02 0.  0.
        -13    1    3    3    0    0 -0.96607399304E+02 -0.40268224077E+01  0.79123332878E+02  0.12493881184E+03  0.00000000000E+00 0.  1.
         13    1    3    3    0    0  0.16849861941E+02  0.17082826039E+02  0.86650042461E+01  0.25511234613E+02  0.00000000000E+00 0. -1.
        -13    1    4    4    0    0 -0.22942809515E+02 -0.23321773402E+03  0.59578890524E+03  0.64021973070E+03  0.00000000000E+00 0. -1.
         13    1    4    4    0    0  0.10568120421E+02 -0.69709459073E+02  0.35553388821E+03  0.36245750029E+03  0.00000000000E+00 0.  1.
          1    1    1    2  501    0  0.92132226457E+02  0.28987118946E+03  0.20457560795E+01  0.30416745182E+03  0.00000000000E+00 0. -1.
<scales pt_clust_5="13000.00000" pt_clust_6="13000.00000" pt_clust_7="13000.00000" pt_clust_8="13000.00000" pt_clust_9="13000.00000"></scales>
<clustering>
<clus scale="   91.634">  5  6 -1 -1</clus>
<clus scale="   91.807">  7  8 -1 -1</clus>
<clus scale="  122.182">  1  5  2 -1</clus>
<clus scale="  302.767">  7  9 -1 -1</clus>
<clus scale="  893.830">  2  5  1 -1</clus>
</clustering>
</event>
<event>
 9    1  0.3303741E-006  0.1698366E+03  0.7546771E-02  0.1192020E+00
         21   -1    0    0  501  502  0.00000000000E+00  0.00000000000E+00  0.39320778460E+03  0.39320778460E+03  0.00000000000E+00 0. -1.
          1   -1    0    0  502    0 -0.00000000000E+00 -0.00000000000E+00 -0.56414394420E+02  0.56414394420E+02  0.00000000000E+00 0. -1.
         23    2    1    2    0    0  0.84328678088E+02  0.14433010059E+02  0.10795782829E+03  0.16464818262E+03  0.90191427667E+02 0.  0.
         23    2    1    2    0    0 -0.43738695161E+02 -0.25765944801E+02  0.85511243441E+02  0.13558242240E+03  0.92159986665E+02 0.  0.
        -11    1    4    4    0    0 -0.10361020801E+02  0.34661897337E+02  0.28747811782E+02  0.46208598348E+02  0.00000000000E+00 0. -1.
         11    1    4    4    0    0 -0.33377674360E+02 -0.60427842139E+02  0.56763431659E+02  0.89373824048E+02  0.00000000000E+00 0.  1.
        -13    1    3    3    0    0  0.20646281410E+02 -0.36312988850E+02  0.26491607109E+02  0.49464202637E+02  0.00000000000E+00 0.  1.
         13    1    3    3    0    0  0.63682396677E+02  0.50745998910E+02  0.81466221181E+02  0.11518397999E+03  0.00000000000E+00 0. -1.
          1    1    1    2  501    0 -0.40589982926E+02  0.11332934742E+02  0.14332431845E+03  0.14939157401E+03  0.00000000000E+00 0. -1.
<scales pt_clust_5="13000.00000" pt_clust_6="13000.00000" pt_clust_7="13000.00000" pt_clust_8="13000.00000" pt_clust_9="13000.00000"></scales>
<clustering>
<clus scale="   90.191">  7  8 -1 -1</clus>
<clus scale="   92.160">  5  6 -1 -1</clus>
<clus scale="   42.142">  5  9 -1 -1</clus>
<clus scale="  124.315">  2  7  1 -1</clus>
<clus scale="  169.837">  1  5  2 -1</clus>
</clustering>
</event>
<event>
 9    1  0.3303741E-006  0.2016860E+03  0.7546771E-02  0.1172549E+00
          1   -1    0    0  502    0 -0.00000000000E+00  0.00000000000E+00  0.74400173508E+03  0.74400173508E+03  0.00000000000E+00 0. -1.
         21   -1    0    0  501  502  0.00000000000E+00 -0.00000000000E+00 -0.49485864194E+02  0.49485864194E+02  0.00000000000E+00 0.  1.
         23    2    1    2    0    0  0.46430976427E+02 -0.52614002738E+02  0.63854685236E+02  0.13136165763E+03  0.90853703355E+02 0.  0.
         23    2    1    2    0    0 -0.91057638463E+02  0.30751154487E+02  0.56126735783E+03  0.57677357531E+03  0.91703779582E+02 0.  0.
        -13    1    3    3    0    0  0.66813191572E+02 -0.50908661094E+02  0.25313536313E+02  0.87729524466E+02  0.00000000000E+00 0.  1.
         13    1    3    3    0    0 -0.20382215145E+02 -0.17053416441E+01  0.38541148924E+02  0.43632133167E+02  0.00000000000E+00 0. -1.
        -13    1    4    4    0    0 -0.20717306760E+02 -0.31771447636E+02  0.19131451792E+03  0.19503814102E+03  0.00000000000E+00 0.  1.
         13    1    4    4    0    0 -0.70340331702E+02  0.62522602123E+02  0.36995283991E+03  0.38173543430E+03  0.00000000000E+00 0. -1.
          1    1    1    2  501    0  0.44626662035E+02  0.21862848251E+02  0.69393827815E+02  0.85352366323E+02  0.00000000000E+00 0. -1.
<scales pt_clust_5="13000.00000" pt_clust_6="13000.00000" pt_clust_7="13000.00000" pt_clust_8="13000.00000" pt_clust_9="13000.00000"></scales>
<clustering>
<clus scale="   90.854">  5  6 -1 -1</clus>
<clus scale="   91.704">  7  8 -1 -1</clus>
<clus scale="   49.694">  7  9 -1 -1</clus>
<clus scale="  114.798">  1  5  2 -1</clus>
<clus scale="  201.686">  2  5  1 -1</clus>
</clustering>
</event>
<event>
 9    1  0.3303741E-006  0.2206988E+03  0.7546771E-02  0.1165745E+00
         21   -1    0    0  501  502  0.00000000000E+00  0.00000000000E+00  0.65057801816E+02  0.65057801816E+02  0.00000000000E+00 0. -1.
          1   -1    0    0  502    0 -0.00000000000E+00 -0.00000000000E+00 -0.55976649469E+03  0.55976649469E+03  0.00000000000E+00 0. -1.
         23    2    1    2    0    0  0.42758636780E+02  0.17569462025E+02 -0.34056898956E+03  0.35562733833E+03  0.91359619640E+02 0.  0.
         23    2    1    2    0    0  0.25697248025E+02 -0.83408914651E+02 -0.86510966913E+02  0.15260069892E+03  0.90473367987E+02 0.  0.
        -11    1    3    3    0    0  0.11509467195E+02  0.49314988633E+02 -0.24510855619E+03  0.25028511793E+03  0.00000000000E+00 0.  1.
         11    1    3    3    0    0  0.31249169585E+02 -0.31745526607E+02 -0.95460433368E+02  0.10534222040E+03  0.00000000000E+00 0. -1.
        -13    1    4    4    0    0 -0.23541463888E+02 -0.62642648891E+00 -0.38123003667E+02  0.44810225851E+02  0.00000000000E+00 0.  1.
         13    1    4    4    0    0  0.49238711913E+02 -0.82782488162E+02 -0.48387963246E+02  0.10779047307E+03  0.00000000000E+00 0. -1.
          1    1    1    2  501    0 -0.68455884805E+02  0.65839452625E+02 -0.67628736401E+02  0.11659625926E+03  0.00000000000E+00 0. -1.
<scales pt_clust_5="13000.00000" pt_clust_6="13000.00000" pt_clust_7="13000.00000" pt_clust_8="13000.00000" pt_clust_9="13000.00000"></scales>
<clustering>
<clus scale="   90.473">  7  8 -1 -1</clus>
<clus scale="   91.360">  5  6 -1 -1</clus>
<clus scale="   94.979">  7  9 -1 -1</clus>
<clus scale="  102.389">  2  5  1 -1</clus>
<clus scale="  220.699">  1  5  2 -1</clus>
</clustering>
</event>
<event>
 9    1  0.3303741E-006  0.2253010E+03  0.7546771E-02  0.1150074E+00
          2   -1    0    0  502    0 -0.00000000000E+00  0.00000000000E+00  0.36741684940E+03  0.36741684940E+03  0.00000000000E+00 0. -1.
         21   -1    0    0  501  502  0.00000000000E+00 -0.00000000000E+00 -0.90572078748E+02  0.90572078748E+02  0.00000000000E+00 0. -1.
         23    2    1    2    0    0  0.98393693002E+00 -0.10454760022E+03  0.91456849488E+02  0.16621979531E+03  0.91287984928E+02 0.  0.
         23    2    1    2    0    0 -0.32047162838E+02 -0.10460998207E+02  0.12161312959E+03  0.15664280025E+03  0.92794183290E+02 0.  0.
        -11    1    4    4    0    0  0.70469072161E+01 -0.25812310962E+02 -0.12631701945E+01  0.26786748542E+02  0.00000000000E+00 0.  1.
         11    1    4    4    0    0 -0.39094070054E+02  0.15351312755E+02  0.12287629979E+03  0.12985605171E+03  0.00000000000E+00 0. -1.
        -11    1    3    3    0    0 -0.16115038454E+02 -0.26934958305E+02 -0.13834883216E+02  0.34301464063E+02  0.00000000000E+00 0.  1.
         11    1    3    3    0    0  0.17098975384E+02 -0.77612641916E+02  0.10529173270E+03  0.13191833125E+03  0.00000000000E+00 0. -1.
          2    1    1    2  501    0  0.31063225908E+02  0.11500859843E+03  0.63774791569E+02  0.13512633258E+03  0.00000000000E+00 0. -1.
<scales pt_clust_5="13000.00000" pt_clust_6="13000.00000" pt_clust_7="13000.00000" pt_clust_8="13000.00000" pt_clust_9="13000.00000"></scales>
<clustering>
<clus scale="   91.288">  7  8 -1 -1</clus>
<clus scale="   92.794">  5  6 -1 -1</clus>
<clus scale="  119.130">  5  9 -1 -1</clus>
<clus scale="  138.797">  1  7  2 -1</clus>
<clus scale="  225.301">  2  5  1 -1</clus>
</clustering>
</event>
<event>
 9    1  0.3303741E-006  0.2202125E+03  0.7546771E-02  0.1170610E+00
          1   -1    0    0  502    0 -0.00000000000E+00  0.00000000000E+00  0.32699406208E+03  0.32699406208E+03  0.00000000000E+00 0. -1.
         21   -1    0    0  501  502  0.00000000000E+00 -0.00000000000E+00 -0.11181456558E+03  0.11181456558E+03  0.00000000000E+00 0. -1.
         23    2    1    2    0    0 -0.14244231734E+02  0.54978182589E+01  0.19742005798E+03  0.21788120496E+03  0.90908833659E+02 0.  0.
         23    2    1    2    0    0 -0.73370891794E+02 -0.12750242104E+01 -0.31424524187E+02  0.12036249817E+03  0.90081722868E+02 0.  0.
        -11    1    4    4    0    0 -0.48653957130E+02  0.34883617530E+02 -0.44566520349E+02  0.74634101137E+02  0.00000000000E+00 0. -1.
         11    1    4    4    0    0 -0.24716934663E+02 -0.36158641741E+02  0.13141996162E+02  0.45728397029E+02  0.00000000000E+00 0.  1.
        -13    1    3    3    0    0 -0.49327928442E+02  0.20103483806E+02  0.99815472224E+02  0.11313939668E+03  0.00000000000E+00 0.  1.
         13    1    3    3    0    0  0.35083696707E+02 -0.14605665547E+02  0.97604585755E+02  0.10474180828E+03  0.00000000000E+00 0. -1.
          1    1    1    2  501    0  0.87615123528E+02 -0.42227940485E+01  0.49183962705E+02  0.10056492454E+03  0.00000000000E+00 0. -1.
<scales pt_clust_5="13000.00000" pt_clust_6="13000.00000" pt_clust_7="13000.00000" pt_clust_8="13000.00000" pt_clust_9="13000.00000"></scales>
<clustering>
<clus scale="   90.082">  5  6 -1 -1</clus>
<clus scale="   87.717">  5  9 -1 -1</clus>
<clus scale="   90.909">  7  8 -1 -1</clus>
<clus scale="   92.182">  1  7  2 -1</clus>
<clus scale="  220.212">  2  5  1 -1</clus>
</clustering>
</event>
<event>
 9    1  0.3303741E-006  0.1754864E+03  0.7546771E-02  0.1196885E+00
         21   -1    0    0  501  502  0.00000000000E+00  0.00000000000E+00  0.25055745150E+03  0.25055745150E+03  0.00000000000E+00 0. -1.
          2   -1    0    0  502    0 -0.00000000000E+00 -0.00000000000E+00 -0.13861769808E+03  0.13861769808E+03  0.00000000000E+00 0. -1.
         23    2    1    2    0    0 -0.44425450644E+02  0.16996211556E+01 -0.80025626685E+02  0.12908636958E+03  0.91009233087E+02 0.  0.
         23    2    1    2    0    0  0.71433719616E+01  0.18943488918E+02  0.19592385145E+03  0.21728970431E+03  0.91753890922E+02 0.  0.
        -13    1    4    4    0    0  0.17153564569E+02 -0.34900882633E+02  0.72833518554E+02  0.82565354786E+02  0.00000000000E+00 0.  1.
         13    1    4    4    0    0 -0.10010192607E+02  0.53844371551E+02  0.12309033289E+03  0.13472434953E+03  0.00000000000E+00 0. -1.
        -13    1    3    3    0    0 -0.25129040083E+02  0.46295553137E+02 -0.40339888526E+02  0.66347972856E+02  0.00000000000E+00 0. -1.
         13    1    3    3    0    0 -0.19296410560E+02 -0.44595931982E+02 -0.39685738159E+02  0.62738396720E+02  0.00000000000E+00 0.  1.
          2    1    1    2  501    0  0.37282078682E+02 -0.20643110073E+02 -0.39584713434E+01  0.42799075688E+02  0.00000000000E+00 0. -1.
<scales pt_clust_5="13000.00000" pt_clust_6="13000.00000" pt_clust_7="13000.00000" pt_clust_8="13000.00000" pt_clust_9="13000.00000"></scales>
<clustering>
<clus scale="   91.009">  7  8 -1 -1</clus>
<clus scale="   91.754">  5  6 -1 -1</clus>
<clus scale="   42.616">  5  9 -1 -1</clus>
<clus scale="  101.288">  2  7  1 -1</clus>
<clus scale="  175.486">  1  5  2 -1</clus>
</clustering>
</event>
<event>
 9    1  0.3303741E-006  0.2187781E+03  0.7546771E-02  0.1156393E+00
         21   -1    0    0  501  502  0.00000000000E+00  0.00000000000E+00  0.88381873157E+02  0.88381873157E+02  0.00000000000E+00 0. -1.
          2   -1    0    0  502    0 -0.00000000000E+00 -0.00000000000E+00 -0.34536364552E+03  0.34536364552E+03  0.00000000000E+00 0. -1.
         23    2    1    2    0    0  0.57473135455E+02 -0.83272191350E+02 -0.98460771214E+02  0.16357377998E+03  0.82610162064E+02 0.  0.
         23    2    1    2    0    0 -0.95812070049E+02  0.33790380400E+02 -0.15769746502E+03  0.20756980796E+03  0.88853768230E+02 0.  0.
        -13    1    3    3    0    0  0.76233619790E+02 -0.46968687501E+02 -0.71903549532E+02  0.11483789804E+03  0.00000000000E+00 0.  1.
         13    1    3    3    0    0 -0.18760484335E+02 -0.36303503848E+02 -0.26557221682E+02  0.48735881931E+02  0.00000000000E+00 0. -1.
        -13    1    4    4    0    0 -0.33722783154E+02 -0.24844836171E+02 -0.22202450553E+02  0.47407180876E+02  0.00000000000E+00 0.  1.
         13    1    4    4    0    0 -0.62089286894E+02  0.58635216571E+02 -0.13549501447E+03  0.16016262709E+03  0.00000000000E+00 0. -1.
          2    1    1    2  501    0  0.38338934594E+02  0.49481810950E+02 -0.82353612749E+00  0.62601930740E+02  0.00000000000E+00 0. -1.
<scales pt_clust_5="13000.00000" pt_clust_6="13000.00000" pt_clust_7="13000.00000" pt_clust_8="13000.00000" pt_clust_9="13000.00000"></scales>
<clustering>
<clus scale="   82.610">  5  6 -1 -1</clus>
<clus scale="   88.854">  7  8 -1 -1</clus>
<clus scale="   62.597">  7  9 -1 -1</clus>
<clus scale="  130.621">  2  5  1 -1</clus>
<clus scale="  218.778">  1  5  2 -1</clus>
</clustering>
</event>
<event>
 9    1  0.3303741E-006  0.1702611E+03  0.7546771E-02  0.1192753E+00
         21   -1    0    0  501  502  0.00000000000E+00  0.00000000000E+00  0.34111676669E+02  0.34111676669E+02  0.00000000000E+00 0.  1.
          1   -1    0    0  502    0 -0.00000000000E+00 -0.00000000000E+00 -0.70196915827E+03  0.70196915827E+03  0.00000000000E+00 0. -1.
         23    2    1    2    0    0  0.46730661754E+01  0.81282478070E+02 -0.16273309941E+03  0.20303347162E+03  0.90065810191E+02 0.  0.
         23    2    1    2    0    0 -0.59558085298E+01 -0.27299263089E+02 -0.42501896425E+03  0.43644140641E+03  0.95180144111E+02 0.  0.
        -11    1    3    3    0    0 -0.11699240628E+02  0.43293726616E+02 -0.11573646011E+02  0.46315961369E+02  0.00000000000E+00 0. -1.
         11    1    3    3    0    0  0.16372306804E+02  0.37988751454E+02 -0.15115945340E+03  0.15671751025E+03  0.00000000000E+00 0.  1.
        -11    1    4    4    0    0 -0.14486931859E+02  0.32874566026E+02 -0.11351749495E+03  0.11906649380E+03  0.00000000000E+00 0.  1.
         11    1    4    4    0    0  0.85311233293E+01 -0.60173829115E+02 -0.31150146931E+03  0.31737491261E+03  0.00000000000E+00 0. -1.
          1    1    1    2  501    0  0.12827423544E+01 -0.53983214981E+02 -0.80105417935E+02  0.96605956909E+02  0.00000000000E+00 0. -1.
<scales pt_clust_5="13000.00000" pt_clust_6="13000.00000" pt_clust_7="13000.00000" pt_clust_8="13000.00000" pt_clust_9="13000.00000"></scales>
<clustering>
<clus scale="   90.066">  5  6 -1 -1</clus>
<clus scale="   95.180">  7  8 -1 -1</clus>
<clus scale="   53.998">  7  9 -1 -1</clus>
<clus scale="  121.411">  2  5  1 -1</clus>
<clus scale="  170.261">  1  5  2 -1</clus>
</clustering>
</event>
<event>
 9    1  0.3303741E-006  0.2107407E+03  0.7546771E-02  0.1168031E+00
         21   -1    0    0  501  502  0.00000000000E+00  0.00000000000E+00  0.58928779884E+02  0.58928779884E+02  0.00000000000E+00 0. -1.
          3   -1    0    0  502    0 -0.00000000000E+00 -0.00000000000E+00 -0.46276896367E+03  0.46276896367E+03  0.00000000000E+00 0. -1.
         23    2    1    2    0    0 -0.63657301186E+02 -0.82402357154E+01 -0.19704255293E+03  0.22644041051E+03  0.91265208981E+02 0.  0.
         23    2    1    2    0    0 -0.17017770076E+02 -0.48543003243E+01 -0.19049708530E+03  0.21191681599E+03  0.91139610825E+02 0.  0.
        -11    1    3    3    0    0 -0.42492437314E+02  0.29303559818E+02 -0.45233889377E+02  0.68632431073E+02  0.00000000000E+00 0. -1.
         11    1    3    3    0    0 -0.21164863871E+02 -0.37543795534E+02 -0.15180866355E+03  0.15780797944E+03  0.00000000000E+00 0.  1.
        -13    1    4    4    0    0 -0.76316468839E+01 -0.48000546474E+02 -0.10428108427E+03  0.11505146254E+03  0.00000000000E+00 0. -1.
         13    1    4    4    0    0 -0.93861231921E+01  0.43146246150E+02 -0.86216001026E+02  0.96865353447E+02  0.00000000000E+00 0.  1.
          3    1    1    2  501    0  0.80675071262E+02  0.13094536040E+02 -0.16300545562E+02  0.83340517054E+02  0.00000000000E+00 0. -1.
<scales pt_clust_5="13000.00000" pt_clust_6="13000.00000" pt_clust_7="13000.00000" pt_clust_8="13000.00000" pt_clust_9="13000.00000"></scales>
<clustering>
<clus scale="   91.140">  7  8 -1 -1</clus>
<clus scale="   81.731">  7  9 -1 -1</clus>
<clus scale="   91.265">  5  6 -1 -1</clus>
<clus scale="  111.577">  2  5  1 -1</clus>
<clus scale="  210.741">  1  5  2 -1</clus>
</clustering>
</event>
<event>
 9    1  0.3303741E-006  0.3246270E+03  0.7546771E-02  0.1116625E+00
          1   -1    0    0  502    0 -0.00000000000E+00  0.00000000000E+00  0.22436799201E+03  0.22436799201E+03  0.00000000000E+00 0. -1.
         21   -1    0    0  501  502  0.00000000000E+00 -0.00000000000E+00 -0.21751826577E+03  0.21751826577E+03  0.00000000000E+00 0. -1.
         23    2    1    2    0    0 -0.35767143796E+02  0.33375123784E+02  0.46511145340E+02  0.11484536489E+03  0.92913851138E+02 0.  0.
         23    2    1    2    0    0 -0.51499318970E+02 -0.45618723440E+02  0.10394373267E+03  0.15855415493E+03  0.97989145838E+02 0.  0.
        -11    1    3    3    0    0 -0.32671306131E+02 -0.27771315779E+02  0.11835889412E+02  0.44483126043E+02  0.00000000000E+00 0.  1.
         11    1    3    3    0    0 -0.30958376642E+01  0.61146439562E+02  0.34675255927E+02  0.70362238847E+02  0.00000000000E+00 0. -1.
        -13    1    4    4    0    0  0.28991137908E+02 -0.20087073755E+02  0.31832070040E+02  0.47510601893E+02  0.00000000000E+00 0.  1.
         13    1    4    4    0    0 -0.80490456878E+02 -0.25531649685E+02  0.72111662628E+02  0.11104355304E+03  0.00000000000E+00 0. -1.
          1    1    1    2  501    0  0.87266462766E+02  0.12243599657E+02 -0.14360515177E+03  0.16848673796E+03  0.00000000000E+00 0. -1.
<scales pt_clust_5="13000.00000" pt_clust_6="13000.00000" pt_clust_7="13000.00000" pt_clust_8="13000.00000" pt_clust_9="13000.00000"></scales>
<clustering>
<clus scale="   92.914">  5  6 -1 -1</clus>
<clus scale="   97.989">  7  8 -1 -1</clus>
<clus scale="   88.121">  7  9 -1 -1</clus>
<clus scale="  105.006">  1  5  2 -1</clus>
<clus scale="  324.627">  2  5  1 -1</clus>
</clustering>
</event>
<event>
 9    1  0.3303741E-006  0.4331086E+03  0.7546771E-02  0.1083563E+00
         21   -1    0    0  501  502  0.00000000000E+00  0.00000000000E+00  0.62723777120E+02  0.62723777120E+02  0.00000000000E+00 0. -1.
          2   -1    0    0  502    0 -0.00000000000E+00 -0.00000000000E+00 -0.13266551001E+04  0.13266551001E+04  0.00000000000E+00 0. -1.
         23    2    1    2    0    0  0.16830392102E+02  0.48364391155E+02 -0.50416448615E+03  0.51483403310E+03  0.90828828659E+02 0.  0.
         23    2    1    2    0    0 -0.20008103841E+03 -0.47084382550E+02 -0.56027906983E+03  0.60366146151E+03  0.90802879926E+02 0.  0.
        -13    1    4    4    0    0 -0.49901734295E+02  0.80645436428E+01 -0.24446428800E+03  0.24963575076E+03  0.00000000000E+00 0.  1.
         13    1    4    4    0    0 -0.15017930412E+03 -0.55148926193E+02 -0.31581478183E+03  0.35402571074E+03  0.00000000000E+00 0. -1.
        -13    1    3    3    0    0  0.37656972664E+02 -0.12633733350E+02 -0.20299627712E+03  0.20684570901E+03  0.00000000000E+00 0.  1.
         13    1    3    3    0    0 -0.20826580562E+02  0.60998124505E+02 -0.30116820903E+03  0.30798832410E+03  0.00000000000E+00 0. -1.
          2    1    1    2  501    0  0.18325064631E+03 -0.12800086050E+01 -0.19948776702E+03  0.27088338263E+03  0.00000000000E+00 0. -1.
<scales pt_clust_5="13000.00000" pt_clust_6="13000.00000" pt_clust_7="13000.00000" pt_clust_8="13000.00000" pt_clust_9="13000.00000"></scales>
<clustering>
<clus scale="   90.803">  5  6 -1 -1</clus>
<clus scale="   90.829">  7  8 -1 -1</clus>
<clus scale="  104.270">  2  7  1 -1</clus>
<clus scale="  188.519">  5  9 -1 -1</clus>
<clus scale="  433.109">  1  5  2 -1</clus>
</clustering>
</event>
<event>
 9    1  0.3303741E-006  0.2895174E+03  0.7546771E-02  0.1120202E+00
         -1   -1    0    0    0  501 -0.00000000000E+00  0.00000000000E+00  0.63212887999E+03  0.63212887999E+03  0.00000000000E+00 0.  1.
         21   -1    0    0  501  502  0.00000000000E+00 -0.00000000000E+00 -0.72917276377E+02  0.72917276377E+02  0.00000000000E+00 0.  1.
         23    2    1    2    0    0 -0.82729793804E+02 -0.36941140298E+02  0.13251343028E+03  0.18939930518E+03  0.10051577473E+03 0.  0.
         23    2    1    2    0    0 -0.53348158666E+02 -0.51625361412E+02  0.11276862670E+03  0.16221652619E+03  0.89923490968E+02 0.  0.
        -11    1    4    4    0    0  0.13181620490E+02 -0.19488968142E+02 -0.41674628202E+01  0.23894408223E+02  0.00000000000E+00 0. -1.
         11    1    4    4    0    0 -0.66529779156E+02 -0.32136393270E+02  0.11693608952E+03  0.13832211797E+03  0.00000000000E+00 0.  1.
        -13    1    3    3    0    0 -0.17526016592E+02  0.13245951150E+02  0.97557197969E+02  0.10000011677E+03  0.00000000000E+00 0. -1.
         13    1    3    3    0    0 -0.65203777212E+02 -0.50187091448E+02  0.34956232307E+02  0.89399188407E+02  0.00000000000E+00 0.  1.
         -1    1    1    2    0  502  0.13607795247E+03  0.88566501710E+02  0.31392954664E+03  0.35343032500E+03  0.00000000000E+00 0.  1.
<scales pt_clust_5="13000.00000" pt_clust_6="13000.00000" pt_clust_7="13000.00000" pt_clust_8="13000.00000" pt_clust_9="13000.00000"></scales>
<clustering>
<clus scale="   89.923">  5  6 -1 -1</clus>
<clus scale="  100.516">  7  8 -1 -1</clus>
<clus scale="  135.323">  1  7  2 -1</clus>
<clus scale="   99.494">  5  9 -1 -1</clus>
<clus scale="  289.517">  2  5  1 -1</clus>
</clustering>
</event>
<event>
 9    1  0.3840860E-006  0.3245717E+03  0.7546771E-02  0.1086007E+00
         21   -1    0    0  501  502  0.00000000000E+00  0.00000000000E+00  0.12199107799E+03  0.12199107799E+03  0.00000000000E+00 0. -1.
          2   -1    0    0  502    0 -0.00000000000E+00 -0.00000000000E+00 -0.70505768272E+03  0.70505768272E+03  0.00000000000E+00 0. -1.
         23    2    1    2    0    0  0.48907711135E+02  0.20790941204E+03 -0.11925261432E+03  0.26094785472E+03  0.90853228010E+02 0.  0.
         23    2    1    2    0    0  0.32820555539E+02 -0.34728489313E+02 -0.29067765992E+03  0.30793946327E+03  0.89721537138E+02 0.  0.
        -11    1    3    3    0    0  0.39082259527E+02  0.21123698215E+02 -0.15478684705E+02  0.47044907442E+02  0.00000000000E+00 0.  1.
         11    1    3    3    0    0  0.98254516078E+01  0.18678571382E+03 -0.10377392962E+03  0.21390294728E+03  0.00000000000E+00 0. -1.
        -11    1    4    4    0    0 -0.76800606088E+01  0.24904129402E+02 -0.11754459476E+03  0.12039904796E+03  0.00000000000E+00 0.  1.
         11    1    4    4    0    0  0.40500616148E+02 -0.59632618715E+02 -0.17313306517E+03  0.18754041532E+03  0.00000000000E+00 0. -1.
          2    1    1    2  501    0 -0.81728266674E+02 -0.17318092272E+03 -0.17313633049E+03  0.25816144271E+03  0.00000000000E+00 0. -1.
<scales pt_clust_5="13000.00000" pt_clust_6="13000.00000" pt_clust_7="13000.00000" pt_clust_8="13000.00000" pt_clust_9="13000.00000"></scales>
<clustering>
<clus scale="   89.722">  7  8 -1 -1</clus>
<clus scale="   90.853">  5  6 -1 -1</clus>
<clus scale="  191.497">  7  9 -1 -1</clus>
<clus scale="  232.105">  2  5  1 -1</clus>
<clus scale="  324.572">  1  5  2 -1</clus>
</clustering>
</event>
<event>
 9    1  0.3303741E-006  0.6479137E+03  0.7546771E-02  0.9826740E-01
          2   -1    0    0  502    0 -0.00000000000E+00  0.00000000000E+00  0.14505792085E+04  0.14505792085E+04  0.00000000000E+00 0. -1.
         21   -1    0    0  501  502  0.00000000000E+00 -0.00000000000E+00 -0.32619414973E+03  0.32619414973E+03  0.00000000000E+00 0.  1.
         23    2    1    2    0    0  0.39338321308E+03 -0.46398708273E+03  0.19721688469E+03  0.64565312178E+03  0.89101564466E+02 0.  0.
         23    2    1    2    0    0 -0.17959965208E+03  0.24543360798E+03  0.62789982529E+03  0.70329950664E+03  0.88759869811E+02 0.  0.
        -11    1    4    4    0    0 -0.99552498420E+02  0.19575662400E+03  0.48131118086E+03  0.52904802108E+03  0.00000000000E+00 0. -1.
         11    1    4    4    0    0 -0.80047153662E+02  0.49676983989E+02  0.14658864443E+03  0.17425148557E+03  0.00000000000E+00 0.  1.
        -11    1    3    3    0    0  0.17548472015E+02 -0.60612096682E+02  0.13581622740E+02  0.64546383403E+02  0.00000000000E+00 0. -1.
         11    1    3    3    0    0  0.37583474107E+03 -0.40337498604E+03  0.18363526195E+03  0.58110673838E+03  0.00000000000E+00 0.  1.
          2    1    1    2  501    0 -0.21378356100E+03  0.21855347474E+03  0.29926834881E+03  0.42782072983E+03  0.00000000000E+00 0. -1.
<scales pt_clust_5="13000.00000" pt_clust_6="13000.00000" pt_clust_7="13000.00000" pt_clust_8="13000.00000" pt_clust_9="13000.00000"></scales>
<clustering>
<clus scale="   88.760">  5  6 -1 -1</clus>
<clus scale="   89.102">  7  8 -1 -1</clus>
<clus scale="  305.727">  5  9 -1 -1</clus>
<clus scale="  614.796">  1  7  2 -1</clus>
<clus scale="  647.914">  2  5  1 -1</clus>
</clustering>
</event>
<event>
 9    1  0.3303741E-006  0.1964153E+03  0.7546771E-02  0.1183444E+00
         -3   -1    0    0    0  501 -0.00000000000E+00  0.00000000000E+00  0.55384803037E+03  0.55384803037E+03  0.00000000000E+00 0.  1.
         21   -1    0    0  501  502  0.00000000000E+00 -0.00000000000E+00 -0.45514351357E+02  0.45514351357E+02  0.00000000000E+00 0. -1.
         23    2    1    2    0    0 -0.45097088653E+01 -0.34495274876E+02  0.28913292145E+03  0.30503615339E+03  0.90768646255E+02 0.  0.
         23    2    1    2    0    0 -0.66733676430E+02  0.38514939252E+02  0.11433519995E+03  0.16748552973E+03  0.95089855435E+02 0.  0.
        -11    1    4    4    0    0  0.12853322813E+02 -0.15369877028E+02  0.44121485933E+02  0.48457677907E+02  0.00000000000E+00 0.  1.
         11    1    4    4    0    0 -0.79586999244E+02  0.53884816280E+02  0.70213714017E+02  0.11902785183E+03  0.00000000000E+00 0. -1.
        -13    1    3    3    0    0  0.79386085865E+01  0.27743131475E+02  0.51084956515E+02  0.58671761798E+02  0.00000000000E+00 0.  1.
         13    1    3    3    0    0 -0.12448317452E+02 -0.62238406351E+02  0.23804796494E+03  0.24636439159E+03  0.00000000000E+00 0. -1.
         -3    1    1    2    0  502  0.71243385296E+02 -0.40196643757E+01  0.10486555762E+03  0.12684069861E+03  0.00000000000E+00 0.  1.
<scales pt_clust_5="13000.00000" pt_clust_6="13000.00000" pt_clust_7="13000.00000" pt_clust_8="13000.00000" pt_clust_9="13000.00000"></scales>
<clustering>
<clus scale="   90.769">  7  8 -1 -1</clus>
<clus scale="   95.090">  5  6 -1 -1</clus>
<clus scale="   71.357">  5  9 -1 -1</clus>
<clus scale="   97.207">  1  7  2 -1</clus>
<clus scale="  196.415">  2  5  1 -1</clus>
</clustering>
</event>
<event>
 9    1  0.3303741E-006  0.3218255E+03  0.7546771E-02  0.1105102E+00
         21   -1    0    0  501  502  0.00000000000E+00  0.00000000000E+00  0.17563818250E+03  0.17563818250E+03  0.00000000000E+00 0. -1.
         -4   -1    0    0    0  501 -0.00000000000E+00 -0.00000000000E+00 -0.53811950937E+03  0.53811950937E+03  0.00000000000E+00 0.  1.
         23    2    1    2    0    0  0.11094377518E+03  0.28496402279E+01 -0.36432914227E+03  0.39192692395E+03  0.92489718972E+02 0.  0.
         23    2    1    2    0    0 -0.88216745596E+02  0.13054620494E+03  0.91373656146E+01  0.18631653646E+03  0.99024514538E+02 0.  0.
        -11    1    4    4    0    0  0.20037912594E+02  0.58324996458E+01 -0.68320380937E+00  0.20880679124E+02  0.00000000000E+00 0.  1.
         11    1    4    4    0    0 -0.10825465819E+03  0.12471370530E+03  0.98205694240E+01  0.16543585734E+03  0.00000000000E+00 0. -1.
        -13    1    3    3    0    0  0.24346698367E+02  0.13878083166E+02 -0.14861680617E+02  0.31721167451E+02  0.00000000000E+00 0. -1.
         13    1    3    3    0    0  0.86597076812E+02 -0.11028442938E+02 -0.34946746165E+03  0.36020575650E+03  0.00000000000E+00 0.  1.
         -4    1    1    2    0  502 -0.22727029583E+02 -0.13339584517E+03 -0.72895502185E+01  0.13551423145E+03  0.00000000000E+00 0.  1.
<scales pt_clust_5="13000.00000" pt_clust_6="13000.00000" pt_clust_7="13000.00000" pt_clust_8="13000.00000" pt_clust_9="13000.00000"></scales>
<clustering>
<clus scale="   92.490">  7  8 -1 -1</clus>
<clus scale="   99.025">  5  6 -1 -1</clus>
<clus scale="  135.318">  5  9 -1 -1</clus>
<clus scale="  144.468">  2  7  1 -1</clus>
<clus scale="  321.825">  1  5  2 -1</clus>
</clustering>
</event>
<event>
 9    1  0.3303741E-006  0.2853872E+03  0.7546771E-02  0.1122919E+00
         21   -1    0    0  501  502  0.00000000000E+00  0.00000000000E+00  0.18709146061E+03  0.18709146061E+03  0.00000000000E+00 0. -1.
          3   -1    0    0  502    0 -0.00000000000E+00 -0.00000000000E+00 -0.75266053616E+03  0.75266053616E+03  0.00000000000E+00 0. -1.
         23    2    1    2    0    0 -0.95607360914E+02  0.78973499470E+00 -0.63290414570E+03  0.64652874795E+03  0.91051486180E+02 0.  0.
         23    2    1    2    0    0  0.46342934610E+02 -0.90064635344E+02 -0.41213486913E+02  0.14429447130E+03  0.94143703003E+02 0.  0.
        -13    1    4    4    0    0  0.38900604723E+02 -0.10977283236E+03 -0.40196121712E+02  0.12320332776E+03  0.00000000000E+00 0. -1.
         13    1    4    4    0    0  0.74423298878E+01  0.19708197011E+02 -0.10173652018E+01  0.21091143533E+02  0.00000000000E+00 0.  1.
        -13    1    3    3    0    0  0.90706153574E+01 -0.22077384227E+02 -0.87341357539E+02  0.90543910309E+02  0.00000000000E+00 0.  1.
         13    1    3    3    0    0 -0.10467797627E+03  0.22867119221E+02 -0.54556278816E+03  0.55598483764E+03  0.00000000000E+00 0. -1.
          3    1    1    2  501    0  0.49264426304E+02  0.89274900350E+02  0.10854855707E+03  0.14892877752E+03  0.00000000000E+00 0. -1.
<scales pt_clust_5="13000.00000" pt_clust_6="13000.00000" pt_clust_7="13000.00000" pt_clust_8="13000.00000" pt_clust_9="13000.00000"></scales>
<clustering>
<clus scale="   91.051">  7  8 -1 -1</clus>
<clus scale="   94.144">  5  6 -1 -1</clus>
<clus scale="  101.966">  5  9 -1 -1</clus>
<clus scale="  132.029">  2  7  1 -1</clus>
<clus scale="  285.387">  1  5  2 -1</clus>
</clustering>
</event>
<event>
 9    1  0.3303741E-006  0.2439568E+03  0.7546771E-02  0.1121709E+00
         -1   -1    0    0    0  501 -0.00000000000E+00  0.00000000000E+00  0.36730608203E+02  0.36730608203E+02  0.00000000000E+00 0.  1.
         21   -1    0    0  501  502  0.00000000000E+00 -0.00000000000E+00 -0.14528872728E+04  0.14528872728E+04  0.00000000000E+00 0.  1.
         23    2    1    2    0    0  0.19712476014E+03 -0.60055555249E+00 -0.69158230872E+03  0.72507690508E+03  0.92692485274E+02 0.  0.
         23    2    1    2    0    0 -0.18172567667E+03 -0.24099754583E+02 -0.54016131100E+03  0.57784494432E+03  0.92333731887E+02 0.  0.
        -13    1    3    3    0    0  0.80674441860E+02  0.45316101745E+02 -0.28187491834E+03  0.29667386848E+03  0.00000000000E+00 0.  1.
         13    1    3    3    0    0  0.11645031828E+03 -0.45916657297E+02 -0.40970739038E+03  0.42840303661E+03  0.00000000000E+00 0. -1.
        -13    1    4    4    0    0 -0.68081628229E+02 -0.30855478998E+02 -0.33476375159E+03  0.34300719827E+03  0.00000000000E+00 0. -1.
         13    1    4    4    0    0 -0.11364404845E+03  0.67557244155E+01 -0.20539755941E+03  0.23483774606E+03  0.00000000000E+00 0.  1.
         -1    1    1    2    0  502 -0.15399083468E+02  0.24700310135E+02 -0.18441304484E+03  0.18669603156E+03  0.00000000000E+00 0.  1.
<scales pt_clust_5="13000.00000" pt_clust_6="13000.00000" pt_clust_7="13000.00000" pt_clust_8="13000.00000" pt_clust_9="13000.00000"></scales>
<clustering>
<clus scale="   92.334">  7  8 -1 -1</clus>
<clus scale="   29.107">  7  9 -1 -1</clus>
<clus scale="   92.692">  5  6 -1 -1</clus>
<clus scale="  217.831">  1  5  2 -1</clus>
<clus scale="  243.957">  2  5  1 -1</clus>
</clustering>
</event>
<event>
 9    1  0.3303741E-006  0.1924855E+03  0.7546771E-02  0.1189495E+00
         -1   -1    0    0    0  501 -0.00000000000E+00  0.00000000000E+00  0.91788234494E+02  0.91788234494E+02  0.00000000000E+00 0.  1.
         21   -1    0    0  501  502  0.00000000000E+00 -0.00000000000E+00 -0.23942489969E+03  0.23942489969E+03  0.00000000000E+00 0. -1.
         23    2    1    2    0    0 -0.10412352088E+02  0.10976431773E+02 -0.96289372836E+02  0.13199662258E+03  0.89008796876E+02 0.  0.
         23    2    1    2    0    0 -0.98146059939E+01 -0.27895727585E+01  0.49724866482E+02  0.95815661574E+02  0.81264816799E+02 0.  0.
        -13    1    3    3    0    0  0.32554278152E+02 -0.42419646319E+01 -0.98503748883E+01  0.34275431075E+02  0.00000000000E+00 0.  1.
         13    1    3    3    0    0 -0.42966630240E+02  0.15218396405E+02 -0.86438997948E+02  0.97721191507E+02  0.00000000000E+00 0. -1.
        -13    1    4    4    0    0 -0.25514167459E+02  0.23667061081E+02  0.54519866615E+02  0.64680123509E+02  0.00000000000E+00 0.  1.
         13    1    4    4    0    0  0.15699561465E+02 -0.26456633840E+02 -0.47950001336E+01  0.31135538065E+02  0.00000000000E+00 0. -1.
         -1    1    1    2    0  502  0.20226958082E+02 -0.81868590149E+01 -0.10107215884E+03  0.10340085003E+03  0.00000000000E+00 0.  1.
<scales pt_clust_5="13000.00000" pt_clust_6="13000.00000" pt_clust_7="13000.00000" pt_clust_8="13000.00000" pt_clust_9="13000.00000"></scales>
<clustering>
<clus scale="   81.265">  7  8 -1 -1</clus>
<clus scale="   21.821">  7  9 -1 -1</clus>
<clus scale="   89.009">  5  6 -1 -1</clus>
<clus scale="   90.286">  1  5  2 -1</clus>
<clus scale="  192.486">  2  5  1 -1</clus>
</clustering>
</event>
<event>
 9    1  0.3303741E-006  0.5442171E+03  0.7546771E-02  0.1061773E+00
         21   -1    0    0  501  502  0.00000000000E+00  0.00000000000E+00  0.46958286541E+03  0.46958286541E+03  0.00000000000E+00 0. -1.
          1   -1    0    0  502    0 -0.00000000000E+00 -0.00000000000E+00 -0.23964805947E+03  0.23964805947E+03  0.00000000000E+00 0. -1.
         23    2    1    2    0    0  0.10287511663E+02  0.40309081070E+02 -0.38032113924E+02  0.10261863486E+03  0.85752478785E+02 0.  0.
         23    2    1    2    0    0  0.21800940844E+03  0.85574752574E+02  0.27531771166E+02  0.25196417705E+03  0.88751381113E+02 0.  0.
        -13    1    4    4    0    0  0.17608298587E+03  0.29624943947E+02  0.33942465264E+02  0.18175518195E+03  0.00000000000E+00 0. -1.
         13    1    4    4    0    0  0.41926422563E+02  0.55949808627E+02 -0.64106940984E+01  0.70208995101E+02  0.00000000000E+00 0.  1.
        -13    1    3    3    0    0  0.18733240972E+02  0.62341668763E+02 -0.43634225903E+02  0.78366853015E+02  0.00000000000E+00 0. -1.
         13    1    3    3    0    0 -0.84457293092E+01 -0.22032587692E+02  0.56021119781E+01  0.24251781844E+02  0.00000000000E+00 0.  1.
          1    1    1    2  501    0 -0.22829692010E+03 -0.12588383364E+03  0.24043514870E+03  0.35464811297E+03  0.00000000000E+00 0. -1.
<scales pt_clust_5="13000.00000" pt_clust_6="13000.00000" pt_clust_7="13000.00000" pt_clust_8="13000.00000" pt_clust_9="13000.00000"></scales>
<clustering>
<clus scale="   85.752">  7  8 -1 -1</clus>
<clus scale="   88.751">  5  6 -1 -1</clus>
<clus scale="   95.311">  2  7  1 -1</clus>
<clus scale="  251.309">  5  9 -1 -1</clus>
<clus scale="  544.217">  1  5  2 -1</clus>
</clustering>
</event>
<event>
 9    1  0.3303741E-006  0.2114322E+03  0.7546771E-02  0.1172272E+00
         21   -1    0    0  501  502  0.00000000000E+00  0.00000000000E+00  0.61526285144E+02  0.61526285144E+02  0.00000000000E+00 0. -1.
          3   -1    0    0  502    0 -0.00000000000E+00 -0.00000000000E+00 -0.43326466037E+03  0.43326466037E+03  0.00000000000E+00 0. -1.
         23    2    1    2    0    0 -0.21096261807E+02 -0.31015041124E+02 -0.19478780347E+03  0.21908264130E+03  0.92994248755E+02 0.  0.
         23    2    1    2    0    0  0.21299464706E+02  0.61360944627E+02 -0.20764655707E+03  0.23254398255E+03  0.82102243767E+02 0.  0.
        -11    1    3    3    0    0  0.29834171095E+02 -0.36294748760E+02 -0.11559804302E+03  0.12478098454E+03  0.00000000000E+00 0. -1.
         11    1    3    3    0    0 -0.50930432902E+02  0.52797076353E+01 -0.79189760450E+02  0.94301656764E+02  0.00000000000E+00 0.  1.
        -13    1    4    4    0    0 -0.21054884672E+02  0.30331459696E+02 -0.30846554996E+02  0.48112530291E+02  0.00000000000E+00 0.  1.
         13    1    4    4    0    0  0.42354349378E+02  0.31029484930E+02 -0.17680000208E+03  0.18443145226E+03  0.00000000000E+00 0. -1.
          3    1    1    2  501    0 -0.20320289933E+00 -0.30345903502E+02  0.30695985314E+02  0.43164321670E+02  0.00000000000E+00 0. -1.
<scales pt_clust_5="13000.00000" pt_clust_6="13000.00000" pt_clust_7="13000.00000" pt_clust_8="13000.00000" pt_clust_9="13000.00000"></scales>
<clustering>
<clus scale="   82.102">  7  8 -1 -1</clus>
<clus scale="   30.347">  7  9 -1 -1</clus>
<clus scale="   92.994">  5  6 -1 -1</clus>
<clus scale="  100.274">  2  5  1 -1</clus>
<clus scale="  211.432">  1  5  2 -1</clus>
</clustering>
</event>
<event>
 9    1  0.3303741E-006  0.2259836E+03  0.7546771E-02  0.1147459E+00
          4   -1    0    0  502    0 -0.00000000000E+00  0.00000000000E+00  0.15115378259E+03  0.15115378259E+03  0.00000000000E+00 0. -1.
         21   -1    0    0  501  502  0.00000000000E+00 -0.00000000000E+00 -0.74676233423E+03  0.74676233423E+03  0.00000000000E+00 0. -1.
         23    2    1    2    0    0 -0.60628903176E+02 -0.96234803608E+02  0.92845247013E+02  0.17332159338E+03  0.92103927780E+02 0.  0.
         23    2    1    2    0    0  0.64600731228E+02 -0.11020872643E+02 -0.26827786075E+03  0.29092716901E+03  0.91492584360E+02 0.  0.
        -11    1    3    3    0    0 -0.16921305583E+02 -0.12421028306E+02  0.74021065315E+02  0.76939785789E+02  0.00000000000E+00 0.  1.
         11    1    3    3    0    0 -0.43707597592E+02 -0.83813775302E+02  0.18824181698E+02  0.96381807589E+02  0.00000000000E+00 0. -1.
        -13    1    4    4    0    0  0.87492238409E+02 -0.63073544472E+01 -0.19074769927E+03  0.20995084967E+03  0.00000000000E+00 0. -1.
         13    1    4    4    0    0 -0.22891507181E+02 -0.47135181958E+01 -0.77530161477E+02  0.80976319338E+02  0.00000000000E+00 0.  1.
          4    1    1    2  501    0 -0.39718280526E+01  0.10725567625E+03 -0.42017593791E+03  0.43366735443E+03  0.00000000000E+00 0. -1.
<scales pt_clust_5="13000.00000" pt_clust_6="13000.00000" pt_clust_7="13000.00000" pt_clust_8="13000.00000" pt_clust_9="13000.00000"></scales>
<clustering>
<clus scale="   91.493">  7  8 -1 -1</clus>
<clus scale="   92.104">  5  6 -1 -1</clus>
<clus scale="  107.329">  7  9 -1 -1</clus>
<clus scale="  146.356">  1  5  2 -1</clus>
<clus scale="  225.984">  2  5  1 -1</clus>
</clustering>
</event>
<event>
 9    1  0.3303741E-006  0.3130326E+03  0.7546771E-02  0.1125502E+00
         -2   -1    0    0    0  501 -0.00000000000E+00  0.00000000000E+00  0.17281076387E+03  0.17281076387E+03  0.00000000000E+00 0.  1.
         21   -1    0    0  501  502  0.00000000000E+00 -0.00000000000E+00 -0.29323910737E+03  0.29323910737E+03  0.00000000000E+00 0. -1.
         23    2    1    2    0    0 -0.11839721582E+02 -0.14328306035E+02  0.53426349699E+02  0.10797882694E+03  0.91975936329E+02 0.  0.
         23    2    1    2    0    0 -0.45295246671E+02  0.21063342899E+02 -0.24353911760E+03  0.26770686821E+03  0.99299253258E+02 0.  0.
        -11    1    4    4    0    0 -0.37653628207E+02 -0.27437996104E+02 -0.51310001736E+02  0.69306245212E+02  0.00000000000E+00 0.  1.
         11    1    4    4    0    0 -0.76416184642E+01  0.48501339003E+02 -0.19222911587E+03  0.19840062299E+03  0.00000000000E+00 0. -1.
        -13    1    3    3    0    0  0.25160982753E+02 -0.40548390924E+02  0.34263106556E+02  0.58746978905E+02  0.00000000000E+00 0.  1.
         13    1    3    3    0    0 -0.37000704335E+02  0.26220084890E+02  0.19163243143E+02  0.49231848032E+02  0.00000000000E+00 0. -1.
         -2    1    1    2    0  502  0.57134968253E+02 -0.67350368645E+01  0.69684424397E+02  0.90364176101E+02  0.00000000000E+00 0.  1.
<scales pt_clust_5="13000.00000" pt_clust_6="13000.00000" pt_clust_7="13000.00000" pt_clust_8="13000.00000" pt_clust_9="13000.00000"></scales>
<clustering>
<clus scale="   91.976">  7  8 -1 -1</clus>
<clus scale="   93.835">  1  7  2 -1</clus>
<clus scale="   99.299">  5  6 -1 -1</clus>
<clus scale="   50.624">  5  9 -1 -1</clus>
<clus scale="  313.033">  2  5  1 -1</clus>
</clustering>
</event>
<event>
 9    1  0.3303741E-006  0.1870943E+03  0.7546771E-02  0.1187728E+00
          2   -1    0    0  502    0 -0.00000000000E+00  0.00000000000E+00  0.44310150210E+03  0.44310150210E+03  0.00000000000E+00 0. -1.
         21   -1    0    0  501  502  0.00000000000E+00 -0.00000000000E+00 -0.59048702816E+02  0.59048702816E+02  0.00000000000E+00 0.  1.
         23    2    1    2    0    0  0.47457576358E+02  0.84775792072E+01  0.25536473247E+03  0.27507117301E+03  0.90160483206E+02 0.  0.
         23    2    1    2    0    0  0.33397158858E+02  0.27346939588E+02  0.57739901867E+02  0.11370122780E+03  0.87925238758E+02 0.  0.
        -13    1    3    3    0    0  0.88601722447E+01  0.36464959758E+02  0.41473314514E+02  0.55930597701E+02  0.00000000000E+00 0.  1.
         13    1    3    3    0    0  0.38597404113E+02 -0.27987380551E+02  0.21389141795E+03  0.21914057531E+03  0.00000000000E+00 0. -1.
        -13    1    4    4    0    0  0.59196052122E+02  0.22393709703E+02  0.17534552527E+02  0.65674282283E+02  0.00000000000E+00 0.  1.
         13    1    4    4    0    0 -0.25798893264E+02  0.49532298856E+01  0.40205349340E+02  0.48026945515E+02  0.00000000000E+00 0. -1.
          2    1    1    2  501    0 -0.80854735216E+02 -0.35824518796E+02  0.70948164951E+02  0.11337780410E+03  0.00000000000E+00 0. -1.
<scales pt_clust_5="13000.00000" pt_clust_6="13000.00000" pt_clust_7="13000.00000" pt_clust_8="13000.00000" pt_clust_9="13000.00000"></scales>
<clustering>
<clus scale="   87.925">  7  8 -1 -1</clus>
<clus scale="   88.436">  7  9 -1 -1</clus>
<clus scale="   90.160">  5  6 -1 -1</clus>
<clus scale="  102.240">  1  5  2 -1</clus>
<clus scale="  187.094">  2  5  1 -1</clus>
</clustering>
</event>
<event>
 9    1  0.3303741E-006  0.3251792E+03  0.7546771E-02  0.1116838E+00
         -4   -1    0    0    0  501 -0.00000000000E+00  0.00000000000E+00  0.53299352472E+02  0.53299352472E+02  0.00000000000E+00 0.  1.
         21   -1    0    0  501  502  0.00000000000E+00 -0.00000000000E+00 -0.86560668083E+03  0.86560668083E+03  0.00000000000E+00 0. -1.
         23    2    1    2    0    0 -0.36732996709E+02 -0.25065074520E+02 -0.17828040429E+03  0.20635313734E+03  0.93915620270E+02 0.  0.
         23    2    1    2    0    0  0.87720024506E+01 -0.11836739223E+03 -0.17242816262E+03  0.22837513285E+03  0.91301382616E+02 0.  0.
        -13    1    4    4    0    0  0.21410937285E+02 -0.72279263502E+02 -0.16310714161E+03  0.17968489033E+03  0.00000000000E+00 0. -1.
         13    1    4    4    0    0 -0.12638934834E+02 -0.46088128731E+02 -0.93210210048E+01  0.48690242515E+02  0.00000000000E+00 0.  1.
        -13    1    3    3    0    0 -0.65713539206E+01 -0.28530444984E+02 -0.17309485772E+03  0.17555340713E+03  0.00000000000E+00 0. -1.
         13    1    3    3    0    0 -0.30161642789E+02  0.34653704639E+01 -0.51855465613E+01  0.30799730215E+02  0.00000000000E+00 0.  1.
         -4    1    1    2    0  502  0.27960994259E+02  0.14343246675E+03 -0.46159876145E+03  0.48417776311E+03  0.00000000000E+00 0.  1.
<scales pt_clust_5="13000.00000" pt_clust_6="13000.00000" pt_clust_7="13000.00000" pt_clust_8="13000.00000" pt_clust_9="13000.00000"></scales>
<clustering>
<clus scale="   91.301">  5  6 -1 -1</clus>
<clus scale="   93.916">  7  8 -1 -1</clus>
<clus scale="  103.912">  1  7  2 -1</clus>
<clus scale="  137.332">  5  9 -1 -1</clus>
<clus scale="  325.179">  2  5  1 -1</clus>
</clustering>
</event>
<event>
 9    1  0.3303741E-006  0.2245447E+03  0.7546771E-02  0.1159815E+00
          3   -1    0    0  502    0 -0.00000000000E+00  0.00000000000E+00  0.18520398506E+03  0.18520398506E+03  0.00000000000E+00 0. -1.
         21   -1    0    0  501  502  0.00000000000E+00 -0.00000000000E+00 -0.29270057348E+03  0.29270057348E+03  0.00000000000E+00 0.  1.
         23    2    1    2    0    0 -0.46003757958E+02  0.48369181515E+02  0.11611981051E+03  0.16100613899E+03  0.89348995144E+02 0.  0.
         23    2    1    2    0    0  0.10830129452E+03 -0.55730954558E+02 -0.19217333883E+03  0.24672830631E+03  0.95441894820E+02 0.  0.
        -11    1    3    3    0    0 -0.27021361773E+02  0.34576775671E+02  0.12756326175E+03  0.13490030822E+03  0.00000000000E+00 0. -1.
         11    1    3    3    0    0 -0.18982396185E+02  0.13792405844E+02 -0.11443451246E+02  0.26105830773E+02  0.00000000000E+00 0.  1.
        -13    1    4    4    0    0 -0.52092839895E+01 -0.21700781448E+02 -0.16755080848E+01  0.22380077803E+02  0.00000000000E+00 0. -1.
         13    1    4    4    0    0  0.11351057851E+03 -0.34030173109E+02 -0.19049783074E+03  0.22434822850E+03  0.00000000000E+00 0.  1.
          3    1    1    2  501    0 -0.62297536560E+02  0.73617730427E+01 -0.31443060097E+02  0.70170113240E+02  0.00000000000E+00 0. -1.
<scales pt_clust_5="13000.00000" pt_clust_6="13000.00000" pt_clust_7="13000.00000" pt_clust_8="13000.00000" pt_clust_9="13000.00000"></scales>
<clustering>
<clus scale="   89.349">  5  6 -1 -1</clus>
<clus scale="   95.442">  7  8 -1 -1</clus>
<clus scale="   62.731">  7  9 -1 -1</clus>
<clus scale="  111.531">  1  5  2 -1</clus>
<clus scale="  224.545">  2  5  1 -1</clus>
</clustering>
</event>
<event>
 9    1  0.3303741E-006  0.2182601E+03  0.7546771E-02  0.1164435E+00
         -3   -1    0    0    0  501 -0.00000000000E+00  0.00000000000E+00  0.24719518449E+03  0.24719518449E+03  0.00000000000E+00 0.  1.
         21   -1    0    0  501  502  0.00000000000E+00 -0.00000000000E+00 -0.12261655987E+03  0.12261655987E+03  0.00000000000E+00 0. -1.
         23    2    1    2    0    0 -0.77002967778E+01 -0.58897042838E+02  0.10374999663E+03  0.15056003787E+03  0.91521073955E+02 0.  0.
         23    2    1    2    0    0  0.14456387613E+02 -0.68400627174E+01  0.70554839298E+02  0.13654917992E+03  0.11580984236E+03 0.  0.
        -13    1    3    3    0    0  0.79180773478E+01  0.18828108842E+02  0.52047458010E+02  0.55911819115E+02  0.00000000000E+00 0. -1.
         13    1    3    3    0    0 -0.15618374126E+02 -0.77725151681E+02  0.51702538619E+02  0.94648218756E+02  0.00000000000E+00 0.  1.
        -13    1    4    4    0    0 -0.29243690416E+02 -0.21116508988E+02  0.81644465497E+02  0.89257599829E+02  0.00000000000E+00 0.  1.
         13    1    4    4    0    0  0.43700078029E+02  0.14276446271E+02 -0.11089626199E+02  0.47291580086E+02  0.00000000000E+00 0. -1.
         -3    1    1    2    0  502 -0.67560908351E+01  0.65737105555E+02 -0.49726211306E+02  0.82702526570E+02  0.00000000000E+00 0.  1.
<scales pt_clust_5="13000.00000" pt_clust_6="13000.00000" pt_clust_7="13000.00000" pt_clust_8="13000.00000" pt_clust_9="13000.00000"></scales>
<clustering>
<clus scale="   91.521">  5  6 -1 -1</clus>
<clus scale="  109.107">  1  5  2 -1</clus>
<clus scale="  115.810">  7  8 -1 -1</clus>
<clus scale="   58.174">  7  9 -1 -1</clus>
<clus scale="  218.260">  2  5  1 -1</clus>
</clustering>
</event>
<event>
 9    1  0.3303741E-006  0.3486620E+03  0.7546771E-02  0.1099953E+00
         -2   -1    0    0    0  501 -0.00000000000E+00  0.00000000000E+00  0.10363465674E+03  0.10363465674E+03  0.00000000000E+00 0.  1.
         21   -1    0    0  501  502  0.00000000000E+00 -0.00000000000E+00 -0.71634331492E+03  0.71634331492E+03  0.00000000000E+00 0.  1.
         23    2    1    2    0    0 -0.15955792229E+02  0.89798835018E+02 -0.18570283748E+02  0.13109074062E+03  0.92312018509E+02 0.  0.
         23    2    1    2    0    0 -0.64289201590E+02 -0.61153609737E+02 -0.31992380389E+02  0.12032067681E+03  0.74703998826E+02 0.  0.
        -11    1    4    4    0    0 -0.63879532418E+02 -0.35765513980E+02 -0.50466952286E+02  0.88919513748E+02  0.00000000000E+00 0.  1.
         11    1    4    4    0    0 -0.40966917167E+00 -0.25388095757E+02  0.18474571896E+02  0.31401163064E+02  0.00000000000E+00 0. -1.
        -13    1    3    3    0    0 -0.50559667718E+02  0.77887121332E+02 -0.91968811427E+01  0.93312733814E+02  0.00000000000E+00 0.  1.
         13    1    3    3    0    0  0.34603875488E+02  0.11911713686E+02 -0.93734026056E+01  0.37778006805E+02  0.00000000000E+00 0. -1.
         -2    1    1    2    0  502  0.80244993819E+02 -0.28645225281E+02 -0.56214599405E+03  0.56856655423E+03  0.00000000000E+00 0.  1.
<scales pt_clust_5="13000.00000" pt_clust_6="13000.00000" pt_clust_7="13000.00000" pt_clust_8="13000.00000" pt_clust_9="13000.00000"></scales>
<clustering>
<clus scale="   74.704">  5  6 -1 -1</clus>
<clus scale="   85.205">  5  9 -1 -1</clus>
<clus scale="   92.312">  7  8 -1 -1</clus>
<clus scale="  129.769">  1  7  2 -1</clus>
<clus scale="  348.662">  2  5  1 -1</clus>
</clustering>
</event>
<event>
 9    1  0.3303741E-006  0.2628737E+03  0.7546771E-02  0.1143242E+00
         21   -1    0    0  501  502  0.00000000000E+00  0.00000000000E+00  0.54444568973E+02  0.54444568973E+02  0.00000000000E+00 0. -1.
          1   -1    0    0  502    0 -0.00000000000E+00 -0.00000000000E+00 -0.71876647333E+03  0.71876647333E+03  0.00000000000E+00 0. -1.
         23    2    1    2    0    0  0.44223363557E+02 -0.25694500812E+02 -0.34286637356E+03  0.35795660699E+03  0.89216977721E+02 0.  0.
         23    2    1    2    0    0  0.57554153261E+02 -0.39142472058E+02 -0.25035658859E+03  0.27519175091E+03  0.90595058596E+02 0.  0.
        -11    1    4    4    0    0 -0.24012382504E+02 -0.62017516592E+01 -0.38477870204E+02  0.45777753687E+02  0.00000000000E+00 0.  1.
         11    1    4    4    0    0  0.81566535765E+02 -0.32940720398E+02 -0.21187871838E+03  0.22941399722E+03  0.00000000000E+00 0. -1.
        -11    1    3    3    0    0 -0.26503866048E+02 -0.17212507480E+02 -0.10463256985E+03  0.10930096067E+03  0.00000000000E+00 0. -1.
         11    1    3    3    0    0  0.70727229605E+02 -0.84819933314E+01 -0.23823380370E+03  0.24865564632E+03  0.00000000000E+00 0.  1.
          1    1    1    2  501    0 -0.10177751682E+03  0.64836972869E+02 -0.71098942216E+02  0.14006268441E+03  0.00000000000E+00 0. -1.
<scales pt_clust_5="13000.00000" pt_clust_6="13000.00000" pt_clust_7="13000.00000" pt_clust_8="13000.00000" pt_clust_9="13000.00000"></scales>
<clustering>
<clus scale="   89.217">  7  8 -1 -1</clus>
<clus scale="   90.595">  5  6 -1 -1</clus>
<clus scale="  102.838">  2  7  1 -1</clus>
<clus scale="  106.029">  5  9 -1 -1</clus>
<clus scale="  262.874">  1  5  2 -1</clus>
</clustering>
</event>
<event>
 9    1  0.3303741E-006  0.3198847E+03  0.7546771E-02  0.1080012E+00
         -4   -1    0    0    0  501 -0.00000000000E+00  0.00000000000E+00  0.16682135069E+03  0.16682135069E+03  0.00000000000E+00 0.  1.
         21   -1    0    0  501  502  0.00000000000E+00 -0.00000000000E+00 -0.77497794241E+03  0.77497794241E+03  0.00000000000E+00 0.  1.
         23    2    1    2    0    0 -0.14646824841E+03  0.22592305556E+03 -0.36887509162E+02  0.28706684247E+03  0.92479775563E+02 0.  0.
         23    2    1    2    0    0  0.15791728589E+03 -0.13908051644E+03 -0.37486422047E+03  0.43967995260E+03  0.92271434842E+02 0.  0.
        -11    1    3    3    0    0 -0.32449767652E+02  0.51387669757E+01 -0.18962813343E+02  0.37933924613E+02  0.00000000000E+00 0. -1.
         11    1    3    3    0    0 -0.11401848076E+03  0.22078428858E+03 -0.17924695819E+02  0.24913291786E+03  0.00000000000E+00 0.  1.
        -11    1    4    4    0    0  0.61658980667E+02 -0.64998614961E+02 -0.77484861143E+02  0.11845063761E+03  0.00000000000E+00 0.  1.
         11    1    4    4    0    0  0.96258305227E+02 -0.74081901475E+02 -0.29737935933E+03  0.32122931499E+03  0.00000000000E+00 0. -1.
         -4    1    1    2    0  502 -0.11449037486E+02 -0.86842539123E+02 -0.19640486208E+03  0.21505249803E+03  0.00000000000E+00 0.  1.
<scales pt_clust_5="13000.00000" pt_clust_6="13000.00000" pt_clust_7="13000.00000" pt_clust_8="13000.00000" pt_clust_9="13000.00000"></scales>
<clustering>
<clus scale="   92.271">  7  8 -1 -1</clus>
<clus scale="   87.594">  7  9 -1 -1</clus>
<clus scale="   92.480">  5  6 -1 -1</clus>
<clus scale="  284.687">  1  5  2 -1</clus>
<clus scale="  319.885">  2  5  1 -1</clus>
</clustering>
</event>
<event>
 9    1  0.3303741E-006  0.1933900E+03  0.7546771E-02  0.1166198E+00
          2   -1    0    0  502    0 -0.00000000000E+00  0.00000000000E+00  0.10611891255E+04  0.10611891255E+04  0.00000000000E+00 0. -1.
         21   -1    0    0  501  502  0.00000000000E+00 -0.00000000000E+00 -0.34290207408E+02  0.34290207408E+02  0.00000000000E+00 0. -1.
         23    2    1    2    0    0  0.51125172263E+02 -0.10785360073E+03  0.69692407237E+03  0.71300958764E+03  0.91833147496E+02 0.  0.
         23    2    1    2    0    0 -0.44688577022E+02  0.18730265254E+02  0.18794198923E+03  0.21466709032E+03  0.91716283160E+02 0.  0.
        -11    1    3    3    0    0  0.31707922197E+02 -0.12021549094E+03  0.63233558281E+03  0.64444196471E+03  0.00000000000E+00 0. -1.
         11    1    3    3    0    0  0.19417250066E+02  0.12361890210E+02  0.64588489566E+02  0.68567622929E+02  0.00000000000E+00 0.  1.
        -11    1    4    4    0    0 -0.72139810095E+02  0.21060721601E+02  0.15006016917E+03  0.16782657885E+03  0.00000000000E+00 0. -1.
         11    1    4    4    0    0  0.27451233073E+02 -0.23304563477E+01  0.37881820059E+02  0.46840511473E+02  0.00000000000E+00 0.  1.
          2    1    1    2  501    0 -0.64365952411E+01  0.89123335478E+02  0.14203285644E+03  0.16780265491E+03  0.00000000000E+00 0. -1.
<scales pt_clust_5="13000.00000" pt_clust_6="13000.00000" pt_clust_7="13000.00000" pt_clust_8="13000.00000" pt_clust_9="13000.00000"></scales>
<clustering>
<clus scale="   91.716">  7  8 -1 -1</clus>
<clus scale="   89.356">  7  9 -1 -1</clus>
<clus scale="   91.833">  5  6 -1 -1</clus>
<clus scale="  150.597">  1  5  2 -1</clus>
<clus scale="  193.390">  2  5  1 -1</clus>
</clustering>
</event>
<event>
 9    1  0.3303741E-006  0.3125748E+03  0.7546771E-02  0.1101240E+00
          1   -1    0    0  502    0 -0.00000000000E+00  0.00000000000E+00  0.90486595774E+03  0.90486595774E+03  0.00000000000E+00 0. -1.
         21   -1    0    0  501  502  0.00000000000E+00 -0.00000000000E+00 -0.92958506283E+02  0.92958506283E+02  0.00000000000E+00 0. -1.
         23    2    1    2    0    0 -0.14802004286E+03 -0.76965182382E+01  0.58817986035E+03  0.61343265334E+03  0.91514493825E+02 0.  0.
         23    2    1    2    0    0  0.13123242977E+03 -0.10057612776E+03  0.19816618495E+03  0.27188325408E+03  0.85517009385E+02 0.  0.
        -13    1    4    4    0    0  0.79917696875E+02 -0.77000471576E+02  0.18196040699E+03  0.21313258927E+03  0.00000000000E+00 0. -1.
         13    1    4    4    0    0  0.51314732891E+02 -0.23575656186E+02  0.16205777956E+02  0.58750664808E+02  0.00000000000E+00 0.  1.
        -13    1    3    3    0    0 -0.91020833407E+02 -0.47712780165E+02  0.39242426148E+03  0.40565761734E+03  0.00000000000E+00 0. -1.
         13    1    3    3    0    0 -0.56999209450E+02  0.40016261927E+02  0.19575559887E+03  0.20777503600E+03  0.00000000000E+00 0.  1.
          1    1    1    2  501    0  0.16787613091E+02  0.10827264600E+03  0.25561406160E+02  0.11250855661E+03  0.00000000000E+00 0. -1.
<scales pt_clust_5="13000.00000" pt_clust_6="13000.00000" pt_clust_7="13000.00000" pt_clust_8="13000.00000" pt_clust_9="13000.00000"></scales>
<clustering>
<clus scale="   85.517">  5  6 -1 -1</clus>
<clus scale="   91.514">  7  8 -1 -1</clus>
<clus scale="  109.566">  5  9 -1 -1</clus>
<clus scale="  174.195">  1  7  2 -1</clus>
<clus scale="  312.575">  2  5  1 -1</clus>
</clustering>
</event>
<event>
 9    1  0.3303741E-006  0.2056535E+03  0.7546771E-02  0.1163606E+00
         21   -1    0    0  501  502  0.00000000000E+00  0.00000000000E+00  0.26978106105E+03  0.26978106105E+03  0.00000000000E+00 0. -1.
          1   -1    0    0  502    0 -0.00000000000E+00 -0.00000000000E+00 -0.10939781920E+03  0.10939781920E+03  0.00000000000E+00 0. -1.
         23    2    1    2    0    0  0.57727221515E+01  0.96449583336E+02  0.94922916912E+02  0.16335855738E+03  0.91322569318E+02 0.  0.
         23    2    1    2    0    0 -0.24428693978E+02  0.34393795343E+01  0.57017810180E+02  0.11385402332E+03  0.95410259026E+02 0.  0.
        -11    1    4    4    0    0  0.28582474704E+02  0.75168536494E+01 -0.72636677856E+01  0.30433892599E+02  0.00000000000E+00 0.  1.
         11    1    4    4    0    0 -0.53011168682E+02 -0.40774741151E+01  0.64281477965E+02  0.83420130722E+02  0.00000000000E+00 0. -1.
        -13    1    3    3    0    0  0.28890407034E+02  0.51629711502E+02  0.96171433687E+02  0.11291247666E+03  0.00000000000E+00 0.  1.
         13    1    3    3    0    0 -0.23117684882E+02  0.44819871834E+02 -0.12485167756E+01  0.50446080716E+02  0.00000000000E+00 0. -1.
          1    1    1    2  501    0  0.18655971826E+02 -0.99888962871E+02  0.84425147621E+01  0.10196629955E+03  0.00000000000E+00 0. -1.
<scales pt_clust_5="13000.00000" pt_clust_6="13000.00000" pt_clust_7="13000.00000" pt_clust_8="13000.00000" pt_clust_9="13000.00000"></scales>
<clustering>
<clus scale="   91.323">  7  8 -1 -1</clus>
<clus scale="   95.410">  5  6 -1 -1</clus>
<clus scale="  101.616">  5  9 -1 -1</clus>
<clus scale="  132.950">  2  7  1 -1</clus>
<clus scale="  205.653">  1  5  2 -1</clus>
</clustering>
</event>
<event>
 9    1  0.3303741E-006  0.1425581E+03  0.7546771E-02  0.1227644E+00
         21   -1    0    0  501  502  0.00000000000E+00  0.00000000000E+00  0.30579163334E+02  0.30579163334E+02  0.00000000000E+00 0. -1.
         -1   -1    0    0    0  501 -0.00000000000E+00 -0.00000000000E+00 -0.52772236729E+03  0.52772236729E+03  0.00000000000E+00 0.  1.
         23    2    1    2    0    0 -0.36084537618E+02 -0.27643172795E+01 -0.29523880707E+03  0.31114124196E+03  0.91286274661E+02 0.  0.
         23    2    1    2    0    0  0.65116087953E+02  0.29057634995E+01 -0.14803720796E+03  0.18596776490E+03  0.91762989655E+02 0.  0.
        -11    1    4    4    0    0  0.14975401596E+01  0.23471300958E+02  0.14574441513E-01  0.23519030754E+02  0.00000000000E+00 0.  1.
         11    1    4    4    0    0  0.63618547793E+02 -0.20565537459E+02 -0.14805178240E+03  0.16244873414E+03  0.00000000000E+00 0. -1.
        -13    1    3    3    0    0 -0.65386380004E+02 -0.13838936853E+02 -0.19690803479E+03  0.20794150387E+03  0.00000000000E+00 0.  1.
         13    1    3    3    0    0  0.29301842386E+02  0.11074619574E+02 -0.98330772279E+02  0.10319973810E+03  0.00000000000E+00 0. -1.
         -1    1    1    2    0  502 -0.29031550335E+02 -0.14144622003E+00 -0.53867188932E+02  0.61192523770E+02  0.00000000000E+00 0.  1.
<scales pt_clust_5="13000.00000" pt_clust_6="13000.00000" pt_clust_7="13000.00000" pt_clust_8="13000.00000" pt_clust_9="13000.00000"></scales>
<clustering>
<clus scale="   91.286">  7  8 -1 -1</clus>
<clus scale="   91.763">  5  6 -1 -1</clus>
<clus scale="   29.032">  5  9 -1 -1</clus>
<clus scale="   98.198">  2  7  1 -1</clus>
<clus scale="  142.558">  1  5  2 -1</clus>
</clustering>
</event>
<event>
 9    1  0.3303741E-006  0.2784905E+03  0.7546771E-02  0.1100345E+00
         21   -1    0    0  501  502  0.00000000000E+00  0.00000000000E+00  0.28117952100E+03  0.28117952100E+03  0.00000000000E+00 0. -1.
          1   -1    0    0  502    0 -0.00000000000E+00 -0.00000000000E+00 -0.25609100738E+03  0.25609100738E+03  0.00000000000E+00 0. -1.
         23    2    1    2    0    0  0.14612535933E+03  0.18282415805E+03 -0.28455274798E+02  0.25367942435E+03  0.93628277080E+02 0.  0.
         23    2    1    2    0    0 -0.46979171731E+02 -0.11123420552E+03  0.56476592424E+02  0.16126494511E+03  0.90756189742E+02 0.  0.
        -11    1    3    3    0    0  0.37167575483E+02  0.11617425553E+03  0.34678019985E+01  0.12202422696E+03  0.00000000000E+00 0. -1.
         11    1    3    3    0    0  0.10895778385E+03  0.66649902518E+02 -0.31923076797E+02  0.13165519739E+03  0.00000000000E+00 0.  1.
        -13    1    4    4    0    0 -0.36363018798E+02 -0.13372328708E+01 -0.17769594975E+01  0.36430960912E+02  0.00000000000E+00 0.  1.
         13    1    4    4    0    0 -0.10616152933E+02 -0.10989697265E+03  0.58253551921E+02  0.12483398420E+03  0.00000000000E+00 0. -1.
          1    1    1    2  501    0 -0.99146187598E+02 -0.71589952532E+02 -0.29328040036E+01  0.12232615893E+03  0.00000000000E+00 0. -1.
<scales pt_clust_5="13000.00000" pt_clust_6="13000.00000" pt_clust_7="13000.00000" pt_clust_8="13000.00000" pt_clust_9="13000.00000"></scales>
<clustering>
<clus scale="   90.756">  7  8 -1 -1</clus>
<clus scale="   93.628">  5  6 -1 -1</clus>
<clus scale="  122.291">  7  9 -1 -1</clus>
<clus scale="  252.078">  2  5  1 -1</clus>
<clus scale="  278.491">  1  5  2 -1</clus>
</clustering>
</event>
<event>
 9    1  0.3303741E-006  0.2083942E+03  0.7546771E-02  0.1178433E+00
         21   -1    0    0  501  502  0.00000000000E+00  0.00000000000E+00  0.41924224476E+02  0.41924224476E+02  0.00000000000E+00 0. -1.
          1   -1    0    0  502    0 -0.00000000000E+00 -0.00000000000E+00 -0.62986382456E+03  0.62986382456E+03  0.00000000000E+00 0. -1.
         23    2    1    2    0    0  0.13307933902E+02 -0.11109826234E+02 -0.31789007060E+03  0.33067970408E+03  0.89411634385E+02 0.  0.
         23    2    1    2    0    0 -0.44558942628E+02  0.53040673586E+02 -0.71102121100E+02  0.13540250447E+03  0.92084277533E+02 0.  0.
        -11    1    4    4    0    0  0.14676123840E+02 -0.16965617111E+02 -0.69425294686E+01  0.23482322933E+02  0.00000000000E+00 0.  1.
         11    1    4    4    0    0 -0.59235066468E+02  0.70006290697E+02 -0.64159591631E+02  0.11192018154E+03  0.00000000000E+00 0. -1.
        -13    1    3    3    0    0 -0.25308997284E+02  0.24692244721E+02 -0.88054614579E+02  0.94888710823E+02  0.00000000000E+00 0. -1.
         13    1    3    3    0    0  0.38616931186E+02 -0.35802070955E+02 -0.22983545602E+03  0.23579099326E+03  0.00000000000E+00 0.  1.
          1    1    1    2  501    0  0.31251008726E+02 -0.41930847352E+02 -0.19894740839E+03  0.20570584048E+03  0.00000000000E+00 0. -1.
<scales pt_clust_5="13000.00000" pt_clust_6="13000.00000" pt_clust_7="13000.00000" pt_clust_8="13000.00000" pt_clust_9="13000.00000"></scales>
<clustering>
<clus scale="   89.412">  7  8 -1 -1</clus>
<clus scale="   91.077">  2  7  1 -1</clus>
<clus scale="   92.084">  5  6 -1 -1</clus>
<clus scale="   63.515">  5  9 -1 -1</clus>
<clus scale="  208.394">  1  5  2 -1</clus>
</clustering>
</event>
<event>
 9    1  0.3303741E-006  0.1853613E+03  0.7546771E-02  0.1182051E+00
         21   -1    0    0  501  502  0.00000000000E+00  0.00000000000E+00  0.32496213634E+02  0.32496213634E+02  0.00000000000E+00 0.  1.
          2   -1    0    0  502    0 -0.00000000000E+00 -0.00000000000E+00 -0.75870388738E+03  0.75870388738E+03  0.00000000000E+00 0. -1.
         23    2    1    2    0    0 -0.70175161055E+02 -0.21777926409E+02 -0.38273251193E+03  0.40090020155E+03  0.94010449421E+02 0.  0.
         23    2    1    2    0    0  0.86197335000E+02  0.55471933384E+02 -0.31077508667E+03  0.34068849878E+03  0.94764881419E+02 0.  0.
        -13    1    3    3    0    0  0.13484679022E+02  0.21306923483E+02 -0.81075091511E+02  0.84905783196E+02  0.00000000000E+00 0.  1.
         13    1    3    3    0    0 -0.83659840077E+02 -0.43084849892E+02 -0.30165742042E+03  0.31599441835E+03  0.00000000000E+00 0. -1.
        -13    1    4    4    0    0 -0.16261642168E+02  0.25681171441E+02 -0.98840179006E+02  0.10340862903E+03  0.00000000000E+00 0. -1.
         13    1    4    4    0    0  0.10245897717E+03  0.29790761943E+02 -0.21193490767E+03  0.23727986975E+03  0.00000000000E+00 0.  1.
          2    1    1    2  501    0 -0.16022173945E+02 -0.33694006975E+02 -0.32700075137E+02  0.49611400685E+02  0.00000000000E+00 0. -1.
<scales pt_clust_5="13000.00000" pt_clust_6="13000.00000" pt_clust_7="13000.00000" pt_clust_8="13000.00000" pt_clust_9="13000.00000"></scales>
<clustering>
<clus scale="   94.010">  5  6 -1 -1</clus>
<clus scale="   94.765">  7  8 -1 -1</clus>
<clus scale="   37.309">  7  9 -1 -1</clus>
<clus scale="  119.318">  2  5  1 -1</clus>
<clus scale="  185.361">  1  5  2 -1</clus>
</clustering>
</event>
<event>
 9    1  0.3303741E-006  0.1494744E+03  0.7546771E-02  0.1211780E+00
          3   -1    0    0  502    0 -0.00000000000E+00  0.00000000000E+00  0.35072995231E+02  0.35072995231E+02  0.00000000000E+00 0. -1.
         21   -1    0    0  501  502  0.00000000000E+00 -0.00000000000E+00 -0.53427098355E+03  0.53427098355E+03  0.00000000000E+00 0.  1.
         23    2    1    2    0    0 -0.54236981106E+02 -0.51777337436E+02 -0.27827595693E+03  0.30260599673E+03  0.92251494625E+02 0.  0.
         23    2    1    2    0    0  0.43882632356E+02  0.55824364121E+01 -0.15873276127E+03  0.18857989394E+03  0.91702987306E+02 0.  0.
        -11    1    3    3    0    0  0.17107113753E+02 -0.13231300451E+02 -0.13047110013E+02  0.25257627210E+02  0.00000000000E+00 0.  1.
         11    1    3    3    0    0 -0.71344094860E+02 -0.38546036984E+02 -0.26522884692E+03  0.27734836952E+03  0.00000000000E+00 0. -1.
        -13    1    4    4    0    0  0.32341386337E+02  0.46383723759E+02 -0.11208414160E+03  0.12553991357E+03  0.00000000000E+00 0.  1.
         13    1    4    4    0    0  0.11541246019E+02 -0.40801287347E+02 -0.46648619664E+02  0.63039980373E+02  0.00000000000E+00 0. -1.
          3    1    1    2  501    0  0.10354348750E+02  0.46194901024E+02 -0.62189270123E+02  0.78158088111E+02  0.00000000000E+00 0. -1.
<scales pt_clust_5="13000.00000" pt_clust_6="13000.00000" pt_clust_7="13000.00000" pt_clust_8="13000.00000" pt_clust_9="13000.00000"></scales>
<clustering>
<clus scale="   91.703">  7  8 -1 -1</clus>
<clus scale="   47.341">  7  9 -1 -1</clus>
<clus scale="   92.251">  5  6 -1 -1</clus>
<clus scale="  118.882">  1  5  2 -1</clus>
<clus scale="  149.474">  2  5  1 -1</clus>
</clustering>
</event>
<event>
 9    1  0.6583062E-006  0.4950784E+03  0.7546771E-02  0.1055755E+00
         21   -1    0    0  501  502  0.00000000000E+00  0.00000000000E+00  0.52127193775E+03  0.52127193775E+03  0.00000000000E+00 0.  1.
         -4   -1    0    0    0  501 -0.00000000000E+00 -0.00000000000E+00 -0.23119215037E+03  0.23119215037E+03  0.00000000000E+00 0.  1.
         23    2    1    2    0    0 -0.71754929135E+02 -0.91908986577E+02 -0.42803658388E+02  0.15587878141E+03  0.94180728680E+02 0.  0.
         23    2    1    2    0    0  0.24151802168E+02 -0.64214451683E+02 -0.86452814097E+02  0.14660365762E+03  0.96497347167E+02 0.  0.
        -11    1    4    4    0    0  0.39523795148E+02 -0.82886056209E+02 -0.55402944664E+02  0.10724604876E+03  0.00000000000E+00 0.  1.
         11    1    4    4    0    0 -0.15371992980E+02  0.18671604526E+02 -0.31049869433E+02  0.39357608865E+02  0.00000000000E+00 0. -1.
        -11    1    3    3    0    0 -0.86540577518E+02 -0.59564797484E+02 -0.54613667909E+02  0.11840561380E+03  0.00000000000E+00 0.  1.
         11    1    3    3    0    0  0.14785648384E+02 -0.32344189093E+02  0.11810009521E+02  0.37473167615E+02  0.00000000000E+00 0. -1.
         -4    1    1    2    0  502  0.47603126967E+02  0.15612343826E+03  0.41933625987E+03  0.44998164909E+03  0.00000000000E+00 0.  1.
<scales pt_clust_5="13000.00000" pt_clust_6="13000.00000" pt_clust_7="13000.00000" pt_clust_8="13000.00000" pt_clust_9="13000.00000"></scales>
<clustering>
<clus scale="   94.181">  7  8 -1 -1</clus>
<clus scale="   96.497">  5  6 -1 -1</clus>
<clus scale="  149.887">  2  7  1 -1</clus>
<clus scale="  150.649">  5  9 -1 -1</clus>
<clus scale="  495.078">  1  5  2 -1</clus>
</clustering>
</event>
<event>
 9    1  0.3303741E-006  0.2779493E+03  0.7546771E-02  0.1125904E+00
          1   -1    0    0  502    0 -0.00000000000E+00  0.00000000000E+00  0.19971523992E+03  0.19971523992E+03  0.00000000000E+00 0. -1.
         21   -1    0    0  501  502  0.00000000000E+00 -0.00000000000E+00 -0.25162088969E+03  0.25162088969E+03  0.00000000000E+00 0. -1.
         23    2    1    2    0    0 -0.57615879873E+02 -0.76382825956E+02  0.67419748172E+02  0.14885579171E+03  0.91971183362E+02 0.  0.
         23    2    1    2    0    0  0.11585951836E+03 -0.52177720137E+01 -0.47219899599E+01  0.15021438591E+03  0.95348893049E+02 0.  0.
        -11    1    4    4    0    0  0.10144784763E+03  0.34402065051E+02  0.38536026832E+01  0.10719150210E+03  0.00000000000E+00 0. -1.
         11    1    4    4    0    0  0.14411670731E+02 -0.39619837065E+02 -0.85755926431E+01  0.43022883812E+02  0.00000000000E+00 0.  1.
        -11    1    3    3    0    0  0.12643450528E+02 -0.58573632155E+02  0.25477600191E+02  0.65114017973E+02  0.00000000000E+00 0.  1.
         11    1    3    3    0    0 -0.70259330401E+02 -0.17809193800E+02  0.41942147980E+02  0.83741773742E+02  0.00000000000E+00 0. -1.
          1    1    1    2  501    0 -0.58243638488E+02  0.81600597969E+02 -0.11460340798E+03  0.15226595198E+03  0.00000000000E+00 0. -1.
<scales pt_clust_5="13000.00000" pt_clust_6="13000.00000" pt_clust_7="13000.00000" pt_clust_8="13000.00000" pt_clust_9="13000.00000"></scales>
<clustering>
<clus scale="   91.971">  7  8 -1 -1</clus>
<clus scale="   95.349">  5  6 -1 -1</clus>
<clus scale="  100.255">  5  9 -1 -1</clus>
<clus scale="  132.713">  1  7  2 -1</clus>
<clus scale="  277.949">  2  5  1 -1</clus>
</clustering>
</event>
<event>
 9    1  0.3303741E-006  0.2434459E+03  0.7546771E-02  0.1145615E+00
         -4   -1    0    0    0  501 -0.00000000000E+00  0.00000000000E+00  0.33740230964E+03  0.33740230964E+03  0.00000000000E+00 0.  1.
         21   -1    0    0  501  502  0.00000000000E+00 -0.00000000000E+00 -0.16819092771E+03  0.16819092771E+03  0.00000000000E+00 0.  1.
         23    2    1    2    0    0 -0.45160266299E+02 -0.68328233619E+02  0.22475820604E+03  0.25589069789E+03  0.90860337473E+02 0.  0.
         23    2    1    2    0    0 -0.43151398512E+00  0.26771821636E+02  0.64618694213E+02  0.11462738408E+03  0.90812691304E+02 0.  0.
        -11    1    3    3    0    0 -0.17705143953E+02  0.21033405871E+02  0.68379775152E+02  0.73699863872E+02  0.00000000000E+00 0. -1.
         11    1    3    3    0    0 -0.27455122346E+02 -0.89361639490E+02  0.15637843089E+03  0.18219083402E+03  0.00000000000E+00 0.  1.
        -13    1    4    4    0    0  0.23989017652E+02  0.53385172371E+02  0.41369974983E+02  0.71672340740E+02  0.00000000000E+00 0. -1.
         13    1    4    4    0    0 -0.24420531637E+02 -0.26613350735E+02  0.23248719229E+02  0.42955043343E+02  0.00000000000E+00 0.  1.
         -4    1    1    2    0  502  0.45591780284E+02  0.41556411983E+02 -0.12016551832E+03  0.13507515538E+03  0.00000000000E+00 0.  1.
<scales pt_clust_5="13000.00000" pt_clust_6="13000.00000" pt_clust_7="13000.00000" pt_clust_8="13000.00000" pt_clust_9="13000.00000"></scales>
<clustering>
<clus scale="   90.813">  7  8 -1 -1</clus>
<clus scale="   61.689">  7  9 -1 -1</clus>
<clus scale="   90.860">  5  6 -1 -1</clus>
<clus scale="  122.327">  1  5  2 -1</clus>
<clus scale="  243.446">  2  5  1 -1</clus>
</clustering>
</event>
<event>
 9    1  0.3303741E-006  0.1539901E+03  0.7546771E-02  0.1215997E+00
         21   -1    0    0  501  502  0.00000000000E+00  0.00000000000E+00  0.95761420957E+02  0.95761420957E+02  0.00000000000E+00 0. -1.
          1   -1    0    0  502    0 -0.00000000000E+00 -0.00000000000E+00 -0.27233496726E+03  0.27233496726E+03  0.00000000000E+00 0. -1.
         23    2    1    2    0    0  0.18254669656E+02 -0.15955698454E+02 -0.18905198590E+03  0.21360148033E+03  0.96421583414E+02 0.  0.
         23    2    1    2    0    0 -0.27567079220E+02  0.56185549116E+02  0.22010536498E+02  0.11211539955E+03  0.90380525074E+02 0.  0.
        -13    1    4    4    0    0 -0.44043112855E+02  0.72236612817E+02  0.75392314597E+01  0.84939767084E+02  0.00000000000E+00 0. -1.
         13    1    4    4    0    0  0.16476033635E+02 -0.16051063702E+02  0.14471305039E+02  0.27175632464E+02  0.00000000000E+00 0.  1.
        -13    1    3    3    0    0 -0.23386253141E+02  0.21638684970E+01 -0.49772911868E+01  0.24007761045E+02  0.00000000000E+00 0. -1.
         13    1    3    3    0    0  0.41640922797E+02 -0.18119566951E+02 -0.18407469471E+03  0.18959371928E+03  0.00000000000E+00 0.  1.
          1    1    1    2  501    0  0.93124095640E+01 -0.40229850662E+02 -0.95320969044E+01  0.42379508345E+02  0.00000000000E+00 0. -1.
<scales pt_clust_5="13000.00000" pt_clust_6="13000.00000" pt_clust_7="13000.00000" pt_clust_8="13000.00000" pt_clust_9="13000.00000"></scales>
<clustering>
<clus scale="   90.381">  5  6 -1 -1</clus>
<clus scale="   41.294">  5  9 -1 -1</clus>
<clus scale="   96.422">  7  8 -1 -1</clus>
<clus scale="   99.423">  2  7  1 -1</clus>
<clus scale="  153.990">  1  5  2 -1</clus>
</clustering>
</event>
<event>
 9    1  0.3303741E-006  0.3979101E+03  0.7546771E-02  0.1048516E+00
         21   -1    0    0  501  502  0.00000000000E+00  0.00000000000E+00  0.10244715645E+03  0.10244715645E+03  0.00000000000E+00 0. -1.
          2   -1    0    0  502    0 -0.00000000000E+00 -0.00000000000E+00 -0.16064897228E+04  0.16064897228E+04  0.00000000000E+00 0.  1.
         23    2    1    2    0    0  0.26654833715E+03  0.21767513851E+03 -0.39578195976E+03  0.53140809434E+03  0.85561212591E+02 0.  0.
         23    2    1    2    0    0 -0.75089382604E+02 -0.36232298300E+02 -0.48119683007E+03  0.49724427429E+03  0.93542953926E+02 0.  0.
        -11    1    3    3    0    0  0.11834689324E+03  0.12902997051E+03 -0.14726888773E+03  0.22878558898E+03  0.00000000000E+00 0. -1.
         11    1    3    3    0    0  0.14820144391E+03  0.88645168001E+02 -0.24851307203E+03  0.30262250537E+03  0.00000000000E+00 0.  1.
        -13    1    4    4    0    0 -0.12262213493E+02 -0.55826590454E+02 -0.27196345116E+03  0.27790481976E+03  0.00000000000E+00 0.  1.
         13    1    4    4    0    0 -0.62827169111E+02  0.19594292153E+02 -0.20923337891E+03  0.21933945453E+03  0.00000000000E+00 0. -1.
          2    1    1    2  501    0 -0.19145895455E+03 -0.18144284021E+03 -0.62706377650E+03  0.68028451058E+03  0.00000000000E+00 0.  1.
<scales pt_clust_5="13000.00000" pt_clust_6="13000.00000" pt_clust_7="13000.00000" pt_clust_8="13000.00000" pt_clust_9="13000.00000"></scales>
<clustering>
<clus scale="   85.561">  5  6 -1 -1</clus>
<clus scale="   93.543">  7  8 -1 -1</clus>
<clus scale="  263.777">  7  9 -1 -1</clus>
<clus scale="  354.614">  2  5  1 -1</clus>
<clus scale="  397.910">  1  5  2 -1</clus>
</clustering>
</event>
<event>
 9    1  0.3303741E-006  0.2468582E+03  0.7546771E-02  0.1117563E+00
         21   -1    0    0  501  502  0.00000000000E+00  0.00000000000E+00  0.31587383124E+03  0.31587383124E+03  0.00000000000E+00 0. -1.
          1   -1    0    0  502    0 -0.00000000000E+00 -0.00000000000E+00 -0.19314878681E+03  0.19314878681E+03  0.00000000000E+00 0. -1.
         23    2    1    2    0    0  0.21178018711E+03 -0.13846647570E+02 -0.25860139887E+00  0.23322572248E+03  0.96703637205E+02 0.  0.
         23    2    1    2    0    0 -0.11601126039E+03 -0.67032747045E+01  0.85014591146E+02  0.17074626138E+03  0.91778312454E+02 0.  0.
        -11    1    4    4    0    0 -0.60971173150E+02  0.40224395410E+02  0.26472063473E+02  0.77693346471E+02  0.00000000000E+00 0. -1.
         11    1    4    4    0    0 -0.55040087240E+02 -0.46927670115E+02  0.58542527673E+02  0.93052914904E+02  0.00000000000E+00 0.  1.
        -13    1    3    3    0    0  0.54943281706E+02 -0.40970892031E+02  0.23164769690E+02  0.72346283617E+02  0.00000000000E+00 0.  1.
         13    1    3    3    0    0  0.15683690541E+03  0.27124244461E+02 -0.23423371089E+02  0.16087943886E+03  0.00000000000E+00 0. -1.
          1    1    1    2  501    0 -0.95768926722E+02  0.20549922274E+02  0.37969054683E+02  0.10505063419E+03  0.00000000000E+00 0. -1.
<scales pt_clust_5="13000.00000" pt_clust_6="13000.00000" pt_clust_7="13000.00000" pt_clust_8="13000.00000" pt_clust_9="13000.00000"></scales>
<clustering>
<clus scale="   91.778">  5  6 -1 -1</clus>
<clus scale="   96.704">  7  8 -1 -1</clus>
<clus scale="   97.949">  5  9 -1 -1</clus>
<clus scale="  233.226">  2  7  1 -1</clus>
<clus scale="  246.858">  1  5  2 -1</clus>
</clustering>
</event>
<event>
 9    1  0.3303741E-006  0.2810085E+03  0.7546771E-02  0.1119999E+00
         21   -1    0    0  501  502  0.00000000000E+00  0.00000000000E+00  0.65715057742E+03  0.65715057742E+03  0.00000000000E+00 0.  1.
         -4   -1    0    0    0  501 -0.00000000000E+00 -0.00000000000E+00 -0.13010936014E+03  0.13010936014E+03  0.00000000000E+00 0.  1.
         23    2    1    2    0    0  0.74753431957E+02 -0.90232563191E+02 -0.40327100690E+02  0.15411495223E+03  0.91625064269E+02 0.  0.
         23    2    1    2    0    0  0.64195331345E+02  0.78797778905E+02  0.21666138760E+03  0.25574219767E+03  0.90176406390E+02 0.  0.
        -11    1    3    3    0    0  0.52166174440E+02 -0.65823810645E+02 -0.70161066461E+02  0.10943792327E+03  0.00000000000E+00 0.  1.
         11    1    3    3    0    0  0.22587257517E+02 -0.24408752546E+02  0.29833965771E+02  0.44677028960E+02  0.00000000000E+00 0. -1.
        -11    1    4    4    0    0  0.36732552738E+01  0.70209433976E+02  0.14775846689E+03  0.16363197108E+03  0.00000000000E+00 0.  1.
         11    1    4    4    0    0  0.60522076071E+02  0.85883449290E+01  0.68902920709E+02  0.92110226592E+02  0.00000000000E+00 0. -1.
         -4    1    1    2    0  502 -0.13894876330E+03  0.11434784286E+02  0.35070693037E+03  0.37740278765E+03  0.00000000000E+00 0.  1.
<scales pt_clust_5="13000.00000" pt_clust_6="13000.00000" pt_clust_7="13000.00000" pt_clust_8="13000.00000" pt_clust_9="13000.00000"></scales>
<clustering>
<clus scale="   90.176">  7  8 -1 -1</clus>
<clus scale="   91.625">  5  6 -1 -1</clus>
<clus scale="  139.419">  7  9 -1 -1</clus>
<clus scale="  148.745">  2  5  1 -1</clus>
<clus scale="  281.008">  1  5  2 -1</clus>
</clustering>
</event>
<event>
 9    1  0.3303741E-006  0.5737806E+03  0.7546771E-02  0.1058126E+00
          1   -1    0    0  502    0 -0.00000000000E+00  0.00000000000E+00  0.12846737419E+04  0.12846737419E+04  0.00000000000E+00 0. -1.
         21   -1    0    0  501  502  0.00000000000E+00 -0.00000000000E+00 -0.86631850789E+02  0.86631850789E+02  0.00000000000E+00 0. -1.
         23    2    1    2    0    0 -0.22080390432E+02  0.20414953562E+02  0.21433034717E+03  0.23248490342E+03  0.84896517200E+02 0.  0.
         23    2    1    2    0    0 -0.16760897551E+03  0.19091544655E+03  0.62868267530E+03  0.68419106953E+03  0.91290946977E+02 0.  0.
        -11    1    3    3    0    0 -0.42786242183E+02 -0.13011171070E+02  0.71436810507E+02  0.84280311984E+02  0.00000000000E+00 0. -1.
         11    1    3    3    0    0  0.20705851751E+02  0.33426124631E+02  0.14289353666E+03  0.14820459144E+03  0.00000000000E+00 0.  1.
        -11    1    4    4    0    0 -0.51512972737E+02  0.96830791814E+02  0.36483917901E+03  0.38096904749E+03  0.00000000000E+00 0.  1.
         11    1    4    4    0    0 -0.11609600277E+03  0.94084654736E+02  0.26384349629E+03  0.30322202204E+03  0.00000000000E+00 0. -1.
          1    1    1    2  501    0  0.18968936594E+03 -0.21133040011E+03  0.35502886861E+03  0.45462961970E+03  0.00000000000E+00 0. -1.
<scales pt_clust_5="13000.00000" pt_clust_6="13000.00000" pt_clust_7="13000.00000" pt_clust_8="13000.00000" pt_clust_9="13000.00000"></scales>
<clustering>
<clus scale="   84.897">  5  6 -1 -1</clus>
<clus scale="   90.065">  1  5  2 -1</clus>
<clus scale="   91.291">  7  8 -1 -1</clus>
<clus scale="  272.557">  7  9 -1 -1</clus>
<clus scale="  573.781">  2  5  1 -1</clus>
</clustering>
</event>
<event>
 9    1  0.3303741E-006  0.2818235E+03  0.7546771E-02  0.1137628E+00
         -1   -1    0    0    0  501 -0.00000000000E+00  0.00000000000E+00  0.17261714449E+03  0.17261714449E+03  0.00000000000E+00 0.  1.
         21   -1    0    0  501  502  0.00000000000E+00 -0.00000000000E+00 -0.50532225271E+03  0.50532225271E+03  0.00000000000E+00 0.  1.
         23    2    1    2    0    0 -0.19495543275E+02 -0.20483022089E+02  0.11462966926E+03  0.14923067806E+03  0.91269950135E+02 0.  0.
         23    2    1    2    0    0  0.12542389427E+03  0.46739803794E+02 -0.25148188386E+03  0.30450214014E+03  0.10752977694E+03 0.  0.
        -11    1    4    4    0    0  0.92074568346E+02  0.62478696835E+02 -0.24210642256E+03  0.26645231007E+03  0.00000000000E+00 0.  1.
         11    1    4    4    0    0  0.33349325927E+02 -0.15738893042E+02 -0.93754612920E+01  0.38049830070E+02  0.00000000000E+00 0. -1.
        -11    1    3    3    0    0 -0.14583040562E+02 -0.56909849029E+02  0.72728552462E+02  0.93492450667E+02  0.00000000000E+00 0.  1.
         11    1    3    3    0    0 -0.49125027134E+01  0.36426826940E+02  0.41901116799E+02  0.55738227392E+02  0.00000000000E+00 0. -1.
         -1    1    1    2    0  502 -0.10592835100E+03 -0.26256781705E+02 -0.19585289362E+03  0.22420657901E+03  0.00000000000E+00 0.  1.
<scales pt_clust_5="13000.00000" pt_clust_6="13000.00000" pt_clust_7="13000.00000" pt_clust_8="13000.00000" pt_clust_9="13000.00000"></scales>
<clustering>
<clus scale="   91.270">  7  8 -1 -1</clus>
<clus scale="   95.550">  1  7  2 -1</clus>
<clus scale="  107.530">  5  6 -1 -1</clus>
<clus scale="  117.564">  5  9 -1 -1</clus>
<clus scale="  281.824">  2  5  1 -1</clus>
</clustering>
</event>
<event>
 9    1  0.3303741E-006  0.2168268E+03  0.7546771E-02  0.1167844E+00
         21   -1    0    0  501  502  0.00000000000E+00  0.00000000000E+00  0.11183846718E+03  0.11183846718E+03  0.00000000000E+00 0.  1.
         -4   -1    0    0    0  501 -0.00000000000E+00 -0.00000000000E+00 -0.29570344909E+03  0.29570344909E+03  0.00000000000E+00 0.  1.
         23    2    1    2    0    0 -0.33778000091E+02 -0.37111478949E+02 -0.15887799887E+03  0.18928008899E+03  0.89813798525E+02 0.  0.
         23    2    1    2    0    0  0.64839327971E+02  0.56748033402E+02  0.49587023715E+02  0.13512529593E+03  0.91517730160E+02 0.  0.
        -11    1    3    3    0    0  0.19735967167E+02 -0.39742586443E+02 -0.10150185600E+03  0.11077729166E+03  0.00000000000E+00 0.  1.
         11    1    3    3    0    0 -0.53513967257E+02  0.26311074935E+01 -0.57376142872E+02  0.78502797333E+02  0.00000000000E+00 0. -1.
        -13    1    4    4    0    0  0.62096761029E+02  0.79106542133E+02  0.29142876858E+02  0.10470510976E+03  0.00000000000E+00 0.  1.
         13    1    4    4    0    0  0.27425669420E+01 -0.22358508731E+02  0.20444146857E+02  0.30420186173E+02  0.00000000000E+00 0. -1.
         -4    1    1    2    0  502 -0.31061327880E+02 -0.19636554453E+02 -0.74574006758E+02  0.83136531348E+02  0.00000000000E+00 0.  1.
<scales pt_clust_5="13000.00000" pt_clust_6="13000.00000" pt_clust_7="13000.00000" pt_clust_8="13000.00000" pt_clust_9="13000.00000"></scales>
<clustering>
<clus scale="   89.814">  5  6 -1 -1</clus>
<clus scale="   91.518">  7  8 -1 -1</clus>
<clus scale="   36.748">  7  9 -1 -1</clus>
<clus scale="  102.882">  2  5  1 -1</clus>
<clus scale="  216.827">  1  5  2 -1</clus>
</clustering>
</event>
<event>
 9    1  0.3303741E-006  0.2331956E+03  0.7546771E-02  0.1149749E+00
         21   -1    0    0  501  502  0.00000000000E+00  0.00000000000E+00  0.39221404610E+02  0.39221404610E+02  0.00000000000E+00 0.  1.
         -1   -1    0    0    0  501 -0.00000000000E+00 -0.00000000000E+00 -0.10172039450E+04  0.10172039450E+04  0.00000000000E+00 0.  1.
         23    2    1    2    0    0  0.62869678190E+02  0.59630175817E+02 -0.59345371091E+03  0.60671143259E+03  0.91668430437E+02 0.  0.
         23    2    1    2    0    0 -0.98985536257E+02 -0.81978185559E+02 -0.18365086173E+03  0.24439527035E+03  0.97379925341E+02 0.  0.
        -11    1    4    4    0    0 -0.66083998312E+02 -0.98660911220E+02 -0.10928418828E+03  0.16138185785E+03  0.00000000000E+00 0.  1.
         11    1    4    4    0    0 -0.32901537945E+02  0.16682725661E+02 -0.74366673448E+02  0.83013412497E+02  0.00000000000E+00 0. -1.
        -13    1    3    3    0    0  0.53271332333E+02  0.84123465606E+02 -0.45281495298E+03  0.46363344785E+03  0.00000000000E+00 0.  1.
         13    1    3    3    0    0  0.95983458570E+01 -0.24493289789E+02 -0.14063875792E+03  0.14307798474E+03  0.00000000000E+00 0. -1.
         -1    1    1    2    0  502  0.36115858067E+02  0.22348009742E+02 -0.20087796774E+03  0.20531864666E+03  0.00000000000E+00 0.  1.
<scales pt_clust_5="13000.00000" pt_clust_6="13000.00000" pt_clust_7="13000.00000" pt_clust_8="13000.00000" pt_clust_9="13000.00000"></scales>
<clustering>
<clus scale="   91.668">  7  8 -1 -1</clus>
<clus scale="   97.380">  5  6 -1 -1</clus>
<clus scale="   42.471">  5  9 -1 -1</clus>
<clus scale="  126.141">  2  7  1 -1</clus>
<clus scale="  233.196">  1  5  2 -1</clus>
</clustering>
</event>
<event>
 9    1  0.3303741E-006  0.3307737E+03  0.7546771E-02  0.1101105E+00
         21   -1    0    0  501  502  0.00000000000E+00  0.00000000000E+00  0.51240315914E+02  0.51240315914E+02  0.00000000000E+00 0. -1.
          2   -1    0    0  502    0 -0.00000000000E+00 -0.00000000000E+00 -0.11623370441E+04  0.11623370441E+04  0.00000000000E+00 0. -1.
         23    2    1    2    0    0 -0.11425717302E+03  0.30095610834E+02 -0.46333096750E+03  0.48624542149E+03  0.88309552697E+02 0.  0.
         23    2    1    2    0    0 -0.79759358919E+02 -0.58577517826E+02 -0.27003743733E+03  0.30173551002E+03  0.91275514330E+02 0.  0.
        -11    1    4    4    0    0 -0.76094343507E+02 -0.32503409655E+00 -0.14541736712E+03  0.16412393312E+03  0.00000000000E+00 0.  1.
         11    1    4    4    0    0 -0.36650154116E+01 -0.58252483730E+02 -0.12462007021E+03  0.13761157690E+03  0.00000000000E+00 0. -1.
        -13    1    3    3    0    0 -0.45003716329E+02 -0.22940747883E+02 -0.26207930229E+03  0.26690292821E+03  0.00000000000E+00 0.  1.
         13    1    3    3    0    0 -0.69253456688E+02  0.53036358717E+02 -0.20125166521E+03  0.21934249328E+03  0.00000000000E+00 0. -1.
          2    1    1    2  501    0  0.19401653194E+03  0.28481906993E+02 -0.37772832333E+03  0.42559642849E+03  0.00000000000E+00 0. -1.
<scales pt_clust_5="13000.00000" pt_clust_6="13000.00000" pt_clust_7="13000.00000" pt_clust_8="13000.00000" pt_clust_9="13000.00000"></scales>
<clustering>
<clus scale="   88.310">  7  8 -1 -1</clus>
<clus scale="   91.276">  5  6 -1 -1</clus>
<clus scale="  147.509">  2  7  1 -1</clus>
<clus scale="  135.348">  5  9 -1 -1</clus>
<clus scale="  330.774">  1  5  2 -1</clus>
</clustering>
</event>
<event>
 9    1  0.3303741E-006  0.1853642E+03  0.7546771E-02  0.1180919E+00
         21   -1    0    0  501  502  0.00000000000E+00  0.00000000000E+00  0.53163967677E+02  0.53163967677E+02  0.00000000000E+00 0.  1.
         -1   -1    0    0    0  501 -0.00000000000E+00 -0.00000000000E+00 -0.44721333439E+03  0.44721333439E+03  0.00000000000E+00 0.  1.
         23    2    1    2    0    0 -0.64651796475E+02 -0.53114685703E+02 -0.14102464090E+03  0.18671919179E+03  0.89303318071E+02 0.  0.
         23    2    1    2    0    0  0.18924804240E+02 -0.22302267772E+02 -0.14970816409E+03  0.17781633976E+03  0.91381491158E+02 0.  0.
        -11    1    3    3    0    0 -0.72024482213E+02 -0.26273065818E+02 -0.13908526042E+03  0.15881596170E+03  0.00000000000E+00 0.  1.
         11    1    3    3    0    0  0.73726857374E+01 -0.26841619884E+02 -0.19393804825E+01  0.27903230093E+02  0.00000000000E+00 0. -1.
        -13    1    4    4    0    0  0.26423617717E+02  0.17974542916E+02 -0.12703264764E+03  0.13099078339E+03  0.00000000000E+00 0. -1.
         13    1    4    4    0    0 -0.74988134766E+01 -0.40276810689E+02 -0.22675516446E+02  0.46825556365E+02  0.00000000000E+00 0.  1.
         -1    1    1    2    0  502  0.45726992235E+02  0.75416953475E+02 -0.10331656173E+03  0.13584177052E+03  0.00000000000E+00 0.  1.
<scales pt_clust_5="13000.00000" pt_clust_6="13000.00000" pt_clust_7="13000.00000" pt_clust_8="13000.00000" pt_clust_9="13000.00000"></scales>
<clustering>
<clus scale="   89.303">  5  6 -1 -1</clus>
<clus scale="   91.381">  7  8 -1 -1</clus>
<clus scale="   88.197">  7  9 -1 -1</clus>
<clus scale="  122.377">  2  5  1 -1</clus>
<clus scale="  185.364">  1  5  2 -1</clus>
</clustering>
</event>
<event>
 9    1  0.3303741E-006  0.2045618E+03  0.7546771E-02  0.1165835E+00
          2   -1    0    0  502    0 -0.00000000000E+00  0.00000000000E+00  0.10885170273E+04  0.10885170273E+04  0.00000000000E+00 0. -1.
         21   -1    0    0  501  502  0.00000000000E+00 -0.00000000000E+00 -0.28194920327E+02  0.28194920327E+02  0.00000000000E+00 0. -1.
         23    2    1    2    0    0  0.40179709074E+01  0.91180591872E+02  0.59062142118E+03  0.60439928217E+03  0.90193041296E+02 0.  0.
         23    2    1    2    0    0 -0.53753739011E+02 -0.95606191509E+02  0.41068603311E+03  0.43500832023E+03  0.92407859882E+02 0.  0.
        -11    1    4    4    0    0 -0.70657879238E+02 -0.39200678329E+02  0.28462636710E+03  0.29587395615E+03  0.00000000000E+00 0. -1.
         11    1    4    4    0    0  0.16904140227E+02 -0.56405513181E+02  0.12605966601E+03  0.13913436408E+03  0.00000000000E+00 0.  1.
        -13    1    3    3    0    0  0.29067935102E+02  0.54880816690E+01  0.67262023799E+02  0.73479546386E+02  0.00000000000E+00 0.  1.
         13    1    3    3    0    0 -0.25049964195E+02  0.85692510203E+02  0.52335939738E+03  0.53091973578E+03  0.00000000000E+00 0. -1.
          2    1    1    2  501    0  0.49735768103E+02  0.44255996372E+01  0.59014652707E+02  0.77304345254E+02  0.00000000000E+00 0. -1.
<scales pt_clust_5="13000.00000" pt_clust_6="13000.00000" pt_clust_7="13000.00000" pt_clust_8="13000.00000" pt_clust_9="13000.00000"></scales>
<clustering>
<clus scale="   90.193">  7  8 -1 -1</clus>
<clus scale="   92.408">  5  6 -1 -1</clus>
<clus scale="   49.932">  5  9 -1 -1</clus>
<clus scale="  128.315">  1  7  2 -1</clus>
<clus scale="  204.562">  2  5  1 -1</clus>
</clustering>
</event>
<event>
 9    1  0.3303741E-006  0.2756975E+03  0.7546771E-02  0.1118590E+00
         21   -1    0    0  501  502  0.00000000000E+00  0.00000000000E+00  0.11620084254E+03  0.11620084254E+03  0.00000000000E+00 0. -1.
         -1   -1    0    0    0  501 -0.00000000000E+00 -0.00000000000E+00 -0.55313186735E+03  0.55313186735E+03  0.00000000000E+00 0.  1.
         23    2    1    2    0    0  0.73175638185E+02 -0.79003739714E+02 -0.33994262247E+03  0.37707279655E+03  0.12258320607E+03 0.  0.
         23    2    1    2    0    0 -0.51417508010E+02 -0.29217412521E+01 -0.15808960019E+03  0.18776801395E+03  0.87247972315E+02 0.  0.
        -11    1    3    3    0    0 -0.49955287003E+01  0.21914402633E+02 -0.12706082592E+02  0.25819389702E+02  0.00000000000E+00 0.  1.
         11    1    3    3    0    0  0.78171166885E+02 -0.10091814235E+03 -0.32723653988E+03  0.35125340684E+03  0.00000000000E+00 0. -1.
        -13    1    4    4    0    0 -0.18333839125E+01  0.36741037970E+02 -0.71307474856E+02  0.80237280226E+02  0.00000000000E+00 0.  1.
         13    1    4    4    0    0 -0.49584124098E+02 -0.39662779222E+02 -0.86782125337E+02  0.10753073373E+03  0.00000000000E+00 0. -1.
         -1    1    1    2    0  502 -0.21758130175E+02  0.81925480966E+02  0.61101197850E+02  0.10449189939E+03  0.00000000000E+00 0.  1.
<scales pt_clust_5="13000.00000" pt_clust_6="13000.00000" pt_clust_7="13000.00000" pt_clust_8="13000.00000" pt_clust_9="13000.00000"></scales>
<clustering>
<clus scale="   87.248">  7  8 -1 -1</clus>
<clus scale="   84.766">  7  9 -1 -1</clus>
<clus scale="  122.583">  5  6 -1 -1</clus>
<clus scale="  163.165">  2  5  1 -1</clus>
<clus scale="  275.697">  1  5  2 -1</clus>
</clustering>
</event>
<event>
 9    1  0.3303741E-006  0.1696461E+03  0.7546771E-02  0.1194221E+00
         21   -1    0    0  501  502  0.00000000000E+00  0.00000000000E+00  0.93113314594E+02  0.93113314594E+02  0.00000000000E+00 0.  1.
          3   -1    0    0  502    0 -0.00000000000E+00 -0.00000000000E+00 -0.22785426208E+03  0.22785426208E+03  0.00000000000E+00 0. -1.
         23    2    1    2    0    0 -0.71447197477E+02  0.26206863391E+02 -0.33777864467E+02  0.12355092114E+03  0.91281894539E+02 0.  0.
         23    2    1    2    0    0  0.41790368753E+02 -0.27063197860E+02 -0.12337879307E+03  0.16023164705E+03  0.89291671153E+02 0.  0.
        -13    1    4    4    0    0  0.60304100969E+02 -0.42100377703E+02 -0.68975950611E+02  0.10083009550E+03  0.00000000000E+00 0.  1.
         13    1    4    4    0    0 -0.18513732216E+02  0.15037179844E+02 -0.54402842461E+02  0.59401551546E+02  0.00000000000E+00 0. -1.
        -13    1    3    3    0    0  0.18830430256E+02 -0.80692431840E+01  0.19698645977E+01  0.20581014448E+02  0.00000000000E+00 0.  1.
         13    1    3    3    0    0 -0.90277627733E+02  0.34276106575E+02 -0.35747729065E+02  0.10296990669E+03  0.00000000000E+00 0. -1.
          3    1    1    2  501    0  0.29656828723E+02  0.85633446897E+00  0.22415710054E+02  0.37185008483E+02  0.00000000000E+00 0. -1.
<scales pt_clust_5="13000.00000" pt_clust_6="13000.00000" pt_clust_7="13000.00000" pt_clust_8="13000.00000" pt_clust_9="13000.00000"></scales>
<clustering>
<clus scale="   89.292">  5  6 -1 -1</clus>
<clus scale="   29.669">  5  9 -1 -1</clus>
<clus scale="   91.282">  7  8 -1 -1</clus>
<clus scale="  118.844">  2  7  1 -1</clus>
<clus scale="  169.646">  1  5  2 -1</clus>
</clustering>
</event>
<event>
 9    1  0.3303741E-006  0.1581869E+03  0.7546771E-02  0.1211782E+00
         -4   -1    0    0    0  501 -0.00000000000E+00  0.00000000000E+00  0.48536168808E+03  0.48536168808E+03  0.00000000000E+00 0.  1.
         21   -1    0    0  501  502  0.00000000000E+00 -0.00000000000E+00 -0.44082061498E+02  0.44082061498E+02  0.00000000000E+00 0. -1.
         23    2    1    2    0    0  0.12903223183E+02  0.42869226031E+02  0.30358225402E+03  0.31972091614E+03  0.89749738457E+02 0.  0.
         23    2    1    2    0    0 -0.10743621890E+02 -0.74408226141E+01  0.28592487120E+02  0.94989613863E+02  0.89636516942E+02 0.  0.
        -11    1    3    3    0    0  0.48076577955E+02  0.58868845061E+01  0.16830923265E+03  0.17513997417E+03  0.00000000000E+00 0.  1.
         11    1    3    3    0    0 -0.35173354772E+02  0.36982341525E+02  0.13527302137E+03  0.14458094197E+03  0.00000000000E+00 0. -1.
        -13    1    4    4    0    0 -0.52712852671E+01  0.30296074910E+02  0.44152085021E+02  0.53805624380E+02  0.00000000000E+00 0.  1.
         13    1    4    4    0    0 -0.54723366230E+01 -0.37736897524E+02 -0.15559597900E+02  0.41183989482E+02  0.00000000000E+00 0. -1.
         -4    1    1    2    0  502 -0.21596012931E+01 -0.35428403417E+02  0.10910488544E+03  0.11473321958E+03  0.00000000000E+00 0.  1.
<scales pt_clust_5="13000.00000" pt_clust_6="13000.00000" pt_clust_7="13000.00000" pt_clust_8="13000.00000" pt_clust_9="13000.00000"></scales>
<clustering>
<clus scale="   89.637">  7  8 -1 -1</clus>
<clus scale="   35.494">  7  9 -1 -1</clus>
<clus scale="   89.750">  5  6 -1 -1</clus>
<clus scale="  100.296">  1  5  2 -1</clus>
<clus scale="  158.187">  2  5  1 -1</clus>
</clustering>
</event>
<event>
 9    1  0.3303741E-006  0.2619315E+03  0.7546771E-02  0.1148249E+00
         -1   -1    0    0    0  501 -0.00000000000E+00  0.00000000000E+00  0.18975421514E+03  0.18975421514E+03  0.00000000000E+00 0.  1.
         21   -1    0    0  501  502  0.00000000000E+00 -0.00000000000E+00 -0.17919926266E+03  0.17919926266E+03  0.00000000000E+00 0.  1.
         23    2    1    2    0    0  0.88940480780E+01 -0.16709027174E+02  0.48622600991E+02  0.10427018927E+03  0.90276349970E+02 0.  0.
         23    2    1    2    0    0 -0.11064199776E+03  0.28375081516E+02 -0.33450077474E+02  0.16216468510E+03  0.11014390809E+03 0.  0.
        -13    1    3    3    0    0 -0.33166874934E+02 -0.33281536046E+02  0.23148357985E+02  0.52378895673E+02  0.00000000000E+00 0.  1.
         13    1    3    3    0    0  0.42060923012E+02  0.16572508872E+02  0.25474243006E+02  0.51891293602E+02  0.00000000000E+00 0. -1.
        -13    1    4    4    0    0 -0.84937851242E+02  0.59517944260E+02  0.83436344104E+01  0.10405018259E+03  0.00000000000E+00 0.  1.
         13    1    4    4    0    0 -0.25704146516E+02 -0.31142862743E+02 -0.41793711885E+02  0.58114502502E+02  0.00000000000E+00 0. -1.
         -1    1    1    2    0  502  0.10174794968E+03 -0.11666054342E+02 -0.46175710360E+01  0.10251860343E+03  0.00000000000E+00 0.  1.
<scales pt_clust_5="13000.00000" pt_clust_6="13000.00000" pt_clust_7="13000.00000" pt_clust_8="13000.00000" pt_clust_9="13000.00000"></scales>
<clustering>
<clus scale="   90.276">  5  6 -1 -1</clus>
<clus scale="   92.239">  1  5  2 -1</clus>
<clus scale="  110.144">  7  8 -1 -1</clus>
<clus scale="  107.266">  7  9 -1 -1</clus>
<clus scale="  261.931">  2  5  1 -1</clus>
</clustering>
</event>
<event>
 9    1  0.3303741E-006  0.3184761E+03  0.7546771E-02  0.1118935E+00
          2   -1    0    0  502    0 -0.00000000000E+00  0.00000000000E+00  0.65151777635E+03  0.65151777635E+03  0.00000000000E+00 0. -1.
         21   -1    0    0  501  502  0.00000000000E+00 -0.00000000000E+00 -0.71758237975E+02  0.71758237975E+02  0.00000000000E+00 0. -1.
         23    2    1    2    0    0  0.49465526017E+02 -0.14644717813E+02  0.85805702805E+02  0.13555379346E+03  0.91383293129E+02 0.  0.
         23    2    1    2    0    0  0.15050662628E+01  0.14489038122E+03  0.20579171429E+03  0.26741090004E+03  0.90348613674E+02 0.  0.
        -11    1    4    4    0    0  0.31799009641E+02  0.12878506734E+02  0.53996086570E+02  0.63973512603E+02  0.00000000000E+00 0.  1.
         11    1    4    4    0    0 -0.30293943378E+02  0.13201187448E+03  0.15179562772E+03  0.20343738743E+03  0.00000000000E+00 0. -1.
        -13    1    3    3    0    0 -0.26769029959E+02 -0.19426999425E+01  0.29827534595E+02  0.40125264710E+02  0.00000000000E+00 0.  1.
         13    1    3    3    0    0  0.76234555976E+02 -0.12702017871E+02  0.55978168210E+02  0.95428528748E+02  0.00000000000E+00 0. -1.
          2    1    1    2  501    0 -0.50970592280E+02 -0.13024566340E+03  0.28816212128E+03  0.32031132083E+03  0.00000000000E+00 0. -1.
<scales pt_clust_5="13000.00000" pt_clust_6="13000.00000" pt_clust_7="13000.00000" pt_clust_8="13000.00000" pt_clust_9="13000.00000"></scales>
<clustering>
<clus scale="   90.349">  5  6 -1 -1</clus>
<clus scale="   91.383">  7  8 -1 -1</clus>
<clus scale="  104.939">  1  7  2 -1</clus>
<clus scale="  140.405">  5  9 -1 -1</clus>
<clus scale="  318.476">  2  5  1 -1</clus>
</clustering>
</event>
<event>
 9    1  0.3303741E-006  0.1786679E+03  0.7546771E-02  0.1206493E+00
         -4   -1    0    0    0  501 -0.00000000000E+00  0.00000000000E+00  0.31301112552E+03  0.31301112552E+03  0.00000000000E+00 0.  1.
         21   -1    0    0  501  502  0.00000000000E+00 -0.00000000000E+00 -0.53289349026E+02  0.53289349026E+02  0.00000000000E+00 0.  1.
         23    2    1    2    0    0 -0.21965608809E+02  0.16227931610E+02  0.98831073818E+02  0.12586748604E+03  0.73001432562E+02 0.  0.
         23    2    1    2    0    0  0.29605305283E+02 -0.55305491894E+02  0.16618538280E+03  0.20026516161E+03  0.92484495797E+02 0.  0.
        -11    1    4    4    0    0  0.59105345010E+02 -0.54593512701E+02  0.13622949141E+03  0.15821620577E+03  0.00000000000E+00 0.  1.
         11    1    4    4    0    0 -0.29500039727E+02 -0.71197919259E+00  0.29955891392E+02  0.42048955842E+02  0.00000000000E+00 0. -1.
        -13    1    3    3    0    0 -0.23723034328E+02  0.38735822632E+02  0.91459649687E+02  0.10211813665E+03  0.00000000000E+00 0. -1.
         13    1    3    3    0    0  0.17574255187E+01 -0.22507891022E+02  0.73714241308E+01  0.23749349390E+02  0.00000000000E+00 0.  1.
         -4    1    1    2    0  502 -0.76396964739E+01  0.39077560284E+02 -0.52946801232E+01  0.40167826896E+02  0.00000000000E+00 0.  1.
<scales pt_clust_5="13000.00000" pt_clust_6="13000.00000" pt_clust_7="13000.00000" pt_clust_8="13000.00000" pt_clust_9="13000.00000"></scales>
<clustering>
<clus scale="   73.001">  7  8 -1 -1</clus>
<clus scale="   77.943">  1  7  2 -1</clus>
<clus scale="   92.484">  5  6 -1 -1</clus>
<clus scale="   41.598">  5  9 -1 -1</clus>
<clus scale="  178.668">  2  5  1 -1</clus>
</clustering>
</event>
<event>
 9    1  0.3303741E-006  0.2965946E+03  0.7546771E-02  0.1119937E+00
         21   -1    0    0  501  502  0.00000000000E+00  0.00000000000E+00  0.11690932400E+03  0.11690932400E+03  0.00000000000E+00 0. -1.
          2   -1    0    0  502    0 -0.00000000000E+00 -0.00000000000E+00 -0.46624524783E+03  0.46624524783E+03  0.00000000000E+00 0. -1.
         23    2    1    2    0    0 -0.42940425309E+02 -0.74794616810E+02 -0.23170469608E+03  0.26408493318E+03  0.92820638422E+02 0.  0.
         23    2    1    2    0    0  0.10722428018E+03 -0.30549720015E+02 -0.13162423795E+03  0.19486960792E+03  0.90658107325E+02 0.  0.
        -13    1    4    4    0    0  0.11665981774E+03 -0.54208469003E+01 -0.10460085797E+03  0.15678086026E+03  0.00000000000E+00 0. -1.
         13    1    4    4    0    0 -0.94355375596E+01 -0.25128873115E+02 -0.27023379977E+02  0.38088747662E+02  0.00000000000E+00 0.  1.
        -13    1    3    3    0    0 -0.42372640006E+02 -0.43341010182E+02 -0.22350098940E+03  0.23157412646E+03  0.00000000000E+00 0. -1.
         13    1    3    3    0    0 -0.56778530351E+00 -0.31453606628E+02 -0.82037066818E+01  0.32510806717E+02  0.00000000000E+00 0.  1.
          2    1    1    2  501    0 -0.64283854870E+02  0.10534433682E+03  0.13993010207E+02  0.12420003073E+03  0.00000000000E+00 0. -1.
<scales pt_clust_5="13000.00000" pt_clust_6="13000.00000" pt_clust_7="13000.00000" pt_clust_8="13000.00000" pt_clust_9="13000.00000"></scales>
<clustering>
<clus scale="   90.658">  5  6 -1 -1</clus>
<clus scale="   92.821">  7  8 -1 -1</clus>
<clus scale="  123.409">  5  9 -1 -1</clus>
<clus scale="  126.704">  2  7  1 -1</clus>
<clus scale="  296.595">  1  5  2 -1</clus>
</clustering>
</event>
<event>
 9    1  0.3303741E-006  0.3303486E+03  0.7546771E-02  0.1102213E+00
          1   -1    0    0  502    0 -0.00000000000E+00  0.00000000000E+00  0.28796184648E+03  0.28796184648E+03  0.00000000000E+00 0. -1.
         21   -1    0    0  501  502  0.00000000000E+00 -0.00000000000E+00 -0.21389920439E+03  0.21389920439E+03  0.00000000000E+00 0. -1.
         23    2    1    2    0    0 -0.66280957613E+02 -0.87998750660E+02  0.92388112763E+02  0.17100456025E+03  0.92574568789E+02 0.  0.
         23    2    1    2    0    0 -0.58627212577E+02  0.84933511681E+00  0.85884056633E+02  0.14631192367E+03  0.10292344922E+03 0.  0.
        -11    1    3    3    0    0 -0.86456778648E+02 -0.65198702004E+02  0.51182936462E+02  0.11977202638E+03  0.00000000000E+00 0.  1.
         11    1    3    3    0    0  0.20175821035E+02 -0.22800048656E+02  0.41205176301E+02  0.51232533875E+02  0.00000000000E+00 0. -1.
        -13    1    4    4    0    0 -0.21869812161E+02  0.78197463803E+01  0.10270034917E+03  0.10529386895E+03  0.00000000000E+00 0. -1.
         13    1    4    4    0    0 -0.36757400416E+02 -0.69704112635E+01 -0.16816292541E+02  0.41018054724E+02  0.00000000000E+00 0.  1.
          1    1    1    2  501    0  0.12490817019E+03  0.87149415543E+02 -0.10420952730E+03  0.18454456695E+03  0.00000000000E+00 0. -1.
<scales pt_clust_5="13000.00000" pt_clust_6="13000.00000" pt_clust_7="13000.00000" pt_clust_8="13000.00000" pt_clust_9="13000.00000"></scales>
<clustering>
<clus scale="   92.575">  5  6 -1 -1</clus>
<clus scale="  102.923">  7  8 -1 -1</clus>
<clus scale="  143.899">  1  5  2 -1</clus>
<clus scale="  125.699">  7  9 -1 -1</clus>
<clus scale="  330.349">  2  5  1 -1</clus>
</clustering>
</event>
<event>
 9    1  0.3303741E-006  0.4984586E+03  0.7546771E-02  0.1037335E+00
         21   -1    0    0  501  502  0.00000000000E+00  0.00000000000E+00  0.29001382822E+03  0.29001382822E+03  0.00000000000E+00 0. -1.
          1   -1    0    0  502    0 -0.00000000000E+00 -0.00000000000E+00 -0.48579174522E+03  0.48579174522E+03  0.00000000000E+00 0. -1.
         23    2    1    2    0    0 -0.22756346725E+03 -0.13958903473E+02 -0.33120304048E+02  0.25147890380E+03  0.10082014632E+03 0.  0.
         23    2    1    2    0    0  0.28339378979E+02 -0.15704373307E+03  0.44976423540E+02  0.18959687986E+03  0.91968710348E+02 0.  0.
        -11    1    4    4    0    0  0.61247409195E+02 -0.10373809810E+03  0.39196904475E+02  0.12668557712E+03  0.00000000000E+00 0. -1.
         11    1    4    4    0    0 -0.32908030216E+02 -0.53305634965E+02  0.57795190643E+01  0.62911302739E+02  0.00000000000E+00 0.  1.
        -11    1    3    3    0    0 -0.21981445616E+03  0.49540988072E+01 -0.49396908463E+02  0.22535082160E+03  0.00000000000E+00 0. -1.
         11    1    3    3    0    0 -0.77490110932E+01 -0.18913002280E+02  0.16276604415E+02  0.26128082200E+02  0.00000000000E+00 0.  1.
          1    1    1    2  501    0  0.19922408827E+03  0.17100263654E+03 -0.20763403649E+03  0.33472978977E+03  0.00000000000E+00 0. -1.
<scales pt_clust_5="13000.00000" pt_clust_6="13000.00000" pt_clust_7="13000.00000" pt_clust_8="13000.00000" pt_clust_9="13000.00000"></scales>
<clustering>
<clus scale="   91.969">  5  6 -1 -1</clus>
<clus scale="  100.820">  7  8 -1 -1</clus>
<clus scale="  249.288">  2  7  1 -1</clus>
<clus scale="  161.174">  5  9 -1 -1</clus>
<clus scale="  498.459">  1  5  2 -1</clus>
</clustering>
</event>
<event>
 9    1  0.3303741E-006  0.1436963E+03  0.7546771E-02  0.1221493E+00
          2   -1    0    0  502    0 -0.00000000000E+00  0.00000000000E+00  0.11010611080E+04  0.11010611080E+04  0.00000000000E+00 0. -1.
         21   -1    0    0  501  502  0.00000000000E+00 -0.00000000000E+00 -0.15182541863E+02  0.15182541863E+02  0.00000000000E+00 0.  1.
         23    2    1    2    0    0 -0.34177204342E+02  0.49243828692E+02  0.35431023311E+03  0.37069630283E+03  0.91032805541E+02 0.  0.
         23    2    1    2    0    0 -0.11311859666E+01 -0.44083787848E+02  0.47358968526E+03  0.48511253532E+03  0.95406089999E+02 0.  0.
        -11    1    3    3    0    0 -0.59098798454E+02  0.64359892918E+01  0.19616595390E+03  0.20497602641E+03  0.00000000000E+00 0.  1.
         11    1    3    3    0    0  0.24921594112E+02  0.42807839400E+02  0.15814427922E+03  0.16572027642E+03  0.00000000000E+00 0. -1.
        -13    1    4    4    0    0 -0.24601679041E+02  0.22733428260E+02  0.18105485315E+03  0.18412743202E+03  0.00000000000E+00 0. -1.
         13    1    4    4    0    0  0.23470493075E+02 -0.66817216108E+02  0.29253483211E+03  0.30098510330E+03  0.00000000000E+00 0.  1.
          2    1    1    2  501    0  0.35308390309E+02 -0.51600408441E+01  0.25797864780E+03  0.26043481174E+03  0.00000000000E+00 0. -1.
<scales pt_clust_5="13000.00000" pt_clust_6="13000.00000" pt_clust_7="13000.00000" pt_clust_8="13000.00000" pt_clust_9="13000.00000"></scales>
<clustering>
<clus scale="   91.033">  5  6 -1 -1</clus>
<clus scale="   95.406">  7  8 -1 -1</clus>
<clus scale="   35.683">  7  9 -1 -1</clus>
<clus scale="  108.996">  1  5  2 -1</clus>
<clus scale="  143.696">  2  5  1 -1</clus>
</clustering>
</event>
<event>
 9    1  0.3303741E-006  0.3799144E+03  0.7546771E-02  0.1078458E+00
          2   -1    0    0  502    0 -0.00000000000E+00  0.00000000000E+00  0.11026962853E+04  0.11026962853E+04  0.00000000000E+00 0. -1.
         21   -1    0    0  501  502  0.00000000000E+00 -0.00000000000E+00 -0.71352094775E+02  0.71352094775E+02  0.00000000000E+00 0.  1.
         23    2    1    2    0    0  0.14748837649E+03  0.35097115228E+02  0.39480838886E+03  0.43275710025E+03  0.91762820435E+02 0.  0.
         23    2    1    2    0    0 -0.13635939125E+03  0.28104354452E+02  0.65443982231E+03  0.67466670449E+03  0.86602210112E+02 0.  0.
        -13    1    4    4    0    0 -0.23399107792E+02 -0.28834735142E+02  0.16713224726E+03  0.17120790949E+03  0.00000000000E+00 0. -1.
         13    1    4    4    0    0 -0.11296028346E+03  0.56939089594E+02  0.48730757504E+03  0.50345879500E+03  0.00000000000E+00 0.  1.
        -13    1    3    3    0    0  0.13207596531E+03  0.95315324270E+01  0.37294213389E+03  0.39575339033E+03  0.00000000000E+00 0. -1.
         13    1    3    3    0    0  0.15412411181E+02  0.25565582801E+02  0.21866254962E+02  0.37003709929E+02  0.00000000000E+00 0.  1.
          2    1    1    2  501    0 -0.11128985234E+02 -0.63201469680E+02 -0.17904020646E+02  0.66624575326E+02  0.00000000000E+00 0. -1.
<scales pt_clust_5="13000.00000" pt_clust_6="13000.00000" pt_clust_7="13000.00000" pt_clust_8="13000.00000" pt_clust_9="13000.00000"></scales>
<clustering>
<clus scale="   86.602">  5  6 -1 -1</clus>
<clus scale="   64.174">  5  9 -1 -1</clus>
<clus scale="   91.763">  7  8 -1 -1</clus>
<clus scale="  177.215">  1  7  2 -1</clus>
<clus scale="  379.914">  2  5  1 -1</clus>
</clustering>
</event>
<event>
 9    1  0.3303741E-006  0.2394294E+03  0.7546771E-02  0.1151726E+00
         21   -1    0    0  501  502  0.00000000000E+00  0.00000000000E+00  0.63066152085E+02  0.63066152085E+02  0.00000000000E+00 0.  1.
          1   -1    0    0  502    0 -0.00000000000E+00 -0.00000000000E+00 -0.50798175606E+03  0.50798175606E+03  0.00000000000E+00 0. -1.
         23    2    1    2    0    0  0.21022335059E+02  0.50555712601E+02 -0.90743464669E+02  0.14353842027E+03  0.96804354578E+02 0.  0.
         23    2    1    2    0    0 -0.10851010117E+02  0.51767376927E+02 -0.28013316408E+03  0.30080021294E+03  0.95961308633E+02 0.  0.
        -13    1    4    4    0    0 -0.26766553328E+02 -0.21139952934E+02 -0.71396031437E+02  0.79124833599E+02  0.00000000000E+00 0.  1.
         13    1    4    4    0    0  0.15915543211E+02  0.72907329861E+02 -0.20873713264E+03  0.22167537934E+03  0.00000000000E+00 0. -1.
        -13    1    3    3    0    0  0.34284860094E+02  0.24425267998E+02 -0.10338333530E+03  0.11162508395E+03  0.00000000000E+00 0. -1.
         13    1    3    3    0    0 -0.13262525035E+02  0.26130444603E+02  0.12639870633E+02  0.31913336320E+02  0.00000000000E+00 0.  1.
          1    1    1    2  501    0 -0.10171324943E+02 -0.10232308953E+03 -0.74038975226E+02  0.12670927493E+03  0.00000000000E+00 0. -1.
<scales pt_clust_5="13000.00000" pt_clust_6="13000.00000" pt_clust_7="13000.00000" pt_clust_8="13000.00000" pt_clust_9="13000.00000"></scales>
<clustering>
<clus scale="   95.961">  5  6 -1 -1</clus>
<clus scale="   96.804">  7  8 -1 -1</clus>
<clus scale="  102.827">  5  9 -1 -1</clus>
<clus scale="  111.216">  2  7  1 -1</clus>
<clus scale="  239.429">  1  5  2 -1</clus>
</clustering>
</event>
<event>
 9    1  0.3303741E-006  0.2494487E+03  0.7546771E-02  0.1133659E+00
         21   -1    0    0  501  502  0.00000000000E+00  0.00000000000E+00  0.15643892950E+03  0.15643892950E+03  0.00000000000E+00 0.  1.
         -1   -1    0    0    0  501 -0.00000000000E+00 -0.00000000000E+00 -0.26292708999E+03  0.26292708999E+03  0.00000000000E+00 0.  1.
         23    2    1    2    0    0  0.10532854513E+03  0.57595072588E+02 -0.10580230189E+02  0.15211519681E+03  0.92821317734E+02 0.  0.
         23    2    1    2    0    0 -0.14937189939E+03 -0.86773058865E+02 -0.68644700521E+02  0.20779953475E+03  0.92881772504E+02 0.  0.
        -11    1    3    3    0    0  0.35068963938E+02  0.69736823352E+02 -0.18948034190E+02  0.80324870138E+02  0.00000000000E+00 0. -1.
         11    1    3    3    0    0  0.70259581188E+02 -0.12141750764E+02  0.83678040019E+01  0.71790326676E+02  0.00000000000E+00 0.  1.
        -11    1    4    4    0    0 -0.31702663436E+02  0.19798998128E+02 -0.13191431408E+02  0.39636763975E+02  0.00000000000E+00 0. -1.
         11    1    4    4    0    0 -0.11766923595E+03 -0.10657205699E+03 -0.55453269114E+02  0.16816277078E+03  0.00000000000E+00 0.  1.
         -1    1    1    2    0  502  0.44043354260E+02  0.29177986277E+02 -0.27263229784E+02  0.59451287924E+02  0.00000000000E+00 0.  1.
<scales pt_clust_5="13000.00000" pt_clust_6="13000.00000" pt_clust_7="13000.00000" pt_clust_8="13000.00000" pt_clust_9="13000.00000"></scales>
<clustering>
<clus scale="   92.821">  5  6 -1 -1</clus>
<clus scale="   92.882">  7  8 -1 -1</clus>
<clus scale="   52.832">  7  9 -1 -1</clus>
<clus scale="  151.747">  2  5  1 -1</clus>
<clus scale="  249.449">  1  5  2 -1</clus>
</clustering>
</event>
<event>
 9    1  0.3303741E-006  0.3640129E+03  0.7546771E-02  0.1072842E+00
         21   -1    0    0  501  502  0.00000000000E+00  0.00000000000E+00  0.19064671383E+03  0.19064671383E+03  0.00000000000E+00 0. -1.
          1   -1    0    0  502    0 -0.00000000000E+00 -0.00000000000E+00 -0.80073533764E+03  0.80073533764E+03  0.00000000000E+00 0. -1.
         23    2    1    2    0    0 -0.13171395897E+03 -0.17408008218E+03 -0.58053648626E+03  0.62617153486E+03  0.86114674688E+02 0.  0.
         23    2    1    2    0    0  0.46462255033E+02  0.16169719428E+02  0.10072024981E+03  0.14345743185E+03  0.89528012722E+02 0.  0.
        -11    1    3    3    0    0  0.10514858785E+02 -0.24435922219E+02 -0.45800811441E+02  0.52965940741E+02  0.00000000000E+00 0.  1.
         11    1    3    3    0    0 -0.14222881776E+03 -0.14964415996E+03 -0.53473567481E+03  0.57320559412E+03  0.00000000000E+00 0. -1.
        -13    1    4    4    0    0  0.15270337331E+02 -0.31548849738E+02  0.10240530028E+02  0.36515497768E+02  0.00000000000E+00 0.  1.
         13    1    4    4    0    0  0.31191917702E+02  0.47718569166E+02  0.90479719783E+02  0.10694193408E+03  0.00000000000E+00 0. -1.
          1    1    1    2  501    0  0.85251703940E+02  0.15791036275E+03 -0.13027238736E+03  0.22175308475E+03  0.00000000000E+00 0. -1.
<scales pt_clust_5="13000.00000" pt_clust_6="13000.00000" pt_clust_7="13000.00000" pt_clust_8="13000.00000" pt_clust_9="13000.00000"></scales>
<clustering>
<clus scale="   86.115">  5  6 -1 -1</clus>
<clus scale="   89.528">  7  8 -1 -1</clus>
<clus scale="  179.454">  7  9 -1 -1</clus>
<clus scale="  234.666">  2  5  1 -1</clus>
<clus scale="  364.013">  1  5  2 -1</clus>
</clustering>
</event>
<event>
 9    1  0.3303741E-006  0.5952199E+03  0.7546771E-02  0.1022153E+00
         21   -1    0    0  501  502  0.00000000000E+00  0.00000000000E+00  0.25343099253E+03  0.25343099253E+03  0.00000000000E+00 0.  1.
          1   -1    0    0  502    0 -0.00000000000E+00 -0.00000000000E+00 -0.92310585906E+03  0.92310585906E+03  0.00000000000E+00 0. -1.
         23    2    1    2    0    0  0.21090367835E+03  0.99010287265E+01 -0.51137193441E+03  0.56062565216E+03  0.90672347710E+02 0.  0.
         23    2    1    2    0    0  0.49859008081E+02 -0.19259334812E+03 -0.19644216932E+03  0.29524273573E+03  0.94871643194E+02 0.  0.
        -13    1    4    4    0    0  0.66146814809E+01 -0.16696245180E+03 -0.12883425029E+03  0.21099402449E+03  0.00000000000E+00 0.  1.
         13    1    4    4    0    0  0.43244326601E+02 -0.25630896325E+02 -0.67607919025E+02  0.84248711233E+02  0.00000000000E+00 0. -1.
        -13    1    3    3    0    0  0.18422661497E+03  0.40479160357E+02 -0.40475819683E+03  0.44655033982E+03  0.00000000000E+00 0.  1.
         13    1    3    3    0    0  0.26677063375E+02 -0.30578131630E+02 -0.10661373758E+03  0.11407531234E+03  0.00000000000E+00 0. -1.
          1    1    1    2  501    0 -0.26076268643E+03  0.18269231940E+03  0.38139237206E+02  0.32066846371E+03  0.00000000000E+00 0. -1.
<scales pt_clust_5="13000.00000" pt_clust_6="13000.00000" pt_clust_7="13000.00000" pt_clust_8="13000.00000" pt_clust_9="13000.00000"></scales>
<clustering>
<clus scale="   90.672">  7  8 -1 -1</clus>
<clus scale="   94.872">  5  6 -1 -1</clus>
<clus scale="  229.782">  2  7  1 -1</clus>
<clus scale="  261.709">  5  9 -1 -1</clus>
<clus scale="  595.220">  1  5  2 -1</clus>
</clustering>
</event>
<event>
 9    1  0.3303741E-006  0.1870632E+03  0.7546771E-02  0.1181918E+00
         -1   -1    0    0    0  501 -0.00000000000E+00  0.00000000000E+00  0.25205502680E+03  0.25205502680E+03  0.00000000000E+00 0.  1.
         21   -1    0    0  501  502  0.00000000000E+00 -0.00000000000E+00 -0.95014272269E+02  0.95014272269E+02  0.00000000000E+00 0. -1.
         23    2    1    2    0    0  0.37515183948E+02  0.63065239827E+02  0.94078688626E+02  0.14969433704E+03  0.90404542956E+02 0.  0.
         23    2    1    2    0    0 -0.22821764320E+02 -0.48770007785E+02  0.95320883207E+02  0.15906904478E+03  0.11540166223E+03 0.  0.
        -11    1    4    4    0    0  0.10739984212E+02  0.23107663687E+02 -0.98642082747E+01  0.27324238083E+02  0.00000000000E+00 0. -1.
         11    1    4    4    0    0 -0.33561748532E+02 -0.71877671472E+02  0.10518509148E+03  0.13174480669E+03  0.00000000000E+00 0.  1.
        -13    1    3    3    0    0 -0.25728301723E+02  0.57468433425E+01  0.59839465111E+01  0.27032930544E+02  0.00000000000E+00 0.  1.
         13    1    3    3    0    0  0.63243485671E+02  0.57318396485E+02  0.88094742115E+02  0.12266140650E+03  0.00000000000E+00 0. -1.
         -1    1    1    2    0  502 -0.14693419628E+02 -0.14295232042E+02 -0.32358817302E+02  0.38305917254E+02  0.00000000000E+00 0.  1.
<scales pt_clust_5="13000.00000" pt_clust_6="13000.00000" pt_clust_7="13000.00000" pt_clust_8="13000.00000" pt_clust_9="13000.00000"></scales>
<clustering>
<clus scale="   90.405">  7  8 -1 -1</clus>
<clus scale="  115.402">  5  6 -1 -1</clus>
<clus scale="   20.500">  5  9 -1 -1</clus>
<clus scale="  116.437">  1  7  2 -1</clus>
<clus scale="  187.063">  2  5  1 -1</clus>
</clustering>
</event>
<event>
 9    1  0.3303741E-006  0.1979455E+03  0.7546771E-02  0.1178508E+00
          3   -1    0    0  502    0 -0.00000000000E+00  0.00000000000E+00  0.69646800894E+02  0.69646800894E+02  0.00000000000E+00 0. -1.
         21   -1    0    0  501  502  0.00000000000E+00 -0.00000000000E+00 -0.35497515523E+03  0.35497515523E+03  0.00000000000E+00 0.  1.
         23    2    1    2    0    0  0.40476964895E+02 -0.29551381629E+02 -0.15423738697E+03  0.18720408166E+03  0.93512180004E+02 0.  0.
         23    2    1    2    0    0 -0.57133092261E+02  0.83909714228E+02 -0.67151648648E+02  0.15185800431E+03  0.90810127100E+02 0.  0.
        -11    1    4    4    0    0 -0.77766856758E+02  0.45067398303E+02 -0.57888626087E+02  0.10691046455E+03  0.00000000000E+00 0.  1.
         11    1    4    4    0    0  0.20633764496E+02  0.38842315925E+02 -0.92630225614E+01  0.44947539762E+02  0.00000000000E+00 0. -1.
        -13    1    3    3    0    0 -0.15642948645E+00  0.28355989034E+02 -0.78988606004E+02  0.83924290064E+02  0.00000000000E+00 0.  1.
         13    1    3    3    0    0  0.40633394381E+02 -0.57907370663E+02 -0.75248780967E+02  0.10327979160E+03  0.00000000000E+00 0. -1.
          3    1    1    2  501    0  0.16656127367E+02 -0.54358332599E+02 -0.63939318715E+02  0.85559870147E+02  0.00000000000E+00 0. -1.
<scales pt_clust_5="13000.00000" pt_clust_6="13000.00000" pt_clust_7="13000.00000" pt_clust_8="13000.00000" pt_clust_9="13000.00000"></scales>
<clustering>
<clus scale="   90.810">  5  6 -1 -1</clus>
<clus scale="   56.853">  5  9 -1 -1</clus>
<clus scale="   93.512">  7  8 -1 -1</clus>
<clus scale="  106.095">  1  7  2 -1</clus>
<clus scale="  197.945">  2  5  1 -1</clus>
</clustering>
</event>
<event>
 9    1  0.3303741E-006  0.5095714E+03  0.7546771E-02  0.1057132E+00
         21   -1    0    0  501  502  0.00000000000E+00  0.00000000000E+00  0.12087572560E+03  0.12087572560E+03  0.00000000000E+00 0. -1.
          2   -1    0    0  502    0 -0.00000000000E+00 -0.00000000000E+00 -0.98038414938E+03  0.98038414938E+03  0.00000000000E+00 0. -1.
         23    2    1    2    0    0  0.29546455105E+02  0.93296707453E+02 -0.37691151456E+03  0.39943167160E+03  0.88916263080E+02 0.  0.
         23    2    1    2    0    0  0.32812563657E+02 -0.22149183365E+03 -0.50252972473E+03  0.55788392689E+03  0.92536776085E+02 0.  0.
        -13    1    4    4    0    0 -0.18628921490E+02 -0.11022261086E+03 -0.16982065265E+03  0.20331039011E+03  0.00000000000E+00 0.  1.
         13    1    4    4    0    0  0.51441485147E+02 -0.11126922279E+03 -0.33270907208E+03  0.35457353677E+03  0.00000000000E+00 0. -1.
        -13    1    3    3    0    0  0.54720979242E+02  0.37727199661E+02 -0.24897748995E+03  0.25769656122E+03  0.00000000000E+00 0.  1.
         13    1    3    3    0    0 -0.25174524137E+02  0.55569507792E+02 -0.12793402461E+03  0.14173511038E+03  0.00000000000E+00 0. -1.
          2    1    1    2  501    0 -0.62359018762E+02  0.12819512620E+03  0.19932815503E+02  0.14394427649E+03  0.00000000000E+00 0. -1.
<scales pt_clust_5="13000.00000" pt_clust_6="13000.00000" pt_clust_7="13000.00000" pt_clust_8="13000.00000" pt_clust_9="13000.00000"></scales>
<clustering>
<clus scale="   88.916">  7  8 -1 -1</clus>
<clus scale="   92.537">  5  6 -1 -1</clus>
<clus scale="  132.225">  2  7  1 -1</clus>
<clus scale="  150.154">  5  9 -1 -1</clus>
<clus scale="  509.571">  1  5  2 -1</clus>
</clustering>
</event>
<event>
 9    1  0.3303741E-006  0.2174527E+03  0.7546771E-02  0.1152754E+00
         21   -1    0    0  501  502  0.00000000000E+00  0.00000000000E+00  0.39674570846E+03  0.39674570846E+03  0.00000000000E+00 0. -1.
          3   -1    0    0  502    0 -0.00000000000E+00 -0.00000000000E+00 -0.17109465501E+03  0.17109465501E+03  0.00000000000E+00 0. -1.
         23    2    1    2    0    0 -0.81792251921E+02  0.74513588366E+02 -0.10014594419E+03  0.17613974706E+03  0.93561493316E+02 0.  0.
         23    2    1    2    0    0 -0.68161312283E+01 -0.88502993273E+02  0.20245797672E+03  0.23918942635E+03  0.91340625555E+02 0.  0.
        -11    1    3    3    0    0  0.20034955300E+02  0.18552864286E+02 -0.99988840839E+01  0.29078959576E+02  0.00000000000E+00 0.  1.
         11    1    3    3    0    0 -0.10182720722E+03  0.55960724080E+02 -0.90147060101E+02  0.14706078748E+03  0.00000000000E+00 0. -1.
        -11    1    4    4    0    0  0.21010644107E+02 -0.17311387676E+02  0.53025504705E+01  0.27735326761E+02  0.00000000000E+00 0.  1.
         11    1    4    4    0    0 -0.27826775335E+02 -0.71191605597E+02  0.19715542625E+03  0.21145409959E+03  0.00000000000E+00 0. -1.
          3    1    1    2  501    0  0.88608383150E+02  0.13989404907E+02  0.12333902091E+03  0.15251119006E+03  0.00000000000E+00 0. -1.
<scales pt_clust_5="13000.00000" pt_clust_6="13000.00000" pt_clust_7="13000.00000" pt_clust_8="13000.00000" pt_clust_9="13000.00000"></scales>
<clustering>
<clus scale="   91.341">  7  8 -1 -1</clus>
<clus scale="   89.706">  7  9 -1 -1</clus>
<clus scale="   93.561">  5  6 -1 -1</clus>
<clus scale="  144.900">  2  5  1 -1</clus>
<clus scale="  217.453">  1  5  2 -1</clus>
</clustering>
</event>
<event>
 9    1  0.3303741E-006  0.1617477E+03  0.7546771E-02  0.1204948E+00
         -1   -1    0    0    0  501 -0.00000000000E+00  0.00000000000E+00  0.36959785349E+03  0.36959785349E+03  0.00000000000E+00 0.  1.
         21   -1    0    0  501  502  0.00000000000E+00 -0.00000000000E+00 -0.64128073521E+02  0.64128073521E+02  0.00000000000E+00 0.  1.
         23    2    1    2    0    0 -0.57394118273E+02 -0.20545386356E+02  0.27349148083E+02  0.11199096086E+03  0.89876591511E+02 0.  0.
         23    2    1    2    0    0  0.80791173645E+02  0.56558312227E+01  0.26509978318E+03  0.29109734951E+03  0.88885148843E+02 0.  0.
        -11    1    4    4    0    0  0.48303982518E+02 -0.38154865402E+01  0.24891341202E+03  0.25358572386E+03  0.00000000000E+00 0.  1.
         11    1    4    4    0    0  0.32487191127E+02  0.94713177629E+01  0.16186371164E+02  0.37511625651E+02  0.00000000000E+00 0. -1.
        -13    1    3    3    0    0  0.59536082783E+01 -0.40835265124E+02  0.38576518805E+01  0.41446903471E+02  0.00000000000E+00 0.  1.
         13    1    3    3    0    0 -0.63347726552E+02  0.20289878768E+02  0.23491496203E+02  0.70544057394E+02  0.00000000000E+00 0. -1.
         -1    1    1    2    0  502 -0.23397055372E+02  0.14889555134E+02  0.13020848708E+02  0.30637616637E+02  0.00000000000E+00 0.  1.
<scales pt_clust_5="13000.00000" pt_clust_6="13000.00000" pt_clust_7="13000.00000" pt_clust_8="13000.00000" pt_clust_9="13000.00000"></scales>
<clustering>
<clus scale="   88.885">  5  6 -1 -1</clus>
<clus scale="   27.733">  5  9 -1 -1</clus>
<clus scale="   89.877">  7  8 -1 -1</clus>
<clus scale="  108.600">  1  7  2 -1</clus>
<clus scale="  161.748">  2  5  1 -1</clus>
</clustering>
</event>
<event>
 9    1  0.3303741E-006  0.3304998E+03  0.7546771E-02  0.1107232E+00
         -4   -1    0    0    0  501 -0.00000000000E+00  0.00000000000E+00  0.10497891375E+04  0.10497891375E+04  0.00000000000E+00 0.  1.
         21   -1    0    0  501  502  0.00000000000E+00 -0.00000000000E+00 -0.51823219494E+02  0.51823219494E+02  0.00000000000E+00 0.  1.
         23    2    1    2    0    0 -0.74979426085E+02 -0.45626677023E+02  0.38553078388E+03  0.40569072146E+03  0.90814471137E+02 0.  0.
         23    2    1    2    0    0  0.17902609815E+03  0.84045422081E+02  0.44201411723E+03  0.49258685509E+03  0.90284844732E+02 0.  0.
        -11    1    3    3    0    0 -0.65551782410E+02 -0.71828175104E+02  0.27429302068E+03  0.29102059052E+03  0.00000000000E+00 0.  1.
         11    1    3    3    0    0 -0.94276436759E+01  0.26201498081E+02  0.11123776321E+03  0.11467013094E+03  0.00000000000E+00 0. -1.
        -13    1    4    4    0    0  0.14250741025E+03  0.23091380404E+02  0.32610015209E+03  0.35662709238E+03  0.00000000000E+00 0.  1.
         13    1    4    4    0    0  0.36518687894E+02  0.60954041678E+02  0.11591396514E+03  0.13595976271E+03  0.00000000000E+00 0. -1.
         -4    1    1    2    0  502 -0.10404667206E+03 -0.38418745059E+02  0.17042101691E+03  0.20333478046E+03  0.00000000000E+00 0.  1.
<scales pt_clust_5="13000.00000" pt_clust_6="13000.00000" pt_clust_7="13000.00000" pt_clust_8="13000.00000" pt_clust_9="13000.00000"></scales>
<clustering>
<clus scale="   90.285">  7  8 -1 -1</clus>
<clus scale="   90.814">  5  6 -1 -1</clus>
<clus scale="  110.913">  7  9 -1 -1</clus>
<clus scale="  126.297">  1  5  2 -1</clus>
<clus scale="  330.500">  2  5  1 -1</clus>
</clustering>
</event>
<event>
 9    1  0.3303741E-006  0.1567402E+03  0.7546771E-02  0.1202982E+00
         21   -1    0    0  501  502  0.00000000000E+00  0.00000000000E+00  0.42683356186E+02  0.42683356186E+02  0.00000000000E+00 0. -1.
          2   -1    0    0  502    0 -0.00000000000E+00 -0.00000000000E+00 -0.48214544443E+03  0.48214544443E+03  0.00000000000E+00 0. -1.
         23    2    1    2    0    0 -0.48826322922E+02 -0.69352035472E+02 -0.24705163916E+03  0.27665691361E+03  0.91163703331E+02 0.  0.
         23    2    1    2    0    0  0.17354567953E+02  0.25561146495E+02 -0.16373596943E+03  0.18709538496E+03  0.85092080411E+02 0.  0.
        -11    1    4    4    0    0 -0.24759615948E+02 -0.14297426461E+02 -0.30592132539E+02  0.41872826016E+02  0.00000000000E+00 0. -1.
         11    1    4    4    0    0  0.42114183901E+02  0.39858572955E+02 -0.13314383689E+03  0.14522255894E+03  0.00000000000E+00 0.  1.
        -13    1    3    3    0    0  0.48895930117E+01  0.19558738483E+02 -0.49769029535E+02  0.53697380493E+02  0.00000000000E+00 0.  1.
         13    1    3    3    0    0 -0.53715915934E+02 -0.88910773955E+02 -0.19728260962E+03  0.22295953312E+03  0.00000000000E+00 0. -1.
          2    1    1    2  501    0  0.31471754969E+02  0.43790888977E+02 -0.28674479653E+02  0.61076502041E+02  0.00000000000E+00 0. -1.
<scales pt_clust_5="13000.00000" pt_clust_6="13000.00000" pt_clust_7="13000.00000" pt_clust_8="13000.00000" pt_clust_9="13000.00000"></scales>
<clustering>
<clus scale="   85.092">  5  6 -1 -1</clus>
<clus scale="   53.927">  5  9 -1 -1</clus>
<clus scale="   91.164">  7  8 -1 -1</clus>
<clus scale="  124.517">  2  7  1 -1</clus>
<clus scale="  156.740">  1  5  2 -1</clus>
</clustering>
</event>
<event>
 9    1  0.3303741E-006  0.2317680E+03  0.7546771E-02  0.1156698E+00
         21   -1    0    0  501  502  0.00000000000E+00  0.00000000000E+00  0.41333319259E+03  0.41333319259E+03  0.00000000000E+00 0. -1.
         -1   -1    0    0    0  501 -0.00000000000E+00 -0.00000000000E+00 -0.10196638838E+03  0.10196638838E+03  0.00000000000E+00 0.  1.
         23    2    1    2    0    0 -0.28365302364E+02  0.54619673014E+02 -0.20021123427E+02  0.11090578161E+03  0.90063022112E+02 0.  0.
         23    2    1    2    0    0  0.44961889649E+02 -0.10042230002E+03  0.32651907364E+03  0.35543429477E+03  0.87250344325E+02 0.  0.
        -11    1    4    4    0    0  0.22926576490E+02 -0.10276709975E+03  0.31110644662E+03  0.32844166275E+03  0.00000000000E+00 0. -1.
         11    1    4    4    0    0  0.22035313159E+02  0.23447997281E+01  0.15412627023E+02  0.26992632023E+02  0.00000000000E+00 0.  1.
        -11    1    3    3    0    0  0.17608646055E+02  0.35417691225E+02  0.22412167903E+02  0.45461880050E+02  0.00000000000E+00 0. -1.
         11    1    3    3    0    0 -0.45973948419E+02  0.19201981790E+02 -0.42433291330E+02  0.65443901556E+02  0.00000000000E+00 0.  1.
         -1    1    1    2    0  502 -0.16596587286E+02  0.45802627009E+02  0.48688539902E+01  0.48959504590E+02  0.00000000000E+00 0.  1.
<scales pt_clust_5="13000.00000" pt_clust_6="13000.00000" pt_clust_7="13000.00000" pt_clust_8="13000.00000" pt_clust_9="13000.00000"></scales>
<clustering>
<clus scale="   87.250">  5  6 -1 -1</clus>
<clus scale="   48.717">  5  9 -1 -1</clus>
<clus scale="   90.063">  7  8 -1 -1</clus>
<clus scale="  109.084">  2  7  1 -1</clus>
<clus scale="  231.768">  1  5  2 -1</clus>
</clustering>
</event>
<event>
 9    1  0.3303741E-006  0.3618716E+03  0.7546771E-02  0.1060870E+00
         21   -1    0    0  501  502  0.00000000000E+00  0.00000000000E+00  0.22639912183E+03  0.22639912183E+03  0.00000000000E+00 0.  1.
          1   -1    0    0  502    0 -0.00000000000E+00 -0.00000000000E+00 -0.79900000189E+03  0.79900000189E+03  0.00000000000E+00 0. -1.
         23    2    1    2    0    0  0.22611852460E+03  0.22576853141E+03  0.17776095754E+02  0.33294260837E+03  0.91835581016E+02 0.  0.
         23    2    1    2    0    0 -0.57783727806E+02 -0.51015375530E+02 -0.19848660694E+03  0.23152991543E+03  0.90926568525E+02 0.  0.
        -11    1    3    3    0    0  0.15424955573E+03  0.20240184493E+03 -0.32516806817E+01  0.25449952004E+03  0.00000000000E+00 0.  1.
         11    1    3    3    0    0  0.71868968878E+02  0.23366686485E+02  0.21027776436E+02  0.78443088329E+02  0.00000000000E+00 0. -1.
        -11    1    4    4    0    0 -0.36089777657E+02  0.18091125761E+02 -0.11002770223E+03  0.11720006886E+03  0.00000000000E+00 0.  1.
         11    1    4    4    0    0 -0.21693950150E+02 -0.69106501291E+02 -0.88458904706E+02  0.11432984656E+03  0.00000000000E+00 0. -1.
          1    1    1    2  501    0 -0.16833479680E+03 -0.17475315588E+03 -0.39189036887E+03  0.46092659992E+03  0.00000000000E+00 0. -1.
<scales pt_clust_5="13000.00000" pt_clust_6="13000.00000" pt_clust_7="13000.00000" pt_clust_8="13000.00000" pt_clust_9="13000.00000"></scales>
<clustering>
<clus scale="   90.927">  7  8 -1 -1</clus>
<clus scale="   91.836">  5  6 -1 -1</clus>
<clus scale="  242.642">  7  9 -1 -1</clus>
<clus scale="  332.468">  2  5  1 -1</clus>
<clus scale="  361.872">  1  5  2 -1</clus>
</clustering>
</event>
<event>
 9    1  0.3303741E-006  0.2073742E+03  0.7546771E-02  0.1175577E+00
         21   -1    0    0  501  502  0.00000000000E+00  0.00000000000E+00  0.27194422206E+03  0.27194422206E+03  0.00000000000E+00 0. -1.
          1   -1    0    0  502    0 -0.00000000000E+00 -0.00000000000E+00 -0.28457827168E+03  0.28457827168E+03  0.00000000000E+00 0. -1.
         23    2    1    2    0    0  0.14625412829E+02 -0.33584069382E+02 -0.23356094078E+03  0.25351630586E+03  0.91531480168E+02 0.  0.
         23    2    1    2    0    0  0.44900339159E+02  0.16940858315E+02  0.37369329059E+02  0.10932167577E+03  0.90839027420E+02 0.  0.
        -11    1    3    3    0    0  0.36695083184E+02  0.71179433618E+01 -0.41061172051E+02  0.55526697163E+02  0.00000000000E+00 0. -1.
         11    1    3    3    0    0 -0.22069670355E+02 -0.40702012743E+02 -0.19249976873E+03  0.19798960870E+03  0.00000000000E+00 0.  1.
        -11    1    4    4    0    0  0.27893166899E+02 -0.36641965550E+02  0.22033380160E+02  0.51050291285E+02  0.00000000000E+00 0.  1.
         11    1    4    4    0    0  0.17007172261E+02  0.53582823865E+02  0.15335948899E+02  0.58271384489E+02  0.00000000000E+00 0. -1.
          1    1    1    2  501    0 -0.59525751988E+02  0.16643211066E+02  0.18355756211E+03  0.19368451211E+03  0.00000000000E+00 0. -1.
<scales pt_clust_5="13000.00000" pt_clust_6="13000.00000" pt_clust_7="13000.00000" pt_clust_8="13000.00000" pt_clust_9="13000.00000"></scales>
<clustering>
<clus scale="   90.839">  7  8 -1 -1</clus>
<clus scale="   61.809">  7  9 -1 -1</clus>
<clus scale="   91.531">  5  6 -1 -1</clus>
<clus scale="   98.589">  2  5  1 -1</clus>
<clus scale="  207.374">  1  5  2 -1</clus>
</clustering>
</event>
<event>
 9    1  0.3303741E-006  0.2760770E+03  0.7546771E-02  0.1124829E+00
         21   -1    0    0  501  502  0.00000000000E+00  0.00000000000E+00  0.94658584139E+03  0.94658584139E+03  0.00000000000E+00 0.  1.
          1   -1    0    0  502    0 -0.00000000000E+00 -0.00000000000E+00 -0.76759154165E+02  0.76759154165E+02  0.00000000000E+00 0. -1.
         23    2    1    2    0    0  0.10699692300E+03 -0.10331047538E+02  0.34109484225E+02  0.14320765934E+03  0.88260436803E+02 0.  0.
         23    2    1    2    0    0  0.23965892770E+02 -0.57808647122E+02  0.52379146138E+03  0.53504032755E+03  0.89411707225E+02 0.  0.
        -11    1    4    4    0    0  0.12673839427E+02 -0.78371020713E+02  0.46522754874E+03  0.47195266203E+03  0.00000000000E+00 0.  1.
         11    1    4    4    0    0  0.11292053342E+02  0.20562373591E+02  0.58563912649E+02  0.63087665523E+02  0.00000000000E+00 0. -1.
        -13    1    3    3    0    0  0.97054705021E-01 -0.25107771623E+02  0.24142531189E+02  0.34832045988E+02  0.00000000000E+00 0.  1.
         13    1    3    3    0    0  0.10689986830E+03  0.14776724086E+02  0.99669530359E+01  0.10837561335E+03  0.00000000000E+00 0. -1.
          1    1    1    2  501    0 -0.13096281577E+03  0.68139694659E+02  0.31192574161E+03  0.34509700866E+03  0.00000000000E+00 0. -1.
<scales pt_clust_5="13000.00000" pt_clust_6="13000.00000" pt_clust_7="13000.00000" pt_clust_8="13000.00000" pt_clust_9="13000.00000"></scales>
<clustering>
<clus scale="   88.260">  7  8 -1 -1</clus>
<clus scale="   89.412">  5  6 -1 -1</clus>
<clus scale="  139.086">  2  7  1 -1</clus>
<clus scale="   79.110">  5  9 -1 -1</clus>
<clus scale="  276.077">  1  5  2 -1</clus>
</clustering>
</event>
<event>
 9    1  0.3303741E-006  0.2914256E+03  0.7546771E-02  0.1134859E+00
         21   -1    0    0  501  502  0.00000000000E+00  0.00000000000E+00  0.67750685341E+02  0.67750685341E+02  0.00000000000E+00 0. -1.
          1   -1    0    0  502    0 -0.00000000000E+00 -0.00000000000E+00 -0.61340107583E+03  0.61340107583E+03  0.00000000000E+00 0. -1.
         23    2    1    2    0    0 -0.16848509664E+01  0.10963138268E+01 -0.24767127955E+03  0.26435391064E+03  0.92400685753E+02 0.  0.
         23    2    1    2    0    0  0.35441439808E+02  0.12148463330E+03 -0.21441195269E+03  0.26464967990E+03  0.89734919817E+02 0.  0.
        -11    1    4    4    0    0 -0.24614167863E+02  0.48200845677E+02 -0.11619200894E+03  0.12817863209E+03  0.00000000000E+00 0.  1.
         11    1    4    4    0    0  0.60055607671E+02  0.73283787620E+02 -0.98219943747E+02  0.13647104781E+03  0.00000000000E+00 0. -1.
        -13    1    3    3    0    0 -0.42446329175E+02 -0.35841136051E+01 -0.18200600215E+03  0.18692437387E+03  0.00000000000E+00 0.  1.
         13    1    3    3    0    0  0.40761478209E+02  0.46804274318E+01 -0.65665277406E+02  0.77429536764E+02  0.00000000000E+00 0. -1.
          1    1    1    2  501    0 -0.33756588841E+02 -0.12258094712E+03 -0.83567158246E+02  0.15214817063E+03  0.00000000000E+00 0. -1.
<scales pt_clust_5="13000.00000" pt_clust_6="13000.00000" pt_clust_7="13000.00000" pt_clust_8="13000.00000" pt_clust_9="13000.00000"></scales>
<clustering>
<clus scale="   89.735">  5  6 -1 -1</clus>
<clus scale="   92.401">  7  8 -1 -1</clus>
<clus scale="   92.423">  2  7  1 -1</clus>
<clus scale="  126.945">  5  9 -1 -1</clus>
<clus scale="  291.426">  1  5  2 -1</clus>
</clustering>
</event>
<event>
 9    1  0.3303741E-006  0.7646090E+03  0.7546771E-02  0.1026627E+00
         21   -1    0    0  501  502  0.00000000000E+00  0.00000000000E+00  0.40468034953E+03  0.40468034953E+03  0.00000000000E+00 0. -1.
          2   -1    0    0  502    0 -0.00000000000E+00 -0.00000000000E+00 -0.72303139825E+03  0.72303139825E+03  0.00000000000E+00 0. -1.
         23    2    1    2    0    0  0.89029756957E+01  0.35912668788E+01 -0.34984268045E+03  0.36245452309E+03  0.94293266287E+02 0.  0.
         23    2    1    2    0    0 -0.31452919960E+03 -0.16111150861E+03  0.15944669418E+03  0.39838870150E+03  0.91677552270E+02 0.  0.
        -11    1    3    3    0    0  0.15707750426E+02  0.46642202283E+02 -0.14831955687E+03  0.15627194056E+03  0.00000000000E+00 0. -1.
         11    1    3    3    0    0 -0.68047747301E+01 -0.43050935404E+02 -0.20152312359E+03  0.20618258253E+03  0.00000000000E+00 0.  1.
        -13    1    4    4    0    0 -0.24034394449E+03 -0.14550205699E+03  0.15848414733E+03  0.32257291454E+03  0.00000000000E+00 0. -1.
         13    1    4    4    0    0 -0.74185255112E+02 -0.15609451626E+02  0.96254684910E+00  0.75815786961E+02  0.00000000000E+00 0.  1.
          2    1    1    2  501    0  0.30562622391E+03  0.15752024173E+03 -0.12795506245E+03  0.36686852318E+03  0.00000000000E+00 0. -1.
<scales pt_clust_5="13000.00000" pt_clust_6="13000.00000" pt_clust_7="13000.00000" pt_clust_8="13000.00000" pt_clust_9="13000.00000"></scales>
<clustering>
<clus scale="   91.678">  7  8 -1 -1</clus>
<clus scale="   94.293">  5  6 -1 -1</clus>
<clus scale="   94.781">  2  5  1 -1</clus>
<clus scale="  350.278">  7  9 -1 -1</clus>
<clus scale="  764.609">  1  5  2 -1</clus>
</clustering>
</event>
<event>
 9    1  0.3303741E-006  0.2005986E+03  0.7546771E-02  0.1158358E+00
          1   -1    0    0  502    0 -0.00000000000E+00  0.00000000000E+00  0.41850906155E+03  0.41850906155E+03  0.00000000000E+00 0. -1.
         21   -1    0    0  501  502  0.00000000000E+00 -0.00000000000E+00 -0.10176290301E+03  0.10176290301E+03  0.00000000000E+00 0. -1.
         23    2    1    2    0    0 -0.10308535888E+03  0.39542687799E+02  0.26922360079E+03  0.31412104490E+03  0.11832357436E+03 0.  0.
         23    2    1    2    0    0  0.38003376799E+02 -0.11575475153E+02  0.81627695478E+02  0.12753164853E+03  0.89571158495E+02 0.  0.
        -11    1    3    3    0    0 -0.10782238759E+02 -0.33715571087E+02  0.11314067511E+03  0.11854876115E+03  0.00000000000E+00 0.  1.
         11    1    3    3    0    0 -0.92303120122E+02  0.73258258886E+02  0.15608292568E+03  0.19557228374E+03  0.00000000000E+00 0. -1.
        -13    1    4    4    0    0 -0.10983831539E+02  0.24378506781E+02  0.12478160654E+01  0.26767764066E+02  0.00000000000E+00 0. -1.
         13    1    4    4    0    0  0.48987208339E+02 -0.35953981934E+02  0.80379879413E+02  0.10076388446E+03  0.00000000000E+00 0.  1.
          1    1    1    2  501    0  0.65081982082E+02 -0.27967212646E+02 -0.34105137728E+02  0.78619271138E+02  0.00000000000E+00 0. -1.
<scales pt_clust_5="13000.00000" pt_clust_6="13000.00000" pt_clust_7="13000.00000" pt_clust_8="13000.00000" pt_clust_9="13000.00000"></scales>
<clustering>
<clus scale="   89.571">  7  8 -1 -1</clus>
<clus scale="   70.837">  7  9 -1 -1</clus>
<clus scale="  118.324">  5  6 -1 -1</clus>
<clus scale="  161.835">  1  5  2 -1</clus>
<clus scale="  200.599">  2  5  1 -1</clus>
</clustering>
</event>
<event>
 9    1  0.3303741E-006  0.2851822E+03  0.7546771E-02  0.1136733E+00
         21   -1    0    0  501  502  0.00000000000E+00  0.00000000000E+00  0.37180337734E+03  0.37180337734E+03  0.00000000000E+00 0. -1.
          1   -1    0    0  502    0 -0.00000000000E+00 -0.00000000000E+00 -0.98611133593E+02  0.98611133593E+02  0.00000000000E+00 0. -1.
         23    2    1    2    0    0 -0.16954101886E+02  0.32429295913E+01  0.96767716373E+02  0.13507212853E+03  0.92641949520E+02 0.  0.
         23    2    1    2    0    0 -0.11524269517E+03  0.24238171433E+02  0.64741790625E+02  0.16011613507E+03  0.87047742710E+02 0.  0.
        -13    1    4    4    0    0 -0.28650937252E+02 -0.44768626728E+00 -0.21199126324E+02  0.35643787472E+02  0.00000000000E+00 0.  1.
         13    1    4    4    0    0 -0.86591757923E+02  0.24685857701E+02  0.85940916950E+02  0.12447234760E+03  0.00000000000E+00 0. -1.
        -13    1    3    3    0    0  0.22192359546E+02  0.36377278630E+02  0.38261220312E+02  0.57268911309E+02  0.00000000000E+00 0.  1.
         13    1    3    3    0    0 -0.39146461432E+02 -0.33134349039E+02  0.58506496061E+02  0.77803217222E+02  0.00000000000E+00 0. -1.
          1    1    1    2  501    0  0.13219679706E+03 -0.27481101025E+02  0.11168273675E+03  0.17522624734E+03  0.00000000000E+00 0. -1.
<scales pt_clust_5="13000.00000" pt_clust_6="13000.00000" pt_clust_7="13000.00000" pt_clust_8="13000.00000" pt_clust_9="13000.00000"></scales>
<clustering>
<clus scale="   87.048">  5  6 -1 -1</clus>
<clus scale="   92.642">  7  8 -1 -1</clus>
<clus scale="   94.236">  2  7  1 -1</clus>
<clus scale="  128.122">  5  9 -1 -1</clus>
<clus scale="  285.182">  1  5  2 -1</clus>
</clustering>
</event>
<event>
 9    1  0.3303741E-006  0.1545648E+03  0.7546771E-02  0.1209543E+00
         21   -1    0    0  501  502  0.00000000000E+00  0.00000000000E+00  0.68935027159E+03  0.68935027159E+03  0.00000000000E+00 0.  1.
          2   -1    0    0  502    0 -0.00000000000E+00 -0.00000000000E+00 -0.93541465669E+02  0.93541465669E+02  0.00000000000E+00 0. -1.
         23    2    1    2    0    0 -0.19564624665E+02  0.65121453297E+02 -0.46695408153E+02  0.12205747041E+03  0.89966586694E+02 0.  0.
         23    2    1    2    0    0 -0.30701649024E+01 -0.85105040379E+02  0.53418503820E+03  0.54838551714E+03  0.90115073967E+02 0.  0.
        -11    1    3    3    0    0  0.15035818244E+02  0.57928039724E+02 -0.59573702220E+02  0.84443825190E+02  0.00000000000E+00 0. -1.
         11    1    3    3    0    0 -0.34600442909E+02  0.71934135736E+01  0.12878294067E+02  0.37613645216E+02  0.00000000000E+00 0.  1.
        -13    1    4    4    0    0  0.43432323437E+02 -0.36671511019E+02  0.24389346505E+03  0.25043000765E+03  0.00000000000E+00 0. -1.
         13    1    4    4    0    0 -0.46502488339E+02 -0.48433529360E+02  0.29029157316E+03  0.29795550949E+03  0.00000000000E+00 0.  1.
          2    1    1    2  501    0  0.22634789567E+02  0.19983587082E+02  0.10831917587E+03  0.11244874972E+03  0.00000000000E+00 0. -1.
<scales pt_clust_5="13000.00000" pt_clust_6="13000.00000" pt_clust_7="13000.00000" pt_clust_8="13000.00000" pt_clust_9="13000.00000"></scales>
<clustering>
<clus scale="   89.967">  5  6 -1 -1</clus>
<clus scale="   90.115">  7  8 -1 -1</clus>
<clus scale="   30.194">  7  9 -1 -1</clus>
<clus scale="  112.772">  2  5  1 -1</clus>
<clus scale="  154.565">  1  5  2 -1</clus>
</clustering>
</event>
<event>
 9    1  0.3303741E-006  0.5593895E+03  0.7546771E-02  0.1016131E+00
          3   -1    0    0  502    0 -0.00000000000E+00  0.00000000000E+00  0.26619221628E+03  0.26619221628E+03  0.00000000000E+00 0. -1.
         21   -1    0    0  501  502  0.00000000000E+00 -0.00000000000E+00 -0.76480019310E+03  0.76480019310E+03  0.00000000000E+00 0. -1.
         23    2    1    2    0    0  0.30652101099E+03  0.99449839488E+02 -0.11056174522E+03  0.35018666301E+03  0.81002461012E+02 0.  0.
         23    2    1    2    0    0  0.29396472287E+02  0.91441891073E+02  0.21158404726E+01  0.13170953362E+03  0.90095240935E+02 0.  0.
        -11    1    4    4    0    0 -0.31663769545E+02  0.36454703748E+02 -0.79111219002E+01  0.48929802543E+02  0.00000000000E+00 0.  1.
         11    1    4    4    0    0  0.61060241832E+02  0.54987187326E+02  0.10026962373E+02  0.82779731076E+02  0.00000000000E+00 0. -1.
        -11    1    3    3    0    0  0.16730697876E+03  0.85870388211E+02 -0.35271554831E+02  0.19133591219E+03  0.00000000000E+00 0.  1.
         11    1    3    3    0    0  0.13921403223E+03  0.13579451277E+02 -0.75290190387E+02  0.15885075082E+03  0.00000000000E+00 0. -1.
          3    1    1    2  501    0 -0.33591748328E+03 -0.19089173056E+03 -0.39016207208E+03  0.54909621275E+03  0.00000000000E+00 0. -1.
<scales pt_clust_5="13000.00000" pt_clust_6="13000.00000" pt_clust_7="13000.00000" pt_clust_8="13000.00000" pt_clust_9="13000.00000"></scales>
<clustering>
<clus scale="   81.002">  7  8 -1 -1</clus>
<clus scale="   90.095">  5  6 -1 -1</clus>
<clus scale="  332.275">  1  7  2 -1</clus>
<clus scale="  217.892">  5  9 -1 -1</clus>
<clus scale="  559.389">  2  5  1 -1</clus>
</clustering>
</event>
<event>
 9    1  0.3303741E-006  0.5559006E+03  0.7546771E-02  0.1025954E+00
         21   -1    0    0  501  502  0.00000000000E+00  0.00000000000E+00  0.27942283476E+03  0.27942283476E+03  0.00000000000E+00 0.  1.
         -1   -1    0    0    0  501 -0.00000000000E+00 -0.00000000000E+00 -0.73444488850E+03  0.73444488850E+03  0.00000000000E+00 0.  1.
         23    2    1    2    0    0  0.17989349877E+03 -0.15015578748E+03 -0.37591044534E+03  0.45236605242E+03  0.91749392663E+02 0.  0.
         23    2    1    2    0    0  0.11373950171E+03 -0.53450468430E+02 -0.12768620481E+03  0.20089754186E+03  0.90897902080E+02 0.  0.
        -13    1    3    3    0    0 -0.65255148634E+01 -0.26869771411E+02 -0.33033461089E+02  0.43078724580E+02  0.00000000000E+00 0. -1.
         13    1    3    3    0    0  0.18641901364E+03 -0.12328601607E+03 -0.34287698425E+03  0.40928732784E+03  0.00000000000E+00 0.  1.
        -13    1    4    4    0    0  0.61325296197E+02 -0.50483771772E+02 -0.21260332238E+02  0.82227762300E+02  0.00000000000E+00 0.  1.
         13    1    4    4    0    0  0.52414205515E+02 -0.29666966587E+01 -0.10642587257E+03  0.11866977956E+03  0.00000000000E+00 0. -1.
         -1    1    1    2    0  502 -0.29363300049E+03  0.20360625591E+03  0.48574596400E+02  0.36060412898E+03  0.00000000000E+00 0.  1.
<scales pt_clust_5="13000.00000" pt_clust_6="13000.00000" pt_clust_7="13000.00000" pt_clust_8="13000.00000" pt_clust_9="13000.00000"></scales>
<clustering>
<clus scale="   90.898">  7  8 -1 -1</clus>
<clus scale="   91.749">  5  6 -1 -1</clus>
<clus scale="  251.647">  2  5  1 -1</clus>
<clus scale="  243.849">  7  9 -1 -1</clus>
<clus scale="  555.901">  1  5  2 -1</clus>
</clustering>
</event>
<event>
 9    1  0.3303741E-006  0.2302351E+03  0.7546771E-02  0.1158571E+00
         21   -1    0    0  501  502  0.00000000000E+00  0.00000000000E+00  0.59152386835E+02  0.59152386835E+02  0.00000000000E+00 0. -1.
          1   -1    0    0  502    0 -0.00000000000E+00 -0.00000000000E+00 -0.60184841854E+03  0.60184841854E+03  0.00000000000E+00 0. -1.
         23    2    1    2    0    0  0.36146343317E+01  0.52407538632E+02 -0.33287537258E+03  0.34949971190E+03  0.92652141160E+02 0.  0.
         23    2    1    2    0    0 -0.58158533620E+02 -0.99390619674E+02 -0.86569986326E+02  0.16876646138E+03  0.87902478021E+02 0.  0.
        -11    1    3    3    0    0 -0.32073524640E+02  0.60279179789E+02 -0.24477003592E+03  0.25411544814E+03  0.00000000000E+00 0. -1.
         11    1    3    3    0    0  0.35688158972E+02 -0.78716411565E+01 -0.88105336662E+02  0.95384263763E+02  0.00000000000E+00 0.  1.
        -13    1    4    4    0    0 -0.27950856987E+02 -0.74886476324E+02 -0.70498591255E+01  0.80242976367E+02  0.00000000000E+00 0. -1.
         13    1    4    4    0    0 -0.30207676633E+02 -0.24504143350E+02 -0.79520127200E+02  0.88523485013E+02  0.00000000000E+00 0.  1.
          1    1    1    2  501    0  0.54543899289E+02  0.46983081042E+02 -0.12325067280E+03  0.14273463210E+03  0.00000000000E+00 0. -1.
<scales pt_clust_5="13000.00000" pt_clust_6="13000.00000" pt_clust_7="13000.00000" pt_clust_8="13000.00000" pt_clust_9="13000.00000"></scales>
<clustering>
<clus scale="   87.902">  7  8 -1 -1</clus>
<clus scale="   71.989">  7  9 -1 -1</clus>
<clus scale="   92.652">  5  6 -1 -1</clus>
<clus scale="  106.508">  2  5  1 -1</clus>
<clus scale="  230.235">  1  5  2 -1</clus>
</clustering>
</event>
<event>
 9    1  0.3303741E-006  0.3537649E+03  0.7546771E-02  0.1082770E+00
         21   -1    0    0  501  502  0.00000000000E+00  0.00000000000E+00  0.20645360617E+03  0.20645360617E+03  0.00000000000E+00 0. -1.
          2   -1    0    0  502    0 -0.00000000000E+00 -0.00000000000E+00 -0.86573305469E+03  0.86573305469E+03  0.00000000000E+00 0. -1.
         23    2    1    2    0    0 -0.12704937950E+03  0.11663683125E+03 -0.68994651823E+03  0.71709500647E+03  0.91942128859E+02 0.  0.
         23    2    1    2    0    0  0.11009447687E+03 -0.28781894503E+02 -0.11412804186E+03  0.18488124646E+03  0.90590695258E+02 0.  0.
        -11    1    3    3    0    0 -0.29661459306E+02  0.43121602375E+02 -0.83894947078E+02  0.98881934168E+02  0.00000000000E+00 0.  1.
         11    1    3    3    0    0 -0.97387920197E+02  0.73515228873E+02 -0.60605157115E+03  0.61821307231E+03  0.00000000000E+00 0. -1.
        -11    1    4    4    0    0  0.20695984850E+01  0.23235472033E+02 -0.31806430747E+02  0.39443877033E+02  0.00000000000E+00 0. -1.
         11    1    4    4    0    0  0.10802487838E+03 -0.52017366536E+02 -0.82321611113E+02  0.14543736943E+03  0.00000000000E+00 0.  1.
          2    1    1    2  501    0  0.16954902636E+02 -0.87854936745E+02  0.14479511156E+03  0.17021040792E+03  0.00000000000E+00 0. -1.
<scales pt_clust_5="13000.00000" pt_clust_6="13000.00000" pt_clust_7="13000.00000" pt_clust_8="13000.00000" pt_clust_9="13000.00000"></scales>
<clustering>
<clus scale="   90.591">  7  8 -1 -1</clus>
<clus scale="   89.476">  7  9 -1 -1</clus>
<clus scale="   91.942">  5  6 -1 -1</clus>
<clus scale="  195.446">  2  5  1 -1</clus>
<clus scale="  353.765">  1  5  2 -1</clus>
</clustering>
</event>
<event>
 9    1  0.3303741E-006  0.3654618E+03  0.7546771E-02  0.1095949E+00
         -3   -1    0    0    0  501 -0.00000000000E+00  0.00000000000E+00  0.26570034086E+03  0.26570034086E+03  0.00000000000E+00 0.  1.
         21   -1    0    0  501  502  0.00000000000E+00 -0.00000000000E+00 -0.28094972510E+03  0.28094972510E+03  0.00000000000E+00 0.  1.
         23    2    1    2    0    0  0.87011644953E+02  0.13314471485E+00  0.10353974199E+03  0.16236739694E+03  0.89842358232E+02 0.  0.
         23    2    1    2    0    0 -0.44878907392E+02 -0.11704334593E+03  0.60431299802E+02  0.16619295394E+03  0.90856451537E+02 0.  0.
        -11    1    3    3    0    0  0.10109580401E+03  0.17399124474E+02  0.88531446585E+02  0.13550242859E+03  0.00000000000E+00 0.  1.
         11    1    3    3    0    0 -0.14084159053E+02 -0.17265979759E+02  0.15008295402E+02  0.26864968344E+02  0.00000000000E+00 0. -1.
        -13    1    4    4    0    0 -0.39633298552E+02 -0.49615776393E+02 -0.14621436103E+02  0.65163717013E+02  0.00000000000E+00 0. -1.
         13    1    4    4    0    0 -0.52456088401E+01 -0.67427569541E+02  0.75052735906E+02  0.10102923692E+03  0.00000000000E+00 0.  1.
         -3    1    1    2    0  502 -0.42132737561E+02  0.11691020122E+03 -0.17922042602E+03  0.21808971509E+03  0.00000000000E+00 0.  1.
<scales pt_clust_5="13000.00000" pt_clust_6="13000.00000" pt_clust_7="13000.00000" pt_clust_8="13000.00000" pt_clust_9="13000.00000"></scales>
<clustering>
<clus scale="   89.842">  5  6 -1 -1</clus>
<clus scale="   90.856">  7  8 -1 -1</clus>
<clus scale="  124.271">  7  9 -1 -1</clus>
<clus scale="  125.071">  1  5  2 -1</clus>
<clus scale="  365.462">  2  5  1 -1</clus>
</clustering>
</event>
<event>
 9    1  0.3303741E-006  0.2379373E+03  0.7546771E-02  0.1137720E+00
          3   -1    0    0  502    0 -0.00000000000E+00  0.00000000000E+00  0.62594029274E+03  0.62594029274E+03  0.00000000000E+00 0. -1.
         21   -1    0    0  501  502  0.00000000000E+00 -0.00000000000E+00 -0.64475392649E+02  0.64475392649E+02  0.00000000000E+00 0. -1.
         23    2    1    2    0    0 -0.60153110351E+02  0.12353083232E+03  0.28137019558E+03  0.32290078110E+03  0.78850898873E+02 0.  0.
         23    2    1    2    0    0 -0.14575330472E+02 -0.23381397282E+02  0.19690627108E+03  0.21739973296E+03  0.87928575018E+02 0.  0.
        -11    1    4    4    0    0  0.33518470385E+02  0.32918716784E+01  0.47790825083E+02  0.58466120430E+02  0.00000000000E+00 0. -1.
         11    1    4    4    0    0 -0.48093800856E+02 -0.26673268960E+02  0.14911544599E+03  0.15893361253E+03  0.00000000000E+00 0.  1.
        -11    1    3    3    0    0 -0.46109779311E+02  0.28521854564E+02  0.56130880258E+02  0.78040269441E+02  0.00000000000E+00 0.  1.
         11    1    3    3    0    0 -0.14043331039E+02  0.95008977757E+02  0.22523931533E+03  0.24486051166E+03  0.00000000000E+00 0. -1.
          3    1    1    2  501    0  0.74728440822E+02 -0.10014943504E+03  0.83188433430E+02  0.15011517133E+03  0.00000000000E+00 0. -1.
<scales pt_clust_5="13000.00000" pt_clust_6="13000.00000" pt_clust_7="13000.00000" pt_clust_8="13000.00000" pt_clust_9="13000.00000"></scales>
<clustering>
<clus scale="   78.851">  7  8 -1 -1</clus>
<clus scale="   87.929">  5  6 -1 -1</clus>
<clus scale="  124.957">  5  9 -1 -1</clus>
<clus scale="  158.416">  1  7  2 -1</clus>
<clus scale="  237.937">  2  5  1 -1</clus>
</clustering>
</event>
<event>
 9    1  0.3303741E-006  0.1402973E+03  0.7546771E-02  0.1220865E+00
         21   -1    0    0  501  502  0.00000000000E+00  0.00000000000E+00  0.14358684508E+03  0.14358684508E+03  0.00000000000E+00 0.  1.
          1   -1    0    0  502    0 -0.00000000000E+00 -0.00000000000E+00 -0.12517698130E+03  0.12517698130E+03  0.00000000000E+00 0. -1.
         23    2    1    2    0    0 -0.39015617804E+02 -0.64960690387E+02 -0.26248339851E+02  0.12153034975E+03  0.91315611142E+02 0.  0.
         23    2    1    2    0    0  0.36382941700E+01  0.14348105034E+02  0.29053099952E+02  0.83541184434E+02  0.76915158307E+02 0.  0.
        -11    1    3    3    0    0 -0.52913703414E+02 -0.81186263991E+02 -0.17654521244E+02  0.98502546110E+02  0.00000000000E+00 0.  1.
         11    1    3    3    0    0  0.13898085610E+02  0.16225573604E+02 -0.85938186076E+01  0.23027803644E+02  0.00000000000E+00 0. -1.
        -13    1    4    4    0    0  0.13916477536E+02 -0.20733886980E+02 -0.12725572681E+02  0.28026819591E+02  0.00000000000E+00 0. -1.
         13    1    4    4    0    0 -0.10278183366E+02  0.35081992015E+02  0.41778672633E+02  0.55514364844E+02  0.00000000000E+00 0.  1.
          1    1    1    2  501    0  0.35377323634E+02  0.50612585352E+02  0.15605103684E+02  0.63692292191E+02  0.00000000000E+00 0. -1.
<scales pt_clust_5="13000.00000" pt_clust_6="13000.00000" pt_clust_7="13000.00000" pt_clust_8="13000.00000" pt_clust_9="13000.00000"></scales>
<clustering>
<clus scale="   76.915">  7  8 -1 -1</clus>
<clus scale="   61.751">  7  9 -1 -1</clus>
<clus scale="   91.316">  5  6 -1 -1</clus>
<clus scale="  118.662">  2  5  1 -1</clus>
<clus scale="  140.297">  1  5  2 -1</clus>
</clustering>
</event>
<event>
 9    1  0.3303741E-006  0.2076207E+03  0.7546771E-02  0.1169796E+00
         21   -1    0    0  501  502  0.00000000000E+00  0.00000000000E+00  0.45798455594E+03  0.45798455594E+03  0.00000000000E+00 0. -1.
          1   -1    0    0  502    0 -0.00000000000E+00 -0.00000000000E+00 -0.24879009565E+03  0.24879009565E+03  0.00000000000E+00 0. -1.
         23    2    1    2    0    0  0.35854151988E+02 -0.54464581479E+02 -0.21053701378E+03  0.23850032002E+03  0.91129894258E+02 0.  0.
         23    2    1    2    0    0 -0.31537861127E+02 -0.47535695810E+02  0.22781199324E+03  0.25089039919E+03  0.88280287044E+02 0.  0.
        -13    1    4    4    0    0  0.29856490241E+02 -0.27242250187E+02  0.90528190556E+02  0.99140826555E+02  0.00000000000E+00 0.  1.
         13    1    4    4    0    0 -0.61394351368E+02 -0.20293445624E+02  0.13728380268E+03  0.15174957263E+03  0.00000000000E+00 0. -1.
        -13    1    3    3    0    0  0.24045223580E+02 -0.80189127544E+02 -0.15985921506E+03  0.18045342222E+03  0.00000000000E+00 0. -1.
         13    1    3    3    0    0  0.11808928408E+02  0.25724546065E+02 -0.50677798720E+02  0.58046897794E+02  0.00000000000E+00 0.  1.
          1    1    1    2  501    0 -0.43162908606E+01  0.10200027729E+03  0.19191948083E+03  0.21738393238E+03  0.00000000000E+00 0. -1.
<scales pt_clust_5="13000.00000" pt_clust_6="13000.00000" pt_clust_7="13000.00000" pt_clust_8="13000.00000" pt_clust_9="13000.00000"></scales>
<clustering>
<clus scale="   88.280">  5  6 -1 -1</clus>
<clus scale="   91.130">  7  8 -1 -1</clus>
<clus scale="  102.092">  5  9 -1 -1</clus>
<clus scale="  112.056">  2  7  1 -1</clus>
<clus scale="  207.621">  1  5  2 -1</clus>
</clustering>
</event>
<event>
 9    1  0.3303741E-006  0.1923371E+03  0.7546771E-02  0.1184822E+00
          1   -1    0    0  502    0 -0.00000000000E+00  0.00000000000E+00  0.11505544172E+03  0.11505544172E+03  0.00000000000E+00 0. -1.
         21   -1    0    0  501  502  0.00000000000E+00 -0.00000000000E+00 -0.21052406960E+03  0.21052406960E+03  0.00000000000E+00 0. -1.
         23    2    1    2    0    0 -0.33994040430E+02  0.14748317954E+02  0.18406196726E+02  0.10205988049E+03  0.93296963830E+02 0.  0.
         23    2    1    2    0    0 -0.15589515214E+02  0.34852714899E+00  0.10679802203E+02  0.88611147850E+02  0.86572067622E+02 0.  0.
        -11    1    3    3    0    0 -0.25855518381E+02 -0.20045945260E+02 -0.28296119045E+02  0.43255266790E+02  0.00000000000E+00 0.  1.
         11    1    3    3    0    0 -0.81385220491E+01  0.34794263213E+02  0.46702315770E+02  0.58804613696E+02  0.00000000000E+00 0. -1.
        -13    1    4    4    0    0  0.13396793578E+02  0.36959325606E+02  0.14160937169E+02  0.41785140528E+02  0.00000000000E+00 0. -1.
         13    1    4    4    0    0 -0.28986308793E+02 -0.36610798457E+02 -0.34811349658E+01  0.46826007322E+02  0.00000000000E+00 0.  1.
          1    1    1    2  501    0  0.49583555645E+02 -0.15096845103E+02 -0.12455462680E+03  0.13490848298E+03  0.00000000000E+00 0. -1.
<scales pt_clust_5="13000.00000" pt_clust_6="13000.00000" pt_clust_7="13000.00000" pt_clust_8="13000.00000" pt_clust_9="13000.00000"></scales>
<clustering>
<clus scale="   86.572">  7  8 -1 -1</clus>
<clus scale="   51.831">  7  9 -1 -1</clus>
<clus scale="   93.297">  5  6 -1 -1</clus>
<clus scale="  100.386">  1  5  2 -1</clus>
<clus scale="  192.337">  2  5  1 -1</clus>
</clustering>
</event>
<event>
 9    1  0.3303741E-006  0.2560228E+03  0.7546771E-02  0.1146977E+00
         21   -1    0    0  501  502  0.00000000000E+00  0.00000000000E+00  0.62176286242E+02  0.62176286242E+02  0.00000000000E+00 0. -1.
          1   -1    0    0  502    0 -0.00000000000E+00 -0.00000000000E+00 -0.51517526401E+03  0.51517526401E+03  0.00000000000E+00 0. -1.
         23    2    1    2    0    0  0.42016856001E+02 -0.90085500690E+01 -0.13553360816E+03  0.16951340722E+03  0.92297703774E+02 0.  0.
         23    2    1    2    0    0  0.61312730697E+01  0.94863967083E+02 -0.89354081590E+02  0.15939467928E+03  0.91573725081E+02 0.  0.
        -13    1    4    4    0    0 -0.36336601910E+02  0.78442566759E+02 -0.59557632587E+02  0.10497950523E+03  0.00000000000E+00 0.  1.
         13    1    4    4    0    0  0.42467874980E+02  0.16421400323E+02 -0.29796449003E+02  0.54415174052E+02  0.00000000000E+00 0. -1.
        -13    1    3    3    0    0  0.67281474085E+02  0.12280560815E+02 -0.84355746261E+02  0.10859788606E+03  0.00000000000E+00 0. -1.
         13    1    3    3    0    0 -0.25264618084E+02 -0.21289110884E+02 -0.51177861901E+02  0.60915521158E+02  0.00000000000E+00 0.  1.
          1    1    1    2  501    0 -0.48148129070E+02 -0.85855417014E+02 -0.22811128802E+03  0.24844346376E+03  0.00000000000E+00 0. -1.
<scales pt_clust_5="13000.00000" pt_clust_6="13000.00000" pt_clust_7="13000.00000" pt_clust_8="13000.00000" pt_clust_9="13000.00000"></scales>
<clustering>
<clus scale="   91.574">  5  6 -1 -1</clus>
<clus scale="   92.298">  7  8 -1 -1</clus>
<clus scale="   98.435">  5  9 -1 -1</clus>
<clus scale="  101.811">  2  7  1 -1</clus>
<clus scale="  256.023">  1  5  2 -1</clus>
</clustering>
</event>
<event>
 9    1  0.3303741E-006  0.2829041E+03  0.7546771E-02  0.1098836E+00
         21   -1    0    0  501  502  0.00000000000E+00  0.00000000000E+00  0.99964697106E+02  0.99964697106E+02  0.00000000000E+00 0. -1.
          1   -1    0    0  502    0 -0.00000000000E+00 -0.00000000000E+00 -0.74430383509E+03  0.74430383509E+03  0.00000000000E+00 0. -1.
         23    2    1    2    0    0 -0.12055678793E+02  0.23497823375E+03 -0.21332441409E+03  0.32870238998E+03  0.84722168328E+02 0.  0.
         23    2    1    2    0    0 -0.54910823650E+01 -0.66675672365E+02 -0.20514048136E+03  0.23333784024E+03  0.88815163811E+02 0.  0.
        -11    1    4    4    0    0  0.35729638045E+02 -0.58686194734E+02 -0.13781544851E+03  0.15399277364E+03  0.00000000000E+00 0.  1.
         11    1    4    4    0    0 -0.41220720410E+02 -0.79894776304E+01 -0.67325032855E+02  0.79345066595E+02  0.00000000000E+00 0. -1.
        -13    1    3    3    0    0 -0.33629319827E+02  0.36661557385E+02 -0.32231772697E+02  0.59278057602E+02  0.00000000000E+00 0.  1.
         13    1    3    3    0    0  0.21573641035E+02  0.19831667637E+03 -0.18109264139E+03  0.26942433238E+03  0.00000000000E+00 0. -1.
          1    1    1    2  501    0  0.17546761158E+02 -0.16830256139E+03 -0.22587424253E+03  0.28222830197E+03  0.00000000000E+00 0. -1.
<scales pt_clust_5="13000.00000" pt_clust_6="13000.00000" pt_clust_7="13000.00000" pt_clust_8="13000.00000" pt_clust_9="13000.00000"></scales>
<clustering>
<clus scale="   84.722">  7  8 -1 -1</clus>
<clus scale="   88.815">  5  6 -1 -1</clus>
<clus scale="  169.215">  5  9 -1 -1</clus>
<clus scale="  250.076">  2  7  1 -1</clus>
<clus scale="  282.904">  1  5  2 -1</clus>
</clustering>
</event>
<event>
 9    1  0.3303741E-006  0.1522762E+03  0.7546771E-02  0.1221106E+00
         -3   -1    0    0    0  501 -0.00000000000E+00  0.00000000000E+00  0.21486582292E+03  0.21486582292E+03  0.00000000000E+00 0.  1.
         21   -1    0    0  501  502  0.00000000000E+00 -0.00000000000E+00 -0.14630355035E+03  0.14630355035E+03  0.00000000000E+00 0. -1.
         23    2    1    2    0    0 -0.20600974485E+02  0.81038221853E+01  0.15914249475E+03  0.18398922469E+03  0.89641670449E+02 0.  0.
         23    2    1    2    0    0  0.16242057271E+02  0.22046379965E+02 -0.67070296268E+02  0.13869961499E+03  0.11827641888E+03 0.  0.
        -11    1    4    4    0    0  0.59814199880E+02 -0.17710347931E+02 -0.32699398034E+02  0.70431850486E+02  0.00000000000E+00 0. -1.
         11    1    4    4    0    0 -0.43572142609E+02  0.39756727896E+02 -0.34370898235E+02  0.68267764501E+02  0.00000000000E+00 0.  1.
        -11    1    3    3    0    0 -0.55632474607E+02  0.11956584999E+02  0.92477612211E+02  0.10858195484E+03  0.00000000000E+00 0.  1.
         11    1    3    3    0    0  0.35031500121E+02 -0.38527628137E+01  0.66664882540E+02  0.75407269850E+02  0.00000000000E+00 0. -1.
         -3    1    1    2    0  502  0.43589172145E+01 -0.30150202150E+02 -0.23509925915E+02  0.38480533592E+02  0.00000000000E+00 0.  1.
<scales pt_clust_5="13000.00000" pt_clust_6="13000.00000" pt_clust_7="13000.00000" pt_clust_8="13000.00000" pt_clust_9="13000.00000"></scales>
<clustering>
<clus scale="   89.642">  7  8 -1 -1</clus>
<clus scale="   92.335">  1  7  2 -1</clus>
<clus scale="  118.276">  5  6 -1 -1</clus>
<clus scale="   28.760">  5  9 -1 -1</clus>
<clus scale="  152.276">  2  5  1 -1</clus>
</clustering>
</event>
<event>
 9    1  0.3303741E-006  0.2163883E+03  0.7546771E-02  0.1140331E+00
          1   -1    0    0  502    0 -0.00000000000E+00  0.00000000000E+00  0.24215328172E+03  0.24215328172E+03  0.00000000000E+00 0. -1.
         21   -1    0    0  501  502  0.00000000000E+00 -0.00000000000E+00 -0.17897910417E+03  0.17897910417E+03  0.00000000000E+00 0.  1.
         23    2    1    2    0    0  0.17533345451E+03 -0.15599137626E+02  0.51975704409E+02  0.20445452044E+03  0.90083426415E+02 0.  0.
         23    2    1    2    0    0 -0.12017813946E+03 -0.14370616714E+02  0.15092979586E+02  0.15378540061E+03  0.93663501853E+02 0.  0.
        -11    1    3    3    0    0  0.34989588784E+02  0.21975306102E+02  0.41858432457E+02  0.58815931254E+02  0.00000000000E+00 0. -1.
         11    1    3    3    0    0  0.14034386573E+03 -0.37574443728E+02  0.10117271953E+02  0.14563858919E+03  0.00000000000E+00 0.  1.
        -13    1    4    4    0    0 -0.15808403607E+02 -0.27130107712E+02 -0.26126547816E+02  0.40847825766E+02  0.00000000000E+00 0.  1.
         13    1    4    4    0    0 -0.10436973585E+03  0.12759490998E+02  0.41219527402E+02  0.11293757484E+03  0.00000000000E+00 0. -1.
          1    1    1    2  501    0 -0.55155315054E+02  0.29969754340E+02 -0.38945064455E+01  0.62892464845E+02  0.00000000000E+00 0. -1.
<scales pt_clust_5="13000.00000" pt_clust_6="13000.00000" pt_clust_7="13000.00000" pt_clust_8="13000.00000" pt_clust_9="13000.00000"></scales>
<clustering>
<clus scale="   90.083">  5  6 -1 -1</clus>
<clus scale="   93.664">  7  8 -1 -1</clus>
<clus scale="   62.772">  7  9 -1 -1</clus>
<clus scale="  197.738">  1  5  2 -1</clus>
<clus scale="  216.388">  2  5  1 -1</clus>
</clustering>
</event>
<event>
 9    1  0.3303741E-006  0.4142646E+03  0.7546771E-02  0.1066265E+00
          1   -1    0    0  502    0 -0.00000000000E+00  0.00000000000E+00  0.15350342293E+04  0.15350342293E+04  0.00000000000E+00 0. -1.
         21   -1    0    0  501  502  0.00000000000E+00 -0.00000000000E+00 -0.62151912076E+02  0.62151912076E+02  0.00000000000E+00 0. -1.
         23    2    1    2    0    0  0.15502388319E+03  0.62206284281E+02  0.62591596170E+03  0.65433558647E+03  0.92099090376E+02 0.  0.
         23    2    1    2    0    0 -0.68470616447E+01  0.11508447750E+03  0.53219318716E+03  0.55237580261E+03  0.92726046185E+02 0.  0.
        -11    1    3    3    0    0  0.13745610376E+03  0.45610503828E+02  0.60586334571E+03  0.62293249410E+03  0.00000000000E+00 0. -1.
         11    1    3    3    0    0  0.17567779424E+02  0.16595780454E+02  0.20052615985E+02  0.31403092373E+02  0.00000000000E+00 0.  1.
        -13    1    4    4    0    0  0.41913723374E+02  0.45496938240E+02  0.25834018075E+03  0.26564333341E+03  0.00000000000E+00 0.  1.
         13    1    4    4    0    0 -0.48760785018E+02  0.69587539262E+02  0.27385300641E+03  0.28673246920E+03  0.00000000000E+00 0. -1.
          1    1    1    2  501    0 -0.14817682154E+03 -0.17729076178E+03  0.31477316838E+03  0.39047475230E+03  0.00000000000E+00 0. -1.
<scales pt_clust_5="13000.00000" pt_clust_6="13000.00000" pt_clust_7="13000.00000" pt_clust_8="13000.00000" pt_clust_9="13000.00000"></scales>
<clustering>
<clus scale="   92.099">  5  6 -1 -1</clus>
<clus scale="   92.726">  7  8 -1 -1</clus>
<clus scale="  190.747">  1  5  2 -1</clus>
<clus scale="  175.860">  7  9 -1 -1</clus>
<clus scale="  414.265">  2  5  1 -1</clus>
</clustering>
</event>
<event>
 9    1  0.3303741E-006  0.2221075E+03  0.7546771E-02  0.1168061E+00
         21   -1    0    0  501  502  0.00000000000E+00  0.00000000000E+00  0.53177914859E+02  0.53177914859E+02  0.00000000000E+00 0.  1.
          1   -1    0    0  502    0 -0.00000000000E+00 -0.00000000000E+00 -0.53396730695E+03  0.53396730695E+03  0.00000000000E+00 0. -1.
         23    2    1    2    0    0  0.16496915129E+02 -0.71406097081E+01 -0.24673602071E+03  0.26448020499E+03  0.93530628130E+02 0.  0.
         23    2    1    2    0    0  0.80484834082E+02 -0.82238417365E+01 -0.10554547003E+03  0.16093744726E+03  0.90639812420E+02 0.  0.
        -11    1    3    3    0    0  0.37898439062E+02 -0.36411267716E+02 -0.96001263310E+02  0.10944548715E+03  0.00000000000E+00 0. -1.
         11    1    3    3    0    0 -0.21401523932E+02  0.29270658008E+02 -0.15073475740E+03  0.15503471784E+03  0.00000000000E+00 0.  1.
        -13    1    4    4    0    0  0.22907853666E+02 -0.39892289526E+01  0.14728699839E+02  0.27524867051E+02  0.00000000000E+00 0.  1.
         13    1    4    4    0    0  0.57576980416E+02 -0.42346127839E+01 -0.12027416987E+03  0.13341258021E+03  0.00000000000E+00 0. -1.
          1    1    1    2  501    0 -0.96981749211E+02  0.15364451445E+02 -0.12850790135E+03  0.16172756956E+03  0.00000000000E+00 0. -1.
<scales pt_clust_5="13000.00000" pt_clust_6="13000.00000" pt_clust_7="13000.00000" pt_clust_8="13000.00000" pt_clust_9="13000.00000"></scales>
<clustering>
<clus scale="   90.640">  7  8 -1 -1</clus>
<clus scale="   93.531">  5  6 -1 -1</clus>
<clus scale="   95.242">  2  5  1 -1</clus>
<clus scale="   89.145">  7  9 -1 -1</clus>
<clus scale="  222.107">  1  5  2 -1</clus>
</clustering>
</event>
<event>
 9    1  0.3303741E-006  0.3899005E+03  0.7546771E-02  0.1096606E+00
         21   -1    0    0  501  502  0.00000000000E+00  0.00000000000E+00  0.93835358359E+03  0.93835358359E+03  0.00000000000E+00 0.  1.
         -4   -1    0    0    0  501 -0.00000000000E+00 -0.00000000000E+00 -0.21556634016E+03  0.21556634016E+03  0.00000000000E+00 0.  1.
         23    2    1    2    0    0 -0.46118738061E+02 -0.34807315808E+00 -0.15972789423E+03  0.18911146629E+03  0.90128171699E+02 0.  0.
         23    2    1    2    0    0 -0.99372983810E+02 -0.42837078906E+02  0.10718355777E+03  0.17476297949E+03  0.85695849979E+02 0.  0.
        -13    1    3    3    0    0 -0.47121248893E+02 -0.36877078824E+02 -0.12553572987E+03  0.13906671246E+03  0.00000000000E+00 0.  1.
         13    1    3    3    0    0  0.10025108317E+01  0.36529005666E+02 -0.34192164358E+02  0.50044753835E+02  0.00000000000E+00 0. -1.
        -13    1    4    4    0    0 -0.16853787190E+02  0.25646156381E+02  0.26825003032E+02  0.40759738314E+02  0.00000000000E+00 0. -1.
         13    1    4    4    0    0 -0.82519196620E+02 -0.68483235287E+02  0.80358554739E+02  0.13400324118E+03  0.00000000000E+00 0.  1.
         -4    1    1    2    0  502  0.14549172187E+03  0.43185152064E+02  0.77533157988E+03  0.79004547797E+03  0.00000000000E+00 0.  1.
<scales pt_clust_5="13000.00000" pt_clust_6="13000.00000" pt_clust_7="13000.00000" pt_clust_8="13000.00000" pt_clust_9="13000.00000"></scales>
<clustering>
<clus scale="   85.696">  7  8 -1 -1</clus>
<clus scale="   90.128">  5  6 -1 -1</clus>
<clus scale="  101.243">  2  5  1 -1</clus>
<clus scale="  143.861">  7  9 -1 -1</clus>
<clus scale="  389.900">  1  5  2 -1</clus>
</clustering>
</event>
<event>
 9    1  0.3303741E-006  0.2627051E+03  0.7546771E-02  0.1116356E+00
         21   -1    0    0  501  502  0.00000000000E+00  0.00000000000E+00  0.64088353422E+03  0.64088353422E+03  0.00000000000E+00 0. -1.
          3   -1    0    0  502    0 -0.00000000000E+00 -0.00000000000E+00 -0.90618559653E+02  0.90618559653E+02  0.00000000000E+00 0. -1.
         23    2    1    2    0    0 -0.98689485617E+02 -0.14430308241E+03  0.13768247504E+03  0.24238219971E+03  0.96071185263E+02 0.  0.
         23    2    1    2    0    0 -0.13679390318E+02  0.71984655918E+02  0.12988014111E+03  0.17642620612E+03  0.94278516870E+02 0.  0.
        -11    1    4    4    0    0  0.79088253700E+01  0.86878144961E+02  0.72852786487E+02  0.11365689636E+03  0.00000000000E+00 0.  1.
         11    1    4    4    0    0 -0.21588215688E+02 -0.14893489043E+02  0.57027354622E+02  0.62769309760E+02  0.00000000000E+00 0. -1.
        -13    1    3    3    0    0 -0.23959572931E+02  0.93518611720E+01  0.53615175419E+01  0.26272881699E+02  0.00000000000E+00 0.  1.
         13    1    3    3    0    0 -0.74729912687E+02 -0.15365494358E+03  0.13232095749E+03  0.21610931801E+03  0.00000000000E+00 0. -1.
          3    1    1    2  501    0  0.11236887594E+03  0.72318426492E+02  0.28270235842E+03  0.31269368805E+03  0.00000000000E+00 0. -1.
<scales pt_clust_5="13000.00000" pt_clust_6="13000.00000" pt_clust_7="13000.00000" pt_clust_8="13000.00000" pt_clust_9="13000.00000"></scales>
<clustering>
<clus scale="   94.279">  5  6 -1 -1</clus>
<clus scale="   96.071">  7  8 -1 -1</clus>
<clus scale="  133.629">  5  9 -1 -1</clus>
<clus scale="  199.481">  2  7  1 -1</clus>
<clus scale="  262.705">  1  5  2 -1</clus>
</clustering>
</event>
<event>
 9    1  0.3303741E-006  0.1331863E+03  0.7546771E-02  0.1239533E+00
         21   -1    0    0  501  502  0.00000000000E+00  0.00000000000E+00  0.65246764389E+02  0.65246764389E+02  0.00000000000E+00 0.  1.
          2   -1    0    0  502    0 -0.00000000000E+00 -0.00000000000E+00 -0.56292176188E+03  0.56292176188E+03  0.00000000000E+00 0. -1.
         23    2    1    2    0    0  0.26612545712E+02 -0.49006962934E+01 -0.48532628758E+03  0.49441102474E+03  0.90379265075E+02 0.  0.
         23    2    1    2    0    0 -0.79104326707E+01  0.24646387897E+02  0.13282165188E+02  0.96386347845E+02  0.91890656530E+02 0.  0.
        -13    1    4    4    0    0 -0.41673041833E+02  0.37195974750E+01  0.31807672443E+02  0.52556691745E+02  0.00000000000E+00 0.  1.
         13    1    4    4    0    0  0.33762609162E+02  0.20926790422E+02 -0.18525507255E+02  0.43829656100E+02  0.00000000000E+00 0. -1.
        -13    1    3    3    0    0  0.57381082942E+02 -0.18515473104E+02 -0.28902489013E+03  0.29524701275E+03  0.00000000000E+00 0. -1.
         13    1    3    3    0    0 -0.30768537230E+02  0.13614776811E+02 -0.19630139745E+03  0.19916401199E+03  0.00000000000E+00 0.  1.
          2    1    1    2  501    0 -0.18702113042E+02 -0.19745691604E+02 -0.25630875097E+02  0.37371153680E+02  0.00000000000E+00 0. -1.
<scales pt_clust_5="13000.00000" pt_clust_6="13000.00000" pt_clust_7="13000.00000" pt_clust_8="13000.00000" pt_clust_9="13000.00000"></scales>
<clustering>
<clus scale="   90.379">  7  8 -1 -1</clus>
<clus scale="   91.891">  5  6 -1 -1</clus>
<clus scale="   27.197">  5  9 -1 -1</clus>
<clus scale="   94.343">  2  7  1 -1</clus>
<clus scale="  133.186">  1  5  2 -1</clus>
</clustering>
</event>
<event>
 9    1  0.3303741E-006  0.2266297E+03  0.7546771E-02  0.1155205E+00
          2   -1    0    0  502    0 -0.00000000000E+00  0.00000000000E+00  0.13161424203E+03  0.13161424203E+03  0.00000000000E+00 0. -1.
         21   -1    0    0  501  502  0.00000000000E+00 -0.00000000000E+00 -0.31087022979E+03  0.31087022979E+03  0.00000000000E+00 0. -1.
         23    2    1    2    0    0  0.34678321573E+01  0.38383009669E+02  0.39875088842E+02  0.12723938412E+03  0.11451880575E+03 0.  0.
         23    2    1    2    0    0 -0.40076594719E+02  0.77874317666E+01 -0.14223410044E+02  0.10203377709E+03  0.92421906146E+02 0.  0.
        -13    1    3    3    0    0  0.52983142929E+02  0.30202676228E+02 -0.32442266625E+01  0.61073235485E+02  0.00000000000E+00 0.  1.
         13    1    3    3    0    0 -0.49515310772E+02  0.81803334407E+01  0.43119315505E+02  0.66166148639E+02  0.00000000000E+00 0. -1.
        -13    1    4    4    0    0  0.26982042571E+02 -0.64723418549E+01 -0.18489076217E+02  0.33343181758E+02  0.00000000000E+00 0. -1.
         13    1    4    4    0    0 -0.67058637290E+02  0.14259773622E+02  0.42656661729E+01  0.68690595330E+02  0.00000000000E+00 0.  1.
          2    1    1    2  501    0  0.36608762562E+02 -0.46170441435E+02 -0.20490766656E+03  0.21321131061E+03  0.00000000000E+00 0. -1.
<scales pt_clust_5="13000.00000" pt_clust_6="13000.00000" pt_clust_7="13000.00000" pt_clust_8="13000.00000" pt_clust_9="13000.00000"></scales>
<clustering>
<clus scale="   92.422">  7  8 -1 -1</clus>
<clus scale="   58.923">  7  9 -1 -1</clus>
<clus scale="  114.519">  5  6 -1 -1</clus>
<clus scale="  120.830">  1  5  2 -1</clus>
<clus scale="  226.630">  2  5  1 -1</clus>
</clustering>
</event>
<event>
 9    1  0.3303741E-006  0.2092917E+03  0.7546771E-02  0.1171868E+00
          1   -1    0    0  502    0 -0.00000000000E+00  0.00000000000E+00  0.31798416820E+03  0.31798416820E+03  0.00000000000E+00 0. -1.
         21   -1    0    0  501  502  0.00000000000E+00 -0.00000000000E+00 -0.15858078007E+03  0.15858078007E+03  0.00000000000E+00 0. -1.
         23    2    1    2    0    0 -0.47812173110E+02 -0.15134164058E+02  0.23253022500E+03  0.25486569915E+03  0.91494110428E+02 0.  0.
         23    2    1    2    0    0  0.33091190390E+02 -0.68874967120E+02 -0.18292587210E+02  0.12030380352E+03  0.91102131788E+02 0.  0.
        -11    1    4    4    0    0  0.57214124186E+02 -0.71438330310E+02 -0.25474206534E+02  0.95004348545E+02  0.00000000000E+00 0. -1.
         11    1    4    4    0    0 -0.24122933795E+02  0.25633631902E+01  0.71816193240E+01  0.25299454971E+02  0.00000000000E+00 0.  1.
        -13    1    3    3    0    0 -0.44370147637E+02  0.18655913680E+02  0.20660349206E+03  0.21213617336E+03  0.00000000000E+00 0.  1.
         13    1    3    3    0    0 -0.34420254730E+01 -0.33790077738E+02  0.25926732943E+02  0.42729525787E+02  0.00000000000E+00 0. -1.
          1    1    1    2  501    0  0.14720982720E+02  0.84009131178E+02 -0.54834249668E+02  0.10139544561E+03  0.00000000000E+00 0. -1.
<scales pt_clust_5="13000.00000" pt_clust_6="13000.00000" pt_clust_7="13000.00000" pt_clust_8="13000.00000" pt_clust_9="13000.00000"></scales>
<clustering>
<clus scale="   91.102">  5  6 -1 -1</clus>
<clus scale="   85.289">  5  9 -1 -1</clus>
<clus scale="   91.494">  7  8 -1 -1</clus>
<clus scale="  104.337">  1  7  2 -1</clus>
<clus scale="  209.292">  2  5  1 -1</clus>
</clustering>
</event>
<event>
 9    1  0.3303741E-006  0.1737307E+03  0.7546771E-02  0.1196705E+00
         21   -1    0    0  501  502  0.00000000000E+00  0.00000000000E+00  0.73375065233E+02  0.73375065233E+02  0.00000000000E+00 0. -1.
          1   -1    0    0  502    0 -0.00000000000E+00 -0.00000000000E+00 -0.44894693669E+03  0.44894693669E+03  0.00000000000E+00 0. -1.
         23    2    1    2    0    0  0.86792161513E+01  0.45750616067E+02 -0.32485290874E+03  0.34133920786E+03  0.93886073734E+02 0.  0.
         23    2    1    2    0    0  0.25831248048E+01  0.58099204579E+01  0.19006825250E+02  0.93535582800E+02  0.91363111452E+02 0.  0.
        -13    1    4    4    0    0 -0.14271912536E+01 -0.42573199415E+02  0.43302668474E+01  0.42816648564E+02  0.00000000000E+00 0.  1.
         13    1    4    4    0    0  0.40103160584E+01  0.48383119872E+02  0.14676558402E+02  0.50718934236E+02  0.00000000000E+00 0. -1.
        -13    1    3    3    0    0  0.37912680121E+02  0.58732322146E+02 -0.18234788868E+03  0.19528852881E+03  0.00000000000E+00 0. -1.
         13    1    3    3    0    0 -0.29233463970E+02 -0.12981706079E+02 -0.14250502006E+03  0.14605067905E+03  0.00000000000E+00 0.  1.
          1    1    1    2  501    0 -0.11262340956E+02 -0.51560536525E+02 -0.69725787971E+02  0.87447211269E+02  0.00000000000E+00 0. -1.
<scales pt_clust_5="13000.00000" pt_clust_6="13000.00000" pt_clust_7="13000.00000" pt_clust_8="13000.00000" pt_clust_9="13000.00000"></scales>
<clustering>
<clus scale="   91.363">  5  6 -1 -1</clus>
<clus scale="   52.776">  5  9 -1 -1</clus>
<clus scale="   93.886">  7  8 -1 -1</clus>
<clus scale="  104.800">  2  7  1 -1</clus>
<clus scale="  173.731">  1  5  2 -1</clus>
</clustering>
</event>
<event>
 9    1  0.3303741E-006  0.3772308E+03  0.7546771E-02  0.1087772E+00
         21   -1    0    0  501  502  0.00000000000E+00  0.00000000000E+00  0.44939027432E+02  0.44939027432E+02  0.00000000000E+00 0. -1.
          1   -1    0    0  502    0 -0.00000000000E+00 -0.00000000000E+00 -0.15290626939E+04  0.15290626939E+04  0.00000000000E+00 0. -1.
         23    2    1    2    0    0  0.84561316541E+02 -0.66927750699E+02 -0.30579462234E+03  0.33676189280E+03  0.90930090314E+02 0.  0.
         23    2    1    2    0    0  0.11018573395E+03  0.64778369923E+02 -0.71796636489E+03  0.73737501685E+03  0.10912873678E+03 0.  0.
        -13    1    3    3    0    0  0.39906148668E+02  0.17936474152E+02 -0.74851902126E+02  0.86700778880E+02  0.00000000000E+00 0.  1.
         13    1    3    3    0    0  0.44655167874E+02 -0.84864224851E+02 -0.23094272021E+03  0.25006111392E+03  0.00000000000E+00 0. -1.
        -13    1    4    4    0    0  0.13256947872E+03  0.54456727300E+02 -0.62125313833E+03  0.63757012455E+03  0.00000000000E+00 0. -1.
         13    1    4    4    0    0 -0.22383744763E+02  0.10321642623E+02 -0.96713226563E+02  0.99804892307E+02  0.00000000000E+00 0.  1.
          1    1    1    2  501    0 -0.19474705050E+03  0.21493807765E+01 -0.46036267926E+03  0.49986481170E+03  0.00000000000E+00 0. -1.
<scales pt_clust_5="13000.00000" pt_clust_6="13000.00000" pt_clust_7="13000.00000" pt_clust_8="13000.00000" pt_clust_9="13000.00000"></scales>
<clustering>
<clus scale="   90.930">  5  6 -1 -1</clus>
<clus scale="  109.129">  7  8 -1 -1</clus>
<clus scale="  141.061">  2  5  1 -1</clus>
<clus scale="  162.978">  7  9 -1 -1</clus>
<clus scale="  377.231">  1  5  2 -1</clus>
</clustering>
</event>
<event>
 9    1  0.3303741E-006  0.1939515E+03  0.7546771E-02  0.1184684E+00
          2   -1    0    0  502    0 -0.00000000000E+00  0.00000000000E+00  0.28959462819E+03  0.28959462819E+03  0.00000000000E+00 0. -1.
         21   -1    0    0  501  502  0.00000000000E+00 -0.00000000000E+00 -0.74096752527E+02  0.74096752527E+02  0.00000000000E+00 0. -1.
         23    2    1    2    0    0  0.30413164092E+02 -0.41426703831E+02  0.85462771081E+02  0.13018270070E+03  0.83681049112E+02 0.  0.
         23    2    1    2    0    0 -0.29708753216E+02 -0.44157554978E+02  0.48730960812E+02  0.11545985391E+03  0.90131967939E+02 0.  0.
        -11    1    4    4    0    0 -0.55122550353E+02 -0.26465385758E+01  0.18700229889E+02  0.58268330350E+02  0.00000000000E+00 0.  1.
         11    1    4    4    0    0  0.25413797137E+02 -0.41511016403E+02  0.30030730923E+02  0.57191523563E+02  0.00000000000E+00 0. -1.
        -11    1    3    3    0    0 -0.25596486789E+02 -0.29140759851E+02  0.21758677707E+02  0.44472509218E+02  0.00000000000E+00 0. -1.
         11    1    3    3    0    0  0.56009650881E+02 -0.12285943980E+02  0.63704093375E+02  0.85710191482E+02  0.00000000000E+00 0.  1.
          2    1    1    2  501    0 -0.70441087553E+00  0.85584258809E+02  0.81304143775E+02  0.11804882611E+03  0.00000000000E+00 0. -1.
<scales pt_clust_5="13000.00000" pt_clust_6="13000.00000" pt_clust_7="13000.00000" pt_clust_8="13000.00000" pt_clust_9="13000.00000"></scales>
<clustering>
<clus scale="   83.681">  7  8 -1 -1</clus>
<clus scale="   90.132">  5  6 -1 -1</clus>
<clus scale="   85.587">  5  9 -1 -1</clus>
<clus scale="   98.202">  1  7  2 -1</clus>
<clus scale="  193.951">  2  5  1 -1</clus>
</clustering>
</event>
<event>
 9    1  0.3303741E-006  0.1465029E+03  0.7546771E-02  0.1222923E+00
         21   -1    0    0  501  502  0.00000000000E+00  0.00000000000E+00  0.20136308724E+03  0.20136308724E+03  0.00000000000E+00 0.  1.
          2   -1    0    0  502    0 -0.00000000000E+00 -0.00000000000E+00 -0.76130207488E+02  0.76130207488E+02  0.00000000000E+00 0. -1.
         23    2    1    2    0    0 -0.29201067289E+02  0.23330681774E+02  0.64850241549E+02  0.11903459071E+03  0.92556236495E+02 0.  0.
         23    2    1    2    0    0  0.19960917941E+02 -0.51417370169E+02  0.20058078991E+02  0.10845557911E+03  0.91203628803E+02 0.  0.
        -11    1    3    3    0    0  0.26165510893E+02 -0.14459982488E+02  0.33904266864E+02  0.45202039394E+02  0.00000000000E+00 0. -1.
         11    1    3    3    0    0 -0.55366578182E+02  0.37790664262E+02  0.30945974686E+02  0.73832551318E+02  0.00000000000E+00 0.  1.
        -13    1    4    4    0    0 -0.36229028917E+02 -0.27611682872E+02  0.92425500239E+01  0.46479805273E+02  0.00000000000E+00 0.  1.
         13    1    4    4    0    0  0.56189946858E+02 -0.23805687298E+02  0.10815528968E+02  0.61975773835E+02  0.00000000000E+00 0. -1.
          2    1    1    2  501    0  0.92401493485E+01  0.28086688396E+02  0.40324559216E+02  0.50003124912E+02  0.00000000000E+00 0. -1.
<scales pt_clust_5="13000.00000" pt_clust_6="13000.00000" pt_clust_7="13000.00000" pt_clust_8="13000.00000" pt_clust_9="13000.00000"></scales>
<clustering>
<clus scale="   91.204">  7  8 -1 -1</clus>
<clus scale="   29.568">  7  9 -1 -1</clus>
<clus scale="   92.556">  5  6 -1 -1</clus>
<clus scale="   99.818">  2  5  1 -1</clus>
<clus scale="  146.503">  1  5  2 -1</clus>
</clustering>
</event>
<event>
 9    1  0.3303741E-006  0.5907700E+03  0.7546771E-02  0.1000274E+00
         21   -1    0    0  501  502  0.00000000000E+00  0.00000000000E+00  0.69903515656E+03  0.69903515656E+03  0.00000000000E+00 0. -1.
          1   -1    0    0  502    0 -0.00000000000E+00 -0.00000000000E+00 -0.41101848110E+03  0.41101848110E+03  0.00000000000E+00 0. -1.
         23    2    1    2    0    0 -0.42830651617E+03 -0.14324719799E+03  0.23310955519E+03  0.51673759378E+03  0.93335119765E+02 0.  0.
         23    2    1    2    0    0 -0.24184501023E+02 -0.30766513390E+02 -0.21528300044E+02  0.10252966891E+03  0.92289744106E+02 0.  0.
        -11    1    3    3    0    0 -0.29622897724E+03 -0.97222291694E+02  0.20758642264E+03  0.37456094808E+03  0.00000000000E+00 0.  1.
         11    1    3    3    0    0 -0.13207753892E+03 -0.46024906294E+02  0.25523132547E+02  0.14217664570E+03  0.00000000000E+00 0. -1.
        -13    1    4    4    0    0 -0.20182273129E+02  0.31560745841E+02 -0.12091878597E+02  0.39365192172E+02  0.00000000000E+00 0. -1.
         13    1    4    4    0    0 -0.40022278937E+01 -0.62327259231E+02 -0.94364214470E+01  0.63164476734E+02  0.00000000000E+00 0.  1.
          1    1    1    2  501    0  0.45249101719E+03  0.17401371138E+03  0.76435420317E+02  0.49078637498E+03  0.00000000000E+00 0. -1.
<scales pt_clust_5="13000.00000" pt_clust_6="13000.00000" pt_clust_7="13000.00000" pt_clust_8="13000.00000" pt_clust_9="13000.00000"></scales>
<clustering>
<clus scale="   92.290">  7  8 -1 -1</clus>
<clus scale="   93.335">  5  6 -1 -1</clus>
<clus scale="  461.170">  2  5  1 -1</clus>
<clus scale="  138.437">  7  9 -1 -1</clus>
<clus scale="  590.770">  1  5  2 -1</clus>
</clustering>
</event>
<event>
 9    1  0.9267457E-006  0.4860356E+03  0.7546771E-02  0.1073979E+00
          2   -1    0    0  502    0 -0.00000000000E+00  0.00000000000E+00  0.77360354089E+03  0.77360354089E+03  0.00000000000E+00 0. -1.
         21   -1    0    0  501  502  0.00000000000E+00 -0.00000000000E+00 -0.12060690550E+03  0.12060690550E+03  0.00000000000E+00 0. -1.
         23    2    1    2    0    0 -0.18140309328E+02  0.20631218223E+02  0.22610199875E+02  0.98209398625E+02  0.91537679958E+02 0.  0.
         23    2    1    2    0    0 -0.77617034945E+02  0.39385190406E+02  0.66579031008E+03  0.67757439274E+03  0.90855508225E+02 0.  0.
        -11    1    4    4    0    0  0.18576170429E+02  0.19483382578E+02  0.11648963879E+03  0.11955965979E+03  0.00000000000E+00 0.  1.
         11    1    4    4    0    0 -0.96193205374E+02  0.19901807829E+02  0.54930067128E+03  0.55801473295E+03  0.00000000000E+00 0. -1.
        -11    1    3    3    0    0  0.36642404635E+02  0.65755226525E+01 -0.19320689936E+00  0.37228223763E+02  0.00000000000E+00 0.  1.
         11    1    3    3    0    0 -0.54782713963E+02  0.14055695571E+02  0.22803406774E+02  0.60981174863E+02  0.00000000000E+00 0. -1.
          2    1    1    2  501    0  0.95757344273E+02 -0.60016408630E+02 -0.35403874556E+02  0.11842665503E+03  0.00000000000E+00 0. -1.
<scales pt_clust_5="13000.00000" pt_clust_6="13000.00000" pt_clust_7="13000.00000" pt_clust_8="13000.00000" pt_clust_9="13000.00000"></scales>
<clustering>
<clus scale="   90.856">  5  6 -1 -1</clus>
<clus scale="   91.538">  7  8 -1 -1</clus>
<clus scale="   95.571">  1  7  2 -1</clus>
<clus scale="  111.479">  5  9 -1 -1</clus>
<clus scale="  486.036">  2  5  1 -1</clus>
</clustering>
</event>
<event>
 9    1  0.3303741E-006  0.3116132E+03  0.7546771E-02  0.1125701E+00
         21   -1    0    0  501  502  0.00000000000E+00  0.00000000000E+00  0.50949506068E+02  0.50949506068E+02  0.00000000000E+00 0. -1.
          2   -1    0    0  502    0 -0.00000000000E+00 -0.00000000000E+00 -0.82795332543E+03  0.82795332543E+03  0.00000000000E+00 0. -1.
         23    2    1    2    0    0  0.24366206209E+02 -0.12046649049E+02 -0.13044313985E+03  0.16116785261E+03  0.90668794098E+02 0.  0.
         23    2    1    2    0    0 -0.21394406661E+02 -0.10790301808E+03 -0.53652616932E+03  0.55493341971E+03  0.89386732826E+02 0.  0.
        -13    1    4    4    0    0  0.32490964443E+02 -0.48865242730E+02 -0.17160816084E+03  0.18136382105E+03  0.00000000000E+00 0.  1.
         13    1    4    4    0    0 -0.53885371104E+02 -0.59037775346E+02 -0.36491800848E+03  0.37356959867E+03  0.00000000000E+00 0. -1.
        -13    1    3    3    0    0  0.39174353013E+02  0.28223069038E+02 -0.47214526088E+02  0.67530608124E+02  0.00000000000E+00 0.  1.
         13    1    3    3    0    0 -0.14808146804E+02 -0.40269718087E+02 -0.83228613759E+02  0.93637244485E+02  0.00000000000E+00 0. -1.
          2    1    1    2  501    0 -0.29717995480E+01  0.11994966712E+03 -0.11003451020E+03  0.16280155918E+03  0.00000000000E+00 0. -1.
<scales pt_clust_5="13000.00000" pt_clust_6="13000.00000" pt_clust_7="13000.00000" pt_clust_8="13000.00000" pt_clust_9="13000.00000"></scales>
<clustering>
<clus scale="   89.387">  5  6 -1 -1</clus>
<clus scale="   90.669">  7  8 -1 -1</clus>
<clus scale="   94.656">  2  7  1 -1</clus>
<clus scale="  117.556">  5  9 -1 -1</clus>
<clus scale="  311.613">  1  5  2 -1</clus>
</clustering>
</event>
<event>
 9    1  0.3303741E-006  0.1851020E+03  0.7546771E-02  0.1183661E+00
          1   -1    0    0  502    0 -0.00000000000E+00  0.00000000000E+00  0.18963438231E+03  0.18963438231E+03  0.00000000000E+00 0. -1.
         21   -1    0    0  501  502  0.00000000000E+00 -0.00000000000E+00 -0.15042104431E+03  0.15042104431E+03  0.00000000000E+00 0. -1.
         23    2    1    2    0    0 -0.35529137123E+02 -0.61509585820E+02  0.91830980943E+02  0.14762011324E+03  0.91175764542E+02 0.  0.
         23    2    1    2    0    0 -0.33417013028E+02  0.57000353830E+02 -0.38080549700E+02  0.12182913891E+03  0.95007756128E+02 0.  0.
        -13    1    3    3    0    0  0.26177487522E+02 -0.30615039108E+01  0.40525560365E+02  0.48342059349E+02  0.00000000000E+00 0.  1.
         13    1    3    3    0    0 -0.61706624645E+02 -0.58448081909E+02  0.51305420578E+02  0.99278053892E+02  0.00000000000E+00 0. -1.
        -13    1    4    4    0    0 -0.40721567380E+02  0.75935864102E+02 -0.93757801062E+01  0.86674141238E+02  0.00000000000E+00 0. -1.
         13    1    4    4    0    0  0.73045543522E+01 -0.18935510272E+02 -0.28704769593E+02  0.35154997667E+02  0.00000000000E+00 0.  1.
          1    1    1    2  501    0  0.68946150150E+02  0.45092319895E+01 -0.14537093244E+02  0.70606174473E+02  0.00000000000E+00 0. -1.
<scales pt_clust_5="13000.00000" pt_clust_6="13000.00000" pt_clust_7="13000.00000" pt_clust_8="13000.00000" pt_clust_9="13000.00000"></scales>
<clustering>
<clus scale="   91.176">  5  6 -1 -1</clus>
<clus scale="   95.008">  7  8 -1 -1</clus>
<clus scale="   69.093">  7  9 -1 -1</clus>
<clus scale="  115.580">  1  5  2 -1</clus>
<clus scale="  185.102">  2  5  1 -1</clus>
</clustering>
</event>
<event>
 9    1  0.3303741E-006  0.2718408E+03  0.7546771E-02  0.1114856E+00
          2   -1    0    0  502    0 -0.00000000000E+00  0.00000000000E+00  0.10406212446E+04  0.10406212446E+04  0.00000000000E+00 0. -1.
         21   -1    0    0  501  502  0.00000000000E+00 -0.00000000000E+00 -0.53457146672E+02  0.53457146672E+02  0.00000000000E+00 0.  1.
         23    2    1    2    0    0  0.14610748587E+03  0.73853578203E+02  0.53218809636E+03  0.56407783004E+03  0.90320983116E+02 0.  0.
         23    2    1    2    0    0 -0.19106030140E+03 -0.75287358475E+02  0.39874346226E+03  0.45799424327E+03  0.92683078612E+02 0.  0.
        -11    1    4    4    0    0 -0.10115297245E+03 -0.72441145535E+02  0.15874231188E+03  0.20168977411E+03  0.00000000000E+00 0.  1.
         11    1    4    4    0    0 -0.89907328951E+02 -0.28462129400E+01  0.24000115038E+03  0.25630446916E+03  0.00000000000E+00 0. -1.
        -13    1    3    3    0    0 -0.71667668063E+01  0.22690130276E+02  0.96486489110E+02  0.99377296900E+02  0.00000000000E+00 0. -1.
         13    1    3    3    0    0  0.15327425267E+03  0.51163447927E+02  0.43570160725E+03  0.46470053314E+03  0.00000000000E+00 0.  1.
          2    1    1    2  501    0  0.44952815535E+02  0.14337802719E+01  0.56232539355E+02  0.72006318006E+02  0.00000000000E+00 0. -1.
<scales pt_clust_5="13000.00000" pt_clust_6="13000.00000" pt_clust_7="13000.00000" pt_clust_8="13000.00000" pt_clust_9="13000.00000"></scales>
<clustering>
<clus scale="   90.321">  7  8 -1 -1</clus>
<clus scale="   92.683">  5  6 -1 -1</clus>
<clus scale="   44.976">  5  9 -1 -1</clus>
<clus scale="  186.975">  1  7  2 -1</clus>
<clus scale="  271.841">  2  5  1 -1</clus>
</clustering>
</event>
<event>
 9    1  0.3303741E-006  0.2401471E+03  0.7546771E-02  0.1139447E+00
         21   -1    0    0  501  502  0.00000000000E+00  0.00000000000E+00  0.62128141331E+02  0.62128141331E+02  0.00000000000E+00 0. -1.
          1   -1    0    0  502    0 -0.00000000000E+00 -0.00000000000E+00 -0.62671340348E+03  0.62671340348E+03  0.00000000000E+00 0. -1.
         23    2    1    2    0    0  0.54608039531E+02 -0.10330067542E+03 -0.27887128705E+03  0.31560825046E+03  0.90478204508E+02 0.  0.
         23    2    1    2    0    0 -0.12577160786E+02 -0.10860190473E+02 -0.21211290589E+03  0.23104885266E+03  0.90086396087E+02 0.  0.
        -11    1    3    3    0    0  0.64370439404E+02 -0.31507740315E+02 -0.17361451444E+03  0.18782516017E+03  0.00000000000E+00 0. -1.
         11    1    3    3    0    0 -0.97623998737E+01 -0.71792935109E+02 -0.10525677261E+03  0.12778309029E+03  0.00000000000E+00 0.  1.
        -11    1    4    4    0    0 -0.50290263610E+02 -0.16850415801E+02 -0.13358111832E+03  0.14372530152E+03  0.00000000000E+00 0. -1.
         11    1    4    4    0    0  0.37713102823E+02  0.59902253283E+01 -0.78531787571E+02  0.87323551137E+02  0.00000000000E+00 0.  1.
          1    1    1    2  501    0 -0.42030878744E+02  0.11416086590E+03 -0.73601069207E+02  0.14218444169E+03  0.00000000000E+00 0. -1.
<scales pt_clust_5="13000.00000" pt_clust_6="13000.00000" pt_clust_7="13000.00000" pt_clust_8="13000.00000" pt_clust_9="13000.00000"></scales>
<clustering>
<clus scale="   90.086">  7  8 -1 -1</clus>
<clus scale="   90.478">  5  6 -1 -1</clus>
<clus scale="  121.652">  7  9 -1 -1</clus>
<clus scale="  147.782">  2  5  1 -1</clus>
<clus scale="  240.147">  1  5  2 -1</clus>
</clustering>
</event>
<event>
 9    1  0.3303741E-006  0.1606376E+03  0.7546771E-02  0.1205001E+00
         21   -1    0    0  501  502  0.00000000000E+00  0.00000000000E+00  0.36018485806E+02  0.36018485806E+02  0.00000000000E+00 0.  1.
          2   -1    0    0  502    0 -0.00000000000E+00 -0.00000000000E+00 -0.51121941346E+03  0.51121941346E+03  0.00000000000E+00 0.  1.
         23    2    1    2    0    0  0.60001177354E+02  0.23614056602E+02 -0.19641322902E+03  0.22548175617E+03  0.90033887377E+02 0.  0.
         23    2    1    2    0    0  0.48668451644E+01 -0.12665509014E+02 -0.18448862370E+03  0.20677768176E+03  0.92395108622E+02 0.  0.
        -13    1    4    4    0    0 -0.16364460396E+02  0.29774640713E+02 -0.13071937732E+03  0.13506250553E+03  0.00000000000E+00 0.  1.
         13    1    4    4    0    0  0.21231305560E+02 -0.42440149727E+02 -0.53769246383E+02  0.71715176227E+02  0.00000000000E+00 0. -1.
        -13    1    3    3    0    0 -0.18083165525E+02  0.26440528207E+02 -0.47111100881E+02  0.56969801066E+02  0.00000000000E+00 0.  1.
         13    1    3    3    0    0  0.78084342879E+02 -0.28264716051E+01 -0.14930212814E+03  0.16851195510E+03  0.00000000000E+00 0. -1.
          2    1    1    2  501    0 -0.64868022518E+02 -0.10948547588E+02 -0.94299074926E+02  0.11497846134E+03  0.00000000000E+00 0.  1.
<scales pt_clust_5="13000.00000" pt_clust_6="13000.00000" pt_clust_7="13000.00000" pt_clust_8="13000.00000" pt_clust_9="13000.00000"></scales>
<clustering>
<clus scale="   90.034">  7  8 -1 -1</clus>
<clus scale="   92.395">  5  6 -1 -1</clus>
<clus scale="   65.786">  5  9 -1 -1</clus>
<clus scale="  110.742">  2  7  1 -1</clus>
<clus scale="  160.638">  1  5  2 -1</clus>
</clustering>
</event>
<event>
 9    1  0.3303741E-006  0.5547461E+03  0.7546771E-02  0.1048570E+00
          2   -1    0    0  502    0 -0.00000000000E+00  0.00000000000E+00  0.10018400465E+04  0.10018400465E+04  0.00000000000E+00 0. -1.
         21   -1    0    0  501  502  0.00000000000E+00 -0.00000000000E+00 -0.13682275693E+03  0.13682275693E+03  0.00000000000E+00 0.  1.
         23    2    1    2    0    0 -0.92777847751E+02 -0.29152051812E+01  0.37982884678E+03  0.40167494075E+03  0.91959652742E+02 0.  0.
         23    2    1    2    0    0  0.18987642172E+03  0.13626483884E+03  0.29245226816E+02  0.25212244417E+03  0.89940434367E+02 0.  0.
        -11    1    4    4    0    0  0.11600826001E+03  0.10086642323E+03  0.59445995573E+02  0.16482044204E+03  0.00000000000E+00 0. -1.
         11    1    4    4    0    0  0.73868161706E+02  0.35398415612E+02 -0.30200768757E+02  0.87302002126E+02  0.00000000000E+00 0.  1.
        -13    1    3    3    0    0 -0.24392689975E+02 -0.43625489620E+02  0.12196911323E+03  0.13181294038E+03  0.00000000000E+00 0. -1.
         13    1    3    3    0    0 -0.68385157776E+02  0.40710284439E+02  0.25785973355E+03  0.26986200038E+03  0.00000000000E+00 0.  1.
          2    1    1    2  501    0 -0.97098573965E+02 -0.13334963366E+03  0.45594321593E+03  0.48486541846E+03  0.00000000000E+00 0. -1.
<scales pt_clust_5="13000.00000" pt_clust_6="13000.00000" pt_clust_7="13000.00000" pt_clust_8="13000.00000" pt_clust_9="13000.00000"></scales>
<clustering>
<clus scale="   89.940">  5  6 -1 -1</clus>
<clus scale="   91.960">  7  8 -1 -1</clus>
<clus scale="  130.663">  1  7  2 -1</clus>
<clus scale="  216.296">  5  9 -1 -1</clus>
<clus scale="  554.746">  2  5  1 -1</clus>
</clustering>
</event>
<event>
 9    1  0.3303741E-006  0.2809429E+03  0.7546771E-02  0.1107545E+00
          2   -1    0    0  502    0 -0.00000000000E+00  0.00000000000E+00  0.80589449783E+03  0.80589449783E+03  0.00000000000E+00 0. -1.
         21   -1    0    0  501  502  0.00000000000E+00 -0.00000000000E+00 -0.75708597868E+02  0.75708597868E+02  0.00000000000E+00 0. -1.
         23    2    1    2    0    0 -0.90462304049E+02 -0.15959403505E+03  0.39244581409E+03  0.44228856590E+03  0.89172720342E+02 0.  0.
         23    2    1    2    0    0  0.44420969901E+02 -0.95736383882E+01  0.16655792593E+03  0.19428220934E+03  0.89101947540E+02 0.  0.
        -11    1    4    4    0    0  0.16130144705E+01  0.29655421454E+02  0.10723729861E+03  0.11127391451E+03  0.00000000000E+00 0.  1.
         11    1    4    4    0    0  0.42807955430E+02 -0.39229059842E+02  0.59320627321E+02  0.83008294826E+02  0.00000000000E+00 0. -1.
        -11    1    3    3    0    0 -0.82678872179E+02 -0.98863085395E+02  0.18126616588E+03  0.22241206904E+03  0.00000000000E+00 0. -1.
         11    1    3    3    0    0 -0.77834318701E+01 -0.60730949659E+02  0.21117964820E+03  0.21987649687E+03  0.00000000000E+00 0.  1.
          2    1    1    2  501    0  0.46041334148E+02  0.16916767344E+03  0.17118215995E+03  0.24503232047E+03  0.00000000000E+00 0. -1.
<scales pt_clust_5="13000.00000" pt_clust_6="13000.00000" pt_clust_7="13000.00000" pt_clust_8="13000.00000" pt_clust_9="13000.00000"></scales>
<clustering>
<clus scale="   89.102">  5  6 -1 -1</clus>
<clus scale="   89.173">  7  8 -1 -1</clus>
<clus scale="  175.321">  5  9 -1 -1</clus>
<clus scale="  203.974">  1  7  2 -1</clus>
<clus scale="  280.943">  2  5  1 -1</clus>
</clustering>
</event>
<event>
 9    1  0.3303741E-006  0.3764997E+03  0.7546771E-02  0.1075988E+00
         21   -1    0    0  501  502  0.00000000000E+00  0.00000000000E+00  0.91883355552E+02  0.91883355552E+02  0.00000000000E+00 0.  1.
          1   -1    0    0  502    0 -0.00000000000E+00 -0.00000000000E+00 -0.95471894302E+03  0.95471894302E+03  0.00000000000E+00 0. -1.
         23    2    1    2    0    0 -0.16145979330E+03 -0.57052561451E+02 -0.17172513430E+03  0.25959168647E+03  0.92596232723E+02 0.  0.
         23    2    1    2    0    0 -0.40849750147E+02 -0.38859362579E+02 -0.42871054158E+03  0.44207299144E+03  0.91962215905E+02 0.  0.
        -11    1    3    3    0    0 -0.15808817466E+02 -0.36122218531E+02 -0.71187355745E+02  0.81377963843E+02  0.00000000000E+00 0. -1.
         11    1    3    3    0    0 -0.14565097584E+03 -0.20930342920E+02 -0.10053777855E+03  0.17821372263E+03  0.00000000000E+00 0.  1.
        -13    1    4    4    0    0 -0.62219375178E+02  0.99697293114E+00 -0.26721611763E+03  0.27436599301E+03  0.00000000000E+00 0.  1.
         13    1    4    4    0    0  0.21369625031E+02 -0.39856335510E+02 -0.16149442395E+03  0.16770699843E+03  0.00000000000E+00 0. -1.
          1    1    1    2  501    0  0.20230954345E+03  0.95911924030E+02 -0.26239991159E+03  0.34493762066E+03  0.00000000000E+00 0. -1.
<scales pt_clust_5="13000.00000" pt_clust_6="13000.00000" pt_clust_7="13000.00000" pt_clust_8="13000.00000" pt_clust_9="13000.00000"></scales>
<clustering>
<clus scale="   91.962">  7  8 -1 -1</clus>
<clus scale="   92.596">  5  6 -1 -1</clus>
<clus scale="  194.675">  2  5  1 -1</clus>
<clus scale="  154.075">  7  9 -1 -1</clus>
<clus scale="  376.500">  1  5  2 -1</clus>
</clustering>
</event>
<event>
 9    1  0.3303741E-006  0.2323136E+03  0.7546771E-02  0.1150470E+00
         21   -1    0    0  501  502  0.00000000000E+00  0.00000000000E+00  0.10288446753E+04  0.10288446753E+04  0.00000000000E+00 0. -1.
          2   -1    0    0  502    0 -0.00000000000E+00 -0.00000000000E+00 -0.36310430519E+02  0.36310430519E+02  0.00000000000E+00 0. -1.
         23    2    1    2    0    0  0.40779425397E+02  0.71708322186E+02  0.17533427070E+03  0.21557555739E+03  0.94475761201E+02 0.  0.
         23    2    1    2    0    0 -0.11291083916E+03 -0.59967028396E+02  0.54886694639E+03  0.57147271180E+03  0.94769369529E+02 0.  0.
        -11    1    3    3    0    0  0.29190848841E+01  0.76534882862E+02  0.70836953394E+02  0.10432633089E+03  0.00000000000E+00 0. -1.
         11    1    3    3    0    0  0.37860340513E+02 -0.48265606757E+01  0.10449731730E+03  0.11124922649E+03  0.00000000000E+00 0.  1.
        -11    1    4    4    0    0 -0.85259192864E+02 -0.74785624234E+00  0.39844953575E+03  0.40746990294E+03  0.00000000000E+00 0.  1.
         11    1    4    4    0    0 -0.27651646295E+02 -0.59219172153E+02  0.15041741064E+03  0.16400280887E+03  0.00000000000E+00 0. -1.
          2    1    1    2  501    0  0.72131413763E+02 -0.11741293790E+02  0.26833302773E+03  0.27810683667E+03  0.00000000000E+00 0. -1.
<scales pt_clust_5="13000.00000" pt_clust_6="13000.00000" pt_clust_7="13000.00000" pt_clust_8="13000.00000" pt_clust_9="13000.00000"></scales>
<clustering>
<clus scale="   94.476">  5  6 -1 -1</clus>
<clus scale="   94.769">  7  8 -1 -1</clus>
<clus scale="   73.081">  7  9 -1 -1</clus>
<clus scale="  125.422">  2  5  1 -1</clus>
<clus scale="  232.314">  1  5  2 -1</clus>
</clustering>
</event>
<event>
 9    1  0.3303741E-006  0.5342713E+03  0.7546771E-02  0.1034699E+00
          1   -1    0    0  502    0 -0.00000000000E+00  0.00000000000E+00  0.87103771524E+03  0.87103771524E+03  0.00000000000E+00 0. -1.
         21   -1    0    0  501  502  0.00000000000E+00 -0.00000000000E+00 -0.16872964578E+03  0.16872964578E+03  0.00000000000E+00 0. -1.
         23    2    1    2    0    0 -0.18738737163E+03  0.64379830155E+02  0.29856548107E+03  0.37010036186E+03  0.92596661842E+02 0.  0.
         23    2    1    2    0    0  0.30515124262E+03  0.92412058426E+02  0.30173275395E+03  0.44862846868E+03  0.92561215882E+02 0.  0.
        -11    1    3    3    0    0 -0.11457194044E+03  0.77816270290E+02  0.23372127473E+03  0.27167579156E+03  0.00000000000E+00 0. -1.
         11    1    3    3    0    0 -0.72815431188E+02 -0.13436440134E+02  0.64844206340E+02  0.98424570298E+02  0.00000000000E+00 0.  1.
        -13    1    4    4    0    0  0.87657822464E+02  0.57869429613E+02  0.14178059424E+03  0.17644971415E+03  0.00000000000E+00 0.  1.
         13    1    4    4    0    0  0.21749342016E+03  0.34542628813E+02  0.15995215972E+03  0.27217875453E+03  0.00000000000E+00 0. -1.
          1    1    1    2  501    0 -0.11776387100E+03 -0.15679188858E+03  0.10200983444E+03  0.22103853048E+03  0.00000000000E+00 0. -1.
<scales pt_clust_5="13000.00000" pt_clust_6="13000.00000" pt_clust_7="13000.00000" pt_clust_8="13000.00000" pt_clust_9="13000.00000"></scales>
<clustering>
<clus scale="   92.561">  7  8 -1 -1</clus>
<clus scale="   92.597">  5  6 -1 -1</clus>
<clus scale="  196.092">  7  9 -1 -1</clus>
<clus scale="  218.707">  1  5  2 -1</clus>
<clus scale="  534.271">  2  5  1 -1</clus>
</clustering>
</event>
<event>
 9    1  0.3303741E-006  0.3908963E+03  0.7546771E-02  0.1084989E+00
         21   -1    0    0  501  502  0.00000000000E+00  0.00000000000E+00  0.71182164415E+02  0.71182164415E+02  0.00000000000E+00 0. -1.
          1   -1    0    0  502    0 -0.00000000000E+00 -0.00000000000E+00 -0.11278164815E+04  0.11278164815E+04  0.00000000000E+00 0. -1.
         23    2    1    2    0    0  0.60174674901E+02  0.83461131179E+02 -0.11167866338E+03  0.17638382190E+03  0.89735036960E+02 0.  0.
         23    2    1    2    0    0  0.11151206174E+03 -0.20209279873E+02 -0.70978181039E+03  0.72464860308E+03  0.92097908138E+02 0.  0.
        -11    1    3    3    0    0  0.78086421922E+02  0.59880866017E+02 -0.10869617657E+03  0.14662218865E+03  0.00000000000E+00 0. -1.
         11    1    3    3    0    0 -0.17911747020E+02  0.23580265163E+02 -0.29824868093E+01  0.29761633255E+02  0.00000000000E+00 0.  1.
        -13    1    4    4    0    0  0.11101163406E+03 -0.41980555008E+02 -0.65556437045E+03  0.66622112973E+03  0.00000000000E+00 0. -1.
         13    1    4    4    0    0  0.50042768416E+00  0.21771275135E+02 -0.54217439941E+02  0.58427473355E+02  0.00000000000E+00 0.  1.
          1    1    1    2  501    0 -0.17168673665E+03 -0.63251851306E+02 -0.23517384332E+03  0.29796622093E+03  0.00000000000E+00 0. -1.
<scales pt_clust_5="13000.00000" pt_clust_6="13000.00000" pt_clust_7="13000.00000" pt_clust_8="13000.00000" pt_clust_9="13000.00000"></scales>
<clustering>
<clus scale="   89.735">  5  6 -1 -1</clus>
<clus scale="   92.098">  7  8 -1 -1</clus>
<clus scale="  136.525">  2  5  1 -1</clus>
<clus scale="  160.608">  7  9 -1 -1</clus>
<clus scale="  390.896">  1  5  2 -1</clus>
</clustering>
</event>
<event>
 9    1  0.3303741E-006  0.2680356E+03  0.7546771E-02  0.1126333E+00
         21   -1    0    0  501  502  0.00000000000E+00  0.00000000000E+00  0.19288602526E+03  0.19288602526E+03  0.00000000000E+00 0.  1.
         -3   -1    0    0    0  501 -0.00000000000E+00 -0.00000000000E+00 -0.58408680015E+03  0.58408680015E+03  0.00000000000E+00 0.  1.
         23    2    1    2    0    0  0.10209337811E+03  0.52558757589E+02 -0.47426940898E+03  0.49636016583E+03  0.90865070743E+02 0.  0.
         23    2    1    2    0    0 -0.51279034156E+02 -0.35317204599E+02 -0.61063662077E+02  0.12681575618E+03  0.92068566316E+02 0.  0.
        -11    1    3    3    0    0  0.76790806907E+02  0.62889196157E+02 -0.44649367246E+03  0.45739313349E+03  0.00000000000E+00 0.  1.
         11    1    3    3    0    0  0.25302571202E+02 -0.10330438568E+02 -0.27775736519E+02  0.38967032343E+02  0.00000000000E+00 0. -1.
        -11    1    4    4    0    0 -0.10119627489E+02 -0.58889273135E+02 -0.50471831970E+02  0.78216105588E+02  0.00000000000E+00 0.  1.
         11    1    4    4    0    0 -0.41159406667E+02  0.23572068536E+02 -0.10591830107E+02  0.48599650588E+02  0.00000000000E+00 0. -1.
         -3    1    1    2    0  502 -0.50814343953E+02 -0.17241552989E+02  0.14413229616E+03  0.15379690341E+03  0.00000000000E+00 0.  1.
<scales pt_clust_5="13000.00000" pt_clust_6="13000.00000" pt_clust_7="13000.00000" pt_clust_8="13000.00000" pt_clust_9="13000.00000"></scales>
<clustering>
<clus scale="   90.865">  5  6 -1 -1</clus>
<clus scale="   92.069">  7  8 -1 -1</clus>
<clus scale="   53.660">  7  9 -1 -1</clus>
<clus scale="  146.431">  2  5  1 -1</clus>
<clus scale="  268.036">  1  5  2 -1</clus>
</clustering>
</event>
<event>
 9    1  0.3303741E-006  0.2265982E+03  0.7546771E-02  0.1155262E+00
         21   -1    0    0  501  502  0.00000000000E+00  0.00000000000E+00  0.84448105403E+02  0.84448105403E+02  0.00000000000E+00 0.  1.
          2   -1    0    0  502    0 -0.00000000000E+00 -0.00000000000E+00 -0.40412343609E+03  0.40412343609E+03  0.00000000000E+00 0. -1.
         23    2    1    2    0    0  0.49010817415E+02 -0.18819166199E+02 -0.36952682135E+02  0.12624729162E+03  0.10870444648E+03 0.  0.
         23    2    1    2    0    0 -0.63956590378E+02  0.91272289574E+02 -0.15939171212E+03  0.21850717475E+03  0.99592124323E+02 0.  0.
        -11    1    4    4    0    0 -0.54089583095E+02  0.64067266744E+02 -0.35110696419E+02  0.90901367814E+02  0.00000000000E+00 0.  1.
         11    1    4    4    0    0 -0.98670072827E+01  0.27205022829E+02 -0.12428101570E+03  0.12760580693E+03  0.00000000000E+00 0. -1.
        -13    1    3    3    0    0  0.73642850440E+02  0.18546509575E+02 -0.22092803676E+02  0.79090672096E+02  0.00000000000E+00 0. -1.
         13    1    3    3    0    0 -0.24632033025E+02 -0.37365675774E+02 -0.14859878459E+02  0.47156619523E+02  0.00000000000E+00 0.  1.
          2    1    1    2  501    0  0.14945772963E+02 -0.72453123375E+02 -0.12333093643E+03  0.14381707513E+03  0.00000000000E+00 0. -1.
<scales pt_clust_5="13000.00000" pt_clust_6="13000.00000" pt_clust_7="13000.00000" pt_clust_8="13000.00000" pt_clust_9="13000.00000"></scales>
<clustering>
<clus scale="   99.592">  5  6 -1 -1</clus>
<clus scale="   73.979">  5  9 -1 -1</clus>
<clus scale="  108.704">  7  8 -1 -1</clus>
<clus scale="  120.718">  2  7  1 -1</clus>
<clus scale="  226.598">  1  5  2 -1</clus>
</clustering>
</event>
<event>
 9    1  0.3303741E-006  0.4648144E+03  0.7546771E-02  0.1060041E+00
         21   -1    0    0  501  502  0.00000000000E+00  0.00000000000E+00  0.30758746448E+03  0.30758746448E+03  0.00000000000E+00 0.  1.
         -1   -1    0    0    0  501 -0.00000000000E+00 -0.00000000000E+00 -0.32598491806E+03  0.32598491806E+03  0.00000000000E+00 0.  1.
         23    2    1    2    0    0  0.13244120207E+03  0.19197355531E+02 -0.48665299899E+02  0.16777349113E+03  0.88715401392E+02 0.  0.
         23    2    1    2    0    0  0.65465260649E+02 -0.19578786496E+02 -0.15668236352E+03  0.19355360783E+03  0.90799817356E+02 0.  0.
        -11    1    4    4    0    0 -0.20586405092E+02 -0.17463806156E+02 -0.29583275923E+02  0.40049404670E+02  0.00000000000E+00 0. -1.
         11    1    4    4    0    0  0.86051665741E+02 -0.21149803394E+01 -0.12709908760E+03  0.15350420316E+03  0.00000000000E+00 0.  1.
        -13    1    3    3    0    0  0.10061347473E+03  0.52944018157E+02 -0.40382225461E+02  0.12065183169E+03  0.00000000000E+00 0.  1.
         13    1    3    3    0    0  0.31827727345E+02 -0.33746662626E+02 -0.82830744379E+01  0.47121659442E+02  0.00000000000E+00 0. -1.
         -1    1    1    2    0  502 -0.19790646272E+03  0.38143096475E+00  0.18695020984E+03  0.27224528359E+03  0.00000000000E+00 0.  1.
<scales pt_clust_5="13000.00000" pt_clust_6="13000.00000" pt_clust_7="13000.00000" pt_clust_8="13000.00000" pt_clust_9="13000.00000"></scales>
<clustering>
<clus scale="   88.715">  7  8 -1 -1</clus>
<clus scale="   90.800">  5  6 -1 -1</clus>
<clus scale="  160.560">  2  7  1 -1</clus>
<clus scale="  172.019">  5  9 -1 -1</clus>
<clus scale="  464.814">  1  5  2 -1</clus>
</clustering>
</event>
<event>
 9    1  0.3303741E-006  0.1646814E+03  0.7546771E-02  0.1195589E+00
          1   -1    0    0  502    0 -0.00000000000E+00  0.00000000000E+00  0.56448395495E+03  0.56448395495E+03  0.00000000000E+00 0. -1.
         21   -1    0    0  501  502  0.00000000000E+00 -0.00000000000E+00 -0.37714160604E+02  0.37714160604E+02  0.00000000000E+00 0.  1.
         23    2    1    2    0    0 -0.68360049293E+01 -0.78009948329E+02  0.25399124718E+03  0.28356338629E+03  0.98814763073E+02 0.  0.
         23    2    1    2    0    0  0.44155648203E+02  0.37518396605E+02  0.21493012490E+03  0.23876758023E+03  0.86357671511E+02 0.  0.
        -11    1    4    4    0    0  0.54799953520E+02  0.54671620257E+02  0.12852618686E+03  0.15003666777E+03  0.00000000000E+00 0.  1.
         11    1    4    4    0    0 -0.10644305317E+02 -0.17153223652E+02  0.86403938043E+02  0.88730912464E+02  0.00000000000E+00 0. -1.
        -11    1    3    3    0    0 -0.51302019879E+02 -0.53982997899E+02  0.13281649417E+03  0.15227042533E+03  0.00000000000E+00 0. -1.
         11    1    3    3    0    0  0.44466014950E+02 -0.24026950430E+02  0.12117475301E+03  0.13129296097E+03  0.00000000000E+00 0.  1.
          1    1    1    2  501    0 -0.37319643274E+02  0.40491551724E+02  0.57848422271E+02  0.79867149031E+02  0.00000000000E+00 0. -1.
<scales pt_clust_5="13000.00000" pt_clust_6="13000.00000" pt_clust_7="13000.00000" pt_clust_8="13000.00000" pt_clust_9="13000.00000"></scales>
<clustering>
<clus scale="   86.358">  5  6 -1 -1</clus>
<clus scale="   55.067">  5  9 -1 -1</clus>
<clus scale="   98.815">  7  8 -1 -1</clus>
<clus scale="  126.082">  1  7  2 -1</clus>
<clus scale="  164.681">  2  5  1 -1</clus>
</clustering>
</event>
<event>
 9    1  0.3303741E-006  0.2586968E+03  0.7546771E-02  0.1135885E+00
         -1   -1    0    0    0  501 -0.00000000000E+00  0.00000000000E+00  0.22570332524E+03  0.22570332524E+03  0.00000000000E+00 0.  1.
         21   -1    0    0  501  502  0.00000000000E+00 -0.00000000000E+00 -0.17137735533E+03  0.17137735533E+03  0.00000000000E+00 0.  1.
         23    2    1    2    0    0  0.98845237773E+01 -0.25992941955E+02  0.50343598943E+02  0.13835325120E+03  0.12583245734E+03 0.  0.
         23    2    1    2    0    0 -0.68130704061E+02 -0.71524711088E+02 -0.32296458136E+02  0.13948623006E+03  0.93036390926E+02 0.  0.
        -11    1    3    3    0    0 -0.41507259374E+02 -0.49373446013E+02  0.28362459160E+01  0.64564959869E+02  0.00000000000E+00 0.  1.
         11    1    3    3    0    0  0.51391783151E+02  0.23380504058E+02  0.47507353027E+02  0.73788291328E+02  0.00000000000E+00 0. -1.
        -13    1    4    4    0    0  0.17296758939E+02 -0.23173854269E+02  0.12602139480E+02  0.31543926688E+02  0.00000000000E+00 0. -1.
         13    1    4    4    0    0 -0.85427463000E+02 -0.48350856819E+02 -0.44898597616E+02  0.10794230337E+03  0.00000000000E+00 0.  1.
         -1    1    1    2    0  502  0.58246180284E+02  0.97517653043E+02  0.36278829102E+02  0.11924119931E+03  0.00000000000E+00 0.  1.
<scales pt_clust_5="13000.00000" pt_clust_6="13000.00000" pt_clust_7="13000.00000" pt_clust_8="13000.00000" pt_clust_9="13000.00000"></scales>
<clustering>
<clus scale="   93.036">  7  8 -1 -1</clus>
<clus scale="  113.588">  7  9 -1 -1</clus>
<clus scale="  125.832">  5  6 -1 -1</clus>
<clus scale="  128.869">  1  5  2 -1</clus>
<clus scale="  258.697">  2  5  1 -1</clus>
</clustering>
</event>
<event>
 9    1  0.3303741E-006  0.2017032E+03  0.7546771E-02  0.1182466E+00
          4   -1    0    0  502    0 -0.00000000000E+00  0.00000000000E+00  0.70468532744E+03  0.70468532744E+03  0.00000000000E+00 0. -1.
         21   -1    0    0  501  502  0.00000000000E+00 -0.00000000000E+00 -0.31388666672E+02  0.31388666672E+02  0.00000000000E+00 0. -1.
         23    2    1    2    0    0 -0.20513538963E-01  0.14820988414E+01  0.15797031720E+03  0.18267952965E+03  0.91733267673E+02 0.  0.
         23    2    1    2    0    0  0.57844247442E+02 -0.51411178086E+02  0.25360542236E+03  0.28075122183E+03  0.92284733921E+02 0.  0.
        -13    1    3    3    0    0  0.21380611436E+02  0.40450739824E+02  0.96707924827E+02  0.10698511869E+03  0.00000000000E+00 0.  1.
         13    1    3    3    0    0 -0.21401124975E+02 -0.38968640983E+02  0.61262392377E+02  0.75694410956E+02  0.00000000000E+00 0. -1.
        -13    1    4    4    0    0  0.11244751441E+02 -0.68435328744E+02  0.12573326483E+03  0.14359210472E+03  0.00000000000E+00 0. -1.
         13    1    4    4    0    0  0.46599496001E+02  0.17024150658E+02  0.12787215753E+03  0.13715911711E+03  0.00000000000E+00 0.  1.
          4    1    1    2  501    0 -0.57823733903E+02  0.49929079244E+02  0.26172092120E+03  0.27264324263E+03  0.00000000000E+00 0. -1.
<scales pt_clust_5="13000.00000" pt_clust_6="13000.00000" pt_clust_7="13000.00000" pt_clust_8="13000.00000" pt_clust_9="13000.00000"></scales>
<clustering>
<clus scale="   91.733">  5  6 -1 -1</clus>
<clus scale="   91.745">  1  5  2 -1</clus>
<clus scale="   92.285">  7  8 -1 -1</clus>
<clus scale="   76.891">  7  9 -1 -1</clus>
<clus scale="  201.703">  2  5  1 -1</clus>
</clustering>
</event>
<event>
 9    1  0.3303741E-006  0.3308191E+03  0.7546771E-02  0.1098853E+00
         21   -1    0    0  501  502  0.00000000000E+00  0.00000000000E+00  0.26564628095E+03  0.26564628095E+03  0.00000000000E+00 0.  1.
          2   -1    0    0  502    0 -0.00000000000E+00 -0.00000000000E+00 -0.22334232281E+03  0.22334232281E+03  0.00000000000E+00 0. -1.
         23    2    1    2    0    0  0.84222951955E+02  0.95559702196E+02  0.11885886726E+02  0.15677403992E+03  0.90618226471E+02 0.  0.
         23    2    1    2    0    0 -0.71597142578E+02  0.17163136665E+02 -0.10374225498E+03  0.15653063560E+03  0.91206690147E+02 0.  0.
        -11    1    3    3    0    0  0.69899274613E+02  0.11102929147E+03 -0.25466319695E+01  0.13122460703E+03  0.00000000000E+00 0.  1.
         11    1    3    3    0    0  0.14323677342E+02 -0.15469589275E+02  0.14432518695E+02  0.25549432886E+02  0.00000000000E+00 0. -1.
        -13    1    4    4    0    0 -0.38552223612E+02 -0.33337573896E+02 -0.72359311508E+02  0.88507275072E+02  0.00000000000E+00 0. -1.
         13    1    4    4    0    0 -0.33044918965E+02  0.50500710561E+02 -0.31382943470E+02  0.68023360527E+02  0.00000000000E+00 0.  1.
          2    1    1    2  501    0 -0.12625809378E+02 -0.11272283886E+03  0.13416032639E+03  0.17568392824E+03  0.00000000000E+00 0. -1.
<scales pt_clust_5="13000.00000" pt_clust_6="13000.00000" pt_clust_7="13000.00000" pt_clust_8="13000.00000" pt_clust_9="13000.00000"></scales>
<clustering>
<clus scale="   90.618">  5  6 -1 -1</clus>
<clus scale="   91.207">  7  8 -1 -1</clus>
<clus scale="  113.428">  7  9 -1 -1</clus>
<clus scale="  156.323">  2  5  1 -1</clus>
<clus scale="  330.819">  1  5  2 -1</clus>
</clustering>
</event>
<event>
 9    1  0.3303741E-006  0.4252745E+03  0.7546771E-02  0.1082875E+00
         21   -1    0    0  501  502  0.00000000000E+00  0.00000000000E+00  0.29573441997E+03  0.29573441997E+03  0.00000000000E+00 0. -1.
         -2   -1    0    0    0  501 -0.00000000000E+00 -0.00000000000E+00 -0.42955518322E+03  0.42955518322E+03  0.00000000000E+00 0.  1.
         23    2    1    2    0    0  0.15935451710E+02  0.59733880249E+02 -0.25876795147E+03  0.28204003145E+03  0.93614376893E+02 0.  0.
         23    2    1    2    0    0 -0.43262863406E+02  0.15564014634E+03  0.12586072659E+03  0.22614684649E+03  0.95947606427E+02 0.  0.
        -11    1    4    4    0    0  0.21419334916E+02  0.36590540159E+02  0.17928489280E+01  0.42436656850E+02  0.00000000000E+00 0.  1.
         11    1    4    4    0    0 -0.64682198323E+02  0.11904960618E+03  0.12406787766E+03  0.18371018964E+03  0.00000000000E+00 0. -1.
        -13    1    3    3    0    0  0.52447997852E+02  0.53553962073E+02 -0.18088043657E+03  0.19579722078E+03  0.00000000000E+00 0. -1.
         13    1    3    3    0    0 -0.36512546142E+02  0.61799181759E+01 -0.77887514899E+02  0.86242810665E+02  0.00000000000E+00 0.  1.
         -2    1    1    2    0  502  0.27327411696E+02 -0.21537402659E+03 -0.91353837197E+00  0.21710272525E+03  0.00000000000E+00 0.  1.
<scales pt_clust_5="13000.00000" pt_clust_6="13000.00000" pt_clust_7="13000.00000" pt_clust_8="13000.00000" pt_clust_9="13000.00000"></scales>
<clustering>
<clus scale="   93.614">  7  8 -1 -1</clus>
<clus scale="   95.948">  5  6 -1 -1</clus>
<clus scale="  112.186">  2  7  1 -1</clus>
<clus scale="  178.603">  5  9 -1 -1</clus>
<clus scale="  425.274">  1  5  2 -1</clus>
</clustering>
</event>
<event>
 9    1  0.3303741E-006  0.2482918E+03  0.7546771E-02  0.1126177E+00
         21   -1    0    0  501  502  0.00000000000E+00  0.00000000000E+00  0.18253275740E+03  0.18253275740E+03  0.00000000000E+00 0. -1.
          4   -1    0    0  502    0 -0.00000000000E+00 -0.00000000000E+00 -0.25704729993E+03  0.25704729993E+03  0.00000000000E+00 0. -1.
         23    2    1    2    0    0  0.13405890845E+03 -0.91330312089E+02 -0.32710643512E+02  0.18779369808E+03  0.88788906959E+02 0.  0.
         23    2    1    2    0    0 -0.53064456464E+02  0.55138625814E+02 -0.91544917622E+02  0.15008036955E+03  0.91035931290E+02 0.  0.
        -13    1    3    3    0    0  0.84793950064E+02 -0.73452831162E+01 -0.30465831442E+02  0.90399856399E+02  0.00000000000E+00 0. -1.
         13    1    3    3    0    0  0.49264958384E+02 -0.83985028973E+02 -0.22448120700E+01  0.97393841681E+02  0.00000000000E+00 0.  1.
        -13    1    4    4    0    0 -0.66155488008E+02  0.61794912561E+01 -0.64655248954E+02  0.92709416583E+02  0.00000000000E+00 0. -1.
         13    1    4    4    0    0  0.13091031544E+02  0.48959134557E+02 -0.26889668668E+02  0.57370952969E+02  0.00000000000E+00 0.  1.
          4    1    1    2  501    0 -0.80994451984E+02  0.36191686275E+02  0.49741018606E+02  0.10170598969E+03  0.00000000000E+00 0. -1.
<scales pt_clust_5="13000.00000" pt_clust_6="13000.00000" pt_clust_7="13000.00000" pt_clust_8="13000.00000" pt_clust_9="13000.00000"></scales>
<clustering>
<clus scale="   88.789">  5  6 -1 -1</clus>
<clus scale="   91.036">  7  8 -1 -1</clus>
<clus scale="   88.713">  7  9 -1 -1</clus>
<clus scale="  184.923">  2  5  1 -1</clus>
<clus scale="  248.292">  1  5  2 -1</clus>
</clustering>
</event>
<event>
 9    1  0.3303741E-006  0.3495483E+03  0.7546771E-02  0.1110610E+00
          3   -1    0    0  502    0 -0.00000000000E+00  0.00000000000E+00  0.85188554099E+02  0.85188554099E+02  0.00000000000E+00 0. -1.
         21   -1    0    0  501  502  0.00000000000E+00 -0.00000000000E+00 -0.61185635383E+03  0.61185635383E+03  0.00000000000E+00 0.  1.
         23    2    1    2    0    0  0.11158153016E+02  0.16610745216E+02 -0.63268815910E+02  0.11659455917E+03  0.95869322130E+02 0.  0.
         23    2    1    2    0    0  0.68441774611E+02  0.14599844620E+02 -0.65832965941E+01  0.11570222182E+03  0.91903386040E+02 0.  0.
        -11    1    4    4    0    0  0.10234634777E+02  0.47134910012E+02  0.30380505343E+01  0.48328844822E+02  0.00000000000E+00 0. -1.
         11    1    4    4    0    0  0.58207139834E+02 -0.32535065392E+02 -0.96213471284E+01  0.67373376999E+02  0.00000000000E+00 0.  1.
        -11    1    3    3    0    0  0.16561083001E+02  0.48812575930E+02 -0.66097696701E+02  0.83820299142E+02  0.00000000000E+00 0.  1.
         11    1    3    3    0    0 -0.54029299855E+01 -0.32201830714E+02  0.28288807910E+01  0.32774260026E+02  0.00000000000E+00 0. -1.
          3    1    1    2  501    0 -0.79599927626E+02 -0.31210589836E+02 -0.45681568722E+03  0.46474812694E+03  0.00000000000E+00 0. -1.
<scales pt_clust_5="13000.00000" pt_clust_6="13000.00000" pt_clust_7="13000.00000" pt_clust_8="13000.00000" pt_clust_9="13000.00000"></scales>
<clustering>
<clus scale="   91.903">  5  6 -1 -1</clus>
<clus scale="   85.500">  5  9 -1 -1</clus>
<clus scale="   95.869">  7  8 -1 -1</clus>
<clus scale="   97.935">  1  7  2 -1</clus>
<clus scale="  349.548">  2  5  1 -1</clus>
</clustering>
</event>
<event>
 9    1  0.3303741E-006  0.1588716E+03  0.7546771E-02  0.1200289E+00
         21   -1    0    0  501  502  0.00000000000E+00  0.00000000000E+00  0.39554321835E+03  0.39554321835E+03  0.00000000000E+00 0. -1.
          1   -1    0    0  502    0 -0.00000000000E+00 -0.00000000000E+00 -0.51567741682E+02  0.51567741682E+02  0.00000000000E+00 0. -1.
         23    2    1    2    0    0  0.24007554360E+02  0.84563941198E+02  0.15469705219E+03  0.19999456327E+03  0.91319354819E+02 0.  0.
         23    2    1    2    0    0 -0.87544722861E+01 -0.40323425986E+02  0.77660056614E+02  0.12608524481E+03  0.90353666755E+02 0.  0.
        -11    1    3    3    0    0 -0.21861295575E+02  0.33443522977E+02  0.12145606317E+02  0.41760043416E+02  0.00000000000E+00 0.  1.
         11    1    3    3    0    0  0.45868849935E+02  0.51120418221E+02  0.14255144587E+03  0.15823451985E+03  0.00000000000E+00 0. -1.
        -13    1    4    4    0    0 -0.36146280762E+02  0.11654304865E+02  0.44926971192E+02  0.58828642474E+02  0.00000000000E+00 0.  1.
         13    1    4    4    0    0  0.27391808475E+02 -0.51977730851E+02  0.32733085422E+02  0.67256602332E+02  0.00000000000E+00 0. -1.
          1    1    1    2  501    0 -0.15253082074E+02 -0.44240515211E+02  0.11161836787E+03  0.12103115196E+03  0.00000000000E+00 0. -1.
<scales pt_clust_5="13000.00000" pt_clust_6="13000.00000" pt_clust_7="13000.00000" pt_clust_8="13000.00000" pt_clust_9="13000.00000"></scales>
<clustering>
<clus scale="   90.354">  7  8 -1 -1</clus>
<clus scale="   46.796">  7  9 -1 -1</clus>
<clus scale="   91.319">  5  6 -1 -1</clus>
<clus scale="  126.754">  2  5  1 -1</clus>
<clus scale="  158.872">  1  5  2 -1</clus>
</clustering>
</event>
<event>
 9    1  0.3303741E-006  0.3060771E+03  0.7546771E-02  0.1095330E+00
          1   -1    0    0  502    0 -0.00000000000E+00  0.00000000000E+00  0.94226353994E+02  0.94226353994E+02  0.00000000000E+00 0. -1.
         21   -1    0    0  501  502  0.00000000000E+00 -0.00000000000E+00 -0.77791168160E+03  0.77791168160E+03  0.00000000000E+00 0.  1.
         23    2    1    2    0    0 -0.31765090332E+02 -0.19570058849E+03 -0.40018558435E+03  0.45493870949E+03  0.86677483683E+02 0.  0.
         23    2    1    2    0    0 -0.50355767925E+02  0.52291459943E+02 -0.41852030839E+02  0.12444750214E+03  0.92008087461E+02 0.  0.
        -11    1    4    4    0    0  0.26985027201E+02  0.18689903256E+02 -0.10121427092E+02  0.34350363363E+02  0.00000000000E+00 0.  1.
         11    1    4    4    0    0 -0.77340795126E+02  0.33601556686E+02 -0.31730603747E+02  0.90097138781E+02  0.00000000000E+00 0. -1.
        -11    1    3    3    0    0  0.22165677655E+02 -0.12830370705E+02 -0.52301134581E+02  0.58235250122E+02  0.00000000000E+00 0. -1.
         11    1    3    3    0    0 -0.53930767988E+02 -0.18287021779E+03 -0.34788444976E+03  0.39670345937E+03  0.00000000000E+00 0.  1.
          1    1    1    2  501    0  0.82120858257E+02  0.14340912855E+03 -0.24164771242E+03  0.29275182395E+03  0.00000000000E+00 0. -1.
<scales pt_clust_5="13000.00000" pt_clust_6="13000.00000" pt_clust_7="13000.00000" pt_clust_8="13000.00000" pt_clust_9="13000.00000"></scales>
<clustering>
<clus scale="   86.677">  7  8 -1 -1</clus>
<clus scale="   92.008">  5  6 -1 -1</clus>
<clus scale="  165.257">  5  9 -1 -1</clus>
<clus scale="  216.381">  1  7  2 -1</clus>
<clus scale="  306.077">  2  5  1 -1</clus>
</clustering>
</event>
<event>
 9    1  0.3303741E-006  0.3814031E+03  0.7546771E-02  0.1099644E+00
         -3   -1    0    0    0  501 -0.00000000000E+00  0.00000000000E+00  0.33216588762E+03  0.33216588762E+03  0.00000000000E+00 0.  1.
         21   -1    0    0  501  502  0.00000000000E+00 -0.00000000000E+00 -0.21879810656E+03  0.21879810656E+03  0.00000000000E+00 0.  1.
         23    2    1    2    0    0 -0.41629430843E+02 -0.56398760988E+01  0.13613897675E+03  0.16888170266E+03  0.90677399538E+02 0.  0.
         23    2    1    2    0    0 -0.14217612082E+03 -0.42898642749E+01  0.60792799713E+02  0.17992883027E+03  0.91903031506E+02 0.  0.
        -11    1    4    4    0    0 -0.28133009934E+02  0.38325218934E+01 -0.24327961588E+02  0.37389894183E+02  0.00000000000E+00 0. -1.
         11    1    4    4    0    0 -0.11404311088E+03 -0.81223861683E+01  0.85120761301E+02  0.14253893609E+03  0.00000000000E+00 0.  1.
        -11    1    3    3    0    0  0.19921164622E+02  0.23982827783E+02  0.50329522988E+02  0.59203798126E+02  0.00000000000E+00 0. -1.
         11    1    3    3    0    0 -0.61550595464E+02 -0.29622703882E+02  0.85809453766E+02  0.10967790453E+03  0.00000000000E+00 0.  1.
         -3    1    1    2    0  502  0.18380555166E+03  0.99297403737E+01 -0.83563995408E+02  0.20215346124E+03  0.00000000000E+00 0.  1.
<scales pt_clust_5="13000.00000" pt_clust_6="13000.00000" pt_clust_7="13000.00000" pt_clust_8="13000.00000" pt_clust_9="13000.00000"></scales>
<clustering>
<clus scale="   90.677">  7  8 -1 -1</clus>
<clus scale="   91.903">  5  6 -1 -1</clus>
<clus scale="   99.936">  1  7  2 -1</clus>
<clus scale="  170.257">  5  9 -1 -1</clus>
<clus scale="  381.403">  2  5  1 -1</clus>
</clustering>
</event>
<event>
 9    1  0.3303741E-006  0.4142880E+03  0.7546771E-02  0.1042633E+00
         21   -1    0    0  501  502  0.00000000000E+00  0.00000000000E+00  0.10290151806E+03  0.10290151806E+03  0.00000000000E+00 0. -1.
          1   -1    0    0  502    0 -0.00000000000E+00 -0.00000000000E+00 -0.16591014285E+04  0.16591014285E+04  0.00000000000E+00 0. -1.
         23    2    1    2    0    0  0.10920272452E+03  0.34405195158E+03 -0.10105350256E+04  0.10768863643E+04  0.90588206783E+02 0.  0.
         23    2    1    2    0    0 -0.56644293935E+02 -0.13651068416E+03 -0.37180770118E+03  0.40932302428E+03  0.86374930529E+02 0.  0.
        -13    1    3    3    0    0  0.86676622562E+02  0.33699145919E+03 -0.93002135537E+03  0.99298328380E+03  0.00000000000E+00 0. -1.
         13    1    3    3    0    0  0.22526101960E+02  0.70604923989E+01 -0.80513670278E+02  0.83903080540E+02  0.00000000000E+00 0.  1.
        -13    1    4    4    0    0 -0.21821192363E+02 -0.13242065687E+03 -0.31726089191E+03  0.34447912612E+03  0.00000000000E+00 0.  1.
         13    1    4    4    0    0 -0.34823101572E+02 -0.40900272929E+01 -0.54546809280E+02  0.64843898163E+02  0.00000000000E+00 0. -1.
          1    1    1    2  501    0 -0.52558430587E+02 -0.20754126742E+03 -0.17385718360E+03  0.27579355793E+03  0.00000000000E+00 0. -1.
<scales pt_clust_5="13000.00000" pt_clust_6="13000.00000" pt_clust_7="13000.00000" pt_clust_8="13000.00000" pt_clust_9="13000.00000"></scales>
<clustering>
<clus scale="   86.375">  7  8 -1 -1</clus>
<clus scale="   90.588">  5  6 -1 -1</clus>
<clus scale="  214.093">  7  9 -1 -1</clus>
<clus scale="  372.160">  2  5  1 -1</clus>
<clus scale="  414.288">  1  5  2 -1</clus>
</clustering>
</event>
<event>
 9    1  0.3303741E-006  0.1631539E+03  0.7546771E-02  0.1197567E+00
         21   -1    0    0  501  502  0.00000000000E+00  0.00000000000E+00  0.45147449465E+02  0.45147449465E+02  0.00000000000E+00 0.  1.
          1   -1    0    0  502    0 -0.00000000000E+00 -0.00000000000E+00 -0.48913520398E+03  0.48913520398E+03  0.00000000000E+00 0. -1.
         23    2    1    2    0    0 -0.41048849138E+02  0.70301610157E+02 -0.26156743254E+03  0.28954532224E+03  0.93763785442E+02 0.  0.
         23    2    1    2    0    0  0.17248517406E+02 -0.88262480632E+02 -0.11519471773E+03  0.17119597872E+03  0.89165370506E+02 0.  0.
        -11    1    4    4    0    0  0.42518561557E+02 -0.89081884017E+02 -0.10448568440E+03  0.14373819388E+03  0.00000000000E+00 0.  1.
         11    1    4    4    0    0 -0.25270044151E+02  0.81940338543E+00 -0.10709033335E+02  0.27457784840E+02  0.00000000000E+00 0. -1.
        -13    1    3    3    0    0 -0.19295210658E+02  0.83420894932E+02 -0.24419101431E+03  0.25876746769E+03  0.00000000000E+00 0. -1.
         13    1    3    3    0    0 -0.21753638480E+02 -0.13119284775E+02 -0.17376418223E+02  0.30777854544E+02  0.00000000000E+00 0.  1.
          1    1    1    2  501    0  0.23800331732E+02  0.17960870475E+02 -0.67225604245E+02  0.73541352482E+02  0.00000000000E+00 0. -1.
<scales pt_clust_5="13000.00000" pt_clust_6="13000.00000" pt_clust_7="13000.00000" pt_clust_8="13000.00000" pt_clust_9="13000.00000"></scales>
<clustering>
<clus scale="   89.165">  5  6 -1 -1</clus>
<clus scale="   29.817">  5  9 -1 -1</clus>
<clus scale="   93.764">  7  8 -1 -1</clus>
<clus scale="  124.173">  2  7  1 -1</clus>
<clus scale="  163.154">  1  5  2 -1</clus>
</clustering>
</event>
<event>
 9    1  0.3303741E-006  0.3228171E+03  0.7546771E-02  0.1082106E+00
         21   -1    0    0  501  502  0.00000000000E+00  0.00000000000E+00  0.31337567055E+02  0.31337567055E+02  0.00000000000E+00 0. -1.
          1   -1    0    0  502    0 -0.00000000000E+00 -0.00000000000E+00 -0.27272970263E+04  0.27272970263E+04  0.00000000000E+00 0. -1.
         23    2    1    2    0    0  0.76035504280E+02 -0.23332029441E+03 -0.12227235022E+04  0.12504452651E+04  0.91328202069E+02 0.  0.
         23    2    1    2    0    0 -0.10926136936E+03  0.77788202259E+02 -0.64055923008E+03  0.66046017255E+03  0.88895787505E+02 0.  0.
        -11    1    4    4    0    0 -0.38789060209E+02 -0.81173357541E+01 -0.83492002441E+02  0.92419677576E+02  0.00000000000E+00 0.  1.
         11    1    4    4    0    0 -0.70472309150E+02  0.85905538013E+02 -0.55706722764E+03  0.56804049497E+03  0.00000000000E+00 0. -1.
        -11    1    3    3    0    0  0.24627669745E+02 -0.97223594360E+01 -0.64617099279E+02  0.69831339020E+02  0.00000000000E+00 0.  1.
         11    1    3    3    0    0  0.51407834535E+02 -0.22359793498E+03 -0.11581064030E+04  0.11806139261E+04  0.00000000000E+00 0. -1.
          1    1    1    2  501    0  0.33225865079E+02  0.15553209215E+03 -0.83267672688E+03  0.84772915562E+03  0.00000000000E+00 0. -1.
<scales pt_clust_5="13000.00000" pt_clust_6="13000.00000" pt_clust_7="13000.00000" pt_clust_8="13000.00000" pt_clust_9="13000.00000"></scales>
<clustering>
<clus scale="   88.896">  5  6 -1 -1</clus>
<clus scale="   91.328">  7  8 -1 -1</clus>
<clus scale="  159.042">  5  9 -1 -1</clus>
<clus scale="  261.841">  2  7  1 -1</clus>
<clus scale="  322.817">  1  5  2 -1</clus>
</clustering>
</event>
<event>
 9    1  0.3303741E-006  0.1572413E+03  0.7546771E-02  0.1207237E+00
         21   -1    0    0  501  502  0.00000000000E+00  0.00000000000E+00  0.71323278422E+02  0.71323278422E+02  0.00000000000E+00 0.  1.
          1   -1    0    0  502    0 -0.00000000000E+00 -0.00000000000E+00 -0.62360694064E+03  0.62360694064E+03  0.00000000000E+00 0. -1.
         23    2    1    2    0    0 -0.50083668073E+02  0.38420334915E+02 -0.52301972473E+03  0.53498895726E+03  0.93161451183E+02 0.  0.
         23    2    1    2    0    0  0.35397618370E+02  0.14645735767E+02 -0.34981175097E+02  0.10458446710E+03  0.90811558657E+02 0.  0.
        -11    1    4    4    0    0  0.24036855014E+02 -0.30558216061E+02  0.96431175523E+01  0.40057017911E+02  0.00000000000E+00 0.  1.
         11    1    4    4    0    0  0.11360763355E+02  0.45203951828E+02 -0.44624292650E+02  0.64527449193E+02  0.00000000000E+00 0. -1.
        -13    1    3    3    0    0 -0.48869811776E+02 -0.19265344018E+02 -0.30353868481E+03  0.30805055617E+03  0.00000000000E+00 0.  1.
         13    1    3    3    0    0 -0.12138562977E+01  0.57685678933E+02 -0.21948103992E+03  0.22693840108E+03  0.00000000000E+00 0. -1.
          1    1    1    2  501    0  0.14686049704E+02 -0.53066070682E+02  0.57172376113E+01  0.55356794699E+02  0.00000000000E+00 0. -1.
<scales pt_clust_5="13000.00000" pt_clust_6="13000.00000" pt_clust_7="13000.00000" pt_clust_8="13000.00000" pt_clust_9="13000.00000"></scales>
<clustering>
<clus scale="   90.812">  5  6 -1 -1</clus>
<clus scale="   55.061">  5  9 -1 -1</clus>
<clus scale="   93.161">  7  8 -1 -1</clus>
<clus scale="  112.532">  2  7  1 -1</clus>
<clus scale="  157.241">  1  5  2 -1</clus>
</clustering>
</event>
<event>
 9    1  0.3303741E-006  0.5978107E+03  0.7546771E-02  0.1051703E+00
         21   -1    0    0  501  502  0.00000000000E+00  0.00000000000E+00  0.28484870599E+03  0.28484870599E+03  0.00000000000E+00 0. -1.
          2   -1    0    0  502    0 -0.00000000000E+00 -0.00000000000E+00 -0.55873141689E+03  0.55873141689E+03  0.00000000000E+00 0. -1.
         23    2    1    2    0    0 -0.14016117153E+02 -0.27765126813E+02 -0.22422684986E+03  0.24371071054E+03  0.90276666020E+02 0.  0.
         23    2    1    2    0    0  0.17705821965E+03 -0.22011051463E+02 -0.26055850740E+03  0.32868622453E+03  0.91158098298E+02 0.  0.
        -11    1    4    4    0    0  0.11800752808E+03 -0.13924362638E+02 -0.93153456277E+02  0.15098751927E+03  0.00000000000E+00 0. -1.
         11    1    4    4    0    0  0.59050691574E+02 -0.80866888248E+01 -0.16740505112E+03  0.17769870526E+03  0.00000000000E+00 0.  1.
        -13    1    3    3    0    0 -0.48560907569E+02 -0.12907758317E+02 -0.17309057012E+03  0.18023628223E+03  0.00000000000E+00 0. -1.
         13    1    3    3    0    0  0.34544790416E+02 -0.14857368497E+02 -0.51136279741E+02  0.63474428310E+02  0.00000000000E+00 0.  1.
          2    1    1    2  501    0 -0.16304210250E+03  0.49776178277E+02  0.21090264636E+03  0.27118318781E+03  0.00000000000E+00 0. -1.
<scales pt_clust_5="13000.00000" pt_clust_6="13000.00000" pt_clust_7="13000.00000" pt_clust_8="13000.00000" pt_clust_9="13000.00000"></scales>
<clustering>
<clus scale="   90.277">  7  8 -1 -1</clus>
<clus scale="   91.158">  5  6 -1 -1</clus>
<clus scale="   95.484">  2  7  1 -1</clus>
<clus scale="  170.987">  5  9 -1 -1</clus>
<clus scale="  597.811">  1  5  2 -1</clus>
</clustering>
</event>
<event>
 9    1  0.3303741E-006  0.3658880E+03  0.7546771E-02  0.1076226E+00
          1   -1    0    0  502    0 -0.00000000000E+00  0.00000000000E+00  0.65327704059E+03  0.65327704059E+03  0.00000000000E+00 0. -1.
         21   -1    0    0  501  502  0.00000000000E+00 -0.00000000000E+00 -0.15500596184E+03  0.15500596184E+03  0.00000000000E+00 0.  1.
         23    2    1    2    0    0 -0.15442407930E+03  0.11110490672E+03  0.35998057648E+03  0.41713308704E+03  0.90680208933E+02 0.  0.
         23    2    1    2    0    0  0.16139896027E+03 -0.59797708930E+02  0.22025720212E+03  0.29419829141E+03  0.91727908614E+02 0.  0.
        -11    1    3    3    0    0  0.15487084200E+01  0.34610494204E+02  0.39066804135E+02  0.52215897887E+02  0.00000000000E+00 0.  1.
         11    1    3    3    0    0 -0.15597278772E+03  0.76494412515E+02  0.32091377235E+03  0.36491718915E+03  0.00000000000E+00 0. -1.
        -11    1    4    4    0    0  0.74308494346E+02 -0.76179216660E+02  0.12031329560E+03  0.16062476298E+03  0.00000000000E+00 0. -1.
         11    1    4    4    0    0  0.87090465921E+02  0.16381507730E+02  0.99943906515E+02  0.13357352844E+03  0.00000000000E+00 0.  1.
          1    1    1    2  501    0 -0.69748809669E+01 -0.51307197789E+02 -0.81966699848E+02  0.96951623986E+02  0.00000000000E+00 0. -1.
<scales pt_clust_5="13000.00000" pt_clust_6="13000.00000" pt_clust_7="13000.00000" pt_clust_8="13000.00000" pt_clust_9="13000.00000"></scales>
<clustering>
<clus scale="   90.680">  5  6 -1 -1</clus>
<clus scale="   91.728">  7  8 -1 -1</clus>
<clus scale="   51.779">  7  9 -1 -1</clus>
<clus scale="  210.746">  1  5  2 -1</clus>
<clus scale="  365.888">  2  5  1 -1</clus>
</clustering>
</event>
<event>
 9    1  0.3303741E-006  0.3588115E+03  0.7546771E-02  0.1081185E+00
          4   -1    0    0  502    0 -0.00000000000E+00  0.00000000000E+00  0.48961879482E+03  0.48961879482E+03  0.00000000000E+00 0. -1.
         21   -1    0    0  501  502  0.00000000000E+00 -0.00000000000E+00 -0.19966582171E+03  0.19966582171E+03  0.00000000000E+00 0. -1.
         23    2    1    2    0    0 -0.30809333733E+02 -0.16983374540E+03  0.26543838115E+03  0.32963667761E+03  0.91706536903E+02 0.  0.
         23    2    1    2    0    0 -0.76396312585E+02 -0.69503918213E+01  0.84408586760E+02  0.14439698680E+03  0.88549284325E+02 0.  0.
        -11    1    4    4    0    0  0.36803846089E+01 -0.31284999415E+02  0.35501807808E+02  0.47462351153E+02  0.00000000000E+00 0.  1.
         11    1    4    4    0    0 -0.80076697194E+02  0.24334607594E+02  0.48906778951E+02  0.96934635645E+02  0.00000000000E+00 0. -1.
        -11    1    3    3    0    0 -0.57252799506E+02 -0.14075262322E+03  0.17979913263E+03  0.23540796947E+03  0.00000000000E+00 0. -1.
         11    1    3    3    0    0  0.26443465773E+02 -0.29081122180E+02  0.85639248523E+02  0.94228708135E+02  0.00000000000E+00 0.  1.
          4    1    1    2  501    0  0.10720564632E+03  0.17678413723E+03 -0.59893994811E+02  0.21525095213E+03  0.00000000000E+00 0. -1.
<scales pt_clust_5="13000.00000" pt_clust_6="13000.00000" pt_clust_7="13000.00000" pt_clust_8="13000.00000" pt_clust_9="13000.00000"></scales>
<clustering>
<clus scale="   88.549">  5  6 -1 -1</clus>
<clus scale="   91.707">  7  8 -1 -1</clus>
<clus scale="  195.455">  1  7  2 -1</clus>
<clus scale="  143.746">  5  9 -1 -1</clus>
<clus scale="  358.811">  2  5  1 -1</clus>
</clustering>
</event>
<event>
 9    1  0.3303741E-006  0.2113457E+03  0.7546771E-02  0.1170733E+00
          1   -1    0    0  502    0 -0.00000000000E+00  0.00000000000E+00  0.57385743075E+02  0.57385743075E+02  0.00000000000E+00 0. -1.
         21   -1    0    0  501  502  0.00000000000E+00 -0.00000000000E+00 -0.44923930218E+03  0.44923930218E+03  0.00000000000E+00 0.  1.
         23    2    1    2    0    0 -0.17770299510E+02 -0.49007896942E+02 -0.86459253070E+02  0.13523214380E+03  0.89972066591E+02 0.  0.
         23    2    1    2    0    0  0.50331619992E+02  0.38702674365E+02 -0.86795696767E+02  0.15014238919E+03  0.10477630973E+03 0.  0.
        -13    1    3    3    0    0 -0.41736834464E+02 -0.54604928964E+02 -0.32709196524E+02  0.76115393683E+02  0.00000000000E+00 0. -1.
         13    1    3    3    0    0  0.23966534954E+02  0.55970320221E+01 -0.53750056546E+02  0.59116750112E+02  0.00000000000E+00 0.  1.
        -13    1    4    4    0    0  0.29280982139E+02 -0.30390050674E+02 -0.74647994914E+01  0.42856205227E+02  0.00000000000E+00 0. -1.
         13    1    4    4    0    0  0.21050637853E+02  0.69092725040E+02 -0.79330897276E+02  0.10728618397E+03  0.00000000000E+00 0.  1.
          1    1    1    2  501    0 -0.32561320483E+02  0.10305222577E+02 -0.21859860927E+03  0.22125051226E+03  0.00000000000E+00 0. -1.
<scales pt_clust_5="13000.00000" pt_clust_6="13000.00000" pt_clust_7="13000.00000" pt_clust_8="13000.00000" pt_clust_9="13000.00000"></scales>
<clustering>
<clus scale="   89.972">  5  6 -1 -1</clus>
<clus scale="  103.983">  1  5  2 -1</clus>
<clus scale="  104.776">  7  8 -1 -1</clus>
<clus scale="   34.304">  7  9 -1 -1</clus>
<clus scale="  211.346">  2  5  1 -1</clus>
</clustering>
</event>
<event>
 9    1  0.3303741E-006  0.1797230E+03  0.7546771E-02  0.1186370E+00
         21   -1    0    0  501  502  0.00000000000E+00  0.00000000000E+00  0.10553195984E+03  0.10553195984E+03  0.00000000000E+00 0.  1.
          1   -1    0    0  502    0 -0.00000000000E+00 -0.00000000000E+00 -0.29604248392E+03  0.29604248392E+03  0.00000000000E+00 0. -1.
         23    2    1    2    0    0 -0.81545360962E+01  0.77226104422E+02  0.24468422844E+02  0.12136683602E+03  0.90004652689E+02 0.  0.
         23    2    1    2    0    0  0.14554594864E+02  0.28434702181E+00 -0.16102707871E+03  0.18555225966E+03  0.91038474845E+02 0.  0.
        -11    1    4    4    0    0 -0.31979659383E+02 -0.23654739187E+02 -0.65575209830E+02  0.76696502166E+02  0.00000000000E+00 0.  1.
         11    1    4    4    0    0  0.46534254247E+02  0.23939086208E+02 -0.95451868882E+02  0.10885575750E+03  0.00000000000E+00 0. -1.
        -13    1    3    3    0    0 -0.24089835363E+02  0.81454921905E+01  0.41300285100E+02  0.48501368642E+02  0.00000000000E+00 0.  1.
         13    1    3    3    0    0  0.15935299267E+02  0.69080612231E+02 -0.16831862256E+02  0.72865467376E+02  0.00000000000E+00 0. -1.
          1    1    1    2  501    0 -0.64000587676E+01 -0.77510451444E+02 -0.53951868219E+02  0.94655348077E+02  0.00000000000E+00 0. -1.
<scales pt_clust_5="13000.00000" pt_clust_6="13000.00000" pt_clust_7="13000.00000" pt_clust_8="13000.00000" pt_clust_9="13000.00000"></scales>
<clustering>
<clus scale="   90.005">  7  8 -1 -1</clus>
<clus scale="   91.038">  5  6 -1 -1</clus>
<clus scale="   77.774">  5  9 -1 -1</clus>
<clus scale="  118.875">  2  7  1 -1</clus>
<clus scale="  179.723">  1  5  2 -1</clus>
</clustering>
</event>
<event>
 9    1  0.3303741E-006  0.6196258E+03  0.7546771E-02  0.1024292E+00
         -1   -1    0    0    0  501 -0.00000000000E+00  0.00000000000E+00  0.25519367202E+03  0.25519367202E+03  0.00000000000E+00 0.  1.
         21   -1    0    0  501  502  0.00000000000E+00 -0.00000000000E+00 -0.66210665499E+03  0.66210665499E+03  0.00000000000E+00 0.  1.
         23    2    1    2    0    0  0.13393987429E+03  0.10291032386E+03 -0.33661451946E+02  0.19393818183E+03  0.89154362438E+02 0.  0.
         23    2    1    2    0    0  0.78557939352E+02 -0.13926062503E+03  0.95528460071E+02  0.20738603600E+03  0.91205316326E+02 0.  0.
        -11    1    3    3    0    0  0.66281248346E+02  0.96400554300E+02 -0.44387481920E+02  0.12512601369E+03  0.00000000000E+00 0. -1.
         11    1    3    3    0    0  0.67658625945E+02  0.65097695613E+01  0.10726029974E+02  0.68812168136E+02  0.00000000000E+00 0.  1.
        -13    1    4    4    0    0  0.26199761834E+02 -0.61396708261E+02  0.91770308135E+02  0.11348027476E+03  0.00000000000E+00 0. -1.
         13    1    4    4    0    0  0.52358177518E+02 -0.77863916766E+02  0.37581519357E+01  0.93905761235E+02  0.00000000000E+00 0.  1.
         -1    1    1    2    0  502 -0.21249781364E+03  0.36350301165E+02 -0.46877999109E+03  0.51597610918E+03  0.00000000000E+00 0.  1.
<scales pt_clust_5="13000.00000" pt_clust_6="13000.00000" pt_clust_7="13000.00000" pt_clust_8="13000.00000" pt_clust_9="13000.00000"></scales>
<clustering>
<clus scale="   89.154">  5  6 -1 -1</clus>
<clus scale="   91.205">  7  8 -1 -1</clus>
<clus scale="  190.995">  1  5  2 -1</clus>
<clus scale="  200.824">  7  9 -1 -1</clus>
<clus scale="  619.626">  2  5  1 -1</clus>
</clustering>
</event>
<event>
 9    1  0.3303741E-006  0.4937849E+03  0.7546771E-02  0.1057844E+00
         21   -1    0    0  501  502  0.00000000000E+00  0.00000000000E+00  0.16323369651E+03  0.16323369651E+03  0.00000000000E+00 0. -1.
          1   -1    0    0  502    0 -0.00000000000E+00 -0.00000000000E+00 -0.62012875039E+03  0.62012875039E+03  0.00000000000E+00 0. -1.
         23    2    1    2    0    0  0.71587525151E+02  0.59261445701E+02 -0.96501653492E+02  0.17204672673E+03  0.10793893805E+03 0.  0.
         23    2    1    2    0    0 -0.89242802101E+02 -0.17262079790E+03 -0.42754602235E+03  0.47838142749E+03  0.91054771163E+02 0.  0.
        -11    1    4    4    0    0 -0.10356419844E+03 -0.11535326976E+03 -0.29389123619E+03  0.33227094178E+03  0.00000000000E+00 0. -1.
         11    1    4    4    0    0  0.14321396340E+02 -0.57267528136E+02 -0.13365478616E+03  0.14611048572E+03  0.00000000000E+00 0.  1.
        -13    1    3    3    0    0  0.90653870168E+02  0.33804130098E+02 -0.10107050257E+03  0.13991458064E+03  0.00000000000E+00 0.  1.
         13    1    3    3    0    0 -0.19066345017E+02  0.25457315603E+02  0.45688490736E+01  0.32132146083E+02  0.00000000000E+00 0. -1.
          1    1    1    2  501    0  0.17655276951E+02  0.11335935220E+03  0.67152621961E+02  0.13293429268E+03  0.00000000000E+00 0. -1.
<scales pt_clust_5="13000.00000" pt_clust_6="13000.00000" pt_clust_7="13000.00000" pt_clust_8="13000.00000" pt_clust_9="13000.00000"></scales>
<clustering>
<clus scale="   91.055">  5  6 -1 -1</clus>
<clus scale="  107.939">  7  8 -1 -1</clus>
<clus scale="  114.726">  5  9 -1 -1</clus>
<clus scale="  142.434">  2  7  1 -1</clus>
<clus scale="  493.785">  1  5  2 -1</clus>
</clustering>
</event>
<event>
 9    1  0.3303741E-006  0.3916178E+03  0.7546771E-02  0.1082425E+00
         21   -1    0    0  501  502  0.00000000000E+00  0.00000000000E+00  0.78860653336E+03  0.78860653336E+03  0.00000000000E+00 0. -1.
          1   -1    0    0  502    0 -0.00000000000E+00 -0.00000000000E+00 -0.93161479456E+02  0.93161479456E+02  0.00000000000E+00 0. -1.
         23    2    1    2    0    0 -0.22165896348E+02 -0.11201323250E+03  0.24486753369E+03  0.28478846179E+03  0.90033703130E+02 0.  0.
         23    2    1    2    0    0  0.37239278645E+02 -0.99878662419E+02  0.60662724594E+02  0.15295372989E+03  0.91391281054E+02 0.  0.
        -11    1    3    3    0    0 -0.45846993638E+02 -0.59317211647E+02  0.19337436822E+03  0.20739846843E+03  0.00000000000E+00 0.  1.
         11    1    3    3    0    0  0.23681097290E+02 -0.52696020851E+02  0.51493165472E+02  0.77389993363E+02  0.00000000000E+00 0. -1.
        -13    1    4    4    0    0  0.20646092496E+02 -0.62542271765E+02 -0.14467696025E+02  0.67432270622E+02  0.00000000000E+00 0. -1.
         13    1    4    4    0    0  0.16593186149E+02 -0.37336390654E+02  0.75130420619E+02  0.85521459272E+02  0.00000000000E+00 0.  1.
          1    1    1    2  501    0 -0.15073382297E+02  0.21189189492E+03  0.38991479562E+03  0.44402582113E+03  0.00000000000E+00 0. -1.
<scales pt_clust_5="13000.00000" pt_clust_6="13000.00000" pt_clust_7="13000.00000" pt_clust_8="13000.00000" pt_clust_9="13000.00000"></scales>
<clustering>
<clus scale="   90.034">  5  6 -1 -1</clus>
<clus scale="   91.391">  7  8 -1 -1</clus>
<clus scale="  145.411">  2  5  1 -1</clus>
<clus scale="  172.071">  7  9 -1 -1</clus>
<clus scale="  391.618">  1  5  2 -1</clus>
</clustering>
</event>
<event>
 9    1  0.3303741E-006  0.2869060E+03  0.7546771E-02  0.1098695E+00
          1   -1    0    0  502    0 -0.00000000000E+00  0.00000000000E+00  0.44237061083E+03  0.44237061083E+03  0.00000000000E+00 0. -1.
         21   -1    0    0  501  502  0.00000000000E+00 -0.00000000000E+00 -0.16994367876E+03  0.16994367876E+03  0.00000000000E+00 0. -1.
         23    2    1    2    0    0 -0.38986145238E+01  0.22278303394E+03  0.20844353393E+03  0.31836036261E+03  0.90868774796E+02 0.  0.
         23    2    1    2    0    0 -0.61862782897E+02 -0.12582806167E+03  0.18001056081E+02  0.16810002827E+03  0.90960851331E+02 0.  0.
        -11    1    3    3    0    0 -0.32235997678E+02  0.69438805590E+02  0.32256147510E+02  0.83074462503E+02  0.00000000000E+00 0. -1.
         11    1    3    3    0    0  0.28337383154E+02  0.15334422835E+03  0.17618738642E+03  0.23528590010E+03  0.00000000000E+00 0.  1.
        -11    1    4    4    0    0  0.19823887100E+02 -0.68926633388E+01  0.10876010468E+02  0.23638589454E+02  0.00000000000E+00 0.  1.
         11    1    4    4    0    0 -0.81686669997E+02 -0.11893539833E+03  0.71250456131E+01  0.14446143882E+03  0.00000000000E+00 0. -1.
          1    1    1    2  501    0  0.65761397421E+02 -0.96954972273E+02  0.45982342060E+02  0.12585389871E+03  0.00000000000E+00 0. -1.
<scales pt_clust_5="13000.00000" pt_clust_6="13000.00000" pt_clust_7="13000.00000" pt_clust_8="13000.00000" pt_clust_9="13000.00000"></scales>
<clustering>
<clus scale="   90.869">  5  6 -1 -1</clus>
<clus scale="   90.961">  7  8 -1 -1</clus>
<clus scale="  117.153">  7  9 -1 -1</clus>
<clus scale="  240.634">  1  5  2 -1</clus>
<clus scale="  286.906">  2  5  1 -1</clus>
</clustering>
</event>
<event>
 9    1  0.3303741E-006  0.1953069E+03  0.7546771E-02  0.1166233E+00
         -2   -1    0    0    0  501 -0.00000000000E+00  0.00000000000E+00  0.21152845606E+03  0.21152845606E+03  0.00000000000E+00 0. -1.
         21   -1    0    0  501  502  0.00000000000E+00 -0.00000000000E+00 -0.18399516146E+03  0.18399516146E+03  0.00000000000E+00 0. -1.
         23    2    1    2    0    0  0.47205103448E+02  0.10282847293E+03  0.11065405249E+03  0.18326471944E+03  0.92410072087E+02 0.  0.
         23    2    1    2    0    0  0.70044269454E+01 -0.99710726891E+02 -0.83859547816E+02  0.15795476070E+03  0.89028038358E+02 0.  0.
        -13    1    4    4    0    0  0.31212300682E+02 -0.84162271875E+02 -0.91508122179E+02  0.12818436779E+03  0.00000000000E+00 0. -1.
         13    1    4    4    0    0 -0.24207873736E+02 -0.15548455016E+02  0.76485743630E+01  0.29770392910E+02  0.00000000000E+00 0.  1.
        -13    1    3    3    0    0  0.11084949366E+02  0.50201156146E+02 -0.44960512689E+01  0.51606653233E+02  0.00000000000E+00 0.  1.
         13    1    3    3    0    0  0.36120154082E+02  0.52627316788E+02  0.11515010376E+03  0.13165806621E+03  0.00000000000E+00 0. -1.
         -2    1    1    2    0  502 -0.54209530394E+02 -0.31177460433E+01  0.73878993637E+00  0.54304137379E+02  0.00000000000E+00 0. -1.
<scales pt_clust_5="13000.00000" pt_clust_6="13000.00000" pt_clust_7="13000.00000" pt_clust_8="13000.00000" pt_clust_9="13000.00000"></scales>
<clustering>
<clus scale="   89.028">  5  6 -1 -1</clus>
<clus scale="   54.299">  5  9 -1 -1</clus>
<clus scale="   92.410">  7  8 -1 -1</clus>
<clus scale="  146.088">  1  7  2 -1</clus>
<clus scale="  195.307">  2  5  1 -1</clus>
</clustering>
</event>
<event>
 9    1  0.3303741E-006  0.1132891E+03  0.7546771E-02  0.1263822E+00
          1   -1    0    0  502    0 -0.00000000000E+00  0.00000000000E+00  0.73886777029E+02  0.73886777029E+02  0.00000000000E+00 0. -1.
         21   -1    0    0  501  502  0.00000000000E+00 -0.00000000000E+00 -0.16150621319E+03  0.16150621319E+03  0.00000000000E+00 0.  1.
         23    2    1    2    0    0  0.93041974540E+01 -0.24805784828E+02 -0.39648671339E+01  0.94565035258E+02  0.90691403511E+02 0.  0.
         23    2    1    2    0    0  0.66013152299E+01  0.11147201210E+02 -0.19815202956E+02  0.73634153904E+02  0.69724521478E+02 0.  0.
        -11    1    4    4    0    0  0.30957863891E+02 -0.15546932728E+02 -0.73928010987E+01  0.35422449973E+02  0.00000000000E+00 0. -1.
         11    1    4    4    0    0 -0.24356548662E+02  0.26694133939E+02 -0.12422401858E+02  0.38211703932E+02  0.00000000000E+00 0.  1.
        -11    1    3    3    0    0 -0.76415767227E+01  0.32401558144E+02  0.66919498800E+01  0.33956396425E+02  0.00000000000E+00 0.  1.
         11    1    3    3    0    0  0.16945774177E+02 -0.57207342972E+02 -0.10656817014E+02  0.60608638833E+02  0.00000000000E+00 0. -1.
          1    1    1    2  501    0 -0.15905512684E+02  0.13658583617E+02 -0.63839366066E+02  0.67193801053E+02  0.00000000000E+00 0. -1.
<scales pt_clust_5="13000.00000" pt_clust_6="13000.00000" pt_clust_7="13000.00000" pt_clust_8="13000.00000" pt_clust_9="13000.00000"></scales>
<clustering>
<clus scale="   69.725">  5  6 -1 -1</clus>
<clus scale="   20.965">  5  9 -1 -1</clus>
<clus scale="   90.691">  7  8 -1 -1</clus>
<clus scale="   94.482">  1  7  2 -1</clus>
<clus scale="  113.289">  2  5  1 -1</clus>
</clustering>
</event>
<event>
 9    1  0.3303741E-006  0.2384752E+03  0.7546771E-02  0.1157266E+00
         -1   -1    0    0    0  501 -0.00000000000E+00  0.00000000000E+00  0.11905950207E+03  0.11905950207E+03  0.00000000000E+00 0.  1.
         21   -1    0    0  501  502  0.00000000000E+00 -0.00000000000E+00 -0.59261278053E+03  0.59261278053E+03  0.00000000000E+00 0.  1.
         23    2    1    2    0    0 -0.36543543023E+02 -0.20390948305E+00  0.67991427128E+02  0.11994508322E+03  0.91806953490E+02 0.  0.
         23    2    1    2    0    0 -0.24717922603E+02 -0.48543710982E+02 -0.14096153582E+03  0.18356525410E+03  0.10420451217E+03 0.  0.
        -13    1    4    4    0    0 -0.36513755104E+02  0.19630261398E+01 -0.12356119995E+03  0.12885836379E+03  0.00000000000E+00 0. -1.
         13    1    4    4    0    0  0.11795832501E+02 -0.50506737122E+02 -0.17400335863E+02  0.54706890309E+02  0.00000000000E+00 0.  1.
        -13    1    3    3    0    0 -0.34016928188E+01 -0.41368872309E+02  0.12581036235E+02  0.43373235790E+02  0.00000000000E+00 0.  1.
         13    1    3    3    0    0 -0.33141850204E+02  0.41164962826E+02  0.55410390893E+02  0.76571847426E+02  0.00000000000E+00 0. -1.
         -1    1    1    2    0  502  0.61261465626E+02  0.48747620465E+02 -0.40058316977E+03  0.40816194528E+03  0.00000000000E+00 0.  1.
<scales pt_clust_5="13000.00000" pt_clust_6="13000.00000" pt_clust_7="13000.00000" pt_clust_8="13000.00000" pt_clust_9="13000.00000"></scales>
<clustering>
<clus scale="   91.807">  7  8 -1 -1</clus>
<clus scale="   98.813">  1  7  2 -1</clus>
<clus scale="  104.205">  5  6 -1 -1</clus>
<clus scale="   74.031">  5  9 -1 -1</clus>
<clus scale="  238.475">  2  5  1 -1</clus>
</clustering>
</event>
<event>
 9    1  0.3303741E-006  0.1582036E+03  0.7546771E-02  0.1202182E+00
         21   -1    0    0  501  502  0.00000000000E+00  0.00000000000E+00  0.96801348324E+02  0.96801348324E+02  0.00000000000E+00 0. -1.
          2   -1    0    0  502    0 -0.00000000000E+00 -0.00000000000E+00 -0.24257086339E+03  0.24257086339E+03  0.00000000000E+00 0. -1.
         23    2    1    2    0    0 -0.26023990187E+02 -0.78512117663E+02 -0.13200952083E+03  0.18057131900E+03  0.91313125954E+02 0.  0.
         23    2    1    2    0    0 -0.55750568479E+01  0.29457765432E+02 -0.51263543132E+00  0.98965102734E+02  0.94313241706E+02 0.  0.
        -11    1    3    3    0    0 -0.60353298221E+02 -0.45788281693E+02 -0.82800505913E+02  0.11222749719E+03  0.00000000000E+00 0.  1.
         11    1    3    3    0    0  0.34329308033E+02 -0.32723835970E+02 -0.49209014920E+02  0.68343821813E+02  0.00000000000E+00 0. -1.
        -13    1    4    4    0    0  0.36424564177E+02  0.29543465573E+02 -0.21982753645E+02  0.51795817316E+02  0.00000000000E+00 0. -1.
         13    1    4    4    0    0 -0.41999621025E+02 -0.85700141789E-01  0.21470118213E+02  0.47169285418E+02  0.00000000000E+00 0.  1.
          2    1    1    2  501    0  0.31599047035E+02  0.49054352232E+02 -0.13247358798E+02  0.59835789972E+02  0.00000000000E+00 0. -1.
<scales pt_clust_5="13000.00000" pt_clust_6="13000.00000" pt_clust_7="13000.00000" pt_clust_8="13000.00000" pt_clust_9="13000.00000"></scales>
<clustering>
<clus scale="   91.313">  5  6 -1 -1</clus>
<clus scale="   94.313">  7  8 -1 -1</clus>
<clus scale="   58.351">  7  9 -1 -1</clus>
<clus scale="  123.205">  2  5  1 -1</clus>
<clus scale="  158.204">  1  5  2 -1</clus>
</clustering>
</event>
<event>
 9    1  0.3303741E-006  0.2584678E+03  0.7546771E-02  0.1131466E+00
         21   -1    0    0  501  502  0.00000000000E+00  0.00000000000E+00  0.64156223206E+02  0.64156223206E+02  0.00000000000E+00 0. -1.
          2   -1    0    0  502    0 -0.00000000000E+00 -0.00000000000E+00 -0.63447609454E+03  0.63447609454E+03  0.00000000000E+00 0. -1.
         23    2    1    2    0    0 -0.54945620240E+02 -0.96756874643E+02 -0.22940408804E+03  0.27081324940E+03  0.91283440266E+02 0.  0.
         23    2    1    2    0    0 -0.34970593335E+02  0.11614132112E+02 -0.26398182447E+03  0.28203482335E+03  0.92192231064E+02 0.  0.
        -11    1    4    4    0    0  0.14787100356E+02 -0.27166179150E+02 -0.13439470801E+03  0.13790793004E+03  0.00000000000E+00 0. -1.
         11    1    4    4    0    0 -0.49757693690E+02  0.38780311262E+02 -0.12958711645E+03  0.14412689330E+03  0.00000000000E+00 0.  1.
        -13    1    3    3    0    0  0.24495833602E+02 -0.23731737232E+02 -0.37789348457E+02  0.50904578112E+02  0.00000000000E+00 0.  1.
         13    1    3    3    0    0 -0.79441453842E+02 -0.73025137411E+02 -0.19161473958E+03  0.21990867129E+03  0.00000000000E+00 0. -1.
          2    1    1    2  501    0  0.89916213575E+02  0.85142742532E+02 -0.76933958831E+02  0.14578424500E+03  0.00000000000E+00 0. -1.
<scales pt_clust_5="13000.00000" pt_clust_6="13000.00000" pt_clust_7="13000.00000" pt_clust_8="13000.00000" pt_clust_9="13000.00000"></scales>
<clustering>
<clus scale="   91.283">  7  8 -1 -1</clus>
<clus scale="   92.192">  5  6 -1 -1</clus>
<clus scale="  123.831">  5  9 -1 -1</clus>
<clus scale="  143.922">  2  7  1 -1</clus>
<clus scale="  258.468">  1  5  2 -1</clus>
</clustering>
</event>
<event>
 9    1  0.3303741E-006  0.4128109E+03  0.7546771E-02  0.1062745E+00
         21   -1    0    0  501  502  0.00000000000E+00  0.00000000000E+00  0.16156895006E+03  0.16156895006E+03  0.00000000000E+00 0. -1.
          1   -1    0    0  502    0 -0.00000000000E+00 -0.00000000000E+00 -0.73557526346E+03  0.73557526346E+03  0.00000000000E+00 0. -1.
         23    2    1    2    0    0  0.18868101346E+03 -0.35569313723E+02 -0.39216222819E+03  0.44605655443E+03  0.91156654257E+02 0.  0.
         23    2    1    2    0    0 -0.13307087063E+02  0.16861568769E+03 -0.80884525657E+02  0.20890965770E+03  0.92155357351E+02 0.  0.
        -13    1    4    4    0    0 -0.40516637311E+00  0.10993941263E+03 -0.22653281158E+01  0.10996349540E+03  0.00000000000E+00 0. -1.
         13    1    4    4    0    0 -0.12901920690E+02  0.58676275068E+02 -0.78619197541E+02  0.98946162308E+02  0.00000000000E+00 0.  1.
        -13    1    3    3    0    0  0.40605988420E+02 -0.37554375274E+01 -0.22507699929E+02  0.46578387292E+02  0.00000000000E+00 0.  1.
         13    1    3    3    0    0  0.14807502504E+03 -0.31813876196E+02 -0.36965452826E+03  0.39947816714E+03  0.00000000000E+00 0. -1.
          1    1    1    2  501    0 -0.17537392639E+03 -0.13304637397E+03 -0.10095955956E+03  0.24217800138E+03  0.00000000000E+00 0. -1.
<scales pt_clust_5="13000.00000" pt_clust_6="13000.00000" pt_clust_7="13000.00000" pt_clust_8="13000.00000" pt_clust_9="13000.00000"></scales>
<clustering>
<clus scale="   91.157">  7  8 -1 -1</clus>
<clus scale="   92.155">  5  6 -1 -1</clus>
<clus scale="  212.545">  2  7  1 -1</clus>
<clus scale="  168.954">  5  9 -1 -1</clus>
<clus scale="  412.811">  1  5  2 -1</clus>
</clustering>
</event>
<event>
 9    1  0.3303741E-006  0.1959636E+03  0.7546771E-02  0.1174807E+00
          2   -1    0    0  502    0 -0.00000000000E+00  0.00000000000E+00  0.25880478194E+03  0.25880478194E+03  0.00000000000E+00 0. -1.
         21   -1    0    0  501  502  0.00000000000E+00 -0.00000000000E+00 -0.10082721848E+03  0.10082721848E+03  0.00000000000E+00 0. -1.
         23    2    1    2    0    0 -0.44524209220E+02 -0.61065665419E+02  0.21476711964E+02  0.12081359111E+03  0.91778286863E+02 0.  0.
         23    2    1    2    0    0  0.19189331280E+02  0.98317968569E+02  0.13969281423E+03  0.19365449943E+03  0.89181441027E+02 0.  0.
        -11    1    4    4    0    0 -0.24816383728E+02  0.14459965695E+02  0.52380890768E+01  0.29195566212E+02  0.00000000000E+00 0.  1.
         11    1    4    4    0    0  0.44005715008E+02  0.83858002874E+02  0.13445472515E+03  0.16445893322E+03  0.00000000000E+00 0. -1.
        -13    1    3    3    0    0  0.72900910372E+01 -0.53868013682E+02 -0.15765402582E+02  0.56599083420E+02  0.00000000000E+00 0.  1.
         13    1    3    3    0    0 -0.51814300257E+02 -0.71976517373E+01  0.37242114546E+02  0.64214507687E+02  0.00000000000E+00 0. -1.
          2    1    1    2  501    0  0.25334877940E+02 -0.37252303150E+02 -0.31919627391E+01  0.45163909888E+02  0.00000000000E+00 0. -1.
<scales pt_clust_5="13000.00000" pt_clust_6="13000.00000" pt_clust_7="13000.00000" pt_clust_8="13000.00000" pt_clust_9="13000.00000"></scales>
<clustering>
<clus scale="   89.181">  5  6 -1 -1</clus>
<clus scale="   45.051">  5  9 -1 -1</clus>
<clus scale="   91.778">  7  8 -1 -1</clus>
<clus scale="  118.889">  1  7  2 -1</clus>
<clus scale="  195.964">  2  5  1 -1</clus>
</clustering>
</event>
<event>
 9    1  0.3303741E-006  0.1436131E+03  0.7546771E-02  0.1226952E+00
          1   -1    0    0  502    0 -0.00000000000E+00  0.00000000000E+00  0.25289219887E+03  0.25289219887E+03  0.00000000000E+00 0. -1.
         21   -1    0    0  501  502  0.00000000000E+00 -0.00000000000E+00 -0.13240719837E+03  0.13240719837E+03  0.00000000000E+00 0.  1.
         23    2    1    2    0    0 -0.11866044644E+02  0.30629345899E+02  0.19903687969E+03  0.22160723941E+03  0.91734013523E+02 0.  0.
         23    2    1    2    0    0 -0.24598092745E+02 -0.88653268424E+01 -0.81824965689E+02  0.12110085664E+03  0.85360601465E+02 0.  0.
        -11    1    3    3    0    0  0.19391417312E+01  0.58001776839E+02  0.16900560274E+03  0.17869208193E+03  0.00000000000E+00 0. -1.
         11    1    3    3    0    0 -0.13805186375E+02 -0.27372430939E+02  0.30031276951E+02  0.42915157482E+02  0.00000000000E+00 0.  1.
        -13    1    4    4    0    0 -0.26461349328E+02 -0.31984672000E+02 -0.87826427762E+02  0.97142697433E+02  0.00000000000E+00 0.  1.
         13    1    4    4    0    0  0.18632565828E+01  0.23119345157E+02  0.60014620729E+01  0.23958159208E+02  0.00000000000E+00 0. -1.
          1    1    1    2  501    0  0.36464137389E+02 -0.21764019057E+02  0.32730864973E+01  0.42591301180E+02  0.00000000000E+00 0. -1.
<scales pt_clust_5="13000.00000" pt_clust_6="13000.00000" pt_clust_7="13000.00000" pt_clust_8="13000.00000" pt_clust_9="13000.00000"></scales>
<clustering>
<clus scale="   85.361">  7  8 -1 -1</clus>
<clus scale="   42.465">  7  9 -1 -1</clus>
<clus scale="   91.734">  5  6 -1 -1</clus>
<clus scale="   97.438">  1  5  2 -1</clus>
<clus scale="  143.613">  2  5  1 -1</clus>
</clustering>
</event>
<event>
 9    1  0.3303741E-006  0.1800252E+03  0.7546771E-02  0.1186307E+00
         21   -1    0    0  501  502  0.00000000000E+00  0.00000000000E+00  0.31054002725E+02  0.31054002725E+02  0.00000000000E+00 0. -1.
          1   -1    0    0  502    0 -0.00000000000E+00 -0.00000000000E+00 -0.85661850952E+03  0.85661850952E+03  0.00000000000E+00 0. -1.
         23    2    1    2    0    0 -0.32076947352E+02  0.69617649491E+02 -0.51733972638E+03  0.53072493640E+03  0.90294063767E+02 0.  0.
         23    2    1    2    0    0 -0.26359474071E+02 -0.20380824202E+02 -0.21777685077E+03  0.23854188219E+03  0.91461866147E+02 0.  0.
        -11    1    4    4    0    0  0.19354041954E+02 -0.42230094385E+02 -0.11222016341E+03  0.12145503236E+03  0.00000000000E+00 0.  1.
         11    1    4    4    0    0 -0.45713516025E+02  0.21849270184E+02 -0.10555668736E+03  0.11708684982E+03  0.00000000000E+00 0. -1.
        -13    1    3    3    0    0  0.26132382694E+02 -0.19329419543E+01 -0.11519523458E+03  0.11813796917E+03  0.00000000000E+00 0.  1.
         13    1    3    3    0    0 -0.58209330046E+02  0.71550591446E+02 -0.40214449180E+03  0.41258696722E+03  0.00000000000E+00 0. -1.
          1    1    1    2  501    0  0.58436421423E+02 -0.49236825290E+02 -0.90447929649E+02  0.11840569366E+03  0.00000000000E+00 0. -1.
<scales pt_clust_5="13000.00000" pt_clust_6="13000.00000" pt_clust_7="13000.00000" pt_clust_8="13000.00000" pt_clust_9="13000.00000"></scales>
<clustering>
<clus scale="   90.294">  7  8 -1 -1</clus>
<clus scale="   91.462">  5  6 -1 -1</clus>
<clus scale="   76.414">  5  9 -1 -1</clus>
<clus scale="  118.442">  2  7  1 -1</clus>
<clus scale="  180.025">  1  5  2 -1</clus>
</clustering>
</event>
<event>
 9    1  0.3303741E-006  0.1663093E+03  0.7546771E-02  0.1208294E+00
         21   -1    0    0  501  502  0.00000000000E+00  0.00000000000E+00  0.54141908932E+02  0.54141908932E+02  0.00000000000E+00 0. -1.
          1   -1    0    0  502    0 -0.00000000000E+00 -0.00000000000E+00 -0.36919012352E+03  0.36919012352E+03  0.00000000000E+00 0. -1.
         23    2    1    2    0    0  0.12110025396E+02 -0.88060467441E+01 -0.20161229014E+03  0.22202012389E+03  0.91767209298E+02 0.  0.
         23    2    1    2    0    0 -0.38185947715E+02 -0.18975763865E+02 -0.12594192356E+03  0.16120975476E+03  0.91153555633E+02 0.  0.
        -11    1    4    4    0    0 -0.54924723074E+02 -0.44005381238E+02 -0.92085042196E+02  0.11590018887E+03  0.00000000000E+00 0. -1.
         11    1    4    4    0    0  0.16738775359E+02  0.25029617374E+02 -0.33856881363E+02  0.45309565900E+02  0.00000000000E+00 0.  1.
        -13    1    3    3    0    0  0.38453131336E+02 -0.37614308916E+02 -0.12305745672E+03  0.13430047356E+03  0.00000000000E+00 0. -1.
         13    1    3    3    0    0 -0.26343105940E+02  0.28808262172E+02 -0.78554833421E+02  0.87719650328E+02  0.00000000000E+00 0.  1.
          1    1    1    2  501    0  0.26075922319E+02  0.27781810609E+02  0.12505999110E+02  0.40102153798E+02  0.00000000000E+00 0. -1.
<scales pt_clust_5="13000.00000" pt_clust_6="13000.00000" pt_clust_7="13000.00000" pt_clust_8="13000.00000" pt_clust_9="13000.00000"></scales>
<clustering>
<clus scale="   91.154">  5  6 -1 -1</clus>
<clus scale="   38.102">  5  9 -1 -1</clus>
<clus scale="   91.767">  7  8 -1 -1</clus>
<clus scale="   92.981">  2  7  1 -1</clus>
<clus scale="  166.309">  1  5  2 -1</clus>
</clustering>
</event>
<event>
 9    1  0.3303741E-006  0.5260166E+03  0.7546771E-02  0.1041303E+00
          1   -1    0    0  502    0 -0.00000000000E+00  0.00000000000E+00  0.61915480035E+03  0.61915480035E+03  0.00000000000E+00 0. -1.
         21   -1    0    0  501  502  0.00000000000E+00 -0.00000000000E+00 -0.23947650566E+03  0.23947650566E+03  0.00000000000E+00 0. -1.
         23    2    1    2    0    0  0.16398632153E+03 -0.14239808515E+02  0.25614574107E+03  0.31830388925E+03  0.92803229750E+02 0.  0.
         23    2    1    2    0    0  0.61430185103E+02 -0.49681696836E+02 -0.14199535606E+03  0.18620366560E+03  0.90924063356E+02 0.  0.
        -13    1    4    4    0    0 -0.22988283954E+02 -0.14471955815E+01 -0.31490239648E+02  0.39015263261E+02  0.00000000000E+00 0.  1.
         13    1    4    4    0    0  0.84418469057E+02 -0.48234501255E+02 -0.11050511641E+03  0.14718840234E+03  0.00000000000E+00 0. -1.
        -13    1    3    3    0    0  0.60708765026E+02 -0.49998697481E+02  0.91104845356E+02  0.12035579233E+03  0.00000000000E+00 0.  1.
         13    1    3    3    0    0  0.10327755650E+03  0.35758888966E+02  0.16504089571E+03  0.19794809692E+03  0.00000000000E+00 0. -1.
          1    1    1    2  501    0 -0.22541650663E+03  0.63921505351E+02  0.26552790969E+03  0.35412375115E+03  0.00000000000E+00 0. -1.
<scales pt_clust_5="13000.00000" pt_clust_6="13000.00000" pt_clust_7="13000.00000" pt_clust_8="13000.00000" pt_clust_9="13000.00000"></scales>
<clustering>
<clus scale="   90.924">  5  6 -1 -1</clus>
<clus scale="   92.803">  7  8 -1 -1</clus>
<clus scale="  188.962">  1  7  2 -1</clus>
<clus scale="   88.306">  5  9 -1 -1</clus>
<clus scale="  526.017">  2  5  1 -1</clus>
</clustering>
</event>
<event>
 9    1  0.3303741E-006  0.5887704E+03  0.7546771E-02  0.1036620E+00
          1   -1    0    0  502    0 -0.00000000000E+00  0.00000000000E+00  0.90055097453E+03  0.90055097453E+03  0.00000000000E+00 0. -1.
         21   -1    0    0  501  502  0.00000000000E+00 -0.00000000000E+00 -0.18387193444E+03  0.18387193444E+03  0.00000000000E+00 0. -1.
         23    2    1    2    0    0 -0.10191163747E+02 -0.12286633871E+03  0.37052762919E+03  0.40143578739E+03  0.93058961964E+02 0.  0.
         23    2    1    2    0    0  0.12179274279E+03  0.10414792289E+03  0.47595893260E+03  0.51078002467E+03  0.93161505162E+02 0.  0.
        -11    1    4    4    0    0  0.17424243796E+02 -0.16306446431E+02  0.92251830789E+02  0.95288534205E+02  0.00000000000E+00 0.  1.
         11    1    4    4    0    0  0.10436849899E+03  0.12045436932E+03  0.38370710181E+03  0.41549149047E+03  0.00000000000E+00 0. -1.
        -13    1    3    3    0    0 -0.48222453775E+02 -0.45517158323E+02  0.19334511839E+03  0.20440046857E+03  0.00000000000E+00 0.  1.
         13    1    3    3    0    0  0.38031290028E+02 -0.77349180386E+02  0.17718251080E+03  0.19703531882E+03  0.00000000000E+00 0. -1.
          1    1    1    2  501    0 -0.11160157904E+03  0.18718415821E+02 -0.12980752170E+03  0.17220709691E+03  0.00000000000E+00 0. -1.
<scales pt_clust_5="13000.00000" pt_clust_6="13000.00000" pt_clust_7="13000.00000" pt_clust_8="13000.00000" pt_clust_9="13000.00000"></scales>
<clustering>
<clus scale="   93.059">  7  8 -1 -1</clus>
<clus scale="   93.162">  5  6 -1 -1</clus>
<clus scale="  113.161">  5  9 -1 -1</clus>
<clus scale="  154.467">  1  7  2 -1</clus>
<clus scale="  588.770">  2  5  1 -1</clus>
</clustering>
</event>
<event>
 9    1  0.3303741E-006  0.2115434E+03  0.7546771E-02  0.1169176E+00
         -1   -1    0    0    0  501 -0.00000000000E+00  0.00000000000E+00  0.38659054082E+03  0.38659054082E+03  0.00000000000E+00 0.  1.
         21   -1    0    0  501  502  0.00000000000E+00 -0.00000000000E+00 -0.86131986095E+02  0.86131986095E+02  0.00000000000E+00 0.  1.
         23    2    1    2    0    0 -0.43540931377E+02  0.33605880397E+02  0.22283121014E+03  0.24738585422E+03  0.92308421897E+02 0.  0.
         23    2    1    2    0    0 -0.47632221421E+02 -0.27810915809E+02 -0.60317414340E+01  0.10146186461E+03  0.84946174186E+02 0.  0.
        -11    1    4    4    0    0 -0.82446734379E+00 -0.27815497861E+02 -0.36285805056E+02  0.45727905224E+02  0.00000000000E+00 0.  1.
         11    1    4    4    0    0 -0.46807754077E+02  0.45820515911E-02  0.30254063622E+02  0.55733959382E+02  0.00000000000E+00 0. -1.
        -11    1    3    3    0    0 -0.30423530792E+02  0.51615751628E+02  0.21588916127E+03  0.22404889421E+03  0.00000000000E+00 0.  1.
         11    1    3    3    0    0 -0.13117400585E+02 -0.18009871231E+02  0.69420488637E+01  0.23336960006E+02  0.00000000000E+00 0. -1.
         -1    1    1    2    0  502  0.91173152798E+02 -0.57949645875E+01  0.83659086018E+02  0.12387480809E+03  0.00000000000E+00 0.  1.
<scales pt_clust_5="13000.00000" pt_clust_6="13000.00000" pt_clust_7="13000.00000" pt_clust_8="13000.00000" pt_clust_9="13000.00000"></scales>
<clustering>
<clus scale="   84.946">  5  6 -1 -1</clus>
<clus scale="   91.357">  5  9 -1 -1</clus>
<clus scale="   92.308">  7  8 -1 -1</clus>
<clus scale="  107.452">  1  7  2 -1</clus>
<clus scale="  211.543">  2  5  1 -1</clus>
</clustering>
</event>
<event>
 9    1  0.3303741E-006  0.2711068E+03  0.7546771E-02  0.1111364E+00
         -3   -1    0    0    0  501 -0.00000000000E+00  0.00000000000E+00  0.10896006699E+03  0.10896006699E+03  0.00000000000E+00 0.  1.
         21   -1    0    0  501  502  0.00000000000E+00 -0.00000000000E+00 -0.52838883606E+03  0.52838883606E+03  0.00000000000E+00 0.  1.
         23    2    1    2    0    0 -0.17847759702E+03  0.48118568491E+02 -0.14701401292E+03  0.25302001730E+03  0.90754393217E+02 0.  0.
         23    2    1    2    0    0  0.27789470338E+02 -0.22633092126E+02 -0.18049019936E+03  0.20598498994E+03  0.92566692145E+02 0.  0.
        -11    1    3    3    0    0 -0.28141024750E+02 -0.77090433177E+01 -0.68518007026E+02  0.74471900134E+02  0.00000000000E+00 0.  1.
         11    1    3    3    0    0 -0.15033657227E+03  0.55827611809E+02 -0.78496005898E+02  0.17854811717E+03  0.00000000000E+00 0. -1.
        -13    1    4    4    0    0 -0.16969931155E+02 -0.21645464316E+02 -0.92953817412E+01  0.29032891874E+02  0.00000000000E+00 0.  1.
         13    1    4    4    0    0  0.44759401492E+02 -0.98762781044E+00 -0.17119481761E+03  0.17695209806E+03  0.00000000000E+00 0. -1.
         -3    1    1    2    0  502  0.15068812669E+03 -0.25485476365E+02 -0.91924556799E+02  0.17834389581E+03  0.00000000000E+00 0.  1.
<scales pt_clust_5="13000.00000" pt_clust_6="13000.00000" pt_clust_7="13000.00000" pt_clust_8="13000.00000" pt_clust_9="13000.00000"></scales>
<clustering>
<clus scale="   90.754">  5  6 -1 -1</clus>
<clus scale="   92.567">  7  8 -1 -1</clus>
<clus scale="  152.828">  7  9 -1 -1</clus>
<clus scale="  205.927">  1  5  2 -1</clus>
<clus scale="  271.107">  2  5  1 -1</clus>
</clustering>
</event>
<event>
 9    1  0.3303741E-006  0.2052158E+03  0.7546771E-02  0.1178275E+00
         21   -1    0    0  501  502  0.00000000000E+00  0.00000000000E+00  0.63112631827E+03  0.63112631827E+03  0.00000000000E+00 0.  1.
         -1   -1    0    0    0  501 -0.00000000000E+00 -0.00000000000E+00 -0.72490398557E+02  0.72490398557E+02  0.00000000000E+00 0.  1.
         23    2    1    2    0    0 -0.31274484972E+02 -0.47073716320E+01 -0.12690202261E+02  0.96552408570E+02  0.90338660657E+02 0.  0.
         23    2    1    2    0    0 -0.31130271366E+02  0.21824772398E+02  0.14102227146E+03  0.17192207543E+03  0.90689053844E+02 0.  0.
        -11    1    3    3    0    0  0.86565355401E+01  0.21667837627E+02  0.26057200694E+02  0.34977256939E+02  0.00000000000E+00 0. -1.
         11    1    3    3    0    0 -0.39931020512E+02 -0.26375209259E+02 -0.38747402955E+02  0.61575151631E+02  0.00000000000E+00 0.  1.
        -13    1    4    4    0    0 -0.32325442425E+02 -0.12096556010E+02  0.13250636542E+03  0.13692771002E+03  0.00000000000E+00 0. -1.
         13    1    4    4    0    0  0.11951710585E+01  0.33921328408E+02  0.85159060452E+01  0.34994365412E+02  0.00000000000E+00 0.  1.
         -1    1    1    2    0  502  0.62404756338E+02 -0.17117400766E+02  0.43030385051E+03  0.43514223282E+03  0.00000000000E+00 0.  1.
<scales pt_clust_5="13000.00000" pt_clust_6="13000.00000" pt_clust_7="13000.00000" pt_clust_8="13000.00000" pt_clust_9="13000.00000"></scales>
<clustering>
<clus scale="   90.339">  5  6 -1 -1</clus>
<clus scale="   90.689">  7  8 -1 -1</clus>
<clus scale="   64.710">  7  9 -1 -1</clus>
<clus scale="   95.715">  2  5  1 -1</clus>
<clus scale="  205.216">  1  5  2 -1</clus>
</clustering>
</event>
<event>
 9    1  0.3303741E-006  0.2155399E+03  0.7546771E-02  0.1172092E+00
         21   -1    0    0  501  502  0.00000000000E+00  0.00000000000E+00  0.76827507094E+02  0.76827507094E+02  0.00000000000E+00 0. -1.
          2   -1    0    0  502    0 -0.00000000000E+00 -0.00000000000E+00 -0.32136835677E+03  0.32136835677E+03  0.00000000000E+00 0. -1.
         23    2    1    2    0    0 -0.25705341499E+02 -0.10296732535E+02 -0.10400275506E+03  0.14088591437E+03  0.90914688170E+02 0.  0.
         23    2    1    2    0    0 -0.15698528916E+02  0.51140013511E+02 -0.16322709974E+03  0.19488203075E+03  0.92055282448E+02 0.  0.
        -11    1    4    4    0    0 -0.48595165786E+02  0.38009283885E+02 -0.61278017807E+02  0.86955110635E+02  0.00000000000E+00 0.  1.
         11    1    4    4    0    0  0.32896636870E+02  0.13130729626E+02 -0.10194908193E+03  0.10792692011E+03  0.00000000000E+00 0. -1.
        -11    1    3    3    0    0 -0.71813487138E+00  0.38777506949E+02 -0.54125511882E+02  0.66586648807E+02  0.00000000000E+00 0. -1.
         11    1    3    3    0    0 -0.24987206628E+02 -0.49074239484E+02 -0.49877243177E+02  0.74299265561E+02  0.00000000000E+00 0.  1.
          2    1    1    2  501    0  0.41403870415E+02 -0.40843280976E+02  0.22689005121E+02  0.62427918751E+02  0.00000000000E+00 0. -1.
<scales pt_clust_5="13000.00000" pt_clust_6="13000.00000" pt_clust_7="13000.00000" pt_clust_8="13000.00000" pt_clust_9="13000.00000"></scales>
<clustering>
<clus scale="   90.915">  7  8 -1 -1</clus>
<clus scale="   92.055">  5  6 -1 -1</clus>
<clus scale="   58.159">  5  9 -1 -1</clus>
<clus scale="   95.038">  2  7  1 -1</clus>
<clus scale="  215.540">  1  5  2 -1</clus>
</clustering>
</event>
<event>
 9    1  0.3303741E-006  0.2369321E+03  0.7546771E-02  0.1143537E+00
         -2   -1    0    0    0  501 -0.00000000000E+00  0.00000000000E+00  0.17036772647E+03  0.17036772647E+03  0.00000000000E+00 0.  1.
         21   -1    0    0  501  502  0.00000000000E+00 -0.00000000000E+00 -0.32767256237E+03  0.32767256237E+03  0.00000000000E+00 0.  1.
         23    2    1    2    0    0  0.50132128247E+02 -0.92978126891E+02  0.81592521446E+02  0.16157515313E+03  0.91055083277E+02 0.  0.
         23    2    1    2    0    0  0.47564354089E+02  0.94122284363E+02 -0.11325329231E+03  0.17730376215E+03  0.86538683025E+02 0.  0.
        -11    1    4    4    0    0  0.67084318560E+02  0.71657028649E+02 -0.10990154375E+03  0.14735462283E+03  0.00000000000E+00 0.  1.
         11    1    4    4    0    0 -0.19519964471E+02  0.22465255714E+02 -0.33517485548E+01  0.29949139313E+02  0.00000000000E+00 0. -1.
        -13    1    3    3    0    0  0.46768638208E+02 -0.72648931820E+02  0.10124501276E+03  0.13310043360E+03  0.00000000000E+00 0.  1.
         13    1    3    3    0    0  0.33634900390E+01 -0.20329195071E+02 -0.19652491318E+02  0.28474719533E+02  0.00000000000E+00 0. -1.
         -2    1    1    2    0  502 -0.97696482336E+02 -0.11441574720E+01 -0.12564406503E+03  0.15916137357E+03  0.00000000000E+00 0.  1.
<scales pt_clust_5="13000.00000" pt_clust_6="13000.00000" pt_clust_7="13000.00000" pt_clust_8="13000.00000" pt_clust_9="13000.00000"></scales>
<clustering>
<clus scale="   86.539">  5  6 -1 -1</clus>
<clus scale="   91.055">  7  8 -1 -1</clus>
<clus scale="   97.703">  5  9 -1 -1</clus>
<clus scale="  139.460">  1  7  2 -1</clus>
<clus scale="  236.932">  2  5  1 -1</clus>
</clustering>
</event>
<event>
 9    1  0.3303741E-006  0.2762709E+03  0.7546771E-02  0.1127004E+00
          1   -1    0    0  502    0 -0.00000000000E+00  0.00000000000E+00  0.42699511263E+03  0.42699511263E+03  0.00000000000E+00 0. -1.
         21   -1    0    0  501  502  0.00000000000E+00 -0.00000000000E+00 -0.97511017644E+02  0.97511017644E+02  0.00000000000E+00 0. -1.
         23    2    1    2    0    0  0.92662077927E+02  0.14635629273E+02  0.96832109658E+02  0.16332395187E+03  0.92183477177E+02 0.  0.
         23    2    1    2    0    0  0.45799632634E+02 -0.21490907378E+02  0.19040121606E+03  0.21625541195E+03  0.89186964701E+02 0.  0.
        -11    1    4    4    0    0  0.66084890518E+02 -0.24448192261E+02  0.17993272546E+03  0.19323745121E+03  0.00000000000E+00 0. -1.
         11    1    4    4    0    0 -0.20285257883E+02  0.29572848833E+01  0.10468490602E+02  0.23017960743E+02  0.00000000000E+00 0.  1.
        -13    1    3    3    0    0 -0.10744266674E+02  0.22999428223E+02  0.32551170241E+02  0.41279433729E+02  0.00000000000E+00 0.  1.
         13    1    3    3    0    0  0.10340634460E+03 -0.83637989500E+01  0.64280939418E+02  0.12204451814E+03  0.00000000000E+00 0. -1.
          1    1    1    2  501    0 -0.13846171056E+03  0.68552781050E+01  0.42250769266E+02  0.14492676645E+03  0.00000000000E+00 0. -1.
<scales pt_clust_5="13000.00000" pt_clust_6="13000.00000" pt_clust_7="13000.00000" pt_clust_8="13000.00000" pt_clust_9="13000.00000"></scales>
<clustering>
<clus scale="   89.187">  5  6 -1 -1</clus>
<clus scale="   92.183">  7  8 -1 -1</clus>
<clus scale="  131.523">  1  7  2 -1</clus>
<clus scale="  109.855">  5  9 -1 -1</clus>
<clus scale="  276.271">  2  5  1 -1</clus>
</clustering>
</event>
<event>
 9    1  0.3303741E-006  0.1950083E+03  0.7546771E-02  0.1167491E+00
         21   -1    0    0  501  502  0.00000000000E+00  0.00000000000E+00  0.32475304025E+02  0.32475304025E+02  0.00000000000E+00 0. -1.
          2   -1    0    0  502    0 -0.00000000000E+00 -0.00000000000E+00 -0.88019861476E+03  0.88019861476E+03  0.00000000000E+00 0. -1.
         23    2    1    2    0    0  0.63181204095E+02  0.87519066676E+02 -0.38412656217E+03  0.40973238974E+03  0.93144854133E+02 0.  0.
         23    2    1    2    0    0 -0.71705805497E+02 -0.29390030209E+02 -0.39865381639E+03  0.41536734250E+03  0.87176071692E+02 0.  0.
        -13    1    3    3    0    0  0.49584657595E+02  0.31222714036E+01 -0.20942185672E+03  0.21523452539E+03  0.00000000000E+00 0.  1.
         13    1    3    3    0    0  0.13596546500E+02  0.84396795272E+02 -0.17470470545E+03  0.19449786435E+03  0.00000000000E+00 0. -1.
        -13    1    4    4    0    0 -0.82899300305E+02  0.14618905121E+01 -0.26088912314E+03  0.27374726608E+03  0.00000000000E+00 0.  1.
         13    1    4    4    0    0  0.11193494809E+02 -0.30851920721E+02 -0.13776469325E+03  0.14162007642E+03  0.00000000000E+00 0. -1.
          2    1    1    2  501    0  0.85246014016E+01 -0.58129036467E+02 -0.64942932164E+02  0.87574186538E+02  0.00000000000E+00 0. -1.
<scales pt_clust_5="13000.00000" pt_clust_6="13000.00000" pt_clust_7="13000.00000" pt_clust_8="13000.00000" pt_clust_9="13000.00000"></scales>
<clustering>
<clus scale="   87.176">  7  8 -1 -1</clus>
<clus scale="   58.751">  7  9 -1 -1</clus>
<clus scale="   93.145">  5  6 -1 -1</clus>
<clus scale="  142.574">  2  5  1 -1</clus>
<clus scale="  195.008">  1  5  2 -1</clus>
</clustering>
</event>
<event>
 9    1  0.3303741E-006  0.3407543E+03  0.7546771E-02  0.1095259E+00
          1   -1    0    0  502    0 -0.00000000000E+00  0.00000000000E+00  0.18943837177E+03  0.18943837177E+03  0.00000000000E+00 0. -1.
         21   -1    0    0  501  502  0.00000000000E+00 -0.00000000000E+00 -0.80063628137E+03  0.80063628137E+03  0.00000000000E+00 0. -1.
         23    2    1    2    0    0 -0.54136265480E+02 -0.11745526688E+03  0.11043239681E+03  0.19203721018E+03  0.89199220117E+02 0.  0.
         23    2    1    2    0    0  0.76926219798E+01  0.16669172311E+02 -0.29655102760E+02  0.97220397396E+02  0.90748789588E+02 0.  0.
        -11    1    3    3    0    0 -0.36515894724E+02 -0.95708505717E+02  0.29798998461E+02  0.10668415507E+03  0.00000000000E+00 0. -1.
         11    1    3    3    0    0 -0.17620370756E+02 -0.21746761165E+02  0.80633398349E+02  0.85353055107E+02  0.00000000000E+00 0.  1.
        -13    1    4    4    0    0  0.27820705508E+02  0.42969192519E+02  0.22433509025E+01  0.51238420975E+02  0.00000000000E+00 0. -1.
         13    1    4    4    0    0 -0.20128083529E+02 -0.26300020209E+02 -0.31898453663E+02  0.45981976421E+02  0.00000000000E+00 0.  1.
          1    1    1    2  501    0  0.46443643500E+02  0.10078609457E+03 -0.69197520365E+03  0.70081704556E+03  0.00000000000E+00 0. -1.
<scales pt_clust_5="13000.00000" pt_clust_6="13000.00000" pt_clust_7="13000.00000" pt_clust_8="13000.00000" pt_clust_9="13000.00000"></scales>
<clustering>
<clus scale="   89.199">  5  6 -1 -1</clus>
<clus scale="   90.749">  7  8 -1 -1</clus>
<clus scale="  110.972">  7  9 -1 -1</clus>
<clus scale="  157.108">  1  5  2 -1</clus>
<clus scale="  340.754">  2  5  1 -1</clus>
</clustering>
</event>
<event>
 9    1  0.3303741E-006  0.2979524E+03  0.7546771E-02  0.1125651E+00
         -3   -1    0    0    0  501 -0.00000000000E+00  0.00000000000E+00  0.43673605118E+03  0.43673605118E+03  0.00000000000E+00 0.  1.
         21   -1    0    0  501  502  0.00000000000E+00 -0.00000000000E+00 -0.10586661872E+03  0.10586661872E+03  0.00000000000E+00 0.  1.
         23    2    1    2    0    0  0.32594747163E+02 -0.49105829639E+02  0.16839461884E+02  0.10971645142E+03  0.90996330636E+02 0.  0.
         23    2    1    2    0    0 -0.37954631756E+02 -0.21157877327E+02  0.34225841193E+03  0.35697467929E+03  0.91661831049E+02 0.  0.
        -11    1    3    3    0    0 -0.30829308923E+02 -0.12872980887E+02  0.15071073891E+02  0.36651019001E+02  0.00000000000E+00 0.  1.
         11    1    3    3    0    0  0.63424056086E+02 -0.36232848752E+02  0.17683879927E+01  0.73065432423E+02  0.00000000000E+00 0. -1.
        -13    1    4    4    0    0 -0.24077336157E+02  0.27077694640E+02  0.58508824155E+02  0.68820070964E+02  0.00000000000E+00 0. -1.
         13    1    4    4    0    0 -0.13877295600E+02 -0.48235571968E+02  0.28374958778E+03  0.28815460833E+03  0.00000000000E+00 0.  1.
         -3    1    1    2    0  502  0.53598845932E+01  0.70263706967E+02 -0.28228441355E+02  0.75911539181E+02  0.00000000000E+00 0.  1.
<scales pt_clust_5="13000.00000" pt_clust_6="13000.00000" pt_clust_7="13000.00000" pt_clust_8="13000.00000" pt_clust_9="13000.00000"></scales>
<clustering>
<clus scale="   90.996">  5  6 -1 -1</clus>
<clus scale="   91.662">  7  8 -1 -1</clus>
<clus scale="   70.468">  7  9 -1 -1</clus>
<clus scale="  108.417">  1  5  2 -1</clus>
<clus scale="  297.952">  2  5  1 -1</clus>
</clustering>
</event>
<event>
 9    1  0.3303741E-006  0.2376340E+03  0.7546771E-02  0.1148843E+00
          1   -1    0    0  502    0 -0.00000000000E+00  0.00000000000E+00  0.39601564551E+03  0.39601564551E+03  0.00000000000E+00 0. -1.
         21   -1    0    0  501  502  0.00000000000E+00 -0.00000000000E+00 -0.86018365773E+02  0.86018365773E+02  0.00000000000E+00 0. -1.
         23    2    1    2    0    0  0.66222993332E+02  0.39391180121E+02  0.15976558624E+03  0.20089442265E+03  0.94320605325E+02 0.  0.
         23    2    1    2    0    0  0.24456999557E+02  0.26135747957E+02  0.13706797358E+03  0.16849003055E+03  0.91214247054E+02 0.  0.
        -13    1    3    3    0    0  0.80399991171E+01  0.24961535907E+02 -0.39765878790E+01  0.26524198608E+02  0.00000000000E+00 0.  1.
         13    1    3    3    0    0  0.58182994215E+02  0.14429644213E+02  0.16374217412E+03  0.17437022404E+03  0.00000000000E+00 0. -1.
        -13    1    4    4    0    0  0.23428514339E+02 -0.31937197346E+02  0.62066231423E+02  0.73628098858E+02  0.00000000000E+00 0. -1.
         13    1    4    4    0    0  0.10284852182E+01  0.58072945303E+02  0.75001742153E+02  0.94861931691E+02  0.00000000000E+00 0.  1.
          1    1    1    2  501    0 -0.90679992889E+02 -0.65526928078E+02  0.13163719921E+02  0.11264955808E+03  0.00000000000E+00 0. -1.
<scales pt_clust_5="13000.00000" pt_clust_6="13000.00000" pt_clust_7="13000.00000" pt_clust_8="13000.00000" pt_clust_9="13000.00000"></scales>
<clustering>
<clus scale="   91.214">  7  8 -1 -1</clus>
<clus scale="   94.321">  5  6 -1 -1</clus>
<clus scale="  111.878">  7  9 -1 -1</clus>
<clus scale="  121.793">  1  5  2 -1</clus>
<clus scale="  237.634">  2  5  1 -1</clus>
</clustering>
</event>
<event>
 9    1  0.3303741E-006  0.1301156E+03  0.7546771E-02  0.1242113E+00
         21   -1    0    0  501  502  0.00000000000E+00  0.00000000000E+00  0.12672957626E+02  0.12672957626E+02  0.00000000000E+00 0. -1.
         -1   -1    0    0    0  501 -0.00000000000E+00 -0.00000000000E+00 -0.10490108627E+04  0.10490108627E+04  0.00000000000E+00 0.  1.
         23    2    1    2    0    0  0.44884251243E+01 -0.25604680900E+02 -0.54580686465E+03  0.55418921221E+03  0.92438107876E+02 0.  0.
         23    2    1    2    0    0  0.88608838243E+01  0.47533544555E+02 -0.43601987981E+03  0.44724059794E+03  0.87022202533E+02 0.  0.
        -11    1    3    3    0    0 -0.41308256370E+02  0.39110057850E+01 -0.24455743610E+03  0.24805242906E+03  0.00000000000E+00 0. -1.
         11    1    3    3    0    0  0.45796681495E+02 -0.29515686685E+02 -0.30124942855E+03  0.30613678315E+03  0.00000000000E+00 0.  1.
        -13    1    4    4    0    0  0.21789255386E+02  0.70120374566E+02 -0.31289266121E+03  0.32139299311E+03  0.00000000000E+00 0. -1.
         13    1    4    4    0    0 -0.12928371562E+02 -0.22586830011E+02 -0.12312721860E+03  0.12584760483E+03  0.00000000000E+00 0.  1.
         -1    1    1    2    0  502 -0.13349308949E+02 -0.21928863655E+02 -0.54511160568E+02  0.60254010132E+02  0.00000000000E+00 0.  1.
<scales pt_clust_5="13000.00000" pt_clust_6="13000.00000" pt_clust_7="13000.00000" pt_clust_8="13000.00000" pt_clust_9="13000.00000"></scales>
<clustering>
<clus scale="   87.022">  7  8 -1 -1</clus>
<clus scale="   25.673">  7  9 -1 -1</clus>
<clus scale="   92.438">  5  6 -1 -1</clus>
<clus scale="   96.024">  2  5  1 -1</clus>
<clus scale="  130.116">  1  5  2 -1</clus>
</clustering>
</event>
<event>
 9    1  0.3303741E-006  0.3675968E+03  0.7546771E-02  0.1097410E+00
          1   -1    0    0  502    0 -0.00000000000E+00  0.00000000000E+00  0.87447001650E+03  0.87447001650E+03  0.00000000000E+00 0. -1.
         21   -1    0    0  501  502  0.00000000000E+00 -0.00000000000E+00 -0.68765779574E+02  0.68765779574E+02  0.00000000000E+00 0. -1.
         23    2    1    2    0    0  0.65104712247E+02 -0.28007762259E+02  0.25513387542E+03  0.28122740221E+03  0.94723276232E+02 0.  0.
         23    2    1    2    0    0  0.33457323442E+02  0.72444845633E+02  0.54041193773E+03  0.55341593174E+03  0.88636803371E+02 0.  0.
        -11    1    3    3    0    0 -0.65645764521E+01 -0.24606626762E+02  0.12816024283E+02  0.28510177534E+02  0.00000000000E+00 0.  1.
         11    1    3    3    0    0  0.71669288699E+02 -0.34011354971E+01  0.24231785114E+03  0.25271722467E+03  0.00000000000E+00 0. -1.
        -11    1    4    4    0    0 -0.28004364292E+02  0.31990962757E+02  0.14053083348E+03  0.14682159676E+03  0.00000000000E+00 0.  1.
         11    1    4    4    0    0  0.61461687734E+02  0.40453882876E+02  0.39988110425E+03  0.40659433498E+03  0.00000000000E+00 0. -1.
          1    1    1    2  501    0 -0.98562035689E+02 -0.44437083374E+02  0.10158423777E+02  0.10859246213E+03  0.00000000000E+00 0. -1.
<scales pt_clust_5="13000.00000" pt_clust_6="13000.00000" pt_clust_7="13000.00000" pt_clust_8="13000.00000" pt_clust_9="13000.00000"></scales>
<clustering>
<clus scale="   88.637">  7  8 -1 -1</clus>
<clus scale="   94.723">  5  6 -1 -1</clus>
<clus scale="  108.116">  7  9 -1 -1</clus>
<clus scale="  118.303">  1  5  2 -1</clus>
<clus scale="  367.597">  2  5  1 -1</clus>
</clustering>
</event>
<event>
 9    1  0.3303741E-006  0.2884244E+03  0.7546771E-02  0.1124673E+00
          1   -1    0    0  502    0 -0.00000000000E+00  0.00000000000E+00  0.28347340344E+03  0.28347340344E+03  0.00000000000E+00 0. -1.
         21   -1    0    0  501  502  0.00000000000E+00 -0.00000000000E+00 -0.19117602709E+03  0.19117602709E+03  0.00000000000E+00 0.  1.
         23    2    1    2    0    0  0.21178910215E+02  0.79291738431E+02 -0.72659919563E+02  0.14238513188E+03  0.90875386375E+02 0.  0.
         23    2    1    2    0    0  0.10702797783E+02 -0.22902722224E+01  0.21292073085E+03  0.23610734261E+03  0.10144774212E+03 0.  0.
        -11    1    3    3    0    0  0.33784634139E+02  0.54450652925E+02  0.52029636142E+00  0.64082336226E+02  0.00000000000E+00 0. -1.
         11    1    3    3    0    0 -0.12605723924E+02  0.24841085506E+02 -0.73180215924E+02  0.78302795656E+02  0.00000000000E+00 0.  1.
        -13    1    4    4    0    0  0.48826233662E+02  0.18631974299E+02  0.15570289757E+03  0.16423928846E+03  0.00000000000E+00 0.  1.
         13    1    4    4    0    0 -0.38123435878E+02 -0.20922246522E+02  0.57217833278E+02  0.71868054153E+02  0.00000000000E+00 0. -1.
          1    1    1    2  501    0 -0.31881707998E+02 -0.77001466209E+02 -0.47963434935E+02  0.96156956035E+02  0.00000000000E+00 0. -1.
<scales pt_clust_5="13000.00000" pt_clust_6="13000.00000" pt_clust_7="13000.00000" pt_clust_8="13000.00000" pt_clust_9="13000.00000"></scales>
<clustering>
<clus scale="   90.875">  5  6 -1 -1</clus>
<clus scale="  101.448">  7  8 -1 -1</clus>
<clus scale="   83.341">  7  9 -1 -1</clus>
<clus scale="  122.450">  1  5  2 -1</clus>
<clus scale="  288.424">  2  5  1 -1</clus>
</clustering>
</event>
<event>
 9    1  0.3303741E-006  0.5499873E+03  0.7546771E-02  0.1034691E+00
          1   -1    0    0  502    0 -0.00000000000E+00  0.00000000000E+00  0.13405108580E+03  0.13405108580E+03  0.00000000000E+00 0. -1.
         21   -1    0    0  501  502  0.00000000000E+00 -0.00000000000E+00 -0.10583650393E+04  0.10583650393E+04  0.00000000000E+00 0. -1.
         23    2    1    2    0    0 -0.11184595007E+03 -0.13924845306E+03 -0.20309048831E+03  0.28541593524E+03  0.91196827908E+02 0.  0.
         23    2    1    2    0    0  0.30702604310E+03  0.29801517874E+02 -0.36920363136E+03  0.48987687028E+03  0.92276242955E+02 0.  0.
        -13    1    4    4    0    0  0.76883164594E+02  0.22352445467E+02 -0.15934325639E+03  0.17832814184E+03  0.00000000000E+00 0.  1.
         13    1    4    4    0    0  0.23014287850E+03  0.74490724070E+01 -0.20986037497E+03  0.31154872843E+03  0.00000000000E+00 0. -1.
        -13    1    3    3    0    0 -0.61509241286E+02 -0.13697592957E+03 -0.15206776007E+03  0.21370633051E+03  0.00000000000E+00 0.  1.
         13    1    3    3    0    0 -0.50336708785E+02 -0.22725234907E+01 -0.51022728239E+02  0.71709604735E+02  0.00000000000E+00 0. -1.
          1    1    1    2  501    0 -0.19518009303E+03  0.10944693519E+03 -0.35201983385E+03  0.41712331960E+03  0.00000000000E+00 0. -1.
<scales pt_clust_5="13000.00000" pt_clust_6="13000.00000" pt_clust_7="13000.00000" pt_clust_8="13000.00000" pt_clust_9="13000.00000"></scales>
<clustering>
<clus scale="   91.197">  7  8 -1 -1</clus>
<clus scale="   92.276">  5  6 -1 -1</clus>
<clus scale="  200.541">  1  7  2 -1</clus>
<clus scale="  242.095">  5  9 -1 -1</clus>
<clus scale="  549.987">  2  5  1 -1</clus>
</clustering>
</event>
<event>
 9    1  0.3303741E-006  0.1472841E+03  0.7546771E-02  0.1219987E+00
          1   -1    0    0  502    0 -0.00000000000E+00  0.00000000000E+00  0.12874167850E+03  0.12874167850E+03  0.00000000000E+00 0. -1.
         21   -1    0    0  501  502  0.00000000000E+00 -0.00000000000E+00 -0.13617979990E+03  0.13617979990E+03  0.00000000000E+00 0.  1.
         23    2    1    2    0    0 -0.27406530849E+02 -0.27347781108E+02 -0.43698295075E+02  0.11323954963E+03  0.97029044838E+02 0.  0.
         23    2    1    2    0    0 -0.70972876995E+01  0.49790110672E+02  0.30283995532E+02  0.11009002625E+03  0.93130375713E+02 0.  0.
        -11    1    3    3    0    0 -0.45929262876E+02  0.21948043041E+02 -0.14055182920E+02  0.52808729852E+02  0.00000000000E+00 0.  1.
         11    1    3    3    0    0  0.18522732027E+02 -0.49295824149E+02 -0.29643112155E+02  0.60430819774E+02  0.00000000000E+00 0. -1.
        -13    1    4    4    0    0 -0.12075621386E+01  0.77151057662E+02  0.16555421476E+02  0.78916575477E+02  0.00000000000E+00 0.  1.
         13    1    4    4    0    0 -0.58897255609E+01 -0.27360946990E+02  0.13728574056E+02  0.31173450771E+02  0.00000000000E+00 0. -1.
          1    1    1    2  501    0  0.34503818549E+02 -0.22442329564E+02  0.59761781366E+01  0.41591902527E+02  0.00000000000E+00 0. -1.
<scales pt_clust_5="13000.00000" pt_clust_6="13000.00000" pt_clust_7="13000.00000" pt_clust_8="13000.00000" pt_clust_9="13000.00000"></scales>
<clustering>
<clus scale="   93.130">  7  8 -1 -1</clus>
<clus scale="   41.160">  7  9 -1 -1</clus>
<clus scale="   97.029">  5  6 -1 -1</clus>
<clus scale="  104.468">  1  5  2 -1</clus>
<clus scale="  147.284">  2  5  1 -1</clus>
</clustering>
</event>
<event>
 9    1  0.3303741E-006  0.2705277E+03  0.7546771E-02  0.1132807E+00
         -3   -1    0    0    0  501 -0.00000000000E+00  0.00000000000E+00  0.23598239745E+03  0.23598239745E+03  0.00000000000E+00 0.  1.
         21   -1    0    0  501  502  0.00000000000E+00 -0.00000000000E+00 -0.25957442579E+03  0.25957442579E+03  0.00000000000E+00 0.  1.
         23    2    1    2    0    0  0.36338418600E+02 -0.71681692495E+02  0.13529405517E+03  0.18182124968E+03  0.91080951715E+02 0.  0.
         23    2    1    2    0    0  0.45443283538E+02  0.12874135996E+02  0.25152835837E+02  0.10393352557E+03  0.89099254710E+02 0.  0.
        -11    1    4    4    0    0  0.18764565126E+02  0.17599820767E+02 -0.31776698880E+02  0.40885464252E+02  0.00000000000E+00 0.  1.
         11    1    4    4    0    0  0.26678718412E+02 -0.47256847704E+01  0.56929534716E+02  0.63048061315E+02  0.00000000000E+00 0. -1.
        -11    1    3    3    0    0  0.52104460920E+01 -0.31053458438E+02  0.12590813787E+03  0.12978568954E+03  0.00000000000E+00 0. -1.
         11    1    3    3    0    0  0.31127972508E+02 -0.40628234057E+02  0.93859173049E+01  0.52035560136E+02  0.00000000000E+00 0.  1.
         -3    1    1    2    0  502 -0.81781702138E+02  0.58807556499E+02 -0.18403891935E+03  0.20980204799E+03  0.00000000000E+00 0.  1.
<scales pt_clust_5="13000.00000" pt_clust_6="13000.00000" pt_clust_7="13000.00000" pt_clust_8="13000.00000" pt_clust_9="13000.00000"></scales>
<clustering>
<clus scale="   89.099">  5  6 -1 -1</clus>
<clus scale="   91.081">  7  8 -1 -1</clus>
<clus scale="  100.730">  5  9 -1 -1</clus>
<clus scale="  121.468">  1  7  2 -1</clus>
<clus scale="  270.528">  2  5  1 -1</clus>
</clustering>
</event>
<event>
 9    1  0.3303741E-006  0.1859287E+03  0.7546771E-02  0.1192884E+00
         21   -1    0    0  501  502  0.00000000000E+00  0.00000000000E+00  0.24678004249E+03  0.24678004249E+03  0.00000000000E+00 0.  1.
         -2   -1    0    0    0  501 -0.00000000000E+00 -0.00000000000E+00 -0.10955455605E+03  0.10955455605E+03  0.00000000000E+00 0.  1.
         23    2    1    2    0    0 -0.12498766623E+02  0.50924085887E+01 -0.38390322271E+02  0.10058006158E+03  0.91980324805E+02 0.  0.
         23    2    1    2    0    0  0.76562966800E+02  0.85378484649E+01  0.10679704124E+03  0.16074912444E+03  0.92194849372E+02 0.  0.
        -11    1    4    4    0    0  0.79703428718E+00 -0.27135831846E+02  0.28974666382E+01  0.27301720578E+02  0.00000000000E+00 0. -1.
         11    1    4    4    0    0  0.75765932512E+02  0.35673680311E+02  0.10389957460E+03  0.13344740387E+03  0.00000000000E+00 0.  1.
        -13    1    3    3    0    0 -0.46130374138E+02 -0.59973101302E+01  0.23774941946E+01  0.46579304691E+02  0.00000000000E+00 0.  1.
         13    1    3    3    0    0  0.33631607514E+02  0.11089718719E+02 -0.40767816466E+02  0.54000756890E+02  0.00000000000E+00 0. -1.
         -2    1    1    2    0  502 -0.64064200176E+02 -0.13630257054E+02  0.68818767470E+02  0.95005412518E+02  0.00000000000E+00 0.  1.
<scales pt_clust_5="13000.00000" pt_clust_6="13000.00000" pt_clust_7="13000.00000" pt_clust_8="13000.00000" pt_clust_9="13000.00000"></scales>
<clustering>
<clus scale="   91.980">  7  8 -1 -1</clus>
<clus scale="   92.195">  5  6 -1 -1</clus>
<clus scale="   65.498">  5  9 -1 -1</clus>
<clus scale="   92.965">  2  7  1 -1</clus>
<clus scale="  185.929">  1  5  2 -1</clus>
</clustering>
</event>
<event>
 9    1  0.3303741E-006  0.2246903E+03  0.7546771E-02  0.1165243E+00
         21   -1    0    0  501  502  0.00000000000E+00  0.00000000000E+00  0.42584859741E+03  0.42584859741E+03  0.00000000000E+00 0. -1.
          1   -1    0    0  502    0 -0.00000000000E+00 -0.00000000000E+00 -0.62766197163E+02  0.62766197163E+02  0.00000000000E+00 0. -1.
         23    2    1    2    0    0  0.18660921189E+02 -0.31990859398E+02  0.76478788946E+02  0.12443439947E+03  0.90902527734E+02 0.  0.
         23    2    1    2    0    0 -0.94711074865E+02 -0.17450188044E+02  0.18664235582E+03  0.22919781977E+03  0.91769138801E+02 0.  0.
        -11    1    3    3    0    0 -0.23573873270E+02  0.16269377530E+02  0.44118943924E+02  0.52601343701E+02  0.00000000000E+00 0. -1.
         11    1    3    3    0    0  0.42234794459E+02 -0.48260236929E+02  0.32359845022E+02  0.71833055770E+02  0.00000000000E+00 0.  1.
        -13    1    4    4    0    0 -0.21486633311E+02  0.22895776973E+02  0.86812304950E+01  0.32576920928E+02  0.00000000000E+00 0.  1.
         13    1    4    4    0    0 -0.73224441554E+02 -0.40345965017E+02  0.17796112533E+03  0.19662089884E+03  0.00000000000E+00 0. -1.
          1    1    1    2  501    0  0.76050153675E+02  0.49441047442E+02  0.99961255479E+02  0.13498257533E+03  0.00000000000E+00 0. -1.
<scales pt_clust_5="13000.00000" pt_clust_6="13000.00000" pt_clust_7="13000.00000" pt_clust_8="13000.00000" pt_clust_9="13000.00000"></scales>
<clustering>
<clus scale="   90.903">  5  6 -1 -1</clus>
<clus scale="   91.769">  7  8 -1 -1</clus>
<clus scale="   90.709">  7  9 -1 -1</clus>
<clus scale="   98.158">  2  5  1 -1</clus>
<clus scale="  224.690">  1  5  2 -1</clus>
</clustering>
</event>
<event>
 9    1  0.3303741E-006  0.1815209E+03  0.7546771E-02  0.1178711E+00
          1   -1    0    0  502    0 -0.00000000000E+00  0.00000000000E+00  0.17465009971E+03  0.17465009971E+03  0.00000000000E+00 0. -1.
         21   -1    0    0  501  502  0.00000000000E+00 -0.00000000000E+00 -0.14762021620E+03  0.14762021620E+03  0.00000000000E+00 0.  1.
         23    2    1    2    0    0  0.18745342388E+02 -0.73042940937E+02  0.32163779247E+02  0.14067686754E+03  0.11431891044E+03 0.  0.
         23    2    1    2    0    0 -0.18514178640E+02  0.33539987006E+02 -0.58671678566E+02  0.11505901371E+03  0.91260644480E+02 0.  0.
        -11    1    3    3    0    0  0.47858478602E+02 -0.69040933182E+02 -0.14776904849E+02  0.85296197721E+02  0.00000000000E+00 0.  1.
         11    1    3    3    0    0 -0.29113136214E+02 -0.40020077549E+01  0.46940684096E+02  0.55380669820E+02  0.00000000000E+00 0. -1.
        -13    1    4    4    0    0 -0.47622567522E+02  0.22814198211E+02 -0.49667066889E+01  0.53038332861E+02  0.00000000000E+00 0. -1.
         13    1    4    4    0    0  0.29108388881E+02  0.10725788795E+02 -0.53704971877E+02  0.62020680848E+02  0.00000000000E+00 0.  1.
          1    1    1    2  501    0 -0.23116374777E+00  0.39502953931E+02  0.53537782826E+02  0.66534434663E+02  0.00000000000E+00 0. -1.
<scales pt_clust_5="13000.00000" pt_clust_6="13000.00000" pt_clust_7="13000.00000" pt_clust_8="13000.00000" pt_clust_9="13000.00000"></scales>
<clustering>
<clus scale="   91.261">  7  8 -1 -1</clus>
<clus scale="   39.504">  7  9 -1 -1</clus>
<clus scale="  114.319">  5  6 -1 -1</clus>
<clus scale="  136.951">  1  5  2 -1</clus>
<clus scale="  181.521">  2  5  1 -1</clus>
</clustering>
</event>
<event>
 9    1  0.3303741E-006  0.4006577E+03  0.7546771E-02  0.1083863E+00
         -3   -1    0    0    0  501 -0.00000000000E+00  0.00000000000E+00  0.32667314695E+03  0.32667314695E+03  0.00000000000E+00 0.  1.
         21   -1    0    0  501  502  0.00000000000E+00 -0.00000000000E+00 -0.24507472036E+03  0.24507472036E+03  0.00000000000E+00 0. -1.
         23    2    1    2    0    0 -0.42918831095E+02  0.84123905013E+02 -0.63950607392E+02  0.14547195857E+03  0.90297027007E+02 0.  0.
         23    2    1    2    0    0  0.43094621180E+02  0.50576853465E+02  0.23808661672E+03  0.26285152422E+03  0.89389721140E+02 0.  0.
        -11    1    4    4    0    0 -0.26652984971E+02  0.14883275219E+02  0.94103837527E+02  0.98931419309E+02  0.00000000000E+00 0. -1.
         11    1    4    4    0    0  0.69747606152E+02  0.35693578246E+02  0.14398277919E+03  0.16392010491E+03  0.00000000000E+00 0.  1.
        -13    1    3    3    0    0  0.24411081297E+02  0.44885645296E+02 -0.14254291218E+02  0.53045328370E+02  0.00000000000E+00 0.  1.
         13    1    3    3    0    0 -0.67329912392E+02  0.39238259717E+02 -0.49696316175E+02  0.92426630198E+02  0.00000000000E+00 0. -1.
         -3    1    1    2    0  502 -0.17579008521E+00 -0.13470075848E+03 -0.92537582740E+02  0.16342438452E+03  0.00000000000E+00 0.  1.
<scales pt_clust_5="13000.00000" pt_clust_6="13000.00000" pt_clust_7="13000.00000" pt_clust_8="13000.00000" pt_clust_9="13000.00000"></scales>
<clustering>
<clus scale="   89.390">  5  6 -1 -1</clus>
<clus scale="   90.297">  7  8 -1 -1</clus>
<clus scale="  130.662">  1  7  2 -1</clus>
<clus scale="  124.394">  5  9 -1 -1</clus>
<clus scale="  400.658">  2  5  1 -1</clus>
</clustering>
</event>
<event>
 9    1  0.4367098E-006  0.2997837E+03  0.7546771E-02  0.1105362E+00
         21   -1    0    0  501  502  0.00000000000E+00  0.00000000000E+00  0.31376269796E+03  0.31376269796E+03  0.00000000000E+00 0. -1.
         -1   -1    0    0    0  501 -0.00000000000E+00 -0.00000000000E+00 -0.31392818545E+03  0.31392818545E+03  0.00000000000E+00 0.  1.
         23    2    1    2    0    0 -0.97116070224E+02  0.11493501677E+03  0.19983584503E+03  0.26731494921E+03  0.94240797626E+02 0.  0.
         23    2    1    2    0    0  0.38981026889E+02 -0.19206988812E+01 -0.20839780396E+03  0.23300866979E+03  0.96644637504E+02 0.  0.
        -11    1    4    4    0    0  0.90074212088E+01  0.46424752221E+02 -0.90883226988E+02  0.10245073061E+03  0.00000000000E+00 0.  1.
         11    1    4    4    0    0  0.29973605680E+02 -0.48345451102E+02 -0.11751457698E+03  0.13055793917E+03  0.00000000000E+00 0. -1.
        -13    1    3    3    0    0 -0.86289890908E+02  0.35647177292E+02  0.13593219796E+03  0.16490672808E+03  0.00000000000E+00 0. -1.
         13    1    3    3    0    0 -0.10826179316E+02  0.79287839476E+02  0.63903647068E+02  0.10240822113E+03  0.00000000000E+00 0.  1.
         -1    1    1    2    0  502  0.58135043335E+02 -0.11301431789E+03  0.83964714447E+01  0.12736726441E+03  0.00000000000E+00 0.  1.
<scales pt_clust_5="13000.00000" pt_clust_6="13000.00000" pt_clust_7="13000.00000" pt_clust_8="13000.00000" pt_clust_9="13000.00000"></scales>
<clustering>
<clus scale="   94.241">  7  8 -1 -1</clus>
<clus scale="   96.645">  5  6 -1 -1</clus>
<clus scale="  127.090">  5  9 -1 -1</clus>
<clus scale="  177.547">  2  7  1 -1</clus>
<clus scale="  299.784">  1  5  2 -1</clus>
</clustering>
</event>
<event>
 9    1  0.3303741E-006  0.4792481E+03  0.7546771E-02  0.1076917E+00
          3   -1    0    0  502    0 -0.00000000000E+00  0.00000000000E+00  0.11140983156E+03  0.11140983156E+03  0.00000000000E+00 0. -1.
         21   -1    0    0  501  502  0.00000000000E+00 -0.00000000000E+00 -0.10177728008E+04  0.10177728008E+04  0.00000000000E+00 0. -1.
         23    2    1    2    0    0  0.16566329965E+02 -0.81222093664E+01  0.12463834115E+02  0.92880835401E+02  0.90172550427E+02 0.  0.
         23    2    1    2    0    0  0.66125595081E+02 -0.11950350731E+03 -0.77016100883E+02  0.18086533712E+03  0.90150473064E+02 0.  0.
        -11    1    3    3    0    0  0.45037163658E+02  0.19847964767E+02  0.18373097982E+02  0.52534355856E+02  0.00000000000E+00 0. -1.
         11    1    3    3    0    0 -0.28470833693E+02 -0.27970174134E+02 -0.59092638676E+01  0.40346479545E+02  0.00000000000E+00 0.  1.
        -13    1    4    4    0    0  0.89583680747E+01 -0.68057748531E+02 -0.78061846569E+02  0.10395076423E+03  0.00000000000E+00 0.  1.
         13    1    4    4    0    0  0.57167227006E+02 -0.51445758777E+02  0.10457456858E+01  0.76914572896E+02  0.00000000000E+00 0. -1.
          3    1    1    2  501    0 -0.82691925046E+02  0.12762571667E+03 -0.84181070249E+03  0.85543645986E+03  0.00000000000E+00 0. -1.
<scales pt_clust_5="13000.00000" pt_clust_6="13000.00000" pt_clust_7="13000.00000" pt_clust_8="13000.00000" pt_clust_9="13000.00000"></scales>
<clustering>
<clus scale="   90.150">  7  8 -1 -1</clus>
<clus scale="   90.173">  5  6 -1 -1</clus>
<clus scale="   92.041">  1  5  2 -1</clus>
<clus scale="  150.242">  7  9 -1 -1</clus>
<clus scale="  479.248">  2  5  1 -1</clus>
</clustering>
</event>
<event>
 9    1  0.3303741E-006  0.2789115E+03  0.7546771E-02  0.1102430E+00
          2   -1    0    0  502    0 -0.00000000000E+00  0.00000000000E+00  0.78061358655E+03  0.78061358655E+03  0.00000000000E+00 0. -1.
         21   -1    0    0  501  502  0.00000000000E+00 -0.00000000000E+00 -0.91239247538E+02  0.91239247538E+02  0.00000000000E+00 0. -1.
         23    2    1    2    0    0 -0.16733496163E+03  0.14290301589E+03  0.20989946459E+03  0.31715670830E+03  0.90046271710E+02 0.  0.
         23    2    1    2    0    0  0.11435495522E+03 -0.16442934296E+03  0.35533960206E+03  0.41802195237E+03  0.91444274065E+02 0.  0.
        -13    1    3    3    0    0 -0.16323391043E+03  0.11881459578E+03  0.14718822040E+03  0.24985313668E+03  0.00000000000E+00 0. -1.
         13    1    3    3    0    0 -0.41010511994E+01  0.24088420107E+02  0.62711244192E+02  0.67303571616E+02  0.00000000000E+00 0.  1.
        -13    1    4    4    0    0  0.12751223852E+03 -0.12482724419E+03  0.28855223102E+03  0.33926921742E+03  0.00000000000E+00 0.  1.
         13    1    4    4    0    0 -0.13157283297E+02 -0.39602098775E+02  0.66787371040E+02  0.78752734947E+02  0.00000000000E+00 0. -1.
          2    1    1    2  501    0  0.52980006407E+02  0.21526327076E+02  0.12413527236E+03  0.13667417342E+03  0.00000000000E+00 0. -1.
<scales pt_clust_5="13000.00000" pt_clust_6="13000.00000" pt_clust_7="13000.00000" pt_clust_8="13000.00000" pt_clust_9="13000.00000"></scales>
<clustering>
<clus scale="   90.046">  5  6 -1 -1</clus>
<clus scale="   91.444">  7  8 -1 -1</clus>
<clus scale="   57.186">  7  9 -1 -1</clus>
<clus scale="  237.762">  1  5  2 -1</clus>
<clus scale="  278.912">  2  5  1 -1</clus>
</clustering>
</event>
<event>
 9    1  0.3303741E-006  0.2553027E+03  0.7546771E-02  0.1141418E+00
         21   -1    0    0  501  502  0.00000000000E+00  0.00000000000E+00  0.30835833211E+03  0.30835833211E+03  0.00000000000E+00 0. -1.
          1   -1    0    0  502    0 -0.00000000000E+00 -0.00000000000E+00 -0.11853367475E+03  0.11853367475E+03  0.00000000000E+00 0. -1.
         23    2    1    2    0    0  0.66653231159E+02 -0.14282169251E+02  0.16810179480E+02  0.11848728004E+03  0.95446423793E+02 0.  0.
         23    2    1    2    0    0 -0.24361587555E+01 -0.29041467867E+02 -0.15607406230E+02  0.10449546984E+03  0.99128050330E+02 0.  0.
        -11    1    3    3    0    0  0.27799929601E+02 -0.12334138059E+01  0.55524750719E+02  0.62107610950E+02  0.00000000000E+00 0.  1.
         11    1    3    3    0    0  0.38853301558E+02 -0.13048755445E+02 -0.38714571239E+02  0.56379669091E+02  0.00000000000E+00 0. -1.
        -13    1    4    4    0    0  0.29868581241E+02 -0.54134609721E+02 -0.39151955534E+01  0.61951730171E+02  0.00000000000E+00 0. -1.
         13    1    4    4    0    0 -0.32304739997E+02  0.25093141854E+02 -0.11692210676E+02  0.42543739667E+02  0.00000000000E+00 0.  1.
          1    1    1    2  501    0 -0.64217072403E+02  0.43323637118E+02  0.18862188410E+03  0.20390925698E+03  0.00000000000E+00 0. -1.
<scales pt_clust_5="13000.00000" pt_clust_6="13000.00000" pt_clust_7="13000.00000" pt_clust_8="13000.00000" pt_clust_9="13000.00000"></scales>
<clustering>
<clus scale="   95.446">  5  6 -1 -1</clus>
<clus scale="   99.128">  7  8 -1 -1</clus>
<clus scale="   77.465">  7  9 -1 -1</clus>
<clus scale="  117.289">  2  5  1 -1</clus>
<clus scale="  255.303">  1  5  2 -1</clus>
</clustering>
</event>
<event>
 9    1  0.3303741E-006  0.1439038E+03  0.7546771E-02  0.1220880E+00
         -1   -1    0    0    0  501 -0.00000000000E+00  0.00000000000E+00  0.43015214285E+03  0.43015214285E+03  0.00000000000E+00 0.  1.
         21   -1    0    0  501  502  0.00000000000E+00 -0.00000000000E+00 -0.37719959217E+02  0.37719959217E+02  0.00000000000E+00 0. -1.
         23    2    1    2    0    0 -0.49128267080E+01 -0.34136043962E+01  0.18991050815E+03  0.21943031517E+03  0.10976280586E+03 0.  0.
         23    2    1    2    0    0 -0.84118870887E+01  0.40055407855E+02  0.11781742842E+03  0.15519491441E+03  0.92354314870E+02 0.  0.
        -11    1    3    3    0    0  0.51358525119E+02 -0.12653544267E+02  0.92576029689E+02  0.10662144042E+03  0.00000000000E+00 0.  1.
         11    1    3    3    0    0 -0.56271351827E+02  0.92399398712E+01  0.97334478462E+02  0.11280887475E+03  0.00000000000E+00 0. -1.
        -13    1    4    4    0    0 -0.24323925123E+02  0.63965082339E+02  0.10072475426E+03  0.12177299049E+03  0.00000000000E+00 0.  1.
         13    1    4    4    0    0  0.15912038034E+02 -0.23909674484E+02  0.17092674161E+02  0.33421923917E+02  0.00000000000E+00 0. -1.
         -1    1    1    2    0  502  0.13324713797E+02 -0.36641803459E+02  0.84704247060E+02  0.93246872487E+02  0.00000000000E+00 0.  1.
<scales pt_clust_5="13000.00000" pt_clust_6="13000.00000" pt_clust_7="13000.00000" pt_clust_8="13000.00000" pt_clust_9="13000.00000"></scales>
<clustering>
<clus scale="   92.354">  7  8 -1 -1</clus>
<clus scale="   38.989">  7  9 -1 -1</clus>
<clus scale="  109.763">  5  6 -1 -1</clus>
<clus scale="  109.926">  1  5  2 -1</clus>
<clus scale="  143.904">  2  5  1 -1</clus>
</clustering>
</event>
<event>
 9    1  0.3303741E-006  0.2475095E+03  0.7546771E-02  0.1129538E+00
         21   -1    0    0  501  502  0.00000000000E+00  0.00000000000E+00  0.91939004182E+02  0.91939004182E+02  0.00000000000E+00 0. -1.
          2   -1    0    0  502    0 -0.00000000000E+00 -0.00000000000E+00 -0.48856111782E+03  0.48856111782E+03  0.00000000000E+00 0. -1.
         23    2    1    2    0    0 -0.11945115661E+03  0.80143364276E+02 -0.20492450796E+03  0.26743632967E+03  0.94003185102E+02 0.  0.
         23    2    1    2    0    0 -0.11256397898E+02 -0.31337554345E+02 -0.12467068962E+03  0.15827658562E+03  0.91651229659E+02 0.  0.
        -11    1    4    4    0    0  0.10808643525E+02 -0.56487448031E+02 -0.49061078007E+02  0.75595290429E+02  0.00000000000E+00 0.  1.
         11    1    4    4    0    0 -0.22065041422E+02  0.25149893686E+02 -0.75609611618E+02  0.82681295190E+02  0.00000000000E+00 0. -1.
        -13    1    3    3    0    0 -0.48546545769E+02 -0.10424559006E+02 -0.10044092355E+03  0.11204382027E+03  0.00000000000E+00 0.  1.
         13    1    3    3    0    0 -0.70904610839E+02  0.90567923282E+02 -0.10448358442E+03  0.15539250940E+03  0.00000000000E+00 0. -1.
          2    1    1    2  501    0  0.13070755451E+03 -0.48805809931E+02 -0.67026916054E+02  0.15478720672E+03  0.00000000000E+00 0. -1.
<scales pt_clust_5="13000.00000" pt_clust_6="13000.00000" pt_clust_7="13000.00000" pt_clust_8="13000.00000" pt_clust_9="13000.00000"></scales>
<clustering>
<clus scale="   91.651">  5  6 -1 -1</clus>
<clus scale="   94.003">  7  8 -1 -1</clus>
<clus scale="  139.522">  5  9 -1 -1</clus>
<clus scale="  171.838">  2  7  1 -1</clus>
<clus scale="  247.510">  1  5  2 -1</clus>
</clustering>
</event>
<event>
 9    1  0.3303741E-006  0.2569159E+03  0.7546771E-02  0.1124306E+00
          1   -1    0    0  502    0 -0.00000000000E+00  0.00000000000E+00  0.93181153378E+03  0.93181153378E+03  0.00000000000E+00 0. -1.
         21   -1    0    0  501  502  0.00000000000E+00 -0.00000000000E+00 -0.84524040568E+02  0.84524040568E+02  0.00000000000E+00 0. -1.
         23    2    1    2    0    0  0.12043779915E+03  0.90505348249E+02  0.69721017078E+03  0.71879740198E+03  0.88719791100E+02 0.  0.
         23    2    1    2    0    0  0.32209967497E+01 -0.98614410530E+00  0.10480800769E+03  0.13830721881E+03  0.90182154542E+02 0.  0.
        -11    1    4    4    0    0  0.23744004080E+02 -0.16919332019E+02 -0.11817014214E+01  0.29179409589E+02  0.00000000000E+00 0.  1.
         11    1    4    4    0    0 -0.20523007330E+02  0.15933187914E+02  0.10598970911E+03  0.10912780922E+03  0.00000000000E+00 0. -1.
        -13    1    3    3    0    0  0.23772831159E+02 -0.17096568877E+02  0.14727582798E+03  0.15015861505E+03  0.00000000000E+00 0.  1.
         13    1    3    3    0    0  0.96664967987E+02  0.10760191713E+03  0.54993434280E+03  0.56863878693E+03  0.00000000000E+00 0. -1.
          1    1    1    2  501    0 -0.12365879590E+03 -0.89519204144E+02  0.45269314738E+02  0.15923095355E+03  0.00000000000E+00 0. -1.
<scales pt_clust_5="13000.00000" pt_clust_6="13000.00000" pt_clust_7="13000.00000" pt_clust_8="13000.00000" pt_clust_9="13000.00000"></scales>
<clustering>
<clus scale="   88.720">  7  8 -1 -1</clus>
<clus scale="   90.182">  5  6 -1 -1</clus>
<clus scale="  152.660">  5  9 -1 -1</clus>
<clus scale="  174.836">  1  7  2 -1</clus>
<clus scale="  256.916">  2  5  1 -1</clus>
</clustering>
</event>
<event>
 9    1  0.3303741E-006  0.5538421E+03  0.7546771E-02  0.1046222E+00
         21   -1    0    0  501  502  0.00000000000E+00  0.00000000000E+00  0.51590637976E+03  0.51590637976E+03  0.00000000000E+00 0. -1.
          2   -1    0    0  502    0 -0.00000000000E+00 -0.00000000000E+00 -0.30980140628E+03  0.30980140628E+03  0.00000000000E+00 0. -1.
         23    2    1    2    0    0 -0.97823336958E+02  0.40533421916E+02 -0.11849064802E+03  0.18375501778E+03  0.92268680203E+02 0.  0.
         23    2    1    2    0    0  0.44803025168E+02  0.23014942795E+03  0.57965153076E+02  0.25832252263E+03  0.91621484807E+02 0.  0.
        -11    1    3    3    0    0 -0.31610444161E+02 -0.27396686124E+02 -0.57020178504E+02  0.70718451250E+02  0.00000000000E+00 0.  1.
         11    1    3    3    0    0 -0.66212892797E+02  0.67930108040E+02 -0.61470469516E+02  0.11303656653E+03  0.00000000000E+00 0. -1.
        -13    1    4    4    0    0 -0.21800555981E+02  0.89865444279E+02  0.43992375775E+02  0.10240308317E+03  0.00000000000E+00 0.  1.
         13    1    4    4    0    0  0.66603581150E+02  0.14028398367E+03  0.13972777301E+02  0.15591943946E+03  0.00000000000E+00 0. -1.
          2    1    1    2  501    0  0.53020311790E+02 -0.27068284986E+03  0.26663046842E+03  0.38363024563E+03  0.00000000000E+00 0. -1.
<scales pt_clust_5="13000.00000" pt_clust_6="13000.00000" pt_clust_7="13000.00000" pt_clust_8="13000.00000" pt_clust_9="13000.00000"></scales>
<clustering>
<clus scale="   91.621">  7  8 -1 -1</clus>
<clus scale="   92.269">  5  6 -1 -1</clus>
<clus scale="  140.449">  2  5  1 -1</clus>
<clus scale="  256.301">  7  9 -1 -1</clus>
<clus scale="  553.842">  1  5  2 -1</clus>
</clustering>
</event>
<event>
 9    1  0.3303741E-006  0.2547183E+03  0.7546771E-02  0.1143551E+00
         21   -1    0    0  501  502  0.00000000000E+00  0.00000000000E+00  0.30670669246E+03  0.30670669246E+03  0.00000000000E+00 0.  1.
          1   -1    0    0  502    0 -0.00000000000E+00 -0.00000000000E+00 -0.11196623348E+03  0.11196623348E+03  0.00000000000E+00 0. -1.
         23    2    1    2    0    0 -0.54034422802E+02  0.35399020174E+02  0.33039784403E+02  0.11696356036E+03  0.91738964580E+02 0.  0.
         23    2    1    2    0    0  0.10182223946E+03  0.16576815053E+01  0.18986633902E+03  0.23499970200E+03  0.93835584352E+02 0.  0.
        -11    1    4    4    0    0  0.10768363034E+02  0.21828656830E+02  0.99838481453E+00  0.24360719892E+02  0.00000000000E+00 0. -1.
         11    1    4    4    0    0  0.91053876428E+02 -0.20170975324E+02  0.18886795421E+03  0.21063898211E+03  0.00000000000E+00 0.  1.
        -13    1    3    3    0    0 -0.44533119813E+02  0.10689106766E+02 -0.25712471895E+02  0.52522252187E+02  0.00000000000E+00 0. -1.
         13    1    3    3    0    0 -0.95013029884E+01  0.24709913407E+02  0.58752256299E+02  0.64441308175E+02  0.00000000000E+00 0.  1.
          1    1    1    2  501    0 -0.47787816660E+02 -0.37056701679E+02 -0.28165664449E+02  0.66709663575E+02  0.00000000000E+00 0. -1.
<scales pt_clust_5="13000.00000" pt_clust_6="13000.00000" pt_clust_7="13000.00000" pt_clust_8="13000.00000" pt_clust_9="13000.00000"></scales>
<clustering>
<clus scale="   91.739">  7  8 -1 -1</clus>
<clus scale="   93.836">  5  6 -1 -1</clus>
<clus scale="   60.472">  5  9 -1 -1</clus>
<clus scale="  112.200">  2  7  1 -1</clus>
<clus scale="  254.718">  1  5  2 -1</clus>
</clustering>
</event>
<event>
 9    1  0.3303741E-006  0.2217122E+03  0.7546771E-02  0.1161031E+00
         -1   -1    0    0    0  501 -0.00000000000E+00  0.00000000000E+00  0.30745833173E+03  0.30745833173E+03  0.00000000000E+00 0.  1.
         21   -1    0    0  501  502  0.00000000000E+00 -0.00000000000E+00 -0.12415781785E+03  0.12415781785E+03  0.00000000000E+00 0.  1.
         23    2    1    2    0    0  0.34995806937E+02 -0.54993587093E+02  0.17702198080E+03  0.20981504962E+03  0.91850815109E+02 0.  0.
         23    2    1    2    0    0 -0.38953001373E+02 -0.38158782233E+02  0.45330828987E+02  0.12071645664E+03  0.97694164969E+02 0.  0.
        -11    1    4    4    0    0  0.25002168305E+01  0.29534676586E+02  0.25002853590E+02  0.38777453409E+02  0.00000000000E+00 0.  1.
         11    1    4    4    0    0 -0.41453218204E+02 -0.67693458819E+02  0.20327975397E+02  0.81939003229E+02  0.00000000000E+00 0. -1.
        -11    1    3    3    0    0  0.50252105508E+02 -0.69055857171E+02  0.16510915271E+03  0.18588980022E+03  0.00000000000E+00 0.  1.
         11    1    3    3    0    0 -0.15256298570E+02  0.14062270078E+02  0.11912828096E+02  0.23925249404E+02  0.00000000000E+00 0. -1.
         -1    1    1    2    0  502  0.39571944360E+01  0.93152369326E+02 -0.39052295905E+02  0.10108464332E+03  0.00000000000E+00 0.  1.
<scales pt_clust_5="13000.00000" pt_clust_6="13000.00000" pt_clust_7="13000.00000" pt_clust_8="13000.00000" pt_clust_9="13000.00000"></scales>
<clustering>
<clus scale="   91.851">  7  8 -1 -1</clus>
<clus scale="   97.694">  5  6 -1 -1</clus>
<clus scale="   93.236">  5  9 -1 -1</clus>
<clus scale="  112.630">  1  7  2 -1</clus>
<clus scale="  221.712">  2  5  1 -1</clus>
</clustering>
</event>
<event>
 9    1  0.3303741E-006  0.2690601E+03  0.7546771E-02  0.1142027E+00
         21   -1    0    0  501  502  0.00000000000E+00  0.00000000000E+00  0.27501171213E+03  0.27501171213E+03  0.00000000000E+00 0.  1.
          1   -1    0    0  502    0 -0.00000000000E+00 -0.00000000000E+00 -0.12543962501E+03  0.12543962501E+03  0.00000000000E+00 0. -1.
         23    2    1    2    0    0 -0.29204488947E+02  0.19558740973E+02  0.15902319891E+02  0.10001676820E+03  0.92276885626E+02 0.  0.
         23    2    1    2    0    0  0.62176183733E+02 -0.56674406144E+02  0.18866578250E+03  0.22634498158E+03  0.92517063643E+02 0.  0.
        -13    1    3    3    0    0 -0.28214952583E+02 -0.32943962445E+02 -0.46554302192E+01  0.43624090150E+02  0.00000000000E+00 0. -1.
         13    1    3    3    0    0 -0.98953636399E+00  0.52502703418E+02  0.20557750111E+02  0.56392678053E+02  0.00000000000E+00 0.  1.
        -13    1    4    4    0    0 -0.15177735065E+02 -0.43590862944E+02  0.60904225333E+02  0.76418921985E+02  0.00000000000E+00 0. -1.
         13    1    4    4    0    0  0.77353918799E+02 -0.13083543200E+02  0.12776155717E+03  0.14992605959E+03  0.00000000000E+00 0.  1.
          1    1    1    2  501    0 -0.32971694786E+02  0.37115665171E+02 -0.54996015272E+02  0.74089587352E+02  0.00000000000E+00 0. -1.
<scales pt_clust_5="13000.00000" pt_clust_6="13000.00000" pt_clust_7="13000.00000" pt_clust_8="13000.00000" pt_clust_9="13000.00000"></scales>
<clustering>
<clus scale="   92.277">  5  6 -1 -1</clus>
<clus scale="   92.517">  7  8 -1 -1</clus>
<clus scale="   49.646">  7  9 -1 -1</clus>
<clus scale="   98.744">  2  5  1 -1</clus>
<clus scale="  269.060">  1  5  2 -1</clus>
</clustering>
</event>
<event>
 9    1  0.3303741E-006  0.4834457E+03  0.7546771E-02  0.1054049E+00
          1   -1    0    0  502    0 -0.00000000000E+00  0.00000000000E+00  0.65440506608E+03  0.65440506608E+03  0.00000000000E+00 0. -1.
         21   -1    0    0  501  502  0.00000000000E+00 -0.00000000000E+00 -0.16259148272E+03  0.16259148272E+03  0.00000000000E+00 0. -1.
         23    2    1    2    0    0 -0.12809071599E+03  0.62096585777E+02  0.12475091072E+03  0.20999180141E+03  0.90942561258E+02 0.  0.
         23    2    1    2    0    0 -0.44293297484E+02 -0.10301734048E+03  0.40119258784E+03  0.42657302240E+03  0.91839981826E+02 0.  0.
        -11    1    4    4    0    0 -0.69708084946E+02 -0.88235782062E+02  0.27714396080E+03  0.29908785557E+03  0.00000000000E+00 0.  1.
         11    1    4    4    0    0  0.25414787462E+02 -0.14781558416E+02  0.12404862704E+03  0.12748516683E+03  0.00000000000E+00 0. -1.
        -11    1    3    3    0    0 -0.68122840811E+02  0.11616220288E+02  0.11048593781E+03  0.13031807422E+03  0.00000000000E+00 0. -1.
         11    1    3    3    0    0 -0.59967875181E+02  0.50480365489E+02  0.14264972908E+02  0.79673727198E+02  0.00000000000E+00 0.  1.
          1    1    1    2  501    0  0.17238401348E+03  0.40920754701E+02 -0.34129915207E+02  0.18043172498E+03  0.00000000000E+00 0. -1.
<scales pt_clust_5="13000.00000" pt_clust_6="13000.00000" pt_clust_7="13000.00000" pt_clust_8="13000.00000" pt_clust_9="13000.00000"></scales>
<clustering>
<clus scale="   90.943">  7  8 -1 -1</clus>
<clus scale="   91.840">  5  6 -1 -1</clus>
<clus scale="  168.919">  1  7  2 -1</clus>
<clus scale="  161.178">  5  9 -1 -1</clus>
<clus scale="  483.446">  2  5  1 -1</clus>
</clustering>
</event>
<event>
 9    1  0.3303741E-006  0.2618413E+03  0.7546771E-02  0.1134554E+00
          3   -1    0    0  502    0 -0.00000000000E+00  0.00000000000E+00  0.18052111459E+03  0.18052111459E+03  0.00000000000E+00 0. -1.
         21   -1    0    0  501  502  0.00000000000E+00 -0.00000000000E+00 -0.30234863645E+03  0.30234863645E+03  0.00000000000E+00 0. -1.
         23    2    1    2    0    0 -0.22036907436E+02  0.88528527338E+02  0.80884363288E+02  0.15173081057E+03  0.90316295372E+02 0.  0.
         23    2    1    2    0    0 -0.84091660124E+01  0.48972680542E+02 -0.74297384772E+02  0.14055082578E+03  0.10846840890E+03 0.  0.
        -11    1    3    3    0    0 -0.26985876689E+02  0.47807126533E+02  0.93834894496E+02  0.10871405757E+03  0.00000000000E+00 0. -1.
         11    1    3    3    0    0  0.49489692533E+01  0.40721400805E+02 -0.12950531208E+02  0.43016753001E+02  0.00000000000E+00 0.  1.
        -11    1    4    4    0    0  0.48467203976E+02  0.27284918397E+02 -0.50719865786E+02  0.75273112188E+02  0.00000000000E+00 0.  1.
         11    1    4    4    0    0 -0.56876369988E+02  0.21687762145E+02 -0.23577518985E+02  0.65277713589E+02  0.00000000000E+00 0. -1.
          3    1    1    2  501    0  0.30446073448E+02 -0.13750120788E+03 -0.12841450037E+03  0.19058811469E+03  0.00000000000E+00 0. -1.
<scales pt_clust_5="13000.00000" pt_clust_6="13000.00000" pt_clust_7="13000.00000" pt_clust_8="13000.00000" pt_clust_9="13000.00000"></scales>
<clustering>
<clus scale="   90.316">  5  6 -1 -1</clus>
<clus scale="  108.468">  7  8 -1 -1</clus>
<clus scale="  128.374">  1  5  2 -1</clus>
<clus scale="   96.688">  7  9 -1 -1</clus>
<clus scale="  261.841">  2  5  1 -1</clus>
</clustering>
</event>
<event>
 9    1  0.3303741E-006  0.2743514E+03  0.7546771E-02  0.1134276E+00
         21   -1    0    0  501  502  0.00000000000E+00  0.00000000000E+00  0.12128919579E+03  0.12128919579E+03  0.00000000000E+00 0.  1.
         -4   -1    0    0    0  501 -0.00000000000E+00 -0.00000000000E+00 -0.34177808693E+03  0.34177808693E+03  0.00000000000E+00 0.  1.
         23    2    1    2    0    0 -0.51156548554E+02 -0.34154442888E+02 -0.13513775277E+03  0.17574598934E+03  0.94026177821E+02 0.  0.
         23    2    1    2    0    0 -0.84228382073E+02  0.26762345811E+02 -0.86707797722E+02  0.15172791941E+03  0.87706760533E+02 0.  0.
        -13    1    4    4    0    0 -0.69381048807E+02  0.44313473589E+02 -0.96409146916E+02  0.12677593417E+03  0.00000000000E+00 0.  1.
         13    1    4    4    0    0 -0.14847333266E+02 -0.17551127778E+02  0.97013491945E+01  0.24951985243E+02  0.00000000000E+00 0. -1.
        -13    1    3    3    0    0 -0.54992057338E+02 -0.60076928196E+02 -0.12131582016E+03  0.14611944392E+03  0.00000000000E+00 0.  1.
         13    1    3    3    0    0  0.38355087845E+01  0.25922485307E+02 -0.13821932615E+02  0.29626545417E+02  0.00000000000E+00 0. -1.
         -4    1    1    2    0  502  0.13538493063E+03  0.73920970769E+01  0.13566593480E+01  0.13559337397E+03  0.00000000000E+00 0.  1.
<scales pt_clust_5="13000.00000" pt_clust_6="13000.00000" pt_clust_7="13000.00000" pt_clust_8="13000.00000" pt_clust_9="13000.00000"></scales>
<clustering>
<clus scale="   87.707">  5  6 -1 -1</clus>
<clus scale="   94.026">  7  8 -1 -1</clus>
<clus scale="  112.359">  2  7  1 -1</clus>
<clus scale="  117.061">  5  9 -1 -1</clus>
<clus scale="  274.351">  1  5  2 -1</clus>
</clustering>
</event>
<event>
 9    1  0.3303741E-006  0.1272054E+03  0.7546771E-02  0.1244845E+00
         21   -1    0    0  501  502  0.00000000000E+00  0.00000000000E+00  0.58803590239E+02  0.58803590239E+02  0.00000000000E+00 0. -1.
          1   -1    0    0  502    0 -0.00000000000E+00 -0.00000000000E+00 -0.23842719442E+03  0.23842719442E+03  0.00000000000E+00 0. -1.
         23    2    1    2    0    0  0.18632107960E+02 -0.28248797637E+02 -0.32042793548E+02  0.10239417520E+03  0.91173880477E+02 0.  0.
         23    2    1    2    0    0  0.10595469507E+02  0.13562196582E+02 -0.11268476268E+03  0.14700689383E+03  0.92827657202E+02 0.  0.
        -13    1    4    4    0    0 -0.22243822579E+02 -0.25449794895E+02 -0.15349001034E+02  0.37122385913E+02  0.00000000000E+00 0.  1.
         13    1    4    4    0    0  0.32839292086E+02  0.39011991478E+02 -0.97335761648E+02  0.10988450791E+03  0.00000000000E+00 0. -1.
        -13    1    3    3    0    0  0.14617878860E+02 -0.59867022027E+02 -0.73230048266E+01  0.62059399839E+02  0.00000000000E+00 0. -1.
         13    1    3    3    0    0  0.40142291000E+01  0.31618224390E+02 -0.24719788721E+02  0.40334775359E+02  0.00000000000E+00 0.  1.
          1    1    1    2  501    0 -0.29227577467E+02  0.14686601055E+02 -0.34896047954E+02  0.47829715637E+02  0.00000000000E+00 0. -1.
<scales pt_clust_5="13000.00000" pt_clust_6="13000.00000" pt_clust_7="13000.00000" pt_clust_8="13000.00000" pt_clust_9="13000.00000"></scales>
<clustering>
<clus scale="   91.174">  7  8 -1 -1</clus>
<clus scale="   92.828">  5  6 -1 -1</clus>
<clus scale="   32.710">  5  9 -1 -1</clus>
<clus scale="   97.251">  2  7  1 -1</clus>
<clus scale="  127.205">  1  5  2 -1</clus>
</clustering>
</event>
<event>
 9    1  0.3303741E-006  0.2271226E+03  0.7546771E-02  0.1159108E+00
         21   -1    0    0  501  502  0.00000000000E+00  0.00000000000E+00  0.45385739010E+02  0.45385739010E+02  0.00000000000E+00 0. -1.
          2   -1    0    0  502    0 -0.00000000000E+00 -0.00000000000E+00 -0.65145039840E+03  0.65145039840E+03  0.00000000000E+00 0. -1.
         23    2    1    2    0    0 -0.56785901104E+02  0.24074064905E+02 -0.13492601468E+03  0.17381002234E+03  0.90557690260E+02 0.  0.
         23    2    1    2    0    0 -0.41990442956E+02 -0.64785051814E+02 -0.23857838113E+03  0.26709951075E+03  0.91990241111E+02 0.  0.
        -11    1    3    3    0    0  0.23020628180E+02 -0.65202430730E+01 -0.33641369448E+02  0.41282013394E+02  0.00000000000E+00 0.  1.
         11    1    3    3    0    0 -0.79806529284E+02  0.30594307978E+02 -0.10128464523E+03  0.13252800895E+03  0.00000000000E+00 0. -1.
        -13    1    4    4    0    0  0.11317581100E+02 -0.50257591670E+02 -0.54876814782E+02  0.75268705071E+02  0.00000000000E+00 0.  1.
         13    1    4    4    0    0 -0.53308024056E+02 -0.14527460144E+02 -0.18370156635E+03  0.19183080568E+03  0.00000000000E+00 0. -1.
          2    1    1    2  501    0  0.98776344060E+02  0.40710986909E+02 -0.23256026358E+03  0.25592660431E+03  0.00000000000E+00 0. -1.
<scales pt_clust_5="13000.00000" pt_clust_6="13000.00000" pt_clust_7="13000.00000" pt_clust_8="13000.00000" pt_clust_9="13000.00000"></scales>
<clustering>
<clus scale="   90.558">  5  6 -1 -1</clus>
<clus scale="   91.990">  7  8 -1 -1</clus>
<clus scale="  106.837">  7  9 -1 -1</clus>
<clus scale="  109.567">  2  5  1 -1</clus>
<clus scale="  227.123">  1  5  2 -1</clus>
</clustering>
</event>
<event>
 9    1  0.3303741E-006  0.1368732E+03  0.7546771E-02  0.1234184E+00
         21   -1    0    0  501  502  0.00000000000E+00  0.00000000000E+00  0.32332990020E+02  0.32332990020E+02  0.00000000000E+00 0. -1.
         -1   -1    0    0    0  501 -0.00000000000E+00 -0.00000000000E+00 -0.42874783381E+03  0.42874783381E+03  0.00000000000E+00 0.  1.
         23    2    1    2    0    0  0.33223628764E+02 -0.12213626270E+02 -0.19171662716E+03  0.21483778660E+03  0.90260884372E+02 0.  0.
         23    2    1    2    0    0 -0.54855540398E+02 -0.72247824948E+01 -0.15609750935E+03  0.18960541647E+03  0.92317136748E+02 0.  0.
        -11    1    4    4    0    0 -0.11351098693E+02  0.26343768893E+02 -0.12111387402E+03  0.12446450129E+03  0.00000000000E+00 0.  1.
         11    1    4    4    0    0 -0.43504441705E+02 -0.33568551388E+02 -0.34983635327E+02  0.65140915184E+02  0.00000000000E+00 0. -1.
        -13    1    3    3    0    0  0.36982495420E+02  0.18990831958E+02 -0.17370893388E+03  0.17861453014E+03  0.00000000000E+00 0.  1.
         13    1    3    3    0    0 -0.37588666563E+01 -0.31204458228E+02 -0.18007693283E+02  0.36223256469E+02  0.00000000000E+00 0. -1.
         -1    1    1    2    0  502  0.21631911634E+02  0.19438408765E+02 -0.48600707280E+02  0.56637620751E+02  0.00000000000E+00 0.  1.
<scales pt_clust_5="13000.00000" pt_clust_6="13000.00000" pt_clust_7="13000.00000" pt_clust_8="13000.00000" pt_clust_9="13000.00000"></scales>
<clustering>
<clus scale="   90.261">  7  8 -1 -1</clus>
<clus scale="   92.317">  5  6 -1 -1</clus>
<clus scale="   29.083">  5  9 -1 -1</clus>
<clus scale="   96.954">  2  7  1 -1</clus>
<clus scale="  136.873">  1  5  2 -1</clus>
</clustering>
</event>
<event>
 9    1  0.3303741E-006  0.1579315E+03  0.7546771E-02  0.1211168E+00
         21   -1    0    0  501  502  0.00000000000E+00  0.00000000000E+00  0.36031637478E+03  0.36031637478E+03  0.00000000000E+00 0.  1.
          2   -1    0    0  502    0 -0.00000000000E+00 -0.00000000000E+00 -0.50892884072E+02  0.50892884072E+02  0.00000000000E+00 0. -1.
         23    2    1    2    0    0  0.24276668337E+02  0.37336711353E+02  0.67867731519E+02  0.12260653671E+03  0.91885511497E+02 0.  0.
         23    2    1    2    0    0  0.39616525117E+01  0.10082929503E+02  0.10120257640E+03  0.13778813059E+03  0.92877593127E+02 0.  0.
        -11    1    3    3    0    0 -0.27805367752E+02  0.11111765384E+02  0.55403326804E+02  0.62977285006E+02  0.00000000000E+00 0.  1.
         11    1    3    3    0    0  0.52082036089E+02  0.26224945969E+02  0.12464404715E+02  0.59629251707E+02  0.00000000000E+00 0. -1.
        -11    1    4    4    0    0  0.25567836227E+02 -0.34711316688E+02  0.55213065887E+02  0.70050498929E+02  0.00000000000E+00 0. -1.
         11    1    4    4    0    0 -0.21606183715E+02  0.44794246190E+02  0.45989510508E+02  0.67737631663E+02  0.00000000000E+00 0.  1.
          2    1    1    2  501    0 -0.28238320849E+02 -0.47419640856E+02  0.14035318280E+03  0.15081459155E+03  0.00000000000E+00 0. -1.
<scales pt_clust_5="13000.00000" pt_clust_6="13000.00000" pt_clust_7="13000.00000" pt_clust_8="13000.00000" pt_clust_9="13000.00000"></scales>
<clustering>
<clus scale="   91.886">  5  6 -1 -1</clus>
<clus scale="   92.878">  7  8 -1 -1</clus>
<clus scale="   55.191">  7  9 -1 -1</clus>
<clus scale="  102.109">  2  5  1 -1</clus>
<clus scale="  157.931">  1  5  2 -1</clus>
</clustering>
</event>
<event>
 9    1  0.3303741E-006  0.2150295E+03  0.7546771E-02  0.1162405E+00
         21   -1    0    0  501  502  0.00000000000E+00  0.00000000000E+00  0.46263366839E+02  0.46263366839E+02  0.00000000000E+00 0. -1.
          1   -1    0    0  502    0 -0.00000000000E+00 -0.00000000000E+00 -0.75348786333E+03  0.75348786333E+03  0.00000000000E+00 0. -1.
         23    2    1    2    0    0  0.23770946601E+02  0.74139409796E+02 -0.44420293343E+03  0.46001891472E+03  0.90771393307E+02 0.  0.
         23    2    1    2    0    0  0.75381110039E+01  0.11940125487E+02 -0.22046082921E+03  0.23873053552E+03  0.90498075445E+02 0.  0.
        -13    1    4    4    0    0  0.28336326869E+02  0.22673084731E+02 -0.20996898863E+03  0.21308212590E+03  0.00000000000E+00 0. -1.
         13    1    4    4    0    0 -0.20798215865E+02 -0.10732959244E+02 -0.10491840582E+02  0.25648409622E+02  0.00000000000E+00 0.  1.
        -13    1    3    3    0    0  0.34455068978E+02 -0.62362229590E+01 -0.88135781864E+02  0.94836481903E+02  0.00000000000E+00 0.  1.
         13    1    3    3    0    0 -0.10684122376E+02  0.80375632755E+02 -0.35606715157E+03  0.36518243282E+03  0.00000000000E+00 0. -1.
          1    1    1    2  501    0 -0.31309057605E+02 -0.86079535283E+02 -0.42560733844E+02  0.10100177992E+03  0.00000000000E+00 0. -1.
<scales pt_clust_5="13000.00000" pt_clust_6="13000.00000" pt_clust_7="13000.00000" pt_clust_8="13000.00000" pt_clust_9="13000.00000"></scales>
<clustering>
<clus scale="   90.498">  5  6 -1 -1</clus>
<clus scale="   90.771">  7  8 -1 -1</clus>
<clus scale="   91.597">  5  9 -1 -1</clus>
<clus scale="  119.587">  2  7  1 -1</clus>
<clus scale="  215.030">  1  5  2 -1</clus>
</clustering>
</event>
<event>
 9    1  0.3303741E-006  0.4867404E+03  0.7546771E-02  0.1033953E+00
         21   -1    0    0  501  502  0.00000000000E+00  0.00000000000E+00  0.11342850149E+03  0.11342850149E+03  0.00000000000E+00 0. -1.
          3   -1    0    0  502    0 -0.00000000000E+00 -0.00000000000E+00 -0.13531690738E+04  0.13531690738E+04  0.00000000000E+00 0. -1.
         23    2    1    2    0    0 -0.22176075486E+02  0.28112188884E+03 -0.50741952265E+03  0.58727379170E+03  0.88851785283E+02 0.  0.
         23    2    1    2    0    0  0.14812701617E+03 -0.70168804242E+02 -0.52530528942E+03  0.55804451513E+03  0.92751063438E+02 0.  0.
        -11    1    3    3    0    0 -0.49294292156E+02  0.11267461195E+03 -0.24727206083E+03  0.27616836800E+03  0.00000000000E+00 0. -1.
         11    1    3    3    0    0  0.27118216670E+02  0.16844727688E+03 -0.26014746182E+03  0.31110542370E+03  0.00000000000E+00 0.  1.
        -13    1    4    4    0    0  0.12805823335E+02  0.19050388505E+02 -0.37010911735E+02  0.43551280130E+02  0.00000000000E+00 0. -1.
         13    1    4    4    0    0  0.13532119283E+03 -0.89219192747E+02 -0.48829437768E+03  0.51449323500E+03  0.00000000000E+00 0.  1.
          3    1    1    2  501    0 -0.12595094068E+03 -0.21095308459E+03 -0.20701576029E+03  0.32127926849E+03  0.00000000000E+00 0. -1.
<scales pt_clust_5="13000.00000" pt_clust_6="13000.00000" pt_clust_7="13000.00000" pt_clust_8="13000.00000" pt_clust_9="13000.00000"></scales>
<clustering>
<clus scale="   88.852">  5  6 -1 -1</clus>
<clus scale="   92.751">  7  8 -1 -1</clus>
<clus scale="  245.693">  7  9 -1 -1</clus>
<clus scale="  295.662">  2  5  1 -1</clus>
<clus scale="  486.740">  1  5  2 -1</clus>
</clustering>
</event>
<event>
 9    1  0.3303741E-006  0.1884509E+03  0.7546771E-02  0.1173932E+00
          1   -1    0    0  502    0 -0.00000000000E+00  0.00000000000E+00  0.72505457964E+03  0.72505457964E+03  0.00000000000E+00 0. -1.
         21   -1    0    0  501  502  0.00000000000E+00 -0.00000000000E+00 -0.38710115072E+02  0.38710115072E+02  0.00000000000E+00 0.  1.
         23    2    1    2    0    0 -0.70587151385E+02 -0.66289693737E+02  0.38404723005E+03  0.40753816227E+03  0.96011506395E+02 0.  0.
         23    2    1    2    0    0  0.54041254685E+02 -0.12262496943E+02  0.19502446919E+03  0.22224272917E+03  0.91030000809E+02 0.  0.
        -13    1    4    4    0    0  0.54638715547E+02 -0.39735810579E+02  0.83633670343E+02  0.10751239321E+03  0.00000000000E+00 0.  1.
         13    1    4    4    0    0 -0.59746086245E+00  0.27473313637E+02  0.11139079884E+03  0.11473033596E+03  0.00000000000E+00 0. -1.
        -13    1    3    3    0    0  0.21017165827E+02  0.28520027121E+01  0.49516671939E+02  0.53867949458E+02  0.00000000000E+00 0. -1.
         13    1    3    3    0    0 -0.91604317212E+02 -0.69141696449E+02  0.33453055811E+03  0.35367021281E+03  0.00000000000E+00 0.  1.
          1    1    1    2  501    0  0.16545896700E+02  0.78552190680E+02  0.10727276534E+03  0.13398380328E+03  0.00000000000E+00 0. -1.
<scales pt_clust_5="13000.00000" pt_clust_6="13000.00000" pt_clust_7="13000.00000" pt_clust_8="13000.00000" pt_clust_9="13000.00000"></scales>
<clustering>
<clus scale="   91.030">  5  6 -1 -1</clus>
<clus scale="   80.276">  5  9 -1 -1</clus>
<clus scale="   96.012">  7  8 -1 -1</clus>
<clus scale="  136.364">  1  7  2 -1</clus>
<clus scale="  188.451">  2  5  1 -1</clus>
</clustering>
</event>
<event>
 9    1  0.3303741E-006  0.1472687E+03  0.7546771E-02  0.1221270E+00
         21   -1    0    0  501  502  0.00000000000E+00  0.00000000000E+00  0.36737896793E+02  0.36737896793E+02  0.00000000000E+00 0. -1.
         -1   -1    0    0    0  501 -0.00000000000E+00 -0.00000000000E+00 -0.42950509733E+03  0.42950509733E+03  0.00000000000E+00 0.  1.
         23    2    1    2    0    0 -0.19054464886E+02 -0.45015228172E+02 -0.19160722357E+03  0.21693715254E+03  0.89212984641E+02 0.  0.
         23    2    1    2    0    0  0.50289048487E+02  0.44482868139E+02 -0.13735652181E+03  0.17826526508E+03  0.91673205979E+02 0.  0.
        -11    1    4    4    0    0  0.47285030719E+02  0.15357988943E+01 -0.16721247391E+02  0.50178012342E+02  0.00000000000E+00 0. -1.
         11    1    4    4    0    0  0.30040177681E+01  0.42947069245E+02 -0.12063527442E+03  0.12808725274E+03  0.00000000000E+00 0.  1.
        -13    1    3    3    0    0 -0.48270412190E+02 -0.14646132613E+02 -0.58127647866E+02  0.76963402601E+02  0.00000000000E+00 0.  1.
         13    1    3    3    0    0  0.29215947304E+02 -0.30369095559E+02 -0.13347957570E+03  0.13997374994E+03  0.00000000000E+00 0. -1.
         -1    1    1    2    0  502 -0.31234583601E+02  0.53236003330E+00 -0.63803455157E+02  0.71040576503E+02  0.00000000000E+00 0.  1.
<scales pt_clust_5="13000.00000" pt_clust_6="13000.00000" pt_clust_7="13000.00000" pt_clust_8="13000.00000" pt_clust_9="13000.00000"></scales>
<clustering>
<clus scale="   89.213">  7  8 -1 -1</clus>
<clus scale="   91.673">  5  6 -1 -1</clus>
<clus scale="   31.239">  5  9 -1 -1</clus>
<clus scale="  101.727">  2  7  1 -1</clus>
<clus scale="  147.269">  1  5  2 -1</clus>
</clustering>
</event>
<event>
 9    1  0.3303741E-006  0.2829648E+03  0.7546771E-02  0.1097091E+00
         -4   -1    0    0    0  501 -0.00000000000E+00  0.00000000000E+00  0.54005052342E+03  0.54005052342E+03  0.00000000000E+00 0.  1.
         21   -1    0    0  501  502  0.00000000000E+00 -0.00000000000E+00 -0.17249471906E+03  0.17249471906E+03  0.00000000000E+00 0.  1.
         23    2    1    2    0    0  0.20068643210E+03  0.14111498504E+03  0.17074345226E+02  0.26209395989E+03  0.90626858673E+02 0.  0.
         23    2    1    2    0    0 -0.10635021012E+03 -0.60179139374E+02  0.23717826672E+03  0.28226226004E+03  0.92122512086E+02 0.  0.
        -11    1    3    3    0    0  0.17351166475E+03  0.95320939817E+02  0.43430289065E+02  0.20267848771E+03  0.00000000000E+00 0.  1.
         11    1    3    3    0    0  0.27174767350E+02  0.45794045228E+02 -0.26355943839E+02  0.59415472182E+02  0.00000000000E+00 0. -1.
        -13    1    4    4    0    0 -0.36500881765E+02  0.23943474000E+02  0.64922485149E+02  0.78233837914E+02  0.00000000000E+00 0.  1.
         13    1    4    4    0    0 -0.69849328357E+02 -0.84122613375E+02  0.17225578157E+03  0.20402842213E+03  0.00000000000E+00 0. -1.
         -4    1    1    2    0  502 -0.94336221980E+02 -0.80935845670E+02  0.11330319242E+03  0.16818902254E+03  0.00000000000E+00 0.  1.
<scales pt_clust_5="13000.00000" pt_clust_6="13000.00000" pt_clust_7="13000.00000" pt_clust_8="13000.00000" pt_clust_9="13000.00000"></scales>
<clustering>
<clus scale="   90.627">  5  6 -1 -1</clus>
<clus scale="   92.123">  7  8 -1 -1</clus>
<clus scale="  124.298">  7  9 -1 -1</clus>
<clus scale="  261.537">  1  5  2 -1</clus>
<clus scale="  282.965">  2  5  1 -1</clus>
</clustering>
</event>
<event>
 9    1  0.3303741E-006  0.3544791E+03  0.7546771E-02  0.1069134E+00
         -1   -1    0    0    0  501 -0.00000000000E+00  0.00000000000E+00  0.28232768140E+03  0.28232768140E+03  0.00000000000E+00 0.  1.
         21   -1    0    0  501  502  0.00000000000E+00 -0.00000000000E+00 -0.70224214751E+03  0.70224214751E+03  0.00000000000E+00 0.  1.
         23    2    1    2    0    0  0.26443742651E+03 -0.19778388475E+02  0.14590458765E+03  0.31688227917E+03  0.93850375415E+02 0.  0.
         23    2    1    2    0    0 -0.13367019586E+03  0.97048109528E+02 -0.21818432531E+03  0.28831888627E+03  0.90759702179E+02 0.  0.
        -11    1    3    3    0    0  0.15938753097E+03  0.13365455875E+02  0.12890212807E+03  0.20542341410E+03  0.00000000000E+00 0.  1.
         11    1    3    3    0    0  0.10504989553E+03 -0.33143844350E+02  0.17002459579E+02  0.11145886506E+03  0.00000000000E+00 0. -1.
        -13    1    4    4    0    0 -0.91960163744E+02  0.89110034574E+02 -0.20863824176E+03  0.24480029800E+03  0.00000000000E+00 0.  1.
         13    1    4    4    0    0 -0.41710032121E+02  0.79380749536E+01 -0.95460835594E+01  0.43518588268E+02  0.00000000000E+00 0. -1.
         -1    1    1    2    0  502 -0.13076723064E+03 -0.77269721053E+02 -0.34763472845E+03  0.37936866347E+03  0.00000000000E+00 0.  1.
<scales pt_clust_5="13000.00000" pt_clust_6="13000.00000" pt_clust_7="13000.00000" pt_clust_8="13000.00000" pt_clust_9="13000.00000"></scales>
<clustering>
<clus scale="   90.760">  7  8 -1 -1</clus>
<clus scale="   93.850">  5  6 -1 -1</clus>
<clus scale="  151.890">  7  9 -1 -1</clus>
<clus scale="  281.294">  1  5  2 -1</clus>
<clus scale="  354.479">  2  5  1 -1</clus>
</clustering>
</event>
<event>
 9    1  0.3303741E-006  0.4086669E+03  0.7546771E-02  0.1081719E+00
          2   -1    0    0  502    0 -0.00000000000E+00  0.00000000000E+00  0.41227221359E+03  0.41227221359E+03  0.00000000000E+00 0. -1.
         21   -1    0    0  501  502  0.00000000000E+00 -0.00000000000E+00 -0.24696541240E+03  0.24696541240E+03  0.00000000000E+00 0. -1.
         23    2    1    2    0    0 -0.67867964021E+02 -0.60922593747E+02 -0.10655337980E+03  0.16840506854E+03  0.93214920452E+02 0.  0.
         23    2    1    2    0    0  0.21167575615E+03  0.10520604473E+03  0.20593952569E+03  0.32655462861E+03  0.91388728154E+02 0.  0.
        -11    1    4    4    0    0  0.23637938887E+02  0.49243897535E+02  0.65461709156E+02  0.85258131371E+02  0.00000000000E+00 0.  1.
         11    1    4    4    0    0  0.18803781727E+03  0.55962147196E+02  0.14047781654E+03  0.24129649724E+03  0.00000000000E+00 0. -1.
        -13    1    3    3    0    0 -0.85470744300E+01 -0.64965749945E+02 -0.79660814003E+02  0.10314769234E+03  0.00000000000E+00 0. -1.
         13    1    3    3    0    0 -0.59320889591E+02  0.40431561987E+01 -0.26892565800E+02  0.65257376205E+02  0.00000000000E+00 0.  1.
          2    1    1    2  501    0 -0.14380779213E+03 -0.44283450985E+02  0.65920655299E+02  0.16427792884E+03  0.00000000000E+00 0. -1.
<scales pt_clust_5="13000.00000" pt_clust_6="13000.00000" pt_clust_7="13000.00000" pt_clust_8="13000.00000" pt_clust_9="13000.00000"></scales>
<clustering>
<clus scale="   91.389">  5  6 -1 -1</clus>
<clus scale="   93.215">  7  8 -1 -1</clus>
<clus scale="  130.410">  1  7  2 -1</clus>
<clus scale="  175.840">  5  9 -1 -1</clus>
<clus scale="  408.667">  2  5  1 -1</clus>
</clustering>
</event>
<event>
 9    1  0.3303741E-006  0.1265950E+03  0.7546771E-02  0.1242765E+00
         21   -1    0    0  501  502  0.00000000000E+00  0.00000000000E+00  0.96521491434E+02  0.96521491434E+02  0.00000000000E+00 0.  1.
         -4   -1    0    0    0  501 -0.00000000000E+00 -0.00000000000E+00 -0.20760715262E+03  0.20760715262E+03  0.00000000000E+00 0.  1.
         23    2    1    2    0    0 -0.37735080173E+02 -0.16021144247E+02 -0.14051361826E+03  0.17415823547E+03  0.94373729018E+02 0.  0.
         23    2    1    2    0    0  0.98020963080E+01  0.48358037747E+01  0.35188825147E+02  0.99334628355E+02  0.92247758157E+02 0.  0.
        -11    1    3    3    0    0 -0.25610028459E+02  0.24952942271E+02 -0.12280330467E+03  0.12790298872E+03  0.00000000000E+00 0. -1.
         11    1    3    3    0    0 -0.12125051714E+02 -0.40974086518E+02 -0.17710313591E+02  0.46255246757E+02  0.00000000000E+00 0.  1.
        -11    1    4    4    0    0  0.18939834700E+02 -0.41330820800E+02  0.21702866348E+02  0.50378254180E+02  0.00000000000E+00 0.  1.
         11    1    4    4    0    0 -0.91377383922E+01  0.46166624575E+02  0.13485958799E+02  0.48956374175E+02  0.00000000000E+00 0. -1.
         -4    1    1    2    0  502  0.27932983865E+02  0.11185340473E+02 -0.57608680757E+01  0.30635780227E+02  0.00000000000E+00 0.  1.
<scales pt_clust_5="13000.00000" pt_clust_6="13000.00000" pt_clust_7="13000.00000" pt_clust_8="13000.00000" pt_clust_9="13000.00000"></scales>
<clustering>
<clus scale="   92.248">  7  8 -1 -1</clus>
<clus scale="   30.089">  7  9 -1 -1</clus>
<clus scale="   94.374">  5  6 -1 -1</clus>
<clus scale="  102.893">  2  5  1 -1</clus>
<clus scale="  126.595">  1  5  2 -1</clus>
</clustering>
</event>
<event>
 9    1  0.3303741E-006  0.1702762E+03  0.7546771E-02  0.1194506E+00
         21   -1    0    0  501  502  0.00000000000E+00  0.00000000000E+00  0.50619790738E+03  0.50619790738E+03  0.00000000000E+00 0. -1.
         -2   -1    0    0    0  501 -0.00000000000E+00 -0.00000000000E+00 -0.40840268020E+02  0.40840268020E+02  0.00000000000E+00 0. -1.
         23    2    1    2    0    0 -0.71883327189E+02 -0.12085188076E+02  0.17378960971E+03  0.20939057214E+03  0.91259622845E+02 0.  0.
         23    2    1    2    0    0  0.11441012519E+02  0.20674559035E+02  0.10643967245E+03  0.14271284664E+03  0.92082672453E+02 0.  0.
        -13    1    4    4    0    0  0.12976183778E+02  0.52912560019E+02  0.36193372534E+02  0.65407037607E+02  0.00000000000E+00 0.  1.
         13    1    4    4    0    0 -0.15351712585E+01 -0.32238000984E+02  0.70246299918E+02  0.77305809034E+02  0.00000000000E+00 0. -1.
        -13    1    3    3    0    0 -0.14260560838E+02 -0.39042117956E+02  0.27422247788E+02  0.49795885811E+02  0.00000000000E+00 0.  1.
         13    1    3    3    0    0 -0.57622766351E+02  0.26956929880E+02  0.14636736192E+03  0.15959468633E+03  0.00000000000E+00 0. -1.
         -2    1    1    2    0  502  0.60442314670E+02 -0.85893709589E+01  0.18512835720E+03  0.19493475661E+03  0.00000000000E+00 0. -1.
<scales pt_clust_5="13000.00000" pt_clust_6="13000.00000" pt_clust_7="13000.00000" pt_clust_8="13000.00000" pt_clust_9="13000.00000"></scales>
<clustering>
<clus scale="   91.260">  7  8 -1 -1</clus>
<clus scale="   92.083">  5  6 -1 -1</clus>
<clus scale="   61.050">  5  9 -1 -1</clus>
<clus scale="  116.797">  2  7  1 -1</clus>
<clus scale="  170.276">  1  5  2 -1</clus>
</clustering>
</event>
<event>
 9    1  0.3303741E-006  0.2378071E+03  0.7546771E-02  0.1144584E+00
          1   -1    0    0  502    0 -0.00000000000E+00  0.00000000000E+00  0.44506164061E+02  0.44506164061E+02  0.00000000000E+00 0. -1.
         21   -1    0    0  501  502  0.00000000000E+00 -0.00000000000E+00 -0.90725353635E+03  0.90725353635E+03  0.00000000000E+00 0. -1.
         23    2    1    2    0    0  0.33400295404E+02 -0.90684430215E+02 -0.15551851462E+03  0.20561972959E+03  0.93563984462E+02 0.  0.
         23    2    1    2    0    0 -0.44822907590E+02 -0.11602700801E+02 -0.16970716794E+03  0.19885329990E+03  0.92727538096E+02 0.  0.
        -11    1    3    3    0    0  0.29210494141E+02  0.10512930800E+02 -0.53546936666E+02  0.61895469206E+02  0.00000000000E+00 0.  1.
         11    1    3    3    0    0  0.41898012628E+01 -0.10119736101E+03 -0.10197157795E+03  0.14372426038E+03  0.00000000000E+00 0. -1.
        -13    1    4    4    0    0 -0.18258799629E+02  0.39692235585E+02 -0.53438133999E+02  0.69025296051E+02  0.00000000000E+00 0.  1.
         13    1    4    4    0    0 -0.26564107960E+02 -0.51294936386E+02 -0.11626903394E+03  0.12982800385E+03  0.00000000000E+00 0. -1.
          1    1    1    2  501    0  0.11422612186E+02  0.10228713102E+03 -0.53752168973E+03  0.54728667092E+03  0.00000000000E+00 0. -1.
<scales pt_clust_5="13000.00000" pt_clust_6="13000.00000" pt_clust_7="13000.00000" pt_clust_8="13000.00000" pt_clust_9="13000.00000"></scales>
<clustering>
<clus scale="   92.728">  7  8 -1 -1</clus>
<clus scale="   93.564">  5  6 -1 -1</clus>
<clus scale="  102.923">  7  9 -1 -1</clus>
<clus scale="  134.512">  1  5  2 -1</clus>
<clus scale="  237.807">  2  5  1 -1</clus>
</clustering>
</event>
<event>
 9    1  0.3303741E-006  0.3337038E+03  0.7546771E-02  0.1101459E+00
         -2   -1    0    0    0  501 -0.00000000000E+00  0.00000000000E+00  0.18751443917E+03  0.18751443917E+03  0.00000000000E+00 0.  1.
         21   -1    0    0  501  502  0.00000000000E+00 -0.00000000000E+00 -0.34107590468E+03  0.34107590468E+03  0.00000000000E+00 0.  1.
         23    2    1    2    0    0 -0.33224579520E+02  0.10457315920E+03 -0.13209444300E+03  0.19419673800E+03  0.90686343347E+02 0.  0.
         23    2    1    2    0    0 -0.91948606243E+02  0.36515632376E+01  0.66951996924E+02  0.14678006696E+03  0.92703495406E+02 0.  0.
        -11    1    3    3    0    0  0.73588863403E+01  0.90522517167E+02 -0.55651113189E+02  0.10651537786E+03  0.00000000000E+00 0.  1.
         11    1    3    3    0    0 -0.40583465860E+02  0.14050642029E+02 -0.76443329809E+02  0.87681360134E+02  0.00000000000E+00 0. -1.
        -11    1    4    4    0    0 -0.10320971069E+03  0.20738880957E+02  0.39278041718E+02  0.11236151532E+03  0.00000000000E+00 0.  1.
         11    1    4    4    0    0  0.11261104447E+02 -0.17087317719E+02  0.27673955206E+02  0.34418551640E+02  0.00000000000E+00 0. -1.
         -2    1    1    2    0  502  0.12517318576E+03 -0.10822472243E+03 -0.88419019437E+02  0.18761353890E+03  0.00000000000E+00 0.  1.
<scales pt_clust_5="13000.00000" pt_clust_6="13000.00000" pt_clust_7="13000.00000" pt_clust_8="13000.00000" pt_clust_9="13000.00000"></scales>
<clustering>
<clus scale="   90.686">  5  6 -1 -1</clus>
<clus scale="   92.703">  7  8 -1 -1</clus>
<clus scale="  142.350">  1  5  2 -1</clus>
<clus scale="  137.037">  7  9 -1 -1</clus>
<clus scale="  333.704">  2  5  1 -1</clus>
</clustering>
</event>
<event>
 9    1  0.3303741E-006  0.2147050E+03  0.7546771E-02  0.1145467E+00
         -1   -1    0    0    0  501 -0.00000000000E+00  0.00000000000E+00  0.24744544427E+03  0.24744544427E+03  0.00000000000E+00 0.  1.
         21   -1    0    0  501  502  0.00000000000E+00 -0.00000000000E+00 -0.21312055056E+03  0.21312055056E+03  0.00000000000E+00 0. -1.
         23    2    1    2    0    0  0.43177535894E+02 -0.14855329294E+03  0.13428444249E+03  0.22373242543E+03  0.89952800077E+02 0.  0.
         23    2    1    2    0    0  0.70146566735E+01  0.61077304454E+02 -0.29461111997E+02  0.11378344001E+03  0.91099240238E+02 0.  0.
        -11    1    4    4    0    0  0.15911870222E+02 -0.16762151739E+02 -0.26803790073E+02  0.35392096676E+02  0.00000000000E+00 0. -1.
         11    1    4    4    0    0 -0.88972135490E+01  0.77839456192E+02 -0.26573219240E+01  0.78391343330E+02  0.00000000000E+00 0.  1.
        -13    1    3    3    0    0  0.63499283891E+02 -0.66779144157E+02  0.51294277846E+02  0.10546428822E+03  0.00000000000E+00 0.  1.
         13    1    3    3    0    0 -0.20321747997E+02 -0.81774148783E+02  0.82990164649E+02  0.11826813721E+03  0.00000000000E+00 0. -1.
         -1    1    1    2    0  502 -0.50192192567E+02  0.87475988487E+02 -0.70498436780E+02  0.12305012940E+03  0.00000000000E+00 0.  1.
<scales pt_clust_5="13000.00000" pt_clust_6="13000.00000" pt_clust_7="13000.00000" pt_clust_8="13000.00000" pt_clust_9="13000.00000"></scales>
<clustering>
<clus scale="   89.953">  7  8 -1 -1</clus>
<clus scale="   91.099">  5  6 -1 -1</clus>
<clus scale="  100.853">  5  9 -1 -1</clus>
<clus scale="  178.952">  1  7  2 -1</clus>
<clus scale="  214.705">  2  5  1 -1</clus>
</clustering>
</event>
<event>
 9    1  0.3303741E-006  0.3275812E+03  0.7546771E-02  0.1100208E+00
          1   -1    0    0  502    0 -0.00000000000E+00  0.00000000000E+00  0.43429394732E+03  0.43429394732E+03  0.00000000000E+00 0. -1.
         21   -1    0    0  501  502  0.00000000000E+00 -0.00000000000E+00 -0.24949784250E+03  0.24949784250E+03  0.00000000000E+00 0. -1.
         23    2    1    2    0    0 -0.90355362468E+02 -0.89225761757E+02  0.29890476004E+03  0.33690534545E+03  0.89642780700E+02 0.  0.
         23    2    1    2    0    0 -0.61869920353E+02 -0.35593577316E+02  0.11218406192E+02  0.11352133030E+03  0.87558266346E+02 0.  0.
        -13    1    3    3    0    0 -0.87645607422E+02 -0.43878665858E+02  0.25717506760E+03  0.27522010322E+03  0.00000000000E+00 0. -1.
         13    1    3    3    0    0 -0.27097550464E+01 -0.45347095899E+02  0.41729692441E+02  0.61685242239E+02  0.00000000000E+00 0.  1.
        -13    1    4    4    0    0 -0.22338153153E+01 -0.21181049147E+02  0.40332697438E+02  0.45610889669E+02  0.00000000000E+00 0. -1.
         13    1    4    4    0    0 -0.59636105038E+02 -0.14412528170E+02 -0.29114291246E+02  0.67910440634E+02  0.00000000000E+00 0.  1.
          1    1    1    2  501    0  0.15222528282E+03  0.12481933907E+03 -0.12532706142E+03  0.23336511406E+03  0.00000000000E+00 0. -1.
<scales pt_clust_5="13000.00000" pt_clust_6="13000.00000" pt_clust_7="13000.00000" pt_clust_8="13000.00000" pt_clust_9="13000.00000"></scales>
<clustering>
<clus scale="   87.558">  7  8 -1 -1</clus>
<clus scale="   89.643">  5  6 -1 -1</clus>
<clus scale="  155.439">  1  5  2 -1</clus>
<clus scale="  138.277">  7  9 -1 -1</clus>
<clus scale="  327.581">  2  5  1 -1</clus>
</clustering>
</event>
<event>
 9    1  0.3303741E-006  0.2237841E+03  0.7546771E-02  0.1137009E+00
          1   -1    0    0  502    0 -0.00000000000E+00  0.00000000000E+00  0.54654238869E+03  0.54654238869E+03  0.00000000000E+00 0. -1.
         21   -1    0    0  501  502  0.00000000000E+00 -0.00000000000E+00 -0.88459893675E+02  0.88459893675E+02  0.00000000000E+00 0. -1.
         23    2    1    2    0    0  0.16957174520E+03 -0.20227043050E+02  0.11470315446E+03  0.22513805007E+03  0.91469218344E+02 0.  0.
         23    2    1    2    0    0 -0.11210526021E+03  0.44948408179E+01  0.29990137339E+03  0.33610629907E+03  0.10217053174E+03 0.  0.
        -11    1    4    4    0    0 -0.76005162493E+02  0.51623704080E+02  0.19528505742E+03  0.21581947364E+03  0.00000000000E+00 0.  1.
         11    1    4    4    0    0 -0.36100097714E+02 -0.47128863262E+02  0.10461631596E+03  0.12028682543E+03  0.00000000000E+00 0. -1.
        -13    1    3    3    0    0  0.41270550045E+02  0.54392395567E+01 -0.11668774118E+02  0.43231977949E+02  0.00000000000E+00 0.  1.
         13    1    3    3    0    0  0.12830119516E+03 -0.25666282606E+02  0.12637192858E+03  0.18190607212E+03  0.00000000000E+00 0. -1.
          1    1    1    2  501    0 -0.57466484994E+02  0.15732202232E+02  0.43477967171E+02  0.73757933227E+02  0.00000000000E+00 0. -1.
<scales pt_clust_5="13000.00000" pt_clust_6="13000.00000" pt_clust_7="13000.00000" pt_clust_8="13000.00000" pt_clust_9="13000.00000"></scales>
<clustering>
<clus scale="   91.469">  7  8 -1 -1</clus>
<clus scale="  102.171">  5  6 -1 -1</clus>
<clus scale="   59.581">  5  9 -1 -1</clus>
<clus scale="  193.728">  1  7  2 -1</clus>
<clus scale="  223.784">  2  5  1 -1</clus>
</clustering>
</event>
<event>
 9    1  0.3303741E-006  0.1837524E+03  0.7546771E-02  0.1188457E+00
         21   -1    0    0  501  502  0.00000000000E+00  0.00000000000E+00  0.31177758120E+02  0.31177758120E+02  0.00000000000E+00 0. -1.
          1   -1    0    0  502    0 -0.00000000000E+00 -0.00000000000E+00 -0.80101552339E+03  0.80101552339E+03  0.00000000000E+00 0. -1.
         23    2    1    2    0    0  0.46879847005E+02 -0.19691369186E+02 -0.13770147382E+03  0.17389150578E+03  0.93226014681E+02 0.  0.
         23    2    1    2    0    0 -0.72467094470E+02  0.59883997743E+02 -0.52857376335E+03  0.54430461854E+03  0.89664494024E+02 0.  0.
        -11    1    3    3    0    0  0.66209306225E+02 -0.11845904574E+02 -0.13745511105E+03  0.15302909932E+03  0.00000000000E+00 0.  1.
         11    1    3    3    0    0 -0.19329459220E+02 -0.78454646122E+01 -0.24636277887E+00  0.20862406461E+02  0.00000000000E+00 0. -1.
        -13    1    4    4    0    0 -0.89526476422E+02  0.37238465782E+02 -0.45986444269E+03  0.46997553018E+03  0.00000000000E+00 0. -1.
         13    1    4    4    0    0  0.17059381952E+02  0.22645531961E+02 -0.68709320657E+02  0.74329088354E+02  0.00000000000E+00 0.  1.
          1    1    1    2  501    0  0.25587247465E+02 -0.40192628557E+02 -0.10356252810E+03  0.11399715720E+03  0.00000000000E+00 0. -1.
<scales pt_clust_5="13000.00000" pt_clust_6="13000.00000" pt_clust_7="13000.00000" pt_clust_8="13000.00000" pt_clust_9="13000.00000"></scales>
<clustering>
<clus scale="   89.664">  7  8 -1 -1</clus>
<clus scale="   47.646">  7  9 -1 -1</clus>
<clus scale="   93.226">  5  6 -1 -1</clus>
<clus scale="  106.191">  2  5  1 -1</clus>
<clus scale="  183.752">  1  5  2 -1</clus>
</clustering>
</event>
<event>
 9    1  0.3303741E-006  0.2841640E+03  0.7546771E-02  0.1132033E+00
         21   -1    0    0  501  502  0.00000000000E+00  0.00000000000E+00  0.65006892419E+03  0.65006892419E+03  0.00000000000E+00 0. -1.
          2   -1    0    0  502    0 -0.00000000000E+00 -0.00000000000E+00 -0.66994699920E+02  0.66994699920E+02  0.00000000000E+00 0. -1.
         23    2    1    2    0    0  0.46786309140E+02 -0.32040612846E+02  0.61888567790E+02  0.12344448077E+03  0.90514006731E+02 0.  0.
         23    2    1    2    0    0  0.42374661772E+02 -0.77846703669E+02  0.15216053168E+03  0.19839206456E+03  0.91383054493E+02 0.  0.
        -11    1    3    3    0    0 -0.97594570250E+01  0.19190060538E+02  0.37675149207E+02  0.43392652519E+02  0.00000000000E+00 0.  1.
         11    1    3    3    0    0  0.56545766165E+02 -0.51230673383E+02  0.24213418582E+02  0.80051828249E+02  0.00000000000E+00 0. -1.
        -13    1    4    4    0    0 -0.82459406364E+00  0.19998926874E+02  0.29483005960E+02  0.35635441234E+02  0.00000000000E+00 0.  1.
         13    1    4    4    0    0  0.43199255835E+02 -0.97845630543E+02  0.12267752572E+03  0.16275662333E+03  0.00000000000E+00 0. -1.
          2    1    1    2  501    0 -0.89160970912E+02  0.10988731652E+03  0.36902512480E+03  0.39522707878E+03  0.00000000000E+00 0. -1.
<scales pt_clust_5="13000.00000" pt_clust_6="13000.00000" pt_clust_7="13000.00000" pt_clust_8="13000.00000" pt_clust_9="13000.00000"></scales>
<clustering>
<clus scale="   90.514">  5  6 -1 -1</clus>
<clus scale="   91.383">  7  8 -1 -1</clus>
<clus scale="  106.810">  2  5  1 -1</clus>
<clus scale="  121.985">  7  9 -1 -1</clus>
<clus scale="  284.164">  1  5  2 -1</clus>
</clustering>
</event>
<event>
 9    1  0.3303741E-006  0.3330202E+03  0.7546771E-02  0.1084983E+00
          1   -1    0    0  502    0 -0.00000000000E+00  0.00000000000E+00  0.60768967128E+03  0.60768967128E+03  0.00000000000E+00 0. -1.
         21   -1    0    0  501  502  0.00000000000E+00 -0.00000000000E+00 -0.12760912346E+03  0.12760912346E+03  0.00000000000E+00 0.  1.
         23    2    1    2    0    0  0.19915445834E+03  0.17195099044E+02  0.15404650206E+03  0.26925086698E+03  0.93848467589E+02 0.  0.
         23    2    1    2    0    0 -0.77440624180E+02  0.16944188582E+02  0.31857291111E+03  0.33941690109E+03  0.86203116255E+02 0.  0.
        -11    1    3    3    0    0  0.17667461184E+03  0.47107846449E+02  0.13485608573E+03  0.22719866092E+03  0.00000000000E+00 0. -1.
         11    1    3    3    0    0  0.22479846495E+02 -0.29912747406E+02  0.19190416326E+02  0.42052206060E+02  0.00000000000E+00 0.  1.
        -11    1    4    4    0    0  0.69509021797E+01  0.21629216164E+02  0.24385632961E+02  0.33328623252E+02  0.00000000000E+00 0.  1.
         11    1    4    4    0    0 -0.84391526360E+02 -0.46850275813E+01  0.29418727815E+03  0.30608827784E+03  0.00000000000E+00 0. -1.
          1    1    1    2  501    0 -0.12171383416E+03 -0.34139287626E+02  0.74611346430E+01  0.12663102667E+03  0.00000000000E+00 0. -1.
<scales pt_clust_5="13000.00000" pt_clust_6="13000.00000" pt_clust_7="13000.00000" pt_clust_8="13000.00000" pt_clust_9="13000.00000"></scales>
<clustering>
<clus scale="   86.203">  7  8 -1 -1</clus>
<clus scale="   93.848">  5  6 -1 -1</clus>
<clus scale="  126.411">  7  9 -1 -1</clus>
<clus scale="  220.830">  1  5  2 -1</clus>
<clus scale="  333.020">  2  5  1 -1</clus>
</clustering>
</event>
<event>
 9    1  0.3303741E-006  0.2203164E+03  0.7546771E-02  0.1160705E+00
         21   -1    0    0  501  502  0.00000000000E+00  0.00000000000E+00  0.39937137418E+03  0.39937137418E+03  0.00000000000E+00 0. -1.
          2   -1    0    0  502    0 -0.00000000000E+00 -0.00000000000E+00 -0.76047840963E+02  0.76047840963E+02  0.00000000000E+00 0. -1.
         23    2    1    2    0    0 -0.11311074144E+02 -0.71769199753E+02  0.54518025859E+02  0.12786243294E+03  0.89987933542E+02 0.  0.
         23    2    1    2    0    0  0.36805078998E+02  0.18865999881E+02  0.36472862755E+02  0.10791715570E+03  0.92764772330E+02 0.  0.
        -11    1    3    3    0    0  0.35165399585E+02 -0.56348847044E+02  0.35662795558E+02  0.75389872517E+02  0.00000000000E+00 0. -1.
         11    1    3    3    0    0 -0.46476473729E+02 -0.15420352709E+02  0.18855230301E+02  0.52472560426E+02  0.00000000000E+00 0.  1.
        -11    1    4    4    0    0  0.86599108053E+01  0.44760958685E+02 -0.11055102640E+02  0.46912181488E+02  0.00000000000E+00 0.  1.
         11    1    4    4    0    0  0.28145168193E+02 -0.25894958804E+02  0.47527965395E+02  0.61004974213E+02  0.00000000000E+00 0. -1.
          2    1    1    2  501    0 -0.25494004854E+02  0.52903199871E+02  0.23233264460E+03  0.23963962650E+03  0.00000000000E+00 0. -1.
<scales pt_clust_5="13000.00000" pt_clust_6="13000.00000" pt_clust_7="13000.00000" pt_clust_8="13000.00000" pt_clust_9="13000.00000"></scales>
<clustering>
<clus scale="   89.988">  5  6 -1 -1</clus>
<clus scale="   92.765">  7  8 -1 -1</clus>
<clus scale="   58.726">  7  9 -1 -1</clus>
<clus scale="  115.657">  2  5  1 -1</clus>
<clus scale="  220.316">  1  5  2 -1</clus>
</clustering>
</event>
<event>
 9    1  0.3303741E-006  0.5207501E+03  0.7546771E-02  0.1043804E+00
          1   -1    0    0  502    0 -0.00000000000E+00  0.00000000000E+00  0.48640021377E+03  0.48640021377E+03  0.00000000000E+00 0. -1.
         21   -1    0    0  501  502  0.00000000000E+00 -0.00000000000E+00 -0.25705521557E+03  0.25705521557E+03  0.00000000000E+00 0. -1.
         23    2    1    2    0    0  0.93266362730E+02  0.12564721697E+03  0.99842227730E+02  0.20684415164E+03  0.91269902369E+02 0.  0.
         23    2    1    2    0    0 -0.29064137945E+03 -0.10322074710E+03  0.80953106001E+02  0.33211943509E+03  0.92860000625E+02 0.  0.
        -11    1    4    4    0    0 -0.32276559653E+02  0.65605486742E+01 -0.13980110328E+02  0.35780729265E+02  0.00000000000E+00 0.  1.
         11    1    4    4    0    0 -0.25836481979E+03 -0.10978129577E+03  0.94933216329E+02  0.29633870583E+03  0.00000000000E+00 0. -1.
        -13    1    3    3    0    0  0.10188239632E+03  0.74003887114E+02  0.86634608706E+02  0.15284682991E+03  0.00000000000E+00 0. -1.
         13    1    3    3    0    0 -0.86160335865E+01  0.51643329859E+02  0.13207619024E+02  0.53997321729E+02  0.00000000000E+00 0.  1.
          1    1    1    2  501    0  0.19737501672E+03 -0.22426469872E+02  0.48549664472E+02  0.20449184261E+03  0.00000000000E+00 0. -1.
<scales pt_clust_5="13000.00000" pt_clust_6="13000.00000" pt_clust_7="13000.00000" pt_clust_8="13000.00000" pt_clust_9="13000.00000"></scales>
<clustering>
<clus scale="   91.270">  7  8 -1 -1</clus>
<clus scale="   92.860">  5  6 -1 -1</clus>
<clus scale="  181.152">  1  7  2 -1</clus>
<clus scale="  234.176">  5  9 -1 -1</clus>
<clus scale="  520.750">  2  5  1 -1</clus>
</clustering>
</event>
<event>
 9    1  0.3303741E-006  0.3539532E+03  0.7546771E-02  0.1105316E+00
          1   -1    0    0  502    0 -0.00000000000E+00  0.00000000000E+00  0.58386820761E+03  0.58386820761E+03  0.00000000000E+00 0. -1.
         21   -1    0    0  501  502  0.00000000000E+00 -0.00000000000E+00 -0.14841661358E+03  0.14841661358E+03  0.00000000000E+00 0. -1.
         23    2    1    2    0    0 -0.48129449098E+02 -0.75038182655E+01  0.35259452105E+03  0.36876296544E+03  0.96387121785E+02 0.  0.
         23    2    1    2    0    0  0.72428635150E+02  0.51074623020E+02  0.19932690465E+03  0.23681713145E+03  0.92177082427E+02 0.  0.
        -11    1    3    3    0    0 -0.19716135881E+02 -0.50014745926E+02  0.13659184850E+03  0.14679078275E+03  0.00000000000E+00 0.  1.
         11    1    3    3    0    0 -0.28413313217E+02  0.42510927661E+02  0.21600267255E+03  0.22197218269E+03  0.00000000000E+00 0. -1.
        -11    1    4    4    0    0  0.37747062549E+02  0.68499117803E+02  0.82359823089E+02  0.11357865262E+03  0.00000000000E+00 0. -1.
         11    1    4    4    0    0  0.34681572601E+02 -0.17424494782E+02  0.11696708156E+03  0.12323847884E+03  0.00000000000E+00 0.  1.
          1    1    1    2  501    0 -0.24299186052E+02 -0.43570804755E+02 -0.11646983167E+03  0.12670472430E+03  0.00000000000E+00 0. -1.
<scales pt_clust_5="13000.00000" pt_clust_6="13000.00000" pt_clust_7="13000.00000" pt_clust_8="13000.00000" pt_clust_9="13000.00000"></scales>
<clustering>
<clus scale="   92.177">  7  8 -1 -1</clus>
<clus scale="   49.889">  7  9 -1 -1</clus>
<clus scale="   96.387">  5  6 -1 -1</clus>
<clus scale="  107.996">  1  5  2 -1</clus>
<clus scale="  353.953">  2  5  1 -1</clus>
</clustering>
</event>
<event>
 9    1  0.3303741E-006  0.1740609E+03  0.7546771E-02  0.1195213E+00
          1   -1    0    0  502    0 -0.00000000000E+00  0.00000000000E+00  0.50880833221E+02  0.50880833221E+02  0.00000000000E+00 0. -1.
         21   -1    0    0  501  502  0.00000000000E+00 -0.00000000000E+00 -0.42486168737E+03  0.42486168737E+03  0.00000000000E+00 0. -1.
         23    2    1    2    0    0  0.26937544495E+02 -0.37823667687E+02 -0.80129549086E+02  0.13420805418E+03  0.97132878213E+02 0.  0.
         23    2    1    2    0    0  0.13787351454E+02  0.19568838505E+02 -0.82154127007E+02  0.12518416912E+03  0.91371467727E+02 0.  0.
        -11    1    4    4    0    0 -0.38434749499E+00 -0.35636145453E+02 -0.43886159215E+02  0.56533862033E+02  0.00000000000E+00 0. -1.
         11    1    4    4    0    0  0.14171698949E+02  0.55204983958E+02 -0.38267967792E+02  0.68650307092E+02  0.00000000000E+00 0.  1.
        -13    1    3    3    0    0  0.28932250260E+02  0.44698230032E+01  0.12903657500E+02  0.31993105502E+02  0.00000000000E+00 0. -1.
         13    1    3    3    0    0 -0.19947057647E+01 -0.42293490690E+02 -0.93033206587E+02  0.10221494868E+03  0.00000000000E+00 0.  1.
          1    1    1    2  501    0 -0.40724895949E+02  0.18254829182E+02 -0.21169717805E+03  0.21635029728E+03  0.00000000000E+00 0. -1.
<scales pt_clust_5="13000.00000" pt_clust_6="13000.00000" pt_clust_7="13000.00000" pt_clust_8="13000.00000" pt_clust_9="13000.00000"></scales>
<clustering>
<clus scale="   91.371">  5  6 -1 -1</clus>
<clus scale="   44.629">  5  9 -1 -1</clus>
<clus scale="   97.133">  7  8 -1 -1</clus>
<clus scale="  107.662">  1  7  2 -1</clus>
<clus scale="  174.061">  2  5  1 -1</clus>
</clustering>
</event>
<event>
 9    1  0.3303741E-006  0.2553632E+03  0.7546771E-02  0.1133123E+00
         -2   -1    0    0    0  501 -0.00000000000E+00  0.00000000000E+00  0.23217155405E+02  0.23217155405E+02  0.00000000000E+00 0.  1.
         21   -1    0    0  501  502  0.00000000000E+00 -0.00000000000E+00 -0.17248901004E+04  0.17248901004E+04  0.00000000000E+00 0.  1.
         23    2    1    2    0    0 -0.98759291925E+02  0.50325848386E+02 -0.68768087861E+03  0.70245422738E+03  0.90834255705E+02 0.  0.
         23    2    1    2    0    0  0.12967183138E+03  0.36715090462E+02 -0.58978506201E+03  0.61150640263E+03  0.89055484705E+02 0.  0.
        -11    1    3    3    0    0 -0.53432742785E+02 -0.22133339621E+02 -0.27516364929E+03  0.28117605982E+03  0.00000000000E+00 0. -1.
         11    1    3    3    0    0 -0.45326549140E+02  0.72459188007E+02 -0.41251722932E+03  0.42127816757E+03  0.00000000000E+00 0.  1.
        -13    1    4    4    0    0  0.95807975333E+02  0.61246510740E+02 -0.49523988514E+03  0.50812680214E+03  0.00000000000E+00 0.  1.
         13    1    4    4    0    0  0.33863856047E+02 -0.24531420278E+02 -0.94545176871E+02  0.10337960049E+03  0.00000000000E+00 0. -1.
         -2    1    1    2    0  502 -0.30912539455E+02 -0.87040938848E+02 -0.42420700442E+03  0.43414662584E+03  0.00000000000E+00 0.  1.
<scales pt_clust_5="13000.00000" pt_clust_6="13000.00000" pt_clust_7="13000.00000" pt_clust_8="13000.00000" pt_clust_9="13000.00000"></scales>
<clustering>
<clus scale="   89.055">  7  8 -1 -1</clus>
<clus scale="   90.834">  5  6 -1 -1</clus>
<clus scale="   92.367">  7  9 -1 -1</clus>
<clus scale="  143.307">  1  5  2 -1</clus>
<clus scale="  255.363">  2  5  1 -1</clus>
</clustering>
</event>
<event>
 9    1  0.3303741E-006  0.1733075E+03  0.7546771E-02  0.1197844E+00
          1   -1    0    0  502    0 -0.00000000000E+00  0.00000000000E+00  0.39294172934E+03  0.39294172934E+03  0.00000000000E+00 0. -1.
         21   -1    0    0  501  502  0.00000000000E+00 -0.00000000000E+00 -0.65927258483E+02  0.65927258483E+02  0.00000000000E+00 0. -1.
         23    2    1    2    0    0 -0.32539788851E+02 -0.21064317441E+02  0.24774206987E+03  0.26829193442E+03  0.95403802662E+02 0.  0.
         23    2    1    2    0    0  0.80432099477E+02  0.28520100743E+01  0.55419092516E+02  0.13405854421E+03  0.91776690247E+02 0.  0.
        -11    1    3    3    0    0  0.17132437680E+02 -0.44758912838E+02  0.11781122275E+03  0.12718633930E+03  0.00000000000E+00 0. -1.
         11    1    3    3    0    0 -0.49672226531E+02  0.23694595396E+02  0.12993084713E+03  0.14110559512E+03  0.00000000000E+00 0.  1.
        -11    1    4    4    0    0 -0.18430407824E+02  0.12253737573E+02  0.15535137403E+02  0.27040238742E+02  0.00000000000E+00 0.  1.
         11    1    4    4    0    0  0.98862507301E+02 -0.94017274988E+01  0.39883955113E+02  0.10701830547E+03  0.00000000000E+00 0. -1.
          1    1    1    2  501    0 -0.47892310626E+02  0.18212307367E+02  0.23853308472E+02  0.56518509197E+02  0.00000000000E+00 0. -1.
<scales pt_clust_5="13000.00000" pt_clust_6="13000.00000" pt_clust_7="13000.00000" pt_clust_8="13000.00000" pt_clust_9="13000.00000"></scales>
<clustering>
<clus scale="   91.777">  7  8 -1 -1</clus>
<clus scale="   51.238">  7  9 -1 -1</clus>
<clus scale="   95.404">  5  6 -1 -1</clus>
<clus scale="  102.978">  1  5  2 -1</clus>
<clus scale="  173.308">  2  5  1 -1</clus>
</clustering>
</event>
<event>
 9    1  0.3303741E-006  0.2065176E+03  0.7546771E-02  0.1176678E+00
          1   -1    0    0  502    0 -0.00000000000E+00  0.00000000000E+00  0.34095387991E+03  0.34095387991E+03  0.00000000000E+00 0. -1.
         21   -1    0    0  501  502  0.00000000000E+00 -0.00000000000E+00 -0.89673009564E+02  0.89673009564E+02  0.00000000000E+00 0. -1.
         23    2    1    2    0    0 -0.32037334585E+02  0.19918852029E+02 -0.96690574879E+01  0.97844108737E+02  0.89759832154E+02 0.  0.
         23    2    1    2    0    0 -0.57807533998E+02 -0.16142781328E+02  0.18925778567E+03  0.21777790098E+03  0.89478513298E+02 0.  0.
        -11    1    3    3    0    0  0.15878821024E+01 -0.29343668382E+02 -0.22284108152E+02  0.36880261927E+02  0.00000000000E+00 0.  1.
         11    1    3    3    0    0 -0.33625216688E+02  0.49262520411E+02  0.12615050664E+02  0.60963846809E+02  0.00000000000E+00 0. -1.
        -13    1    4    4    0    0 -0.62679906820E+02  0.23202701332E+02  0.10215706582E+03  0.12207867203E+03  0.00000000000E+00 0. -1.
         13    1    4    4    0    0  0.48723728217E+01 -0.39345482660E+02  0.87100719849E+02  0.95699228946E+02  0.00000000000E+00 0.  1.
          1    1    1    2  501    0  0.89844868583E+02 -0.37760707005E+01  0.71692142170E+02  0.11500487976E+03  0.00000000000E+00 0. -1.
<scales pt_clust_5="13000.00000" pt_clust_6="13000.00000" pt_clust_7="13000.00000" pt_clust_8="13000.00000" pt_clust_9="13000.00000"></scales>
<clustering>
<clus scale="   89.479">  7  8 -1 -1</clus>
<clus scale="   89.760">  5  6 -1 -1</clus>
<clus scale="   89.924">  7  9 -1 -1</clus>
<clus scale="   97.365">  1  5  2 -1</clus>
<clus scale="  206.518">  2  5  1 -1</clus>
</clustering>
</event>
<event>
 9    1  0.3798102E-006  0.3735834E+03  0.7546771E-02  0.1093005E+00
          2   -1    0    0  502    0 -0.00000000000E+00  0.00000000000E+00  0.27360323790E+03  0.27360323790E+03  0.00000000000E+00 0. -1.
         21   -1    0    0  501  502  0.00000000000E+00 -0.00000000000E+00 -0.51416263186E+03  0.51416263186E+03  0.00000000000E+00 0. -1.
         23    2    1    2    0    0  0.48675818462E+00 -0.82030772757E+02  0.18334119845E+03  0.22273818554E+03  0.96275747917E+02 0.  0.
         23    2    1    2    0    0  0.10001417203E+02 -0.11681767039E+02  0.34243265223E+02  0.97280063988E+02  0.89745850094E+02 0.  0.
        -11    1    4    4    0    0  0.20507256771E+01 -0.47860909307E+02  0.36414818264E+02  0.60174006886E+02  0.00000000000E+00 0. -1.
         11    1    4    4    0    0  0.79506915263E+01  0.36179142269E+02 -0.21715530408E+01  0.37106057102E+02  0.00000000000E+00 0.  1.
        -13    1    3    3    0    0 -0.27923850095E+02 -0.23533799389E+02  0.10394003552E+02  0.37968624253E+02  0.00000000000E+00 0.  1.
         13    1    3    3    0    0  0.28410608280E+02 -0.58496973369E+02  0.17294719490E+03  0.18476956129E+03  0.00000000000E+00 0. -1.
          2    1    1    2  501    0 -0.10488175388E+02  0.93712539796E+02 -0.45814385764E+03  0.46774762023E+03  0.00000000000E+00 0. -1.
<scales pt_clust_5="13000.00000" pt_clust_6="13000.00000" pt_clust_7="13000.00000" pt_clust_8="13000.00000" pt_clust_9="13000.00000"></scales>
<clustering>
<clus scale="   89.746">  5  6 -1 -1</clus>
<clus scale="   94.298">  5  9 -1 -1</clus>
<clus scale="   96.276">  7  8 -1 -1</clus>
<clus scale="  126.484">  1  7  2 -1</clus>
<clus scale="  373.583">  2  5  1 -1</clus>
</clustering>
</event>
<event>
 9    1  0.3303741E-006  0.5680616E+03  0.7546771E-02  0.1047498E+00
          1   -1    0    0  502    0 -0.00000000000E+00  0.00000000000E+00  0.78217525940E+03  0.78217525940E+03  0.00000000000E+00 0. -1.
         21   -1    0    0  501  502  0.00000000000E+00 -0.00000000000E+00 -0.18583181184E+03  0.18583181184E+03  0.00000000000E+00 0. -1.
         23    2    1    2    0    0 -0.84091795946E+02  0.22421449581E+02  0.30454404834E+03  0.32938286798E+03  0.90398256561E+02 0.  0.
         23    2    1    2    0    0  0.19217375836E+03 -0.97228560461E+02  0.40320996595E+03  0.46631596546E+03  0.92131192492E+02 0.  0.
        -13    1    3    3    0    0 -0.59447349334E+02 -0.30637323977E+02  0.16906592092E+03  0.18181286692E+03  0.00000000000E+00 0. -1.
         13    1    3    3    0    0 -0.24644446612E+02  0.53058773559E+02  0.13547812743E+03  0.14757000106E+03  0.00000000000E+00 0.  1.
        -13    1    4    4    0    0  0.19074255021E+02 -0.22673782209E+02  0.13684039590E+03  0.14001150508E+03  0.00000000000E+00 0.  1.
         13    1    4    4    0    0  0.17309950334E+03 -0.74554778252E+02  0.26636957005E+03  0.32630446038E+03  0.00000000000E+00 0. -1.
          1    1    1    2  501    0 -0.10808196241E+03  0.74807110880E+02 -0.11141056673E+03  0.17230823781E+03  0.00000000000E+00 0. -1.
<scales pt_clust_5="13000.00000" pt_clust_6="13000.00000" pt_clust_7="13000.00000" pt_clust_8="13000.00000" pt_clust_9="13000.00000"></scales>
<clustering>
<clus scale="   90.398">  5  6 -1 -1</clus>
<clus scale="   92.131">  7  8 -1 -1</clus>
<clus scale="  125.483">  1  5  2 -1</clus>
<clus scale="  136.820">  7  9 -1 -1</clus>
<clus scale="  568.062">  2  5  1 -1</clus>
</clustering>
</event>
<event>
 9    1  0.3303741E-006  0.2373140E+03  0.7546771E-02  0.1157093E+00
         -3   -1    0    0    0  501 -0.00000000000E+00  0.00000000000E+00  0.60366111502E+03  0.60366111502E+03  0.00000000000E+00 0.  1.
         21   -1    0    0  501  502  0.00000000000E+00 -0.00000000000E+00 -0.50678612154E+02  0.50678612154E+02  0.00000000000E+00 0. -1.
         23    2    1    2    0    0 -0.91626062564E+01 -0.10117367232E+02  0.94503532082E+02  0.13808312028E+03  0.99748263424E+02 0.  0.
         23    2    1    2    0    0  0.60415121286E+02  0.69907031569E+01  0.45103695682E+03  0.46437231355E+03  0.92241272542E+02 0.  0.
        -11    1    4    4    0    0  0.35450350130E+02 -0.37836902608E+02  0.14340183202E+03  0.15248752064E+03  0.00000000000E+00 0.  1.
         11    1    4    4    0    0  0.24964771156E+02  0.44827605765E+02  0.30763512480E+03  0.31188479291E+03  0.00000000000E+00 0. -1.
        -13    1    3    3    0    0  0.87222307401E+01 -0.29465272897E+02  0.10523789548E+03  0.10963254198E+03  0.00000000000E+00 0.  1.
         13    1    3    3    0    0 -0.17884836996E+02  0.19347905665E+02 -0.10734363396E+02  0.28450578298E+02  0.00000000000E+00 0. -1.
         -3    1    1    2    0  502 -0.51252515029E+02  0.31266640756E+01  0.74420139690E+01  0.51884293355E+02  0.00000000000E+00 0.  1.
<scales pt_clust_5="13000.00000" pt_clust_6="13000.00000" pt_clust_7="13000.00000" pt_clust_8="13000.00000" pt_clust_9="13000.00000"></scales>
<clustering>
<clus scale="   92.241">  5  6 -1 -1</clus>
<clus scale="   51.348">  5  9 -1 -1</clus>
<clus scale="   99.748">  7  8 -1 -1</clus>
<clus scale="  100.678">  1  7  2 -1</clus>
<clus scale="  237.314">  2  5  1 -1</clus>
</clustering>
</event>
<event>
 9    1  0.3303741E-006  0.3643847E+03  0.7546771E-02  0.1098800E+00
         21   -1    0    0  501  502  0.00000000000E+00  0.00000000000E+00  0.50360287615E+03  0.50360287615E+03  0.00000000000E+00 0.  1.
          2   -1    0    0  502    0 -0.00000000000E+00 -0.00000000000E+00 -0.13033126787E+03  0.13033126787E+03  0.00000000000E+00 0. -1.
         23    2    1    2    0    0 -0.45568826208E+02  0.58733609462E+02  0.71073713532E+01  0.11735651081E+03  0.90531105703E+02 0.  0.
         23    2    1    2    0    0 -0.12432060193E+02 -0.17771952890E+03  0.29455417761E+03  0.36607928623E+03  0.12455156837E+03 0.  0.
        -13    1    4    4    0    0 -0.53994144716E+02 -0.30877795581E+02  0.61248771047E+02  0.87293859339E+02  0.00000000000E+00 0. -1.
         13    1    4    4    0    0  0.41562084523E+02 -0.14684173332E+03  0.23330540656E+03  0.27878542689E+03  0.00000000000E+00 0.  1.
        -13    1    3    3    0    0 -0.31339814444E+02 -0.19455260620E+02 -0.40293242738E+01  0.37106961467E+02  0.00000000000E+00 0.  1.
         13    1    3    3    0    0 -0.14229011763E+02  0.78188870082E+02  0.11136695627E+02  0.80249549345E+02  0.00000000000E+00 0. -1.
          2    1    1    2  501    0  0.58000886401E+02  0.11898591944E+03  0.71610059323E+02  0.15049834698E+03  0.00000000000E+00 0. -1.
<scales pt_clust_5="13000.00000" pt_clust_6="13000.00000" pt_clust_7="13000.00000" pt_clust_8="13000.00000" pt_clust_9="13000.00000"></scales>
<clustering>
<clus scale="   90.531">  7  8 -1 -1</clus>
<clus scale="  117.141">  2  7  1 -1</clus>
<clus scale="  124.552">  5  6 -1 -1</clus>
<clus scale="  153.623">  5  9 -1 -1</clus>
<clus scale="  364.385">  1  5  2 -1</clus>
</clustering>
</event>
<event>
 9    1  0.3303741E-006  0.3163710E+03  0.7546771E-02  0.1108084E+00
          3   -1    0    0  502    0 -0.00000000000E+00  0.00000000000E+00  0.23169731901E+03  0.23169731901E+03  0.00000000000E+00 0. -1.
         21   -1    0    0  501  502  0.00000000000E+00 -0.00000000000E+00 -0.27592274299E+03  0.27592274299E+03  0.00000000000E+00 0.  1.
         23    2    1    2    0    0  0.10756380017E+03 -0.14437834794E+01  0.86485408460E+02  0.16531040346E+03  0.90971138265E+02 0.  0.
         23    2    1    2    0    0 -0.19939947573E+03  0.18984925466E+02 -0.97118813010E+02  0.24296225426E+03  0.97355096629E+02 0.  0.
        -13    1    4    4    0    0 -0.10529333480E+03  0.54605613684E+02 -0.31114508414E+02  0.12262370094E+03  0.00000000000E+00 0. -1.
         13    1    4    4    0    0 -0.94106140931E+02 -0.35620688218E+02 -0.66004304596E+02  0.12033855332E+03  0.00000000000E+00 0.  1.
        -13    1    3    3    0    0  0.48780189558E+02  0.44584195115E+02  0.36973292301E+02  0.75725040052E+02  0.00000000000E+00 0.  1.
         13    1    3    3    0    0  0.58783610613E+02 -0.46027978594E+02  0.49512116159E+02  0.89585363407E+02  0.00000000000E+00 0. -1.
          3    1    1    2  501    0  0.91835675560E+02 -0.17541141987E+02 -0.33592019433E+02  0.99347404281E+02  0.00000000000E+00 0. -1.
<scales pt_clust_5="13000.00000" pt_clust_6="13000.00000" pt_clust_7="13000.00000" pt_clust_8="13000.00000" pt_clust_9="13000.00000"></scales>
<clustering>
<clus scale="   90.971">  7  8 -1 -1</clus>
<clus scale="   97.355">  5  6 -1 -1</clus>
<clus scale="   93.496">  5  9 -1 -1</clus>
<clus scale="  140.882">  1  7  2 -1</clus>
<clus scale="  316.371">  2  5  1 -1</clus>
</clustering>
</event>
<event>
 9    1  0.3303741E-006  0.1667604E+03  0.7546771E-02  0.1205616E+00
         21   -1    0    0  501  502  0.00000000000E+00  0.00000000000E+00  0.97020277329E+02  0.97020277329E+02  0.00000000000E+00 0. -1.
          1   -1    0    0  502    0 -0.00000000000E+00 -0.00000000000E+00 -0.18049670076E+03  0.18049670076E+03  0.00000000000E+00 0. -1.
         23    2    1    2    0    0  0.40229965247E+02 -0.45857855507E+01 -0.25386134546E+02  0.10092843408E+03  0.88896644733E+02 0.  0.
         23    2    1    2    0    0  0.11323687485E+02  0.32600540285E+02 -0.51302119070E+02  0.11752345414E+03  0.99944153038E+02 0.  0.
        -11    1    4    4    0    0 -0.25662206693E+02 -0.85541816936E+01  0.15187099829E+02  0.31022103056E+02  0.00000000000E+00 0.  1.
         11    1    4    4    0    0  0.36985894178E+02  0.41154721979E+02 -0.66489218899E+02  0.86501351083E+02  0.00000000000E+00 0. -1.
        -11    1    3    3    0    0 -0.15692974378E+02 -0.12660941073E+02 -0.38014879438E+02  0.43031383110E+02  0.00000000000E+00 0.  1.
         11    1    3    3    0    0  0.55922939624E+02  0.80751555224E+01  0.12628744892E+02  0.57897050965E+02  0.00000000000E+00 0. -1.
          1    1    1    2  501    0 -0.51553652731E+02 -0.28014754734E+02 -0.67881698174E+01  0.59065089878E+02  0.00000000000E+00 0. -1.
<scales pt_clust_5="13000.00000" pt_clust_6="13000.00000" pt_clust_7="13000.00000" pt_clust_8="13000.00000" pt_clust_9="13000.00000"></scales>
<clustering>
<clus scale="   88.897">  7  8 -1 -1</clus>
<clus scale="   97.684">  2  7  1 -1</clus>
<clus scale="   99.944">  5  6 -1 -1</clus>
<clus scale="   49.798">  5  9 -1 -1</clus>
<clus scale="  166.760">  1  5  2 -1</clus>
</clustering>
</event>
<event>
 9    1  0.3303741E-006  0.2761604E+03  0.7546771E-02  0.1141986E+00
          3   -1    0    0  502    0 -0.00000000000E+00  0.00000000000E+00  0.17056626056E+03  0.17056626056E+03  0.00000000000E+00 0. -1.
         21   -1    0    0  501  502  0.00000000000E+00 -0.00000000000E+00 -0.19862663874E+03  0.19862663874E+03  0.00000000000E+00 0.  1.
         23    2    1    2    0    0  0.36273779747E+01  0.39209838883E+01  0.17437490567E+01  0.91428924076E+02  0.91256098488E+02 0.  0.
         23    2    1    2    0    0 -0.11934287797E+03 -0.33637050367E+02 -0.37739613258E+02  0.15803054846E+03  0.90416824528E+02 0.  0.
        -11    1    4    4    0    0 -0.96934701618E+02  0.62055192686E+01 -0.51960646544E+02  0.11015785781E+03  0.00000000000E+00 0.  1.
         11    1    4    4    0    0 -0.22408176352E+02 -0.39842569636E+02  0.14221033286E+02  0.47872690653E+02  0.00000000000E+00 0. -1.
        -11    1    3    3    0    0 -0.26399658487E+02  0.40063525450E+01 -0.34970590089E+02  0.43999261359E+02  0.00000000000E+00 0.  1.
         11    1    3    3    0    0  0.30027036462E+02 -0.85368656781E-01  0.36714339146E+02  0.47429662717E+02  0.00000000000E+00 0. -1.
          3    1    1    2  501    0  0.11571550000E+03  0.29716066479E+02  0.79354860183E+01  0.11973342676E+03  0.00000000000E+00 0. -1.
<scales pt_clust_5="13000.00000" pt_clust_6="13000.00000" pt_clust_7="13000.00000" pt_clust_8="13000.00000" pt_clust_9="13000.00000"></scales>
<clustering>
<clus scale="   90.417">  5  6 -1 -1</clus>
<clus scale="   91.256">  7  8 -1 -1</clus>
<clus scale="   91.412">  1  7  2 -1</clus>
<clus scale="  121.790">  5  9 -1 -1</clus>
<clus scale="  276.160">  2  5  1 -1</clus>
</clustering>
</event>
<event>
 9    1  0.3303741E-006  0.2701763E+03  0.7546771E-02  0.1139069E+00
         21   -1    0    0  501  502  0.00000000000E+00  0.00000000000E+00  0.86539446070E+02  0.86539446070E+02  0.00000000000E+00 0. -1.
          1   -1    0    0  502    0 -0.00000000000E+00 -0.00000000000E+00 -0.53827620829E+03  0.53827620829E+03  0.00000000000E+00 0. -1.
         23    2    1    2    0    0 -0.47542142359E+02 -0.15777337125E+02 -0.29369588434E+03  0.31181062249E+03  0.91975062692E+02 0.  0.
         23    2    1    2    0    0  0.11238370522E+03  0.47434197938E+02 -0.15766165965E+02  0.15347861160E+03  0.91798757602E+02 0.  0.
        -13    1    3    3    0    0 -0.71282955017E+02 -0.15068375197E+02 -0.26353205938E+03  0.27341810827E+03  0.00000000000E+00 0. -1.
         13    1    3    3    0    0  0.23740812658E+02 -0.70896192762E+00 -0.30163824956E+02  0.38392514227E+02  0.00000000000E+00 0.  1.
        -13    1    4    4    0    0  0.47055753392E+02  0.28157418812E+02  0.37988065265E+02  0.66709648957E+02  0.00000000000E+00 0. -1.
         13    1    4    4    0    0  0.65327951828E+02  0.19276779126E+02 -0.53754231229E+02  0.86768962645E+02  0.00000000000E+00 0.  1.
          1    1    1    2  501    0 -0.64841562861E+02 -0.31656860813E+02 -0.14227471192E+03  0.15952642027E+03  0.00000000000E+00 0. -1.
<scales pt_clust_5="13000.00000" pt_clust_6="13000.00000" pt_clust_7="13000.00000" pt_clust_8="13000.00000" pt_clust_9="13000.00000"></scales>
<clustering>
<clus scale="   91.799">  7  8 -1 -1</clus>
<clus scale="   72.157">  7  9 -1 -1</clus>
<clus scale="   91.975">  5  6 -1 -1</clus>
<clus scale="  104.731">  2  5  1 -1</clus>
<clus scale="  270.176">  1  5  2 -1</clus>
</clustering>
</event>
<event>
 9    1  0.3303741E-006  0.2419553E+03  0.7546771E-02  0.1147858E+00
         21   -1    0    0  501  502  0.00000000000E+00  0.00000000000E+00  0.92752710640E+02  0.92752710640E+02  0.00000000000E+00 0.  1.
          2   -1    0    0  502    0 -0.00000000000E+00 -0.00000000000E+00 -0.34972423628E+03  0.34972423628E+03  0.00000000000E+00 0. -1.
         23    2    1    2    0    0  0.68031238678E+02  0.15410360857E+02 -0.78563424410E+02  0.14185785108E+03  0.95318988661E+02 0.  0.
         23    2    1    2    0    0  0.89837380380E+00 -0.44420044406E+02 -0.19873165811E+03  0.22312135278E+03  0.91186176103E+02 0.  0.
        -11    1    4    4    0    0  0.21712171617E+02 -0.67170879247E+02 -0.13719866802E+03  0.15429458812E+03  0.00000000000E+00 0. -1.
         11    1    4    4    0    0 -0.20813797813E+02  0.22750834841E+02 -0.61532990084E+02  0.68826764663E+02  0.00000000000E+00 0.  1.
        -11    1    3    3    0    0  0.89185652834E+00  0.43102793884E+02 -0.43375493311E+02  0.61156190763E+02  0.00000000000E+00 0. -1.
         11    1    3    3    0    0  0.67139382149E+02 -0.27692433027E+02 -0.35187931099E+02  0.80701660314E+02  0.00000000000E+00 0.  1.
          2    1    1    2  501    0 -0.68929612481E+02  0.29009683549E+02  0.20323556873E+02  0.77497743067E+02  0.00000000000E+00 0. -1.
<scales pt_clust_5="13000.00000" pt_clust_6="13000.00000" pt_clust_7="13000.00000" pt_clust_8="13000.00000" pt_clust_9="13000.00000"></scales>
<clustering>
<clus scale="   91.186">  5  6 -1 -1</clus>
<clus scale="   74.785">  5  9 -1 -1</clus>
<clus scale="   95.319">  7  8 -1 -1</clus>
<clus scale="  118.116">  2  7  1 -1</clus>
<clus scale="  241.955">  1  5  2 -1</clus>
</clustering>
</event>
<event>
 9    1  0.3303741E-006  0.2594705E+03  0.7546771E-02  0.1124722E+00
          1   -1    0    0  502    0 -0.00000000000E+00  0.00000000000E+00  0.44847683150E+03  0.44847683150E+03  0.00000000000E+00 0. -1.
         21   -1    0    0  501  502  0.00000000000E+00 -0.00000000000E+00 -0.10274958946E+03  0.10274958946E+03  0.00000000000E+00 0.  1.
         23    2    1    2    0    0  0.14255352298E+03 -0.15229846533E+02  0.11102677422E+03  0.20135611471E+03  0.87543618843E+02 0.  0.
         23    2    1    2    0    0 -0.14602144475E+02 -0.37472089331E+02  0.16841470610E+03  0.19643350652E+03  0.92764374354E+02 0.  0.
        -11    1    4    4    0    0 -0.27211430224E+02 -0.62041993331E+02  0.85780996254E+02  0.10930713696E+03  0.00000000000E+00 0.  1.
         11    1    4    4    0    0  0.12609285749E+02  0.24569904000E+02  0.82633709849E+02  0.87126369563E+02  0.00000000000E+00 0. -1.
        -13    1    3    3    0    0  0.14128989896E+02  0.28041864345E+02  0.30189233583E+02  0.43558745801E+02  0.00000000000E+00 0. -1.
         13    1    3    3    0    0  0.12842453308E+03 -0.43271710878E+02  0.80837540638E+02  0.15779736891E+03  0.00000000000E+00 0.  1.
          1    1    1    2  501    0 -0.12795137850E+03  0.52701935864E+02  0.66285761713E+02  0.15343679973E+03  0.00000000000E+00 0. -1.
<scales pt_clust_5="13000.00000" pt_clust_6="13000.00000" pt_clust_7="13000.00000" pt_clust_8="13000.00000" pt_clust_9="13000.00000"></scales>
<clustering>
<clus scale="   87.544">  7  8 -1 -1</clus>
<clus scale="   92.764">  5  6 -1 -1</clus>
<clus scale="  138.380">  5  9 -1 -1</clus>
<clus scale="  167.980">  1  7  2 -1</clus>
<clus scale="  259.470">  2  5  1 -1</clus>
</clustering>
</event>
<event>
 9    1  0.3303741E-006  0.2933865E+03  0.7546771E-02  0.1114003E+00
         -1   -1    0    0    0  501 -0.00000000000E+00  0.00000000000E+00  0.13415370634E+03  0.13415370634E+03  0.00000000000E+00 0.  1.
         21   -1    0    0  501  502  0.00000000000E+00 -0.00000000000E+00 -0.86170799397E+03  0.86170799397E+03  0.00000000000E+00 0.  1.
         23    2    1    2    0    0  0.61776435002E+02 -0.10483212364E+03  0.53822294970E+02  0.16122105486E+03  0.91045521716E+02 0.  0.
         23    2    1    2    0    0  0.56308346786E+02  0.23305779031E+02 -0.13208494646E+03  0.16968185776E+03  0.87359661859E+02 0.  0.
        -11    1    4    4    0    0 -0.46782240495E+01 -0.27030209097E+02 -0.33184100555E+02  0.43054645669E+02  0.00000000000E+00 0.  1.
         11    1    4    4    0    0  0.60986570835E+02  0.50335988128E+02 -0.98900845902E+02  0.12662721210E+03  0.00000000000E+00 0. -1.
        -11    1    3    3    0    0  0.82012096389E+02 -0.71799347856E+02  0.22254257124E+02  0.11124918996E+03  0.00000000000E+00 0. -1.
         11    1    3    3    0    0 -0.20235661386E+02 -0.33032775787E+02  0.31568037846E+02  0.49971864898E+02  0.00000000000E+00 0.  1.
         -1    1    1    2    0  502 -0.11808478179E+03  0.81526344612E+02 -0.64929163615E+03  0.66495878769E+03  0.00000000000E+00 0.  1.
<scales pt_clust_5="13000.00000" pt_clust_6="13000.00000" pt_clust_7="13000.00000" pt_clust_8="13000.00000" pt_clust_9="13000.00000"></scales>
<clustering>
<clus scale="   87.360">  5  6 -1 -1</clus>
<clus scale="   91.046">  7  8 -1 -1</clus>
<clus scale="  143.494">  5  9 -1 -1</clus>
<clus scale="  151.972">  1  7  2 -1</clus>
<clus scale="  293.387">  2  5  1 -1</clus>
</clustering>
</event>
<event>
 9    1  0.3303741E-006  0.2540014E+03  0.7546771E-02  0.1144255E+00
         -2   -1    0    0    0  501 -0.00000000000E+00  0.00000000000E+00  0.23590560648E+03  0.23590560648E+03  0.00000000000E+00 0.  1.
         21   -1    0    0  501  502  0.00000000000E+00 -0.00000000000E+00 -0.14716401567E+03  0.14716401567E+03  0.00000000000E+00 0. -1.
         23    2    1    2    0    0 -0.17742256501E+02 -0.46950470701E+02 -0.73358663446E+01  0.11150453799E+03  0.99299107209E+02 0.  0.
         23    2    1    2    0    0  0.29228294039E+02 -0.13333716573E+02  0.15983111208E+03  0.18307417609E+03  0.83295188282E+02 0.  0.
        -11    1    3    3    0    0  0.35213307394E+02  0.30980109642E+01 -0.14670012469E+02  0.38272496070E+02  0.00000000000E+00 0.  1.
         11    1    3    3    0    0 -0.52955563896E+02 -0.50048481665E+02  0.73341461241E+01  0.73232041920E+02  0.00000000000E+00 0. -1.
        -13    1    4    4    0    0  0.58662895190E+02 -0.62721030095E+01  0.10684134283E+03  0.12204813430E+03  0.00000000000E+00 0. -1.
         13    1    4    4    0    0 -0.29434601151E+02 -0.70616135638E+01  0.52989769256E+02  0.61026041792E+02  0.00000000000E+00 0.  1.
         -2    1    1    2    0  502 -0.11486037538E+02  0.60284187274E+02 -0.63753654926E+02  0.88490908064E+02  0.00000000000E+00 0.  1.
<scales pt_clust_5="13000.00000" pt_clust_6="13000.00000" pt_clust_7="13000.00000" pt_clust_8="13000.00000" pt_clust_9="13000.00000"></scales>
<clustering>
<clus scale="   83.295">  7  8 -1 -1</clus>
<clus scale="   61.369">  7  9 -1 -1</clus>
<clus scale="   99.299">  5  6 -1 -1</clus>
<clus scale="  111.263">  1  5  2 -1</clus>
<clus scale="  254.001">  2  5  1 -1</clus>
</clustering>
</event>
<event>
 9    1  0.3303741E-006  0.1623229E+03  0.7546771E-02  0.1210555E+00
         21   -1    0    0  501  502  0.00000000000E+00  0.00000000000E+00  0.25094442438E+03  0.25094442438E+03  0.00000000000E+00 0.  1.
         -4   -1    0    0    0  501 -0.00000000000E+00 -0.00000000000E+00 -0.20841048811E+03  0.20841048811E+03  0.00000000000E+00 0.  1.
         23    2    1    2    0    0  0.23685740826E+02  0.19372055951E+02 -0.16822335096E+03  0.19333357429E+03  0.90235715046E+02 0.  0.
         23    2    1    2    0    0 -0.37656516729E+01 -0.63029299570E+02  0.17242650825E+03  0.20460461824E+03  0.90251184584E+02 0.  0.
        -11    1    3    3    0    0  0.55465169537E+02  0.27707747487E+02 -0.11843181070E+03  0.13367946024E+03  0.00000000000E+00 0.  1.
         11    1    3    3    0    0 -0.31779428711E+02 -0.83356915355E+01 -0.49791540260E+02  0.59654114058E+02  0.00000000000E+00 0. -1.
        -13    1    4    4    0    0  0.41218182103E+02 -0.38375414267E+02  0.68265102764E+02  0.88497091542E+02  0.00000000000E+00 0.  1.
         13    1    4    4    0    0 -0.44983833776E+02 -0.24653885303E+02  0.10416140549E+03  0.11610752669E+03  0.00000000000E+00 0. -1.
         -4    1    1    2    0  502 -0.19920089153E+02  0.43657243619E+02  0.38330778987E+02  0.61416719955E+02  0.00000000000E+00 0.  1.
<scales pt_clust_5="13000.00000" pt_clust_6="13000.00000" pt_clust_7="13000.00000" pt_clust_8="13000.00000" pt_clust_9="13000.00000"></scales>
<clustering>
<clus scale="   90.236">  5  6 -1 -1</clus>
<clus scale="   90.251">  7  8 -1 -1</clus>
<clus scale="   47.987">  7  9 -1 -1</clus>
<clus scale="   95.283">  2  5  1 -1</clus>
<clus scale="  162.323">  1  5  2 -1</clus>
</clustering>
</event>
<event>
 9    1  0.3303741E-006  0.2312128E+03  0.7546771E-02  0.1160169E+00
          1   -1    0    0  502    0 -0.00000000000E+00  0.00000000000E+00  0.47043800541E+03  0.47043800541E+03  0.00000000000E+00 0. -1.
         21   -1    0    0  501  502  0.00000000000E+00 -0.00000000000E+00 -0.77109199818E+02  0.77109199818E+02  0.00000000000E+00 0.  1.
         23    2    1    2    0    0 -0.27410017844E+02  0.10290574433E+02  0.12585510834E+02  0.10209821152E+03  0.96997137653E+02 0.  0.
         23    2    1    2    0    0  0.52277516870E+02  0.30290808855E+02  0.38326798361E+03  0.39778752886E+03  0.87693209441E+02 0.  0.
        -11    1    3    3    0    0 -0.63346242057E+02  0.14621407745E+02  0.57849320709E+01  0.65268655466E+02  0.00000000000E+00 0. -1.
         11    1    3    3    0    0  0.35936224213E+02 -0.43308333123E+01  0.68005787630E+01  0.36829556058E+02  0.00000000000E+00 0.  1.
        -11    1    4    4    0    0  0.74886482196E+02  0.30705945736E+02  0.25484419490E+03  0.26738811491E+03  0.00000000000E+00 0.  1.
         11    1    4    4    0    0 -0.22608965326E+02 -0.41513688164E+00  0.12842378871E+03  0.13039941395E+03  0.00000000000E+00 0. -1.
          1    1    1    2  501    0 -0.24867499026E+02 -0.40581383288E+02 -0.25246888565E+01  0.47661464845E+02  0.00000000000E+00 0. -1.
<scales pt_clust_5="13000.00000" pt_clust_6="13000.00000" pt_clust_7="13000.00000" pt_clust_8="13000.00000" pt_clust_9="13000.00000"></scales>
<clustering>
<clus scale="   87.693">  7  8 -1 -1</clus>
<clus scale="   47.595">  7  9 -1 -1</clus>
<clus scale="   96.997">  5  6 -1 -1</clus>
<clus scale="  101.320">  1  5  2 -1</clus>
<clus scale="  231.213">  2  5  1 -1</clus>
</clustering>
</event>
<event>
 9    1  0.3303741E-006  0.1760790E+03  0.7546771E-02  0.1195143E+00
         -3   -1    0    0    0  501 -0.00000000000E+00  0.00000000000E+00  0.11376399054E+03  0.11376399054E+03  0.00000000000E+00 0.  1.
         21   -1    0    0  501  502  0.00000000000E+00 -0.00000000000E+00 -0.18595117628E+03  0.18595117628E+03  0.00000000000E+00 0. -1.
         23    2    1    2    0    0  0.39815006570E+02  0.28074300116E+02  0.11438900853E+02  0.10478659735E+03  0.92065093583E+02 0.  0.
         23    2    1    2    0    0 -0.63025699992E+02  0.28760952427E+02 -0.43777300885E+02  0.12173766878E+03  0.90023200809E+02 0.  0.
        -11    1    4    4    0    0 -0.78149035565E+02  0.12638510067E+02 -0.55533627057E+02  0.96700503776E+02  0.00000000000E+00 0.  1.
         11    1    4    4    0    0  0.15123335573E+02  0.16122442360E+02  0.11756326172E+02  0.25037165006E+02  0.00000000000E+00 0. -1.
        -13    1    3    3    0    0  0.52659571823E+01  0.29524073948E+02  0.46635137848E+02  0.55445805339E+02  0.00000000000E+00 0.  1.
         13    1    3    3    0    0  0.34549049388E+02 -0.14497738315E+01 -0.35196236995E+02  0.49340792012E+02  0.00000000000E+00 0. -1.
         -3    1    1    2    0  502  0.23210693421E+02 -0.56835252543E+02 -0.39848785708E+02  0.73190900685E+02  0.00000000000E+00 0.  1.
<scales pt_clust_5="13000.00000" pt_clust_6="13000.00000" pt_clust_7="13000.00000" pt_clust_8="13000.00000" pt_clust_9="13000.00000"></scales>
<clustering>
<clus scale="   90.023">  5  6 -1 -1</clus>
<clus scale="   61.392">  5  9 -1 -1</clus>
<clus scale="   92.065">  7  8 -1 -1</clus>
<clus scale="  104.160">  1  7  2 -1</clus>
<clus scale="  176.079">  2  5  1 -1</clus>
</clustering>
</event>
<event>
 9    1  0.3303741E-006  0.1724588E+03  0.7546771E-02  0.1195672E+00
          2   -1    0    0  502    0 -0.00000000000E+00  0.00000000000E+00  0.68443787365E+03  0.68443787365E+03  0.00000000000E+00 0. -1.
         21   -1    0    0  501  502  0.00000000000E+00 -0.00000000000E+00 -0.10816880800E+03  0.10816880800E+03  0.00000000000E+00 0.  1.
         23    2    1    2    0    0 -0.45976349889E+02  0.36230983281E+02  0.60753306634E+03  0.61733694841E+03  0.92638934993E+02 0.  0.
         23    2    1    2    0    0  0.42504393417E+02 -0.63074629570E+02  0.20205111375E+02  0.11711730144E+03  0.86736286618E+02 0.  0.
        -13    1    4    4    0    0  0.41137458721E+01 -0.43292795739E+02 -0.28521410147E+02  0.52006344851E+02  0.00000000000E+00 0.  1.
         13    1    4    4    0    0  0.38390647545E+02 -0.19781833831E+02  0.48726521522E+02  0.65110956591E+02  0.00000000000E+00 0. -1.
        -13    1    3    3    0    0  0.13770701656E+02 -0.21842405222E+02  0.12143935814E+03  0.12415410020E+03  0.00000000000E+00 0.  1.
         13    1    3    3    0    0 -0.59747051545E+02  0.58073388503E+02  0.48609370820E+03  0.49318284821E+03  0.00000000000E+00 0. -1.
          2    1    1    2  501    0  0.34719564715E+01  0.26843646290E+02 -0.51469112060E+02  0.58152431799E+02  0.00000000000E+00 0. -1.
<scales pt_clust_5="13000.00000" pt_clust_6="13000.00000" pt_clust_7="13000.00000" pt_clust_8="13000.00000" pt_clust_9="13000.00000"></scales>
<clustering>
<clus scale="   86.736">  5  6 -1 -1</clus>
<clus scale="   27.067">  5  9 -1 -1</clus>
<clus scale="   92.639">  7  8 -1 -1</clus>
<clus scale="  109.583">  1  7  2 -1</clus>
<clus scale="  172.459">  2  5  1 -1</clus>
</clustering>
</event>
<event>
 9    1  0.3303741E-006  0.5011352E+03  0.7546771E-02  0.1063618E+00
         21   -1    0    0  501  502  0.00000000000E+00  0.00000000000E+00  0.89805499884E+02  0.89805499884E+02  0.00000000000E+00 0.  1.
          1   -1    0    0  502    0 -0.00000000000E+00 -0.00000000000E+00 -0.10642767807E+04  0.10642767807E+04  0.00000000000E+00 0. -1.
         23    2    1    2    0    0 -0.52870907098E+02  0.40938990038E+02 -0.21268981219E+03  0.24224485195E+03  0.94732667898E+02 0.  0.
         23    2    1    2    0    0  0.21829341969E+03  0.14634675432E+02 -0.67911831214E+03  0.71874098277E+03  0.86722128790E+02 0.  0.
        -13    1    3    3    0    0 -0.74305701374E+02  0.52623109582E+02 -0.15809666748E+03  0.18244200499E+03  0.00000000000E+00 0.  1.
         13    1    3    3    0    0  0.21434794276E+02 -0.11684119544E+02 -0.54593144711E+02  0.59802846961E+02  0.00000000000E+00 0. -1.
        -13    1    4    4    0    0  0.14396637160E+03 -0.27793751553E+02 -0.48291905225E+03  0.50468764578E+03  0.00000000000E+00 0. -1.
         13    1    4    4    0    0  0.74327048094E+02  0.42428426986E+02 -0.19619925989E+03  0.21405333699E+03  0.00000000000E+00 0.  1.
          1    1    1    2  501    0 -0.16542251260E+03 -0.55573665470E+02 -0.82663156509E+02  0.19309644588E+03  0.00000000000E+00 0. -1.
<scales pt_clust_5="13000.00000" pt_clust_6="13000.00000" pt_clust_7="13000.00000" pt_clust_8="13000.00000" pt_clust_9="13000.00000"></scales>
<clustering>
<clus scale="   86.722">  7  8 -1 -1</clus>
<clus scale="   94.733">  5  6 -1 -1</clus>
<clus scale="  115.955">  2  5  1 -1</clus>
<clus scale="  180.850">  7  9 -1 -1</clus>
<clus scale="  501.135">  1  5  2 -1</clus>
</clustering>
</event>
<event>
 9    1  0.3303741E-006  0.2363064E+03  0.7546771E-02  0.1149414E+00
         21   -1    0    0  501  502  0.00000000000E+00  0.00000000000E+00  0.38269821809E+02  0.38269821809E+02  0.00000000000E+00 0.  1.
          1   -1    0    0  502    0 -0.00000000000E+00 -0.00000000000E+00 -0.92104636714E+03  0.92104636714E+03  0.00000000000E+00 0. -1.
         23    2    1    2    0    0  0.79525221971E+02 -0.10011188639E+02 -0.44923077110E+03  0.46555243152E+03  0.92229582911E+02 0.  0.
         23    2    1    2    0    0 -0.65820659980E+02 -0.34477820428E+02 -0.10012000405E+03  0.15710394223E+03  0.95585323515E+02 0.  0.
        -11    1    4    4    0    0  0.85080436527E+01 -0.40067887888E+02 -0.59440871675E+02  0.72187531279E+02  0.00000000000E+00 0. -1.
         11    1    4    4    0    0 -0.74328703632E+02  0.55900674599E+01 -0.40679132370E+02  0.84916410948E+02  0.00000000000E+00 0.  1.
        -13    1    3    3    0    0  0.99401159007E+02 -0.16951813816E+02 -0.38330795291E+03  0.39634951895E+03  0.00000000000E+00 0. -1.
         13    1    3    3    0    0 -0.19875937035E+02  0.69406251764E+01 -0.65922818182E+02  0.69202912568E+02  0.00000000000E+00 0.  1.
          1    1    1    2  501    0 -0.13704561992E+02  0.44489009067E+02 -0.33342577019E+03  0.33665981520E+03  0.00000000000E+00 0. -1.
<scales pt_clust_5="13000.00000" pt_clust_6="13000.00000" pt_clust_7="13000.00000" pt_clust_8="13000.00000" pt_clust_9="13000.00000"></scales>
<clustering>
<clus scale="   92.230">  7  8 -1 -1</clus>
<clus scale="   95.585">  5  6 -1 -1</clus>
<clus scale="   46.552">  5  9 -1 -1</clus>
<clus scale="  122.192">  2  7  1 -1</clus>
<clus scale="  236.306">  1  5  2 -1</clus>
</clustering>
</event>
<event>
 9    1  0.3303741E-006  0.2948168E+03  0.7546771E-02  0.1102645E+00
         21   -1    0    0  501  502  0.00000000000E+00  0.00000000000E+00  0.54665147308E+02  0.54665147308E+02  0.00000000000E+00 0. -1.
          1   -1    0    0  502    0 -0.00000000000E+00 -0.00000000000E+00 -0.11526654526E+04  0.11526654526E+04  0.00000000000E+00 0. -1.
         23    2    1    2    0    0 -0.85702997249E+02 -0.15505027087E+03 -0.54577808081E+03  0.58133831522E+03  0.93246624677E+02 0.  0.
         23    2    1    2    0    0 -0.41314556171E+02  0.12505200796E+02 -0.22918851513E+03  0.25075458236E+03  0.92126068552E+02 0.  0.
        -11    1    4    4    0    0 -0.46719121330E+02 -0.17638563770E+02 -0.56645739878E+02  0.75515131437E+02  0.00000000000E+00 0. -1.
         11    1    4    4    0    0  0.54045651586E+01  0.30143764566E+02 -0.17254277525E+03  0.17523945092E+03  0.00000000000E+00 0.  1.
        -13    1    3    3    0    0 -0.85902889566E+02 -0.13415393172E+03 -0.53420380239E+03  0.55744980610E+03  0.00000000000E+00 0. -1.
         13    1    3    3    0    0  0.19989231676E+00 -0.20896339154E+02 -0.11574278417E+02  0.23888509117E+02  0.00000000000E+00 0.  1.
          1    1    1    2  501    0  0.12701755342E+03  0.14254507008E+03 -0.32303370940E+03  0.37523770238E+03  0.00000000000E+00 0. -1.
<scales pt_clust_5="13000.00000" pt_clust_6="13000.00000" pt_clust_7="13000.00000" pt_clust_8="13000.00000" pt_clust_9="13000.00000"></scales>
<clustering>
<clus scale="   92.126">  5  6 -1 -1</clus>
<clus scale="   93.247">  7  8 -1 -1</clus>
<clus scale="  190.926">  5  9 -1 -1</clus>
<clus scale="  200.201">  2  7  1 -1</clus>
<clus scale="  294.817">  1  5  2 -1</clus>
</clustering>
</event>
<event>
 9    1  0.3303741E-006  0.8013808E+03  0.7546771E-02  0.1004183E+00
         21   -1    0    0  501  502  0.00000000000E+00  0.00000000000E+00  0.92028151748E+03  0.92028151748E+03  0.00000000000E+00 0. -1.
          1   -1    0    0  502    0 -0.00000000000E+00 -0.00000000000E+00 -0.39746307968E+03  0.39746307968E+03  0.00000000000E+00 0. -1.
         23    2    1    2    0    0  0.13643597970E+03 -0.28463704222E+01 -0.18618984713E+03  0.24774276133E+03  0.89927405357E+02 0.  0.
         23    2    1    2    0    0  0.22673214019E+03  0.48407411991E+02 -0.21070885109E+02  0.25331187854E+03  0.99860826537E+02 0.  0.
        -13    1    4    4    0    0  0.83573553456E+02 -0.23502970984E+02  0.17425496410E+02  0.88547029354E+02  0.00000000000E+00 0.  1.
         13    1    4    4    0    0  0.14315858674E+03  0.71910382975E+02 -0.38496381519E+02  0.16476484918E+03  0.00000000000E+00 0. -1.
        -13    1    3    3    0    0  0.46704949546E+02  0.42272277030E+02 -0.71314158825E+02  0.95152545769E+02  0.00000000000E+00 0.  1.
         13    1    3    3    0    0  0.89731030154E+02 -0.45118647452E+02 -0.11487568830E+03  0.15259021556E+03  0.00000000000E+00 0. -1.
          1    1    1    2  501    0 -0.36316811989E+03 -0.45561041569E+02  0.73007917004E+03  0.81668995729E+03  0.00000000000E+00 0. -1.
<scales pt_clust_5="13000.00000" pt_clust_6="13000.00000" pt_clust_7="13000.00000" pt_clust_8="13000.00000" pt_clust_9="13000.00000"></scales>
<clustering>
<clus scale="   89.927">  7  8 -1 -1</clus>
<clus scale="   99.861">  5  6 -1 -1</clus>
<clus scale="  163.431">  2  7  1 -1</clus>
<clus scale="  333.654">  5  9 -1 -1</clus>
<clus scale="  801.381">  1  5  2 -1</clus>
</clustering>
</event>
<event>
 9    1  0.3303741E-006  0.1739919E+03  0.7546771E-02  0.1187126E+00
         21   -1    0    0  501  502  0.00000000000E+00  0.00000000000E+00  0.28601818579E+02  0.28601818579E+02  0.00000000000E+00 0. -1.
         -1   -1    0    0    0  501 -0.00000000000E+00 -0.00000000000E+00 -0.88327436855E+03  0.88327436855E+03  0.00000000000E+00 0.  1.
         23    2    1    2    0    0  0.92987958384E+02 -0.12111190904E+02 -0.23220726298E+03  0.26555102041E+03  0.88338497312E+02 0.  0.
         23    2    1    2    0    0 -0.29281610549E+02 -0.27156768860E+02 -0.34829583225E+03  0.36212565699E+03  0.90719908946E+02 0.  0.
        -11    1    3    3    0    0 -0.34533884757E+01  0.24062530810E+02 -0.29926747645E+02  0.38555693556E+02  0.00000000000E+00 0.  1.
         11    1    3    3    0    0  0.96441346860E+02 -0.36173721714E+02 -0.20228051534E+03  0.22699532685E+03  0.00000000000E+00 0. -1.
        -13    1    4    4    0    0 -0.53383735978E+02 -0.22033745384E+02 -0.31737944162E+03  0.32259110211E+03  0.00000000000E+00 0.  1.
         13    1    4    4    0    0  0.24102125429E+02 -0.51230234765E+01 -0.30916390635E+02  0.39534554880E+02  0.00000000000E+00 0. -1.
         -1    1    1    2    0  502 -0.63706347835E+02  0.39267959764E+02 -0.27416945474E+03  0.28419950973E+03  0.00000000000E+00 0.  1.
<scales pt_clust_5="13000.00000" pt_clust_6="13000.00000" pt_clust_7="13000.00000" pt_clust_8="13000.00000" pt_clust_9="13000.00000"></scales>
<clustering>
<clus scale="   88.338">  5  6 -1 -1</clus>
<clus scale="   90.720">  7  8 -1 -1</clus>
<clus scale="   74.836">  7  9 -1 -1</clus>
<clus scale="  128.830">  2  5  1 -1</clus>
<clus scale="  173.992">  1  5  2 -1</clus>
</clustering>
</event>
<event>
 9    1  0.3303741E-006  0.4184789E+03  0.7546771E-02  0.1063694E+00
          1   -1    0    0  502    0 -0.00000000000E+00  0.00000000000E+00  0.24947540519E+03  0.24947540519E+03  0.00000000000E+00 0. -1.
         21   -1    0    0  501  502  0.00000000000E+00 -0.00000000000E+00 -0.41739781111E+03  0.41739781111E+03  0.00000000000E+00 0. -1.
         23    2    1    2    0    0 -0.38653593474E+02  0.17428636257E+03  0.35034782101E+02  0.20177517618E+03  0.87269406431E+02 0.  0.
         23    2    1    2    0    0  0.55195190346E+02 -0.60135202783E+01  0.81637090660E+02  0.13406439027E+03  0.90697159288E+02 0.  0.
        -11    1    4    4    0    0  0.73596654336E+02 -0.16316329046E+02  0.83973387959E+02  0.11284600130E+03  0.00000000000E+00 0. -1.
         11    1    4    4    0    0 -0.18401463990E+02  0.10302808768E+02 -0.23362972992E+01  0.21218388972E+02  0.00000000000E+00 0.  1.
        -11    1    3    3    0    0 -0.57707942288E+02  0.14111980974E+03  0.50365722157E+02  0.16056684986E+03  0.00000000000E+00 0. -1.
         11    1    3    3    0    0  0.19054348814E+02  0.33166552829E+02 -0.15330940056E+02  0.41208326322E+02  0.00000000000E+00 0.  1.
          1    1    1    2  501    0 -0.16541596872E+02 -0.16827284229E+03 -0.28459427868E+03  0.33103364986E+03  0.00000000000E+00 0. -1.
<scales pt_clust_5="13000.00000" pt_clust_6="13000.00000" pt_clust_7="13000.00000" pt_clust_8="13000.00000" pt_clust_9="13000.00000"></scales>
<clustering>
<clus scale="   87.269">  7  8 -1 -1</clus>
<clus scale="   90.697">  5  6 -1 -1</clus>
<clus scale="  169.084">  5  9 -1 -1</clus>
<clus scale="  198.710">  1  7  2 -1</clus>
<clus scale="  418.479">  2  5  1 -1</clus>
</clustering>
</event>
<event>
 9    1  0.3303741E-006  0.4602033E+03  0.7546771E-02  0.1068488E+00
         21   -1    0    0  501  502  0.00000000000E+00  0.00000000000E+00  0.20878250768E+03  0.20878250768E+03  0.00000000000E+00 0.  1.
         -2   -1    0    0    0  501 -0.00000000000E+00 -0.00000000000E+00 -0.42468314624E+03  0.42468314624E+03  0.00000000000E+00 0.  1.
         23    2    1    2    0    0  0.27492687616E+02  0.89879361613E+02 -0.80997370314E+02  0.15389710887E+03  0.91047232820E+02 0.  0.
         23    2    1    2    0    0  0.99700203943E+02  0.89393354393E+02 -0.19350561287E+03  0.25208014279E+03  0.90380715320E+02 0.  0.
        -11    1    3    3    0    0  0.15596864246E+02  0.48703714432E+02  0.11086018994E+02  0.52327944646E+02  0.00000000000E+00 0.  1.
         11    1    3    3    0    0  0.11895823370E+02  0.41175647181E+02 -0.92083389308E+02  0.10156916422E+03  0.00000000000E+00 0. -1.
        -13    1    4    4    0    0  0.11236005809E+03  0.62629442765E+02 -0.13478362825E+03  0.18631654837E+03  0.00000000000E+00 0.  1.
         13    1    4    4    0    0 -0.12659854145E+02  0.26763911627E+02 -0.58721984625E+02  0.65763594419E+02  0.00000000000E+00 0. -1.
         -2    1    1    2    0  502 -0.12719289156E+03 -0.17927271601E+03  0.58602344622E+02  0.22748840226E+03  0.00000000000E+00 0.  1.
<scales pt_clust_5="13000.00000" pt_clust_6="13000.00000" pt_clust_7="13000.00000" pt_clust_8="13000.00000" pt_clust_9="13000.00000"></scales>
<clustering>
<clus scale="   90.381">  7  8 -1 -1</clus>
<clus scale="   91.047">  5  6 -1 -1</clus>
<clus scale="  130.858">  2  5  1 -1</clus>
<clus scale="  195.460">  7  9 -1 -1</clus>
<clus scale="  460.203">  1  5  2 -1</clus>
</clustering>
</event>
<event>
 9    1  0.3303741E-006  0.4788572E+03  0.7546771E-02  0.1075480E+00
         21   -1    0    0  501  502  0.00000000000E+00  0.00000000000E+00  0.15572228679E+03  0.15572228679E+03  0.00000000000E+00 0.  1.
         -1   -1    0    0    0  501 -0.00000000000E+00 -0.00000000000E+00 -0.68321131454E+03  0.68321131454E+03  0.00000000000E+00 0.  1.
         23    2    1    2    0    0 -0.87952130740E+01 -0.47416938852E+02 -0.28793937731E+03  0.30350079450E+03  0.82933258670E+02 0.  0.
         23    2    1    2    0    0 -0.16508465116E+03 -0.13143404835E+03 -0.11355984166E+03  0.25597741732E+03  0.90004163397E+02 0.  0.
        -13    1    4    4    0    0 -0.80261615170E+02 -0.11908237114E+03 -0.67708851596E+02  0.15876720874E+03  0.00000000000E+00 0.  1.
         13    1    4    4    0    0 -0.84823035987E+02 -0.12351677213E+02 -0.45850990063E+02  0.97210208588E+02  0.00000000000E+00 0. -1.
        -13    1    3    3    0    0 -0.27692735741E+02  0.31065362263E+01 -0.34320820613E+02  0.44209240071E+02  0.00000000000E+00 0. -1.
         13    1    3    3    0    0  0.18897522667E+02 -0.50523475078E+02 -0.25361855670E+03  0.25929155443E+03  0.00000000000E+00 0.  1.
         -1    1    1    2    0  502  0.17387986423E+03  0.17885098720E+03 -0.12598980878E+03  0.27945538951E+03  0.00000000000E+00 0.  1.
<scales pt_clust_5="13000.00000" pt_clust_6="13000.00000" pt_clust_7="13000.00000" pt_clust_8="13000.00000" pt_clust_9="13000.00000"></scales>
<clustering>
<clus scale="   82.933">  7  8 -1 -1</clus>
<clus scale="   90.004">  5  6 -1 -1</clus>
<clus scale="   95.936">  2  7  1 -1</clus>
<clus scale="  228.877">  5  9 -1 -1</clus>
<clus scale="  478.857">  1  5  2 -1</clus>
</clustering>
</event>
<event>
 9    1  0.3303741E-006  0.2901257E+03  0.7546771E-02  0.1126184E+00
         21   -1    0    0  501  502  0.00000000000E+00  0.00000000000E+00  0.20284109672E+03  0.20284109672E+03  0.00000000000E+00 0.  1.
          1   -1    0    0  502    0 -0.00000000000E+00 -0.00000000000E+00 -0.36634883899E+03  0.36634883899E+03  0.00000000000E+00 0. -1.
         23    2    1    2    0    0  0.57731095210E+02  0.31920692599E+02 -0.24227209497E+03  0.26856272772E+03  0.95280432148E+02 0.  0.
         23    2    1    2    0    0 -0.96049860921E+02  0.91120363961E+02  0.31341756852E+02  0.16330884795E+03  0.90327058991E+02 0.  0.
        -11    1    3    3    0    0  0.23040161390E+02  0.64350603391E+02 -0.14678086181E+03  0.16191501038E+03  0.00000000000E+00 0.  1.
         11    1    3    3    0    0  0.34690933819E+02 -0.32429910792E+02 -0.95491233166E+02  0.10664771734E+03  0.00000000000E+00 0. -1.
        -11    1    4    4    0    0 -0.50880451213E+02  0.76208206515E+02  0.58326069068E+02  0.10862063059E+03  0.00000000000E+00 0.  1.
         11    1    4    4    0    0 -0.45169409708E+02  0.14912157445E+02 -0.26984312216E+02  0.54688217367E+02  0.00000000000E+00 0. -1.
          1    1    1    2  501    0  0.38318765711E+02 -0.12304105656E+03  0.47422595854E+02  0.13731836003E+03  0.00000000000E+00 0. -1.
<scales pt_clust_5="13000.00000" pt_clust_6="13000.00000" pt_clust_7="13000.00000" pt_clust_8="13000.00000" pt_clust_9="13000.00000"></scales>
<clustering>
<clus scale="   90.327">  7  8 -1 -1</clus>
<clus scale="   95.280">  5  6 -1 -1</clus>
<clus scale="  115.889">  2  5  1 -1</clus>
<clus scale="  126.221">  7  9 -1 -1</clus>
<clus scale="  290.126">  1  5  2 -1</clus>
</clustering>
</event>
<event>
 9    1  0.3303741E-006  0.1567243E+03  0.7546771E-02  0.1211381E+00
         21   -1    0    0  501  502  0.00000000000E+00  0.00000000000E+00  0.52978227394E+03  0.52978227394E+03  0.00000000000E+00 0.  1.
         -1   -1    0    0    0  501 -0.00000000000E+00 -0.00000000000E+00 -0.87883827169E+02  0.87883827169E+02  0.00000000000E+00 0.  1.
         23    2    1    2    0    0  0.37028436192E+02 -0.28555017358E+02 -0.39604289630E+02  0.11129924736E+03  0.92911401898E+02 0.  0.
         23    2    1    2    0    0 -0.12000751817E+01  0.59799322931E+02  0.36082401939E+03  0.37666245590E+03  0.90017962139E+02 0.  0.
        -11    1    4    4    0    0 -0.84501094369E+01  0.78548732274E+02  0.33356454396E+03  0.34279237547E+03  0.00000000000E+00 0.  1.
         11    1    4    4    0    0  0.72500342552E+01 -0.18749409343E+02  0.27259475436E+02  0.33870080432E+02  0.00000000000E+00 0. -1.
        -13    1    3    3    0    0  0.14374446713E+02 -0.55644427092E+02 -0.48139559055E+02  0.74968954446E+02  0.00000000000E+00 0.  1.
         13    1    3    3    0    0  0.22653989479E+02  0.27089409734E+02  0.85352694247E+01  0.36330292914E+02  0.00000000000E+00 0. -1.
         -1    1    1    2    0  502 -0.35828361010E+02 -0.31244305573E+02  0.12067871700E+03  0.12970439785E+03  0.00000000000E+00 0.  1.
<scales pt_clust_5="13000.00000" pt_clust_6="13000.00000" pt_clust_7="13000.00000" pt_clust_8="13000.00000" pt_clust_9="13000.00000"></scales>
<clustering>
<clus scale="   90.018">  5  6 -1 -1</clus>
<clus scale="   47.538">  5  9 -1 -1</clus>
<clus scale="   92.911">  7  8 -1 -1</clus>
<clus scale="  104.015">  2  7  1 -1</clus>
<clus scale="  156.724">  1  5  2 -1</clus>
</clustering>
</event>
<event>
 9    1  0.3303741E-006  0.3202794E+03  0.7546771E-02  0.1105343E+00
          1   -1    0    0  502    0 -0.00000000000E+00  0.00000000000E+00  0.10769813482E+04  0.10769813482E+04  0.00000000000E+00 0. -1.
         21   -1    0    0  501  502  0.00000000000E+00 -0.00000000000E+00 -0.50447389232E+02  0.50447389232E+02  0.00000000000E+00 0.  1.
         23    2    1    2    0    0 -0.11086655958E+03 -0.26935106110E+02  0.30454488049E+03  0.33758880058E+03  0.90563348376E+02 0.  0.
         23    2    1    2    0    0  0.15890835876E+03  0.93012519447E+02  0.64763381349E+03  0.67937299857E+03  0.90636193419E+02 0.  0.
        -11    1    3    3    0    0 -0.48005104024E+02 -0.14389047225E+02  0.36532533139E+02  0.62017422310E+02  0.00000000000E+00 0.  1.
         11    1    3    3    0    0 -0.62861455553E+02 -0.12546058885E+02  0.26801234735E+03  0.27557137827E+03  0.00000000000E+00 0. -1.
        -13    1    4    4    0    0  0.13390512016E+03  0.11044133393E+03  0.57432469621E+03  0.59998060479E+03  0.00000000000E+00 0.  1.
         13    1    4    4    0    0  0.25003238598E+02 -0.17428814481E+02  0.73309117282E+02  0.79392393787E+02  0.00000000000E+00 0. -1.
          1    1    1    2  501    0 -0.48041799185E+02 -0.66077413337E+02  0.74355264996E+02  0.11046693829E+03  0.00000000000E+00 0. -1.
<scales pt_clust_5="13000.00000" pt_clust_6="13000.00000" pt_clust_7="13000.00000" pt_clust_8="13000.00000" pt_clust_9="13000.00000"></scales>
<clustering>
<clus scale="   90.563">  5  6 -1 -1</clus>
<clus scale="   90.636">  7  8 -1 -1</clus>
<clus scale="   81.696">  7  9 -1 -1</clus>
<clus scale="  145.666">  1  5  2 -1</clus>
<clus scale="  320.279">  2  5  1 -1</clus>
</clustering>
</event>
<event>
 9    1  0.3303741E-006  0.2161157E+03  0.7546771E-02  0.1145013E+00
         21   -1    0    0  501  502  0.00000000000E+00  0.00000000000E+00  0.84013122124E+03  0.84013122124E+03  0.00000000000E+00 0. -1.
         -1   -1    0    0    0  501 -0.00000000000E+00 -0.00000000000E+00 -0.12084070871E+03  0.12084070871E+03  0.00000000000E+00 0.  1.
         23    2    1    2    0    0  0.25862124331E+02  0.15031731776E+03  0.72338536544E+03  0.74481742047E+03  0.90567419187E+02 0.  0.
         23    2    1    2    0    0 -0.18726732995E+02 -0.52743576164E+02 -0.35719289396E+02  0.11333596133E+03  0.91850950681E+02 0.  0.
        -11    1    4    4    0    0 -0.52793370401E+02 -0.50586038809E+02 -0.20318103491E+02  0.75887499696E+02  0.00000000000E+00 0.  1.
         11    1    4    4    0    0  0.34066637407E+02 -0.21575373550E+01 -0.15401185905E+02  0.37448461636E+02  0.00000000000E+00 0. -1.
        -13    1    3    3    0    0  0.10428500533E+01  0.15030970672E+03  0.65616041908E+03  0.67315718152E+03  0.00000000000E+00 0. -1.
         13    1    3    3    0    0  0.24819274277E+02  0.76110428665E-02  0.67224946358E+02  0.71660238950E+02  0.00000000000E+00 0.  1.
         -1    1    1    2    0  502 -0.71353913359E+01 -0.97573741595E+02  0.31624436490E+02  0.10281854814E+03  0.00000000000E+00 0.  1.
<scales pt_clust_5="13000.00000" pt_clust_6="13000.00000" pt_clust_7="13000.00000" pt_clust_8="13000.00000" pt_clust_9="13000.00000"></scales>
<clustering>
<clus scale="   90.567">  7  8 -1 -1</clus>
<clus scale="   91.851">  5  6 -1 -1</clus>
<clus scale="   97.834">  5  9 -1 -1</clus>
<clus scale="  177.388">  2  7  1 -1</clus>
<clus scale="  216.116">  1  5  2 -1</clus>
</clustering>
</event>
<event>
 9    1  0.3303741E-006  0.2248175E+03  0.7546771E-02  0.1159995E+00
         21   -1    0    0  501  502  0.00000000000E+00  0.00000000000E+00  0.30508648178E+02  0.30508648178E+02  0.00000000000E+00 0.  1.
         -1   -1    0    0    0  501 -0.00000000000E+00 -0.00000000000E+00 -0.93682783828E+03  0.93682783828E+03  0.00000000000E+00 0.  1.
         23    2    1    2    0    0  0.37646747616E+02 -0.57627642346E+02 -0.35815852748E+03  0.37486451461E+03  0.86646700692E+02 0.  0.
         23    2    1    2    0    0 -0.77751282987E+02 -0.15107897555E+02 -0.19860625606E+03  0.23318501735E+03  0.93044595741E+02 0.  0.
        -11    1    4    4    0    0 -0.26326573006E+02 -0.36122849063E+02 -0.25670114589E+02  0.51545159363E+02  0.00000000000E+00 0.  1.
         11    1    4    4    0    0 -0.51424709980E+02  0.21014951508E+02 -0.17293614147E+03  0.18163985799E+03  0.00000000000E+00 0. -1.
        -13    1    3    3    0    0  0.26819946535E+01  0.19954170949E+02 -0.32160214235E+02  0.37942606832E+02  0.00000000000E+00 0. -1.
         13    1    3    3    0    0  0.34964752963E+02 -0.77581813295E+02 -0.32599831325E+03  0.33692190778E+03  0.00000000000E+00 0.  1.
         -1    1    1    2    0  502  0.40104535370E+02  0.72735539901E+02 -0.34955440657E+03  0.35928695450E+03  0.00000000000E+00 0.  1.
<scales pt_clust_5="13000.00000" pt_clust_6="13000.00000" pt_clust_7="13000.00000" pt_clust_8="13000.00000" pt_clust_9="13000.00000"></scales>
<clustering>
<clus scale="   86.647">  7  8 -1 -1</clus>
<clus scale="   93.045">  5  6 -1 -1</clus>
<clus scale="   83.059">  5  9 -1 -1</clus>
<clus scale="  110.661">  2  7  1 -1</clus>
<clus scale="  224.818">  1  5  2 -1</clus>
</clustering>
</event>
<event>
 9    1  0.3303741E-006  0.1886794E+03  0.7546771E-02  0.1186036E+00
          1   -1    0    0  502    0 -0.00000000000E+00  0.00000000000E+00  0.35275179237E+02  0.35275179237E+02  0.00000000000E+00 0. -1.
         21   -1    0    0  501  502  0.00000000000E+00 -0.00000000000E+00 -0.65631182071E+03  0.65631182071E+03  0.00000000000E+00 0. -1.
         23    2    1    2    0    0  0.34242515523E+02 -0.20960229084E+02 -0.13428068261E+03  0.16954171697E+03  0.95400267275E+02 0.  0.
         23    2    1    2    0    0  0.19288370823E+02  0.34157376659E+02 -0.15553719747E+03  0.18626918438E+03  0.94686966486E+02 0.  0.
        -11    1    3    3    0    0  0.15960450825E+02 -0.33025053418E+02 -0.14173470346E+03  0.14640394909E+03  0.00000000000E+00 0.  1.
         11    1    3    3    0    0  0.18282064698E+02  0.12064824333E+02  0.74540208431E+01  0.23137767882E+02  0.00000000000E+00 0. -1.
        -13    1    4    4    0    0  0.76313425531E+01  0.65080470297E+02 -0.77283121208E+02  0.10132317517E+03  0.00000000000E+00 0. -1.
         13    1    4    4    0    0  0.11657028270E+02 -0.30923093638E+02 -0.78254076263E+02  0.84946009206E+02  0.00000000000E+00 0.  1.
          1    1    1    2  501    0 -0.53530886347E+02 -0.13197147575E+02 -0.33121876139E+03  0.33577609860E+03  0.00000000000E+00 0. -1.
<scales pt_clust_5="13000.00000" pt_clust_6="13000.00000" pt_clust_7="13000.00000" pt_clust_8="13000.00000" pt_clust_9="13000.00000"></scales>
<clustering>
<clus scale="   94.687">  7  8 -1 -1</clus>
<clus scale="   55.134">  7  9 -1 -1</clus>
<clus scale="   95.400">  5  6 -1 -1</clus>
<clus scale="  103.504">  1  5  2 -1</clus>
<clus scale="  188.679">  2  5  1 -1</clus>
</clustering>
</event>
<event>
 9    1  0.3303741E-006  0.2517495E+03  0.7546771E-02  0.1138858E+00
         21   -1    0    0  501  502  0.00000000000E+00  0.00000000000E+00  0.17953945009E+03  0.17953945009E+03  0.00000000000E+00 0.  1.
          1   -1    0    0  502    0 -0.00000000000E+00 -0.00000000000E+00 -0.40330773916E+03  0.40330773916E+03  0.00000000000E+00 0. -1.
         23    2    1    2    0    0 -0.65540538680E+02 -0.62121604093E+02  0.10609885795E+03  0.16788919560E+03  0.93675815646E+02 0.  0.
         23    2    1    2    0    0  0.54030430844E+02  0.79779025847E+02 -0.35632560865E+03  0.38113023408E+03  0.94912251728E+02 0.  0.
        -11    1    4    4    0    0  0.36965600486E+02 -0.14052670604E+02 -0.92657890569E+02  0.10074431922E+03  0.00000000000E+00 0.  1.
         11    1    4    4    0    0  0.17064830358E+02  0.93831696451E+02 -0.26366771809E+03  0.28038591486E+03  0.00000000000E+00 0. -1.
        -13    1    3    3    0    0 -0.85539425524E+02 -0.49847829786E+02  0.10512238164E+03  0.14440399778E+03  0.00000000000E+00 0.  1.
         13    1    3    3    0    0  0.19998886844E+02 -0.12273774306E+02  0.97647630605E+00  0.23485197821E+02  0.00000000000E+00 0. -1.
          1    1    1    2  501    0  0.11510107836E+02 -0.17657421755E+02  0.26458461637E+02  0.33827759572E+02  0.00000000000E+00 0. -1.
<scales pt_clust_5="13000.00000" pt_clust_6="13000.00000" pt_clust_7="13000.00000" pt_clust_8="13000.00000" pt_clust_9="13000.00000"></scales>
<clustering>
<clus scale="   93.676">  7  8 -1 -1</clus>
<clus scale="   94.912">  5  6 -1 -1</clus>
<clus scale="   21.078">  5  9 -1 -1</clus>
<clus scale="  130.115">  2  7  1 -1</clus>
<clus scale="  251.749">  1  5  2 -1</clus>
</clustering>
</event>
<event>
 9    1  0.3303741E-006  0.1672834E+03  0.7546771E-02  0.1187712E+00
         -3   -1    0    0    0  501 -0.00000000000E+00  0.00000000000E+00  0.55350012163E+03  0.55350012163E+03  0.00000000000E+00 0.  1.
         21   -1    0    0  501  502  0.00000000000E+00 -0.00000000000E+00 -0.45195921177E+02  0.45195921177E+02  0.00000000000E+00 0. -1.
         23    2    1    2    0    0  0.75914805684E+02  0.79156062857E+02  0.17741971315E+03  0.22792890835E+03  0.91897185163E+02 0.  0.
         23    2    1    2    0    0 -0.24355131179E+02 -0.40877742358E+02  0.19793189197E+03  0.22311882778E+03  0.91328063697E+02 0.  0.
        -11    1    4    4    0    0  0.48658783675E+01 -0.57145473012E+02  0.68023890389E+02  0.88974892648E+02  0.00000000000E+00 0. -1.
         11    1    4    4    0    0 -0.29221009547E+02  0.16267730654E+02  0.12990800158E+03  0.13414393514E+03  0.00000000000E+00 0.  1.
        -11    1    3    3    0    0 -0.54589804254E+00  0.63609224852E+02  0.95965014592E+02  0.11513346827E+03  0.00000000000E+00 0.  1.
         11    1    3    3    0    0  0.76460703726E+02  0.15546838006E+02  0.81454698556E+02  0.11279544008E+03  0.00000000000E+00 0. -1.
         -3    1    1    2    0  502 -0.51559674505E+02 -0.38278320499E+02  0.13295259533E+03  0.14764830667E+03  0.00000000000E+00 0.  1.
<scales pt_clust_5="13000.00000" pt_clust_6="13000.00000" pt_clust_7="13000.00000" pt_clust_8="13000.00000" pt_clust_9="13000.00000"></scales>
<clustering>
<clus scale="   91.328">  5  6 -1 -1</clus>
<clus scale="   64.216">  5  9 -1 -1</clus>
<clus scale="   91.897">  7  8 -1 -1</clus>
<clus scale="  143.087">  1  7  2 -1</clus>
<clus scale="  167.283">  2  5  1 -1</clus>
</clustering>
</event>
<event>
 9    1  0.3303741E-006  0.2697462E+03  0.7546771E-02  0.1136204E+00
         -1   -1    0    0    0  501 -0.00000000000E+00  0.00000000000E+00  0.94353004966E+02  0.94353004966E+02  0.00000000000E+00 0.  1.
         21   -1    0    0  501  502  0.00000000000E+00 -0.00000000000E+00 -0.40004450123E+03  0.40004450123E+03  0.00000000000E+00 0.  1.
         23    2    1    2    0    0  0.50774763956E+02 -0.46205525234E+02 -0.52411896188E+02  0.12437916538E+03  0.89499400567E+02 0.  0.
         23    2    1    2    0    0  0.35304049903E+02  0.29432433192E+02 -0.67491806104E+01  0.10835415424E+03  0.97889873021E+02 0.  0.
        -11    1    3    3    0    0  0.67079224680E+02 -0.21249170854E+02 -0.78991292052E+01  0.70806397224E+02  0.00000000000E+00 0.  1.
         11    1    3    3    0    0 -0.16304460725E+02 -0.24956354380E+02 -0.44512766983E+02  0.53572768156E+02  0.00000000000E+00 0. -1.
        -13    1    4    4    0    0  0.18664317934E+02  0.57680562670E+02 -0.30505186634E+02  0.67867300561E+02  0.00000000000E+00 0.  1.
         13    1    4    4    0    0  0.16639731968E+02 -0.28248129479E+02  0.23756006023E+02  0.40486853684E+02  0.00000000000E+00 0. -1.
         -1    1    1    2    0  502 -0.86078813858E+02  0.16773092042E+02 -0.24653041946E+03  0.26166418657E+03  0.00000000000E+00 0.  1.
<scales pt_clust_5="13000.00000" pt_clust_6="13000.00000" pt_clust_7="13000.00000" pt_clust_8="13000.00000" pt_clust_9="13000.00000"></scales>
<clustering>
<clus scale="   89.499">  5  6 -1 -1</clus>
<clus scale="   97.890">  7  8 -1 -1</clus>
<clus scale="   87.698">  7  9 -1 -1</clus>
<clus scale="  112.797">  1  5  2 -1</clus>
<clus scale="  269.746">  2  5  1 -1</clus>
</clustering>
</event>
<event>
 9    1  0.3303741E-006  0.1972830E+03  0.7546771E-02  0.1179760E+00
         21   -1    0    0  501  502  0.00000000000E+00  0.00000000000E+00  0.79442223790E+02  0.79442223790E+02  0.00000000000E+00 0.  1.
          1   -1    0    0  502    0 -0.00000000000E+00 -0.00000000000E+00 -0.31495519186E+03  0.31495519186E+03  0.00000000000E+00 0. -1.
         23    2    1    2    0    0  0.23809587611E+02  0.42557805044E+02 -0.27602147573E+02  0.10778358657E+03  0.92072578716E+02 0.  0.
         23    2    1    2    0    0 -0.41967106997E+01 -0.98720574726E+02 -0.12123169176E+03  0.18148441836E+03  0.92065774126E+02 0.  0.
        -11    1    3    3    0    0  0.31281161759E+02  0.89032077616E+01  0.27630109727E+02  0.42675533423E+02  0.00000000000E+00 0.  1.
         11    1    3    3    0    0 -0.74715741480E+01  0.33654597282E+02 -0.55232257299E+02  0.65108053149E+02  0.00000000000E+00 0. -1.
        -13    1    4    4    0    0 -0.36171739574E+02 -0.71926263852E+02 -0.11334469312E+03  0.13902806060E+03  0.00000000000E+00 0.  1.
         13    1    4    4    0    0  0.31975028875E+02 -0.26794310875E+02 -0.78869986414E+01  0.42456357761E+02  0.00000000000E+00 0. -1.
          1    1    1    2  501    0 -0.19612876911E+02  0.56162769682E+02 -0.86679128730E+02  0.10512941071E+03  0.00000000000E+00 0. -1.
<scales pt_clust_5="13000.00000" pt_clust_6="13000.00000" pt_clust_7="13000.00000" pt_clust_8="13000.00000" pt_clust_9="13000.00000"></scales>
<clustering>
<clus scale="   92.066">  7  8 -1 -1</clus>
<clus scale="   59.489">  7  9 -1 -1</clus>
<clus scale="   92.073">  5  6 -1 -1</clus>
<clus scale="  104.189">  2  5  1 -1</clus>
<clus scale="  197.283">  1  5  2 -1</clus>
</clustering>
</event>
<event>
 9    1  0.3303741E-006  0.1961265E+03  0.7546771E-02  0.1171343E+00
         -3   -1    0    0    0  501 -0.00000000000E+00  0.00000000000E+00  0.10408717548E+03  0.10408717548E+03  0.00000000000E+00 0.  1.
         21   -1    0    0  501  502  0.00000000000E+00 -0.00000000000E+00 -0.25569398988E+03  0.25569398988E+03  0.00000000000E+00 0.  1.
         23    2    1    2    0    0  0.91283572300E+02  0.48482121803E+01 -0.78764370782E+02  0.15056450997E+03  0.90053594185E+02 0.  0.
         23    2    1    2    0    0 -0.29334023643E+02  0.46860399313E+02 -0.23506742158E+02  0.11463579833E+03  0.97634099400E+02 0.  0.
        -11    1    4    4    0    0 -0.52133930136E+02  0.30513810605E+02  0.19334678810E+02  0.63426091743E+02  0.00000000000E+00 0. -1.
         11    1    4    4    0    0  0.22799906493E+02  0.16346588708E+02 -0.42841420968E+02  0.51209706590E+02  0.00000000000E+00 0.  1.
        -13    1    3    3    0    0  0.43803305475E+02 -0.40892899339E+02 -0.52245994111E+02  0.79502218130E+02  0.00000000000E+00 0.  1.
         13    1    3    3    0    0  0.47480266825E+02  0.45741111519E+02 -0.26518376671E+02  0.71062291843E+02  0.00000000000E+00 0. -1.
         -3    1    1    2    0  502 -0.61949548657E+02 -0.51708611493E+02 -0.49335701464E+02  0.94580857050E+02  0.00000000000E+00 0.  1.
<scales pt_clust_5="13000.00000" pt_clust_6="13000.00000" pt_clust_7="13000.00000" pt_clust_8="13000.00000" pt_clust_9="13000.00000"></scales>
<clustering>
<clus scale="   90.054">  7  8 -1 -1</clus>
<clus scale="   97.634">  5  6 -1 -1</clus>
<clus scale="   80.694">  5  9 -1 -1</clus>
<clus scale="  128.319">  1  7  2 -1</clus>
<clus scale="  196.126">  2  5  1 -1</clus>
</clustering>
</event>
<event>
 9    1  0.3303741E-006  0.2026203E+03  0.7546771E-02  0.1171397E+00
          3   -1    0    0  502    0 -0.00000000000E+00  0.00000000000E+00  0.18623512673E+03  0.18623512673E+03  0.00000000000E+00 0. -1.
         21   -1    0    0  501  502  0.00000000000E+00 -0.00000000000E+00 -0.16159573933E+03  0.16159573933E+03  0.00000000000E+00 0.  1.
         23    2    1    2    0    0  0.51671737195E+02 -0.45958142200E+02  0.75912419459E+02  0.13882387863E+03  0.93419776231E+02 0.  0.
         23    2    1    2    0    0  0.17925928703E+02  0.52369788371E+01  0.27710042160E+02  0.96133721071E+02  0.90139231322E+02 0.  0.
        -11    1    4    4    0    0  0.53596097156E+02  0.12408629978E+02  0.22247594963E+02  0.59341985221E+02  0.00000000000E+00 0.  1.
         11    1    4    4    0    0 -0.35670168453E+02 -0.71716511414E+01  0.54624471972E+01  0.36791735851E+02  0.00000000000E+00 0. -1.
        -11    1    3    3    0    0  0.22197936518E+01 -0.28751722638E+02  0.81227895171E+02  0.86194895397E+02  0.00000000000E+00 0. -1.
         11    1    3    3    0    0  0.49451943543E+02 -0.17206419562E+02 -0.53154757123E+01  0.52628983235E+02  0.00000000000E+00 0.  1.
          3    1    1    2  501    0 -0.69597665898E+02  0.40721163363E+02 -0.78983074225E+02  0.11287326636E+03  0.00000000000E+00 0. -1.
<scales pt_clust_5="13000.00000" pt_clust_6="13000.00000" pt_clust_7="13000.00000" pt_clust_8="13000.00000" pt_clust_9="13000.00000"></scales>
<clustering>
<clus scale="   90.139">  5  6 -1 -1</clus>
<clus scale="   80.635">  5  9 -1 -1</clus>
<clus scale="   93.420">  7  8 -1 -1</clus>
<clus scale="  116.230">  1  7  2 -1</clus>
<clus scale="  202.620">  2  5  1 -1</clus>
</clustering>
</event>
<event>
 9    1  0.3303741E-006  0.2065126E+03  0.7546771E-02  0.1148383E+00
         21   -1    0    0  501  502  0.00000000000E+00  0.00000000000E+00  0.33810932028E+03  0.33810932028E+03  0.00000000000E+00 0. -1.
          3   -1    0    0  502    0 -0.00000000000E+00 -0.00000000000E+00 -0.11612421417E+03  0.11612421417E+03  0.00000000000E+00 0. -1.
         23    2    1    2    0    0  0.13193687543E+03 -0.98916084945E+02  0.12944848279E+03  0.22793623543E+03  0.89477856301E+02 0.  0.
         23    2    1    2    0    0 -0.39246767406E+02  0.41935702524E+02  0.32201174489E+02  0.10188433147E+03  0.77746957903E+02 0.  0.
        -13    1    3    3    0    0  0.19537843164E+02 -0.40420130352E+02  0.80360069261E+02  0.92050285089E+02  0.00000000000E+00 0.  1.
         13    1    3    3    0    0  0.11239903227E+03 -0.58495954592E+02  0.49088413524E+02  0.13588595035E+03  0.00000000000E+00 0. -1.
        -13    1    4    4    0    0 -0.24379230075E+02 -0.20860102378E+02  0.92462673708E+01  0.33391378986E+02  0.00000000000E+00 0. -1.
         13    1    4    4    0    0 -0.14867537331E+02  0.62795804903E+02  0.22954907118E+02  0.68492952488E+02  0.00000000000E+00 0.  1.
          3    1    1    2  501    0 -0.92690108028E+02  0.56980382420E+02  0.60335448829E+02  0.12441296754E+03  0.00000000000E+00 0. -1.
<scales pt_clust_5="13000.00000" pt_clust_6="13000.00000" pt_clust_7="13000.00000" pt_clust_8="13000.00000" pt_clust_9="13000.00000"></scales>
<clustering>
<clus scale="   77.747">  7  8 -1 -1</clus>
<clus scale="   89.478">  5  6 -1 -1</clus>
<clus scale="  108.804">  7  9 -1 -1</clus>
<clus scale="  187.611">  2  5  1 -1</clus>
<clus scale="  206.513">  1  5  2 -1</clus>
</clustering>
</event>
<event>
 9    1  0.3303741E-006  0.3009155E+03  0.7546771E-02  0.1119402E+00
          1   -1    0    0  502    0 -0.00000000000E+00  0.00000000000E+00  0.26090500673E+03  0.26090500673E+03  0.00000000000E+00 0. -1.
         21   -1    0    0  501  502  0.00000000000E+00 -0.00000000000E+00 -0.18063565877E+03  0.18063565877E+03  0.00000000000E+00 0. -1.
         23    2    1    2    0    0 -0.34572375813E+02  0.74843940916E+02 -0.19545374418E+02  0.12450264132E+03  0.91225113720E+02 0.  0.
         23    2    1    2    0    0 -0.32124254491E+02 -0.94123555836E+01  0.17244216509E+03  0.19869750581E+03  0.92864623777E+02 0.  0.
        -11    1    3    3    0    0  0.41756838662E-01  0.86274752484E+02 -0.17214878264E+02  0.87975489163E+02  0.00000000000E+00 0. -1.
         11    1    3    3    0    0 -0.34614132652E+02 -0.11430811568E+02 -0.23304961541E+01  0.36527152157E+02  0.00000000000E+00 0.  1.
        -13    1    4    4    0    0  0.31620507625E+02 -0.19905184024E+00  0.36654229800E+02  0.48408973201E+02  0.00000000000E+00 0.  1.
         13    1    4    4    0    0 -0.63744762116E+02 -0.92133037433E+01  0.13578793529E+03  0.15028853261E+03  0.00000000000E+00 0. -1.
          1    1    1    2  501    0  0.66696630304E+02 -0.65431585332E+02 -0.72627442717E+02  0.11834051837E+03  0.00000000000E+00 0. -1.
<scales pt_clust_5="13000.00000" pt_clust_6="13000.00000" pt_clust_7="13000.00000" pt_clust_8="13000.00000" pt_clust_9="13000.00000"></scales>
<clustering>
<clus scale="   91.225">  5  6 -1 -1</clus>
<clus scale="   92.865">  7  8 -1 -1</clus>
<clus scale="   93.433">  7  9 -1 -1</clus>
<clus scale="  122.959">  1  5  2 -1</clus>
<clus scale="  300.915">  2  5  1 -1</clus>
</clustering>
</event>
<event>
 9    1  0.3303741E-006  0.4329398E+03  0.7546771E-02  0.1051801E+00
         21   -1    0    0  501  502  0.00000000000E+00  0.00000000000E+00  0.15306336658E+03  0.15306336658E+03  0.00000000000E+00 0. -1.
          2   -1    0    0  502    0 -0.00000000000E+00 -0.00000000000E+00 -0.77664601936E+03  0.77664601936E+03  0.00000000000E+00 0. -1.
         23    2    1    2    0    0  0.10578176534E+03  0.20862099443E+03 -0.17135929378E+03  0.30365599073E+03  0.90169018766E+02 0.  0.
         23    2    1    2    0    0 -0.10498662522E+02  0.39844139450E+02 -0.30630815140E+03  0.32256527313E+03  0.92335770164E+02 0.  0.
        -13    1    4    4    0    0  0.38711882719E+02  0.16955949324E+01 -0.11067420411E+03  0.11726152123E+03  0.00000000000E+00 0.  1.
         13    1    4    4    0    0 -0.49210545241E+02  0.38148544518E+02 -0.19563394729E+03  0.20530375190E+03  0.00000000000E+00 0. -1.
        -13    1    3    3    0    0  0.10706271434E+03  0.11636888101E+03 -0.11529343556E+03  0.19569547147E+03  0.00000000000E+00 0. -1.
         13    1    3    3    0    0 -0.12809490028E+01  0.92252113424E+02 -0.56065858222E+02  0.10796051926E+03  0.00000000000E+00 0.  1.
          2    1    1    2  501    0 -0.95283102819E+02 -0.24846513388E+03 -0.14591520759E+03  0.30348812208E+03  0.00000000000E+00 0. -1.
<scales pt_clust_5="13000.00000" pt_clust_6="13000.00000" pt_clust_7="13000.00000" pt_clust_8="13000.00000" pt_clust_9="13000.00000"></scales>
<clustering>
<clus scale="   90.169">  7  8 -1 -1</clus>
<clus scale="   92.336">  5  6 -1 -1</clus>
<clus scale="  250.685">  2  7  1 -1</clus>
<clus scale="  169.436">  5  9 -1 -1</clus>
<clus scale="  432.940">  1  5  2 -1</clus>
</clustering>
</event>
<event>
 9    1  0.3303741E-006  0.2027373E+03  0.7546771E-02  0.1179590E+00
         21   -1    0    0  501  502  0.00000000000E+00  0.00000000000E+00  0.46868032880E+02  0.46868032880E+02  0.00000000000E+00 0.  1.
          1   -1    0    0  502    0 -0.00000000000E+00 -0.00000000000E+00 -0.47734293738E+03  0.47734293738E+03  0.00000000000E+00 0. -1.
         23    2    1    2    0    0 -0.15278313047E+01  0.33423985065E+02 -0.13480125020E+03  0.16570670682E+03  0.90376095196E+02 0.  0.
         23    2    1    2    0    0 -0.33081574515E+02 -0.83539123272E+02 -0.25630763489E+03  0.28598515194E+03  0.89558515719E+02 0.  0.
        -13    1    3    3    0    0 -0.40114515926E+02  0.39011656162E+02 -0.65115053264E+02  0.85854841832E+02  0.00000000000E+00 0. -1.
         13    1    3    3    0    0  0.38586684621E+02 -0.55876710969E+01 -0.69686196937E+02  0.79851864987E+02  0.00000000000E+00 0.  1.
        -13    1    4    4    0    0  0.27856761673E+02 -0.50096363378E+02 -0.11278011243E+03  0.12651086339E+03  0.00000000000E+00 0.  1.
         13    1    4    4    0    0 -0.60938336188E+02 -0.33442759894E+02 -0.14352752245E+03  0.15947428855E+03  0.00000000000E+00 0. -1.
          1    1    1    2  501    0  0.34609405819E+02  0.50115138207E+02 -0.39366019410E+02  0.72519111501E+02  0.00000000000E+00 0. -1.
<scales pt_clust_5="13000.00000" pt_clust_6="13000.00000" pt_clust_7="13000.00000" pt_clust_8="13000.00000" pt_clust_9="13000.00000"></scales>
<clustering>
<clus scale="   89.559">  7  8 -1 -1</clus>
<clus scale="   60.904">  7  9 -1 -1</clus>
<clus scale="   90.376">  5  6 -1 -1</clus>
<clus scale="   96.371">  2  5  1 -1</clus>
<clus scale="  202.737">  1  5  2 -1</clus>
</clustering>
</event>
<event>
 9    1  0.3303741E-006  0.5180532E+03  0.7546771E-02  0.1045706E+00
          1   -1    0    0  502    0 -0.00000000000E+00  0.00000000000E+00  0.55238113081E+03  0.55238113081E+03  0.00000000000E+00 0. -1.
         21   -1    0    0  501  502  0.00000000000E+00 -0.00000000000E+00 -0.24425763791E+03  0.24425763791E+03  0.00000000000E+00 0. -1.
         23    2    1    2    0    0 -0.14001706903E+03 -0.45388608790E+02 -0.31746567971E+02  0.17704957875E+03  0.93133255777E+02 0.  0.
         23    2    1    2    0    0  0.27852371086E+03  0.12392473160E+03  0.33197069186E+03  0.46017020600E+03  0.92840086279E+02 0.  0.
        -11    1    3    3    0    0 -0.53792768053E+02 -0.65352797422E+02 -0.59106508774E+01  0.84850373126E+02  0.00000000000E+00 0. -1.
         11    1    3    3    0    0 -0.86224300972E+02  0.19964188632E+02 -0.25835917094E+02  0.92199205626E+02  0.00000000000E+00 0.  1.
        -11    1    4    4    0    0  0.16072726979E+03  0.47454995156E+02  0.12089433350E+03  0.20664140847E+03  0.00000000000E+00 0. -1.
         11    1    4    4    0    0  0.11779644107E+03  0.76469736442E+02  0.21107635835E+03  0.25352879753E+03  0.00000000000E+00 0.  1.
          1    1    1    2  501    0 -0.13850664184E+03 -0.78536122808E+02  0.78993690161E+01  0.15941898397E+03  0.00000000000E+00 0. -1.
<scales pt_clust_5="13000.00000" pt_clust_6="13000.00000" pt_clust_7="13000.00000" pt_clust_8="13000.00000" pt_clust_9="13000.00000"></scales>
<clustering>
<clus scale="   92.840">  7  8 -1 -1</clus>
<clus scale="   93.133">  5  6 -1 -1</clus>
<clus scale="  159.223">  7  9 -1 -1</clus>
<clus scale="  174.180">  1  5  2 -1</clus>
<clus scale="  518.053">  2  5  1 -1</clus>
</clustering>
</event>
<event>
 9    1  0.3303741E-006  0.5088149E+03  0.7546771E-02  0.1070427E+00
         21   -1    0    0  501  502  0.00000000000E+00  0.00000000000E+00  0.55781347159E+03  0.55781347159E+03  0.00000000000E+00 0. -1.
          2   -1    0    0  502    0 -0.00000000000E+00 -0.00000000000E+00 -0.16918606087E+03  0.16918606087E+03  0.00000000000E+00 0. -1.
         23    2    1    2    0    0 -0.86974319181E+01 -0.17400769352E+02  0.12164014687E+03  0.15239112874E+03  0.89712310704E+02 0.  0.
         23    2    1    2    0    0 -0.66109643922E+02  0.68099339795E+02 -0.11942717278E+03  0.17776767942E+03  0.91271535255E+02 0.  0.
        -11    1    4    4    0    0 -0.47622880374E+02 -0.71675911101E+01 -0.72897888715E+02  0.87369418429E+02  0.00000000000E+00 0. -1.
         11    1    4    4    0    0 -0.18486763548E+02  0.75266930906E+02 -0.46529284060E+02  0.90398260988E+02  0.00000000000E+00 0.  1.
        -13    1    3    3    0    0  0.20625383355E+02 -0.45036479084E+02  0.51194261366E+02  0.71235828651E+02  0.00000000000E+00 0.  1.
         13    1    3    3    0    0 -0.29322815273E+02  0.27635709732E+02  0.70445885505E+02  0.81155300089E+02  0.00000000000E+00 0. -1.
          2    1    1    2  501    0  0.74807075840E+02 -0.50698570443E+02  0.38641443662E+03  0.39684072431E+03  0.00000000000E+00 0. -1.
<scales pt_clust_5="13000.00000" pt_clust_6="13000.00000" pt_clust_7="13000.00000" pt_clust_8="13000.00000" pt_clust_9="13000.00000"></scales>
<clustering>
<clus scale="   89.712">  7  8 -1 -1</clus>
<clus scale="   91.272">  5  6 -1 -1</clus>
<clus scale="   90.368">  5  9 -1 -1</clus>
<clus scale="   91.797">  2  7  1 -1</clus>
<clus scale="  508.815">  1  5  2 -1</clus>
</clustering>
</event>
<event>
 9    1  0.3303741E-006  0.2255456E+03  0.7546771E-02  0.1165446E+00
         21   -1    0    0  501  502  0.00000000000E+00  0.00000000000E+00  0.60944933293E+02  0.60944933293E+02  0.00000000000E+00 0. -1.
          1   -1    0    0  502    0 -0.00000000000E+00 -0.00000000000E+00 -0.53416851584E+03  0.53416851584E+03  0.00000000000E+00 0. -1.
         23    2    1    2    0    0  0.92771580400E+01  0.40950837279E+02 -0.35887469063E+02  0.10304262443E+03  0.86987558182E+02 0.  0.
         23    2    1    2    0    0  0.56407011957E+02  0.12589505789E+02 -0.35504118697E+03  0.37394617252E+03  0.10218242922E+03 0.  0.
        -13    1    4    4    0    0  0.73513825424E+02 -0.21824623650E+02 -0.19958895681E+03  0.21381381716E+03  0.00000000000E+00 0.  1.
         13    1    4    4    0    0 -0.17106813467E+02  0.34414129440E+02 -0.15545223016E+03  0.16013235536E+03  0.00000000000E+00 0. -1.
        -13    1    3    3    0    0  0.39358230330E+02 -0.55980645685E+01 -0.23743481232E+02  0.46305091757E+02  0.00000000000E+00 0.  1.
         13    1    3    3    0    0 -0.30081072290E+02  0.46548901847E+02 -0.12143987831E+02  0.56737532672E+02  0.00000000000E+00 0. -1.
          1    1    1    2  501    0 -0.65684169997E+02 -0.53540343068E+02 -0.82294926509E+02  0.11812465218E+03  0.00000000000E+00 0. -1.
<scales pt_clust_5="13000.00000" pt_clust_6="13000.00000" pt_clust_7="13000.00000" pt_clust_8="13000.00000" pt_clust_9="13000.00000"></scales>
<clustering>
<clus scale="   86.988">  7  8 -1 -1</clus>
<clus scale="   96.591">  2  7  1 -1</clus>
<clus scale="  102.182">  5  6 -1 -1</clus>
<clus scale="   77.811">  5  9 -1 -1</clus>
<clus scale="  225.546">  1  5  2 -1</clus>
</clustering>
</event>
<event>
 9    1  0.3303741E-006  0.3796813E+03  0.7546771E-02  0.1069240E+00
         21   -1    0    0  501  502  0.00000000000E+00  0.00000000000E+00  0.36876606876E+03  0.36876606876E+03  0.00000000000E+00 0.  1.
         -2   -1    0    0    0  501 -0.00000000000E+00 -0.00000000000E+00 -0.25988809433E+03  0.25988809433E+03  0.00000000000E+00 0.  1.
         23    2    1    2    0    0  0.12084185600E+03 -0.17109384691E+03 -0.16402724192E+02  0.22883773790E+03  0.90674154614E+02 0.  0.
         23    2    1    2    0    0 -0.22018081400E+03  0.13564951186E+03  0.89767342136E+02  0.28852523978E+03  0.91149642641E+02 0.  0.
        -13    1    3    3    0    0  0.88469379115E+02 -0.17442040571E+03 -0.16777635420E+02  0.19629263363E+03  0.00000000000E+00 0.  1.
         13    1    3    3    0    0  0.32372476890E+02  0.33265588009E+01  0.37491122751E+00  0.32545104269E+02  0.00000000000E+00 0. -1.
        -13    1    4    4    0    0 -0.18604016949E+02 -0.92610671303E+01 -0.72113634717E+01  0.21997285608E+02  0.00000000000E+00 0. -1.
         13    1    4    4    0    0 -0.20157679705E+03  0.14491057899E+03  0.96978705607E+02  0.26652795417E+03  0.00000000000E+00 0.  1.
         -2    1    1    2    0  502  0.99338957992E+02  0.35444335048E+02  0.35513356482E+02  0.11129118541E+03  0.00000000000E+00 0.  1.
<scales pt_clust_5="13000.00000" pt_clust_6="13000.00000" pt_clust_7="13000.00000" pt_clust_8="13000.00000" pt_clust_9="13000.00000"></scales>
<clustering>
<clus scale="   90.674">  5  6 -1 -1</clus>
<clus scale="   91.150">  7  8 -1 -1</clus>
<clus scale="  105.473">  7  9 -1 -1</clus>
<clus scale="  228.249">  2  5  1 -1</clus>
<clus scale="  379.681">  1  5  2 -1</clus>
</clustering>
</event>
<event>
 9    1  0.3303741E-006  0.4500656E+03  0.7546771E-02  0.1056088E+00
         -1   -1    0    0    0  501 -0.00000000000E+00  0.00000000000E+00  0.25701797038E+03  0.25701797038E+03  0.00000000000E+00 0.  1.
         21   -1    0    0  501  502  0.00000000000E+00 -0.00000000000E+00 -0.40853584595E+03  0.40853584595E+03  0.00000000000E+00 0.  1.
         23    2    1    2    0    0  0.68481734967E+02 -0.16093483653E+03 -0.56683803138E+02  0.20560544008E+03  0.92036806881E+02 0.  0.
         23    2    1    2    0    0 -0.96017827565E+02 -0.79801185701E+02 -0.14879906073E+03  0.21170597706E+03  0.84205746826E+02 0.  0.
        -11    1    4    4    0    0  0.14815472573E+01 -0.46870586675E+02 -0.36827373743E+02  0.59626356038E+02  0.00000000000E+00 0. -1.
         11    1    4    4    0    0 -0.97499374823E+02 -0.32930599026E+02 -0.11197168699E+03  0.15207962102E+03  0.00000000000E+00 0.  1.
        -11    1    3    3    0    0  0.25730651785E+02  0.15701712693E+01  0.56350317220E+01  0.26387221559E+02  0.00000000000E+00 0. -1.
         11    1    3    3    0    0  0.42751083182E+02 -0.16250500780E+03 -0.62318834860E+02  0.17921821852E+03  0.00000000000E+00 0.  1.
         -1    1    1    2    0  502  0.27536092598E+02  0.24073602223E+03  0.53964988303E+02  0.24824239919E+03  0.00000000000E+00 0.  1.
<scales pt_clust_5="13000.00000" pt_clust_6="13000.00000" pt_clust_7="13000.00000" pt_clust_8="13000.00000" pt_clust_9="13000.00000"></scales>
<clustering>
<clus scale="   84.206">  5  6 -1 -1</clus>
<clus scale="   92.037">  7  8 -1 -1</clus>
<clus scale="  197.638">  1  7  2 -1</clus>
<clus scale="  136.585">  5  9 -1 -1</clus>
<clus scale="  450.066">  2  5  1 -1</clus>
</clustering>
</event>
<event>
 9    1  0.3303741E-006  0.4307448E+03  0.7546771E-02  0.1039349E+00
         21   -1    0    0  501  502  0.00000000000E+00  0.00000000000E+00  0.42283054297E+03  0.42283054297E+03  0.00000000000E+00 0. -1.
         -4   -1    0    0    0  501 -0.00000000000E+00 -0.00000000000E+00 -0.45501183845E+03  0.45501183845E+03  0.00000000000E+00 0.  1.
         23    2    1    2    0    0 -0.96451674420E+02 -0.33932663098E+03  0.17004957812E+03  0.40198697604E+03  0.90725861261E+02 0.  0.
         23    2    1    2    0    0 -0.55121411340E+02  0.16972842797E+03 -0.12134703036E+03  0.23444259112E+03  0.91608501245E+02 0.  0.
        -11    1    3    3    0    0 -0.19958518416E+02 -0.72886047253E+02  0.81125723892E+02  0.11086974979E+03  0.00000000000E+00 0.  1.
         11    1    3    3    0    0 -0.76493156004E+02 -0.26644058373E+03  0.88923854225E+02  0.29111722625E+03  0.00000000000E+00 0. -1.
        -13    1    4    4    0    0 -0.15239123025E+02  0.80232900962E+02 -0.10823553133E+03  0.13558937830E+03  0.00000000000E+00 0.  1.
         13    1    4    4    0    0 -0.39882288315E+02  0.89495527013E+02 -0.13111499039E+02  0.98853212813E+02  0.00000000000E+00 0. -1.
         -4    1    1    2    0  502  0.15157308576E+03  0.16959820300E+03 -0.80883843238E+02  0.24141281425E+03  0.00000000000E+00 0.  1.
<scales pt_clust_5="13000.00000" pt_clust_6="13000.00000" pt_clust_7="13000.00000" pt_clust_8="13000.00000" pt_clust_9="13000.00000"></scales>
<clustering>
<clus scale="   90.726">  5  6 -1 -1</clus>
<clus scale="   91.609">  7  8 -1 -1</clus>
<clus scale="  227.460">  7  9 -1 -1</clus>
<clus scale="  364.248">  2  5  1 -1</clus>
<clus scale="  430.745">  1  5  2 -1</clus>
</clustering>
</event>
<event>
 9    1  0.3303741E-006  0.2428854E+03  0.7546771E-02  0.1154404E+00
         21   -1    0    0  501  502  0.00000000000E+00  0.00000000000E+00  0.11211771944E+03  0.11211771944E+03  0.00000000000E+00 0.  1.
          2   -1    0    0  502    0 -0.00000000000E+00 -0.00000000000E+00 -0.28528427202E+03  0.28528427202E+03  0.00000000000E+00 0. -1.
         23    2    1    2    0    0  0.80380544300E+01  0.38567467377E+02 -0.16018636431E+01  0.10003394850E+03  0.91935656989E+02 0.  0.
         23    2    1    2    0    0 -0.54888439965E+02  0.67160574250E+02 -0.11012864124E+03  0.16641856658E+03  0.89685774255E+02 0.  0.
        -11    1    4    4    0    0  0.85945429077E+01  0.60304664757E+02 -0.54088299662E+02  0.81462033608E+02  0.00000000000E+00 0.  1.
         11    1    4    4    0    0 -0.63482982873E+02  0.68559094931E+01 -0.56040341583E+02  0.84956532969E+02  0.00000000000E+00 0. -1.
        -13    1    3    3    0    0 -0.37993282300E+02  0.36857791849E+02 -0.79781535392E+01  0.53531647217E+02  0.00000000000E+00 0.  1.
         13    1    3    3    0    0  0.46031336730E+02  0.17096755276E+01  0.63762898961E+01  0.46502301280E+02  0.00000000000E+00 0. -1.
          2    1    1    2  501    0  0.46850385535E+02 -0.10572804163E+03 -0.61436047693E+02  0.13094947639E+03  0.00000000000E+00 0. -1.
<scales pt_clust_5="13000.00000" pt_clust_6="13000.00000" pt_clust_7="13000.00000" pt_clust_8="13000.00000" pt_clust_9="13000.00000"></scales>
<clustering>
<clus scale="   89.686">  5  6 -1 -1</clus>
<clus scale="   91.936">  7  8 -1 -1</clus>
<clus scale="  100.021">  2  7  1 -1</clus>
<clus scale="  102.946">  5  9 -1 -1</clus>
<clus scale="  242.885">  1  5  2 -1</clus>
</clustering>
</event>
<event>
 9    1  0.3303741E-006  0.6507725E+03  0.7546771E-02  0.9894251E-01
         21   -1    0    0  501  502  0.00000000000E+00  0.00000000000E+00  0.34713363505E+03  0.34713363505E+03  0.00000000000E+00 0. -1.
          1   -1    0    0  502    0 -0.00000000000E+00 -0.00000000000E+00 -0.93459330594E+03  0.93459330594E+03  0.00000000000E+00 0. -1.
         23    2    1    2    0    0 -0.12680929610E+03 -0.46178488726E+03 -0.22532337043E+03  0.53698027656E+03  0.90836757292E+02 0.  0.
         23    2    1    2    0    0  0.16605870725E+03  0.11648766145E+03 -0.32955743091E+03  0.39570214984E+03  0.82627002830E+02 0.  0.
        -11    1    4    4    0    0  0.12994334886E+03  0.12604723386E+03 -0.26121548060E+03  0.31781552256E+03  0.00000000000E+00 0.  1.
         11    1    4    4    0    0  0.36115358392E+02 -0.95595724127E+01 -0.68341950305E+02  0.77886627273E+02  0.00000000000E+00 0. -1.
        -13    1    3    3    0    0 -0.66977195494E+02 -0.37465855973E+03 -0.19113344180E+03  0.42589549618E+03  0.00000000000E+00 0. -1.
         13    1    3    3    0    0 -0.59832100608E+02 -0.87126327531E+02 -0.34189928628E+02  0.11108478038E+03  0.00000000000E+00 0.  1.
          1    1    1    2  501    0 -0.39249411151E+02  0.34529722581E+03 -0.32578869551E+02  0.34904451459E+03  0.00000000000E+00 0. -1.
<scales pt_clust_5="13000.00000" pt_clust_6="13000.00000" pt_clust_7="13000.00000" pt_clust_8="13000.00000" pt_clust_9="13000.00000"></scales>
<clustering>
<clus scale="   82.627">  5  6 -1 -1</clus>
<clus scale="   90.837">  7  8 -1 -1</clus>
<clus scale="  347.521">  5  9 -1 -1</clus>
<clus scale="  487.419">  2  7  1 -1</clus>
<clus scale="  650.773">  1  5  2 -1</clus>
</clustering>
</event>
<event>
 9    1  0.3303741E-006  0.3659983E+03  0.7546771E-02  0.1093064E+00
         21   -1    0    0  501  502  0.00000000000E+00  0.00000000000E+00  0.23161553138E+03  0.23161553138E+03  0.00000000000E+00 0. -1.
          1   -1    0    0  502    0 -0.00000000000E+00 -0.00000000000E+00 -0.36155573462E+03  0.36155573462E+03  0.00000000000E+00 0. -1.
         23    2    1    2    0    0 -0.74470037903E+02  0.61914839694E+02 -0.17912608603E+03  0.22388271081E+03  0.93048802160E+02 0.  0.
         23    2    1    2    0    0  0.17186998833E+03 -0.10809356739E+03  0.10289897581E+03  0.24885466629E+03  0.10058296831E+03 0.  0.
        -11    1    4    4    0    0  0.10158536871E+03 -0.39496110336E+02  0.33957879589E+01  0.10904614272E+03  0.00000000000E+00 0.  1.
         11    1    4    4    0    0  0.70284619618E+02 -0.68597457059E+02  0.99503187848E+02  0.13980852357E+03  0.00000000000E+00 0. -1.
        -11    1    3    3    0    0 -0.61027158047E+02  0.84912999828E+02 -0.12087157032E+03  0.15982636851E+03  0.00000000000E+00 0. -1.
         11    1    3    3    0    0 -0.13442879857E+02 -0.22998160134E+02 -0.58254515708E+02  0.64056342299E+02  0.00000000000E+00 0.  1.
          1    1    1    2  501    0 -0.97399950423E+02  0.46178727701E+02 -0.53713093007E+02  0.12043388890E+03  0.00000000000E+00 0. -1.
<scales pt_clust_5="13000.00000" pt_clust_6="13000.00000" pt_clust_7="13000.00000" pt_clust_8="13000.00000" pt_clust_9="13000.00000"></scales>
<clustering>
<clus scale="   93.049">  7  8 -1 -1</clus>
<clus scale="  100.583">  5  6 -1 -1</clus>
<clus scale="  107.793">  5  9 -1 -1</clus>
<clus scale="  134.303">  2  7  1 -1</clus>
<clus scale="  365.998">  1  5  2 -1</clus>
</clustering>
</event>
<event>
 9    1  0.3303741E-006  0.1760686E+03  0.7546771E-02  0.1188480E+00
          1   -1    0    0  502    0 -0.00000000000E+00  0.00000000000E+00  0.76234024296E+03  0.76234024296E+03  0.00000000000E+00 0. -1.
         21   -1    0    0  501  502  0.00000000000E+00 -0.00000000000E+00 -0.30118026043E+02  0.30118026043E+02  0.00000000000E+00 0. -1.
         23    2    1    2    0    0 -0.11193607813E+02  0.77394868638E+02  0.37979463914E+03  0.39849716278E+03  0.91873599467E+02 0.  0.
         23    2    1    2    0    0  0.36297841010E+02 -0.75642880571E+01  0.14503899736E+03  0.17369636598E+03  0.88087258338E+02 0.  0.
        -11    1    4    4    0    0  0.58076448232E+02 -0.80053461715E+01  0.52725294238E+02  0.78847422654E+02  0.00000000000E+00 0. -1.
         11    1    4    4    0    0 -0.21778607223E+02  0.44105811438E+00  0.92313703125E+02  0.94848943323E+02  0.00000000000E+00 0.  1.
        -13    1    3    3    0    0  0.31685112340E+02  0.67521124930E+02  0.27269341747E+03  0.28270965421E+03  0.00000000000E+00 0. -1.
         13    1    3    3    0    0 -0.42878720153E+02  0.98737437085E+01  0.10710122167E+03  0.11578750857E+03  0.00000000000E+00 0.  1.
          1    1    1    2  501    0 -0.25104233197E+02 -0.69830580581E+02  0.20738858042E+03  0.22026474025E+03  0.00000000000E+00 0. -1.
<scales pt_clust_5="13000.00000" pt_clust_6="13000.00000" pt_clust_7="13000.00000" pt_clust_8="13000.00000" pt_clust_9="13000.00000"></scales>
<clustering>
<clus scale="   88.087">  5  6 -1 -1</clus>
<clus scale="   74.206">  5  9 -1 -1</clus>
<clus scale="   91.874">  7  8 -1 -1</clus>
<clus scale="  120.648">  1  7  2 -1</clus>
<clus scale="  176.069">  2  5  1 -1</clus>
</clustering>
</event>
<event>
 9    1  0.3303741E-006  0.1916492E+03  0.7546771E-02  0.1183094E+00
         21   -1    0    0  501  502  0.00000000000E+00  0.00000000000E+00  0.10619445643E+03  0.10619445643E+03  0.00000000000E+00 0. -1.
          3   -1    0    0  502    0 -0.00000000000E+00 -0.00000000000E+00 -0.21177734019E+03  0.21177734019E+03  0.00000000000E+00 0. -1.
         23    2    1    2    0    0 -0.39057973973E+02  0.27112249536E+02 -0.16933754137E+02  0.10681285074E+03  0.94136250450E+02 0.  0.
         23    2    1    2    0    0  0.71144661017E+01  0.98895612585E+01 -0.12169129155E+03  0.15215635135E+03  0.90522736182E+02 0.  0.
        -11    1    4    4    0    0  0.26628742799E+02  0.43108525761E+02 -0.52510135959E+02  0.72970879909E+02  0.00000000000E+00 0. -1.
         11    1    4    4    0    0 -0.19514276697E+02 -0.33218964502E+02 -0.69181155593E+02  0.79185471438E+02  0.00000000000E+00 0.  1.
        -11    1    3    3    0    0 -0.11996221066E+02 -0.35381862281E+02 -0.60146653660E+01  0.37841269770E+02  0.00000000000E+00 0.  1.
         11    1    3    3    0    0 -0.27061752907E+02  0.62494111817E+02 -0.10919088771E+02  0.68971580972E+02  0.00000000000E+00 0. -1.
          3    1    1    2  501    0  0.31943507871E+02 -0.37001810795E+02  0.33042161921E+02  0.59002594533E+02  0.00000000000E+00 0. -1.
<scales pt_clust_5="13000.00000" pt_clust_6="13000.00000" pt_clust_7="13000.00000" pt_clust_8="13000.00000" pt_clust_9="13000.00000"></scales>
<clustering>
<clus scale="   90.523">  5  6 -1 -1</clus>
<clus scale="   48.883">  5  9 -1 -1</clus>
<clus scale="   94.136">  7  8 -1 -1</clus>
<clus scale="  105.462">  2  7  1 -1</clus>
<clus scale="  191.649">  1  5  2 -1</clus>
</clustering>
</event>
<event>
 9    1  0.3303741E-006  0.1793076E+03  0.7546771E-02  0.1187567E+00
          3   -1    0    0  502    0 -0.00000000000E+00  0.00000000000E+00  0.25769129298E+03  0.25769129298E+03  0.00000000000E+00 0. -1.
         21   -1    0    0  501  502  0.00000000000E+00 -0.00000000000E+00 -0.89555783131E+02  0.89555783131E+02  0.00000000000E+00 0. -1.
         23    2    1    2    0    0  0.64455466425E+02  0.31038105502E+02  0.10578785264E+03  0.15740911658E+03  0.92025480544E+02 0.  0.
         23    2    1    2    0    0 -0.54823170165E+02 -0.13115895817E+02  0.97701612692E+02  0.14904716524E+03  0.97426103447E+02 0.  0.
        -13    1    4    4    0    0 -0.20462819668E+02 -0.48431532121E+02  0.18436840195E+02  0.55715862811E+02  0.00000000000E+00 0. -1.
         13    1    4    4    0    0 -0.34360350496E+02  0.35315636304E+02  0.79264772497E+02  0.93331302428E+02  0.00000000000E+00 0.  1.
        -13    1    3    3    0    0  0.34714371423E+02 -0.22721666674E+02  0.85081840304E+01  0.42352696670E+02  0.00000000000E+00 0.  1.
         13    1    3    3    0    0  0.29741095002E+02  0.53759772176E+02  0.97279668612E+02  0.11505641991E+03  0.00000000000E+00 0. -1.
          3    1    1    2  501    0 -0.96322962603E+01 -0.17922209686E+02 -0.35353955483E+02  0.40790794300E+02  0.00000000000E+00 0. -1.
<scales pt_clust_5="13000.00000" pt_clust_6="13000.00000" pt_clust_7="13000.00000" pt_clust_8="13000.00000" pt_clust_9="13000.00000"></scales>
<clustering>
<clus scale="   92.025">  7  8 -1 -1</clus>
<clus scale="   97.426">  5  6 -1 -1</clus>
<clus scale="   20.347">  5  9 -1 -1</clus>
<clus scale="  116.561">  1  7  2 -1</clus>
<clus scale="  179.308">  2  5  1 -1</clus>
</clustering>
</event>
<event>
 9    1  0.3303741E-006  0.2185172E+03  0.7546771E-02  0.1167896E+00
         21   -1    0    0  501  502  0.00000000000E+00  0.00000000000E+00  0.27055820280E+03  0.27055820280E+03  0.00000000000E+00 0. -1.
          2   -1    0    0  502    0 -0.00000000000E+00 -0.00000000000E+00 -0.14767523099E+03  0.14767523099E+03  0.00000000000E+00 0. -1.
         23    2    1    2    0    0 -0.12955524625E+02 -0.35944469690E+02  0.16742942525E+03  0.19522185100E+03  0.92839152030E+02 0.  0.
         23    2    1    2    0    0 -0.52300329756E+02  0.27646196277E+02 -0.90441687115E+02  0.14280210488E+03  0.93344018166E+02 0.  0.
        -13    1    4    4    0    0 -0.59709430202E+02 -0.18647416402E+02 -0.41736412459E+02  0.75198871790E+02  0.00000000000E+00 0.  1.
         13    1    4    4    0    0  0.74091004457E+01  0.46293612679E+02 -0.48705274656E+02  0.67603233086E+02  0.00000000000E+00 0. -1.
        -13    1    3    3    0    0 -0.86597437205E+01 -0.59521552885E+02  0.59286387536E+02  0.84455208047E+02  0.00000000000E+00 0.  1.
         13    1    3    3    0    0 -0.42957809042E+01  0.23577083196E+02  0.10814303772E+03  0.11076664296E+03  0.00000000000E+00 0. -1.
          2    1    1    2  501    0  0.65255854381E+02  0.82982734122E+01  0.45895233674E+02  0.80209477910E+02  0.00000000000E+00 0. -1.
<scales pt_clust_5="13000.00000" pt_clust_6="13000.00000" pt_clust_7="13000.00000" pt_clust_8="13000.00000" pt_clust_9="13000.00000"></scales>
<clustering>
<clus scale="   92.839">  7  8 -1 -1</clus>
<clus scale="   93.344">  5  6 -1 -1</clus>
<clus scale="   65.781">  5  9 -1 -1</clus>
<clus scale="  100.394">  2  7  1 -1</clus>
<clus scale="  218.517">  1  5  2 -1</clus>
</clustering>
</event>
<event>
 9    1  0.3303741E-006  0.3874167E+03  0.7546771E-02  0.1097693E+00
         -3   -1    0    0    0  501 -0.00000000000E+00  0.00000000000E+00  0.59482741786E+03  0.59482741786E+03  0.00000000000E+00 0.  1.
         21   -1    0    0  501  502  0.00000000000E+00 -0.00000000000E+00 -0.10052345551E+03  0.10052345551E+03  0.00000000000E+00 0.  1.
         23    2    1    2    0    0 -0.30441054974E+02 -0.25954866199E+02  0.12315216677E+03  0.15883865625E+03  0.91994291293E+02 0.  0.
         23    2    1    2    0    0 -0.82731148401E+02 -0.12501261338E+03  0.27074086435E+03  0.32277994857E+03  0.91726131240E+02 0.  0.
        -11    1    4    4    0    0 -0.43660481145E+02 -0.88797385435E+02  0.87960887919E+02  0.13239460366E+03  0.00000000000E+00 0. -1.
         11    1    4    4    0    0 -0.39070667256E+02 -0.36215227945E+02  0.18277997643E+03  0.19038534492E+03  0.00000000000E+00 0.  1.
        -13    1    3    3    0    0 -0.63565847968E+02 -0.20132516041E+02  0.81083097236E+02  0.10497811147E+03  0.00000000000E+00 0.  1.
         13    1    3    3    0    0  0.33124792994E+02 -0.58223501575E+01  0.42069069537E+02  0.53860544780E+02  0.00000000000E+00 0. -1.
         -3    1    1    2    0  502  0.11317220338E+03  0.15096747958E+03  0.10041093122E+03  0.21373226854E+03  0.00000000000E+00 0.  1.
<scales pt_clust_5="13000.00000" pt_clust_6="13000.00000" pt_clust_7="13000.00000" pt_clust_8="13000.00000" pt_clust_9="13000.00000"></scales>
<clustering>
<clus scale="   91.726">  5  6 -1 -1</clus>
<clus scale="   91.994">  7  8 -1 -1</clus>
<clus scale="  100.316">  1  7  2 -1</clus>
<clus scale="  175.197">  5  9 -1 -1</clus>
<clus scale="  387.417">  2  5  1 -1</clus>
</clustering>
</event>
<event>
 9    1  0.3303741E-006  0.1518346E+03  0.7546771E-02  0.1219061E+00
         -3   -1    0    0    0  501 -0.00000000000E+00  0.00000000000E+00  0.24683786303E+03  0.24683786303E+03  0.00000000000E+00 0.  1.
         21   -1    0    0  501  502  0.00000000000E+00 -0.00000000000E+00 -0.82063074671E+02  0.82063074671E+02  0.00000000000E+00 0.  1.
         23    2    1    2    0    0  0.81520974205E+01  0.32161773741E+02  0.14669808900E+03  0.17599409265E+03  0.91393407593E+02 0.  0.
         23    2    1    2    0    0 -0.22981561251E+01  0.87545869857E+01 -0.22763206293E+02  0.94800777397E+02  0.91581108966E+02 0.  0.
        -13    1    3    3    0    0 -0.11695993042E+02  0.58009778858E+02  0.12025262241E+03  0.13402471374E+03  0.00000000000E+00 0.  1.
         13    1    3    3    0    0  0.19848090463E+02 -0.25848005116E+02  0.26445466584E+02  0.41969378913E+02  0.00000000000E+00 0. -1.
        -13    1    4    4    0    0  0.21740226132E+02 -0.32367372832E+02 -0.26308644730E+02  0.47036465044E+02  0.00000000000E+00 0. -1.
         13    1    4    4    0    0 -0.24038382258E+02  0.41121959818E+02  0.35454384369E+01  0.47764312353E+02  0.00000000000E+00 0.  1.
         -3    1    1    2    0  502 -0.58539412954E+01 -0.40916360727E+02  0.40839905661E+02  0.58106067655E+02  0.00000000000E+00 0.  1.
<scales pt_clust_5="13000.00000" pt_clust_6="13000.00000" pt_clust_7="13000.00000" pt_clust_8="13000.00000" pt_clust_9="13000.00000"></scales>
<clustering>
<clus scale="   91.393">  5  6 -1 -1</clus>
<clus scale="   91.581">  7  8 -1 -1</clus>
<clus scale="   41.333">  7  9 -1 -1</clus>
<clus scale="   97.230">  1  5  2 -1</clus>
<clus scale="  151.835">  2  5  1 -1</clus>
</clustering>
</event>
<event>
 9    1  0.3303741E-006  0.1591683E+03  0.7546771E-02  0.1211353E+00
         21   -1    0    0  501  502  0.00000000000E+00  0.00000000000E+00  0.58385788172E+02  0.58385788172E+02  0.00000000000E+00 0. -1.
          3   -1    0    0  502    0 -0.00000000000E+00 -0.00000000000E+00 -0.28656143683E+03  0.28656143683E+03  0.00000000000E+00 0. -1.
         23    2    1    2    0    0 -0.13550753803E+02  0.33506241659E+02 -0.93880292813E+02  0.13669310169E+03  0.92548384702E+02 0.  0.
         23    2    1    2    0    0 -0.28267571322E+02 -0.53175555008E+02 -0.65289571925E+02  0.12520322074E+03  0.88240710806E+02 0.  0.
        -13    1    4    4    0    0 -0.12022593663E+01 -0.32585616528E+02 -0.81315084334E+02  0.87609421710E+02  0.00000000000E+00 0. -1.
         13    1    4    4    0    0 -0.27065311955E+02 -0.20589938480E+02  0.16025512409E+02  0.37593799034E+02  0.00000000000E+00 0.  1.
        -13    1    3    3    0    0 -0.18269116868E+02 -0.29528986001E+02 -0.44705144272E+02  0.56606285604E+02  0.00000000000E+00 0. -1.
         13    1    3    3    0    0  0.47183630650E+01  0.63035227660E+02 -0.49175148540E+02  0.80086816082E+02  0.00000000000E+00 0.  1.
          3    1    1    2  501    0  0.41818325125E+02  0.19669313349E+02 -0.69005783922E+02  0.83050902575E+02  0.00000000000E+00 0. -1.
<scales pt_clust_5="13000.00000" pt_clust_6="13000.00000" pt_clust_7="13000.00000" pt_clust_8="13000.00000" pt_clust_9="13000.00000"></scales>
<clustering>
<clus scale="   88.241">  5  6 -1 -1</clus>
<clus scale="   46.213">  5  9 -1 -1</clus>
<clus scale="   92.548">  7  8 -1 -1</clus>
<clus scale="   99.355">  2  7  1 -1</clus>
<clus scale="  159.168">  1  5  2 -1</clus>
</clustering>
</event>
<event>
 9    1  0.3303741E-006  0.3040144E+03  0.7546771E-02  0.1109642E+00
         -3   -1    0    0    0  501 -0.00000000000E+00  0.00000000000E+00  0.51803488929E+02  0.51803488929E+02  0.00000000000E+00 0.  1.
         21   -1    0    0  501  502  0.00000000000E+00 -0.00000000000E+00 -0.10072928566E+04  0.10072928566E+04  0.00000000000E+00 0. -1.
         23    2    1    2    0    0  0.68656619150E+02 -0.11495703730E+03 -0.33675251347E+03  0.36970527040E+03  0.73149708532E+02 0.  0.
         23    2    1    2    0    0  0.50809100550E+02 -0.30420453548E+02 -0.29517485446E+03  0.31509301114E+03  0.92997001396E+02 0.  0.
        -11    1    3    3    0    0  0.76339218304E+02 -0.62794421040E+02 -0.23912212586E+03  0.25874737997E+03  0.00000000000E+00 0.  1.
         11    1    3    3    0    0 -0.76825991535E+01 -0.52162616264E+02 -0.97630387611E+02  0.11095789044E+03  0.00000000000E+00 0. -1.
        -11    1    4    4    0    0 -0.91757088942E+01 -0.22480649853E+02 -0.15182218965E+02  0.28636917156E+02  0.00000000000E+00 0.  1.
         11    1    4    4    0    0  0.59984809444E+02 -0.79398036947E+01 -0.27999263549E+03  0.28645609398E+03  0.00000000000E+00 0. -1.
         -3    1    1    2    0  502 -0.11946571970E+03  0.14537749085E+03 -0.32356199976E+03  0.37429806400E+03  0.00000000000E+00 0.  1.
<scales pt_clust_5="13000.00000" pt_clust_6="13000.00000" pt_clust_7="13000.00000" pt_clust_8="13000.00000" pt_clust_9="13000.00000"></scales>
<clustering>
<clus scale="   73.150">  5  6 -1 -1</clus>
<clus scale="   92.997">  7  8 -1 -1</clus>
<clus scale="  152.577">  1  5  2 -1</clus>
<clus scale="   94.183">  7  9 -1 -1</clus>
<clus scale="  304.014">  2  5  1 -1</clus>
</clustering>
</event>
<event>
 9    1  0.3303741E-006  0.2643546E+03  0.7546771E-02  0.1110494E+00
         21   -1    0    0  501  502  0.00000000000E+00  0.00000000000E+00  0.10404826016E+03  0.10404826016E+03  0.00000000000E+00 0. -1.
         -2   -1    0    0    0  501 -0.00000000000E+00 -0.00000000000E+00 -0.58959559073E+03  0.58959559073E+03  0.00000000000E+00 0. -1.
         23    2    1    2    0    0 -0.19363522984E+03  0.74400133502E+02 -0.26810127221E+03  0.35134840952E+03  0.92398217594E+02 0.  0.
         23    2    1    2    0    0  0.17596136428E+03 -0.10615545846E+02 -0.15297202762E+03  0.24989555074E+03  0.89287476818E+02 0.  0.
        -13    1    3    3    0    0 -0.37880707906E+02  0.59215729517E+02 -0.91532229572E+02  0.11541057016E+03  0.00000000000E+00 0. -1.
         13    1    3    3    0    0 -0.15575452193E+03  0.15184403986E+02 -0.17656904264E+03  0.23593783937E+03  0.00000000000E+00 0.  1.
        -13    1    4    4    0    0  0.14628061843E+03 -0.43962189293E+02 -0.11337401557E+03  0.19022187262E+03  0.00000000000E+00 0. -1.
         13    1    4    4    0    0  0.29680745852E+02  0.33346643447E+02 -0.39598012043E+02  0.59673678128E+02  0.00000000000E+00 0.  1.
         -2    1    1    2    0  502  0.17673865558E+02 -0.63784587657E+02 -0.64474030745E+02  0.92399890621E+02  0.00000000000E+00 0. -1.
<scales pt_clust_5="13000.00000" pt_clust_6="13000.00000" pt_clust_7="13000.00000" pt_clust_8="13000.00000" pt_clust_9="13000.00000"></scales>
<clustering>
<clus scale="   89.287">  7  8 -1 -1</clus>
<clus scale="   66.188">  7  9 -1 -1</clus>
<clus scale="   92.398">  5  6 -1 -1</clus>
<clus scale="  227.085">  2  5  1 -1</clus>
<clus scale="  264.355">  1  5  2 -1</clus>
</clustering>
</event>
<event>
 9    1  0.3303741E-006  0.1356466E+03  0.7546771E-02  0.1231737E+00
          3   -1    0    0  502    0 -0.00000000000E+00  0.00000000000E+00  0.25078218896E+02  0.25078218896E+02  0.00000000000E+00 0. -1.
         21   -1    0    0  501  502  0.00000000000E+00 -0.00000000000E+00 -0.57727182746E+03  0.57727182746E+03  0.00000000000E+00 0.  1.
         23    2    1    2    0    0  0.17877254582E+02  0.72450800378E+01 -0.25428335285E+03  0.27501148500E+03  0.10295244499E+03 0.  0.
         23    2    1    2    0    0 -0.27110332067E+02  0.12440464874E+02 -0.16321263936E+03  0.19089729835E+03  0.94412274632E+02 0.  0.
        -13    1    3    3    0    0  0.48289497308E+02  0.18621283912E+02 -0.22631182568E+03  0.23215441027E+03  0.00000000000E+00 0.  1.
         13    1    3    3    0    0 -0.30412242727E+02 -0.11376203874E+02 -0.27971527172E+02  0.42857074732E+02  0.00000000000E+00 0. -1.
        -13    1    4    4    0    0 -0.66626458007E+01 -0.31446077893E+02 -0.12543027003E+03  0.12948358700E+03  0.00000000000E+00 0.  1.
         13    1    4    4    0    0 -0.20447686266E+02  0.43886542766E+02 -0.37782369331E+02  0.61413711351E+02  0.00000000000E+00 0. -1.
          3    1    1    2  501    0  0.92330774853E+01 -0.19685544911E+02 -0.13469761636E+03  0.13644126301E+03  0.00000000000E+00 0. -1.
<scales pt_clust_5="13000.00000" pt_clust_6="13000.00000" pt_clust_7="13000.00000" pt_clust_8="13000.00000" pt_clust_9="13000.00000"></scales>
<clustering>
<clus scale="   94.412">  7  8 -1 -1</clus>
<clus scale="   21.743">  7  9 -1 -1</clus>
<clus scale="  102.952">  5  6 -1 -1</clus>
<clus scale="  104.744">  1  5  2 -1</clus>
<clus scale="  135.647">  2  5  1 -1</clus>
</clustering>
</event>
<event>
 9    1  0.3303741E-006  0.4001684E+03  0.7546771E-02  0.1086315E+00
         21   -1    0    0  501  502  0.00000000000E+00  0.00000000000E+00  0.50949165867E+02  0.50949165867E+02  0.00000000000E+00 0.  1.
         -4   -1    0    0    0  501 -0.00000000000E+00 -0.00000000000E+00 -0.13437877672E+04  0.13437877672E+04  0.00000000000E+00 0.  1.
         23    2    1    2    0    0 -0.73696326810E+01 -0.82396062247E+02 -0.28364319399E+03  0.30909882765E+03  0.90803090217E+02 0.  0.
         23    2    1    2    0    0 -0.17754900523E+03  0.39836662864E+02 -0.42003662270E+03  0.46667584596E+03  0.90801827214E+02 0.  0.
        -11    1    3    3    0    0 -0.99324954629E+01 -0.62104841690E+02 -0.28160742500E+03  0.28854533031E+03  0.00000000000E+00 0.  1.
         11    1    3    3    0    0  0.25628627819E+01 -0.20291220557E+02 -0.20357689923E+01  0.20553497336E+02  0.00000000000E+00 0. -1.
        -13    1    4    4    0    0 -0.10262118621E+02 -0.22464259618E+02 -0.57189953242E+02  0.62294821539E+02  0.00000000000E+00 0. -1.
         13    1    4    4    0    0 -0.16728688661E+03  0.62300922481E+02 -0.36284666946E+03  0.40438102442E+03  0.00000000000E+00 0.  1.
         -4    1    1    2    0  502  0.18491863791E+03  0.42559399384E+02 -0.58915878466E+03  0.61896225948E+03  0.00000000000E+00 0.  1.
<scales pt_clust_5="13000.00000" pt_clust_6="13000.00000" pt_clust_7="13000.00000" pt_clust_8="13000.00000" pt_clust_9="13000.00000"></scales>
<clustering>
<clus scale="   90.802">  7  8 -1 -1</clus>
<clus scale="   90.803">  5  6 -1 -1</clus>
<clus scale="  122.836">  2  5  1 -1</clus>
<clus scale="  180.737">  7  9 -1 -1</clus>
<clus scale="  400.168">  1  5  2 -1</clus>
</clustering>
</event>
<event>
 9    1  0.3303741E-006  0.2056870E+03  0.7546771E-02  0.1174133E+00
          2   -1    0    0  502    0 -0.00000000000E+00  0.00000000000E+00  0.23175705855E+03  0.23175705855E+03  0.00000000000E+00 0.  1.
         21   -1    0    0  501  502  0.00000000000E+00 -0.00000000000E+00 -0.30210465247E+03  0.30210465247E+03  0.00000000000E+00 0.  1.
         23    2    1    2    0    0  0.39310999207E+01 -0.55252160471E+02  0.18107978931E+03  0.20901887873E+03  0.88491506856E+02 0.  0.
         23    2    1    2    0    0 -0.34878426795E+02 -0.36141110442E+02 -0.87331198831E+02  0.13447995580E+03  0.89081062537E+02 0.  0.
        -11    1    3    3    0    0  0.16413092451E+02 -0.36066491611E+02  0.18185010040E+03  0.18611727603E+03  0.00000000000E+00 0.  1.
         11    1    3    3    0    0 -0.12481992530E+02 -0.19185668860E+02 -0.77031108897E+00  0.22901602702E+02  0.00000000000E+00 0. -1.
        -13    1    4    4    0    0 -0.51733632757E+02 -0.55293693015E+02 -0.73181751388E+02  0.10530588769E+03  0.00000000000E+00 0.  1.
         13    1    4    4    0    0  0.16855205962E+02  0.19152582573E+02 -0.14149447444E+02  0.29174068112E+02  0.00000000000E+00 0. -1.
          2    1    1    2  501    0  0.30947326874E+02  0.91393270913E+02 -0.16409618440E+03  0.19036287648E+03  0.00000000000E+00 0.  1.
<scales pt_clust_5="13000.00000" pt_clust_6="13000.00000" pt_clust_7="13000.00000" pt_clust_8="13000.00000" pt_clust_9="13000.00000"></scales>
<clustering>
<clus scale="   88.492">  5  6 -1 -1</clus>
<clus scale="   89.081">  7  8 -1 -1</clus>
<clus scale="   96.491">  7  9 -1 -1</clus>
<clus scale="  104.398">  1  5  2 -1</clus>
<clus scale="  205.687">  2  5  1 -1</clus>
</clustering>
</event>
<event>
 9    1  0.3303741E-006  0.2127511E+03  0.7546771E-02  0.1163752E+00
          2   -1    0    0  502    0 -0.00000000000E+00  0.00000000000E+00  0.27341170443E+03  0.27341170443E+03  0.00000000000E+00 0. -1.
         21   -1    0    0  501  502  0.00000000000E+00 -0.00000000000E+00 -0.24840851931E+03  0.24840851931E+03  0.00000000000E+00 0. -1.
         23    2    1    2    0    0 -0.71516148424E+02 -0.35891644074E+02  0.20880398576E+03  0.24066946185E+03  0.88993908769E+02 0.  0.
         23    2    1    2    0    0  0.42106405472E+02 -0.51890610154E+02 -0.13682066783E+03  0.17733462626E+03  0.90896037994E+02 0.  0.
        -13    1    4    4    0    0 -0.28845121218E+02 -0.18233165162E+02 -0.37149252367E+02  0.50443595047E+02  0.00000000000E+00 0. -1.
         13    1    4    4    0    0  0.70951526689E+02 -0.33657444992E+02 -0.99671415463E+02  0.12689103122E+03  0.00000000000E+00 0.  1.
        -13    1    3    3    0    0 -0.43384612971E+02 -0.24940237780E+02  0.27960983329E+02  0.57324137079E+02  0.00000000000E+00 0.  1.
         13    1    3    3    0    0 -0.28131535453E+02 -0.10951406294E+02  0.18084300243E+03  0.18334532477E+03  0.00000000000E+00 0. -1.
          2    1    1    2  501    0  0.29409742952E+02  0.87782254228E+02 -0.46980132810E+02  0.10381613563E+03  0.00000000000E+00 0. -1.
<scales pt_clust_5="13000.00000" pt_clust_6="13000.00000" pt_clust_7="13000.00000" pt_clust_8="13000.00000" pt_clust_9="13000.00000"></scales>
<clustering>
<clus scale="   88.994">  7  8 -1 -1</clus>
<clus scale="   90.896">  5  6 -1 -1</clus>
<clus scale="   92.578">  5  9 -1 -1</clus>
<clus scale="  119.677">  1  7  2 -1</clus>
<clus scale="  212.751">  2  5  1 -1</clus>
</clustering>
</event>
<event>
 9    1  0.3303741E-006  0.5031227E+03  0.7546771E-02  0.1066232E+00
         -2   -1    0    0    0  501 -0.00000000000E+00  0.00000000000E+00  0.30371718141E+03  0.30371718141E+03  0.00000000000E+00 0.  1.
         21   -1    0    0  501  502  0.00000000000E+00 -0.00000000000E+00 -0.30598552171E+03  0.30598552171E+03  0.00000000000E+00 0.  1.
         23    2    1    2    0    0  0.47971385129E+02  0.22756324428E+02 -0.35395888396E+00  0.10657634402E+03  0.92408266543E+02 0.  0.
         23    2    1    2    0    0  0.17354834316E+03 -0.19384148560E+02  0.13846619080E+03  0.24084966047E+03  0.91328529632E+02 0.  0.
        -11    1    4    4    0    0  0.13726717258E+03 -0.25948467357E+02  0.14722309909E+03  0.20295378915E+03  0.00000000000E+00 0.  1.
         11    1    4    4    0    0  0.36281170582E+02  0.65643187972E+01 -0.87569082902E+01  0.37895871317E+02  0.00000000000E+00 0. -1.
        -13    1    3    3    0    0  0.48099516042E+02  0.53323417858E+02 -0.13895223664E+02  0.73143882699E+02  0.00000000000E+00 0.  1.
         13    1    3    3    0    0 -0.12813091237E+00 -0.30567093430E+02  0.13541264780E+02  0.33432461323E+02  0.00000000000E+00 0. -1.
         -2    1    1    2    0  502 -0.22151972829E+03 -0.33721758682E+01 -0.14038057222E+03  0.26227669864E+03  0.00000000000E+00 0.  1.
<scales pt_clust_5="13000.00000" pt_clust_6="13000.00000" pt_clust_7="13000.00000" pt_clust_8="13000.00000" pt_clust_9="13000.00000"></scales>
<clustering>
<clus scale="   91.329">  5  6 -1 -1</clus>
<clus scale="   92.408">  7  8 -1 -1</clus>
<clus scale="  106.576">  1  7  2 -1</clus>
<clus scale="  209.864">  5  9 -1 -1</clus>
<clus scale="  503.123">  2  5  1 -1</clus>
</clustering>
</event>
<event>
 9    1  0.3303741E-006  0.1477568E+03  0.7546771E-02  0.1219251E+00
         -1   -1    0    0    0  501 -0.00000000000E+00  0.00000000000E+00  0.34391341061E+03  0.34391341061E+03  0.00000000000E+00 0.  1.
         21   -1    0    0  501  502  0.00000000000E+00 -0.00000000000E+00 -0.47288330829E+02  0.47288330829E+02  0.00000000000E+00 0. -1.
         23    2    1    2    0    0  0.26424339290E+02 -0.47064174104E+02  0.14907176406E+03  0.18238587165E+03  0.90160596421E+02 0.  0.
         23    2    1    2    0    0  0.60165541675E+01  0.61774906948E+02  0.10036267267E+03  0.14969079879E+03  0.92099571790E+02 0.  0.
        -13    1    4    4    0    0 -0.20251445978E+02  0.68797631548E+02  0.36908899197E+02  0.80656692288E+02  0.00000000000E+00 0. -1.
         13    1    4    4    0    0  0.26268000146E+02 -0.70227246006E+01  0.63453773469E+02  0.69034106498E+02  0.00000000000E+00 0.  1.
        -13    1    3    3    0    0 -0.22820039232E+02 -0.48668885370E+02  0.95597242664E+02  0.10967336686E+03  0.00000000000E+00 0. -1.
         13    1    3    3    0    0  0.49244378522E+02  0.16047112661E+01  0.53474521394E+02  0.72712504789E+02  0.00000000000E+00 0.  1.
         -1    1    1    2    0  502 -0.32440893458E+02 -0.14710732844E+02  0.47190643055E+02  0.59125071002E+02  0.00000000000E+00 0.  1.
<scales pt_clust_5="13000.00000" pt_clust_6="13000.00000" pt_clust_7="13000.00000" pt_clust_8="13000.00000" pt_clust_9="13000.00000"></scales>
<clustering>
<clus scale="   90.161">  7  8 -1 -1</clus>
<clus scale="   92.100">  5  6 -1 -1</clus>
<clus scale="   35.620">  5  9 -1 -1</clus>
<clus scale="  105.082">  1  7  2 -1</clus>
<clus scale="  147.757">  2  5  1 -1</clus>
</clustering>
</event>
<event>
 9    1  0.3303741E-006  0.2551492E+03  0.7546771E-02  0.1118451E+00
         21   -1    0    0  501  502  0.00000000000E+00  0.00000000000E+00  0.12040177724E+03  0.12040177724E+03  0.00000000000E+00 0. -1.
          3   -1    0    0  502    0 -0.00000000000E+00 -0.00000000000E+00 -0.44658798217E+03  0.44658798217E+03  0.00000000000E+00 0. -1.
         23    2    1    2    0    0 -0.11625343172E+03 -0.14460283850E+03 -0.17257335574E+03  0.26916766893E+03  0.90801044015E+02 0.  0.
         23    2    1    2    0    0  0.51245705914E+02  0.10166018885E+03 -0.16515589444E+03  0.21906094863E+03  0.88035864123E+02 0.  0.
        -11    1    4    4    0    0 -0.14272075827E+02  0.69034048492E+02 -0.74867469794E+02  0.10283253392E+03  0.00000000000E+00 0. -1.
         11    1    4    4    0    0  0.65517781741E+02  0.32626140361E+02 -0.90288424646E+02  0.11622841470E+03  0.00000000000E+00 0.  1.
        -13    1    3    3    0    0  0.10879682696E+02 -0.30498343805E+02 -0.11462002333E+02  0.34349584683E+02  0.00000000000E+00 0.  1.
         13    1    3    3    0    0 -0.12713311441E+03 -0.11410449469E+03 -0.16111135341E+03  0.23481808424E+03  0.00000000000E+00 0. -1.
          3    1    1    2  501    0  0.65007725802E+02  0.42942649644E+02  0.11543045257E+02  0.78761141854E+02  0.00000000000E+00 0. -1.
<scales pt_clust_5="13000.00000" pt_clust_6="13000.00000" pt_clust_7="13000.00000" pt_clust_8="13000.00000" pt_clust_9="13000.00000"></scales>
<clustering>
<clus scale="   88.036">  5  6 -1 -1</clus>
<clus scale="   77.911">  5  9 -1 -1</clus>
<clus scale="   90.801">  7  8 -1 -1</clus>
<clus scale="  206.566">  2  7  1 -1</clus>
<clus scale="  255.149">  1  5  2 -1</clus>
</clustering>
</event>
<event>
 9    1  0.3303741E-006  0.3742241E+03  0.7546771E-02  0.1083519E+00
         -3   -1    0    0    0  501 -0.00000000000E+00  0.00000000000E+00  0.29619382829E+03  0.29619382829E+03  0.00000000000E+00 0.  1.
         21   -1    0    0  501  502  0.00000000000E+00 -0.00000000000E+00 -0.45702289234E+03  0.45702289234E+03  0.00000000000E+00 0.  1.
         23    2    1    2    0    0 -0.11209295303E+03  0.73433502653E+02  0.18351174327E+03  0.24467542465E+03  0.90731439320E+02 0.  0.
         23    2    1    2    0    0  0.16556514272E+03 -0.11012803614E+03 -0.37694039754E+03  0.43595688208E+03  0.91838656936E+02 0.  0.
        -11    1    4    4    0    0  0.11727818052E+03 -0.23384557880E+02 -0.21437896478E+03  0.24547779881E+03  0.00000000000E+00 0. -1.
         11    1    4    4    0    0  0.48286962206E+02 -0.86743478262E+02 -0.16256143276E+03  0.19047908326E+03  0.00000000000E+00 0.  1.
        -13    1    3    3    0    0 -0.75523993447E+02  0.91272806301E+02  0.11569819602E+03  0.16559188180E+03  0.00000000000E+00 0. -1.
         13    1    3    3    0    0 -0.36568959583E+02 -0.17839303649E+02  0.67813547245E+02  0.79083542849E+02  0.00000000000E+00 0.  1.
         -3    1    1    2    0  502 -0.53472189692E+02  0.36694533489E+02  0.32599590224E+02  0.72584413900E+02  0.00000000000E+00 0.  1.
<scales pt_clust_5="13000.00000" pt_clust_6="13000.00000" pt_clust_7="13000.00000" pt_clust_8="13000.00000" pt_clust_9="13000.00000"></scales>
<clustering>
<clus scale="   90.731">  7  8 -1 -1</clus>
<clus scale="   91.839">  5  6 -1 -1</clus>
<clus scale="   64.852">  5  9 -1 -1</clus>
<clus scale="  161.832">  1  7  2 -1</clus>
<clus scale="  374.224">  2  5  1 -1</clus>
</clustering>
</event>
<event>
 9    1  0.3303741E-006  0.2968674E+03  0.7546771E-02  0.1103299E+00
          1   -1    0    0  502    0 -0.00000000000E+00  0.00000000000E+00  0.85833077914E+03  0.85833077914E+03  0.00000000000E+00 0. -1.
         21   -1    0    0  501  502  0.00000000000E+00 -0.00000000000E+00 -0.70511915764E+02  0.70511915764E+02  0.00000000000E+00 0. -1.
         23    2    1    2    0    0 -0.16930747458E+03 -0.27455524144E+01  0.26658859582E+03  0.32899999426E+03  0.92189792226E+02 0.  0.
         23    2    1    2    0    0 -0.20177642890E+02  0.34177243545E+02  0.22905767570E+03  0.25018946617E+03  0.92477721294E+02 0.  0.
        -11    1    4    4    0    0 -0.30796107525E+02 -0.38811548898E+01  0.18881346022E+02  0.36331375277E+02  0.00000000000E+00 0.  1.
         11    1    4    4    0    0  0.10618464635E+02  0.38058398435E+02  0.21017632968E+03  0.21385809089E+03  0.00000000000E+00 0. -1.
        -13    1    3    3    0    0 -0.10945035627E+03  0.33451102273E+02  0.20944983378E+03  0.23867884197E+03  0.00000000000E+00 0.  1.
         13    1    3    3    0    0 -0.59857118317E+02 -0.36196654688E+02  0.57138762037E+02  0.90321152290E+02  0.00000000000E+00 0. -1.
          1    1    1    2  501    0  0.18948511747E+03 -0.31431691131E+02  0.29217259186E+03  0.34965323448E+03  0.00000000000E+00 0. -1.
<scales pt_clust_5="13000.00000" pt_clust_6="13000.00000" pt_clust_7="13000.00000" pt_clust_8="13000.00000" pt_clust_9="13000.00000"></scales>
<clustering>
<clus scale="   92.190">  7  8 -1 -1</clus>
<clus scale="   92.478">  5  6 -1 -1</clus>
<clus scale="  192.074">  5  9 -1 -1</clus>
<clus scale="  192.799">  1  7  2 -1</clus>
<clus scale="  296.867">  2  5  1 -1</clus>
</clustering>
</event>
<event>
 9    1  0.3303741E-006  0.1872567E+03  0.7546771E-02  0.1196478E+00
         21   -1    0    0  501  502  0.00000000000E+00  0.00000000000E+00  0.13858045276E+03  0.13858045276E+03  0.00000000000E+00 0. -1.
         -1   -1    0    0    0  501 -0.00000000000E+00 -0.00000000000E+00 -0.13754112507E+03  0.13754112507E+03  0.00000000000E+00 0.  1.
         23    2    1    2    0    0 -0.54385593622E+02 -0.29343945875E+01 -0.23338020411E+02  0.87284785407E+02  0.64090304272E+02 0.  0.
         23    2    1    2    0    0 -0.17480015805E+02 -0.43143212413E+02  0.15061985819E+02  0.10296137301E+03  0.90594112308E+02 0.  0.
        -13    1    4    4    0    0 -0.38773170491E+02 -0.25717516799E+02 -0.26177647406E+02  0.53385565876E+02  0.00000000000E+00 0.  1.
         13    1    4    4    0    0  0.21293154686E+02 -0.17425695614E+02  0.41239633225E+02  0.49575807130E+02  0.00000000000E+00 0. -1.
        -13    1    3    3    0    0 -0.16409726542E+02 -0.27513837142E+02  0.70332527717E+01  0.32798734793E+02  0.00000000000E+00 0. -1.
         13    1    3    3    0    0 -0.37975867080E+02  0.24579442555E+02 -0.30371273183E+02  0.54486050614E+02  0.00000000000E+00 0.  1.
         -1    1    1    2    0  502  0.71865609427E+02  0.46077607000E+02  0.93153622760E+01  0.85875419414E+02  0.00000000000E+00 0.  1.
<scales pt_clust_5="13000.00000" pt_clust_6="13000.00000" pt_clust_7="13000.00000" pt_clust_8="13000.00000" pt_clust_9="13000.00000"></scales>
<clustering>
<clus scale="   64.090">  7  8 -1 -1</clus>
<clus scale="   84.107">  2  7  1 -1</clus>
<clus scale="   90.594">  5  6 -1 -1</clus>
<clus scale="   64.543">  5  9 -1 -1</clus>
<clus scale="  187.257">  1  5  2 -1</clus>
</clustering>
</event>
<event>
 9    1  0.3303741E-006  0.2027870E+03  0.7546771E-02  0.1174778E+00
         21   -1    0    0  501  502  0.00000000000E+00  0.00000000000E+00  0.28489294047E+03  0.28489294047E+03  0.00000000000E+00 0. -1.
          1   -1    0    0  502    0 -0.00000000000E+00 -0.00000000000E+00 -0.92544280897E+02  0.92544280897E+02  0.00000000000E+00 0. -1.
         23    2    1    2    0    0 -0.33126552242E+02 -0.46508089045E+02  0.15699849578E+02  0.10849976814E+03  0.90913935120E+02 0.  0.
         23    2    1    2    0    0  0.38752192485E+02 -0.10524172384E+01  0.15190913236E+02  0.10052634311E+03  0.91498315884E+02 0.  0.
        -11    1    3    3    0    0  0.22405608930E+02  0.12334018704E+02  0.97537521606E+01  0.27372888232E+02  0.00000000000E+00 0.  1.
         11    1    3    3    0    0 -0.55532161172E+02 -0.58842107749E+02  0.59460974170E+01  0.81126879906E+02  0.00000000000E+00 0. -1.
        -13    1    4    4    0    0  0.14101981232E+02 -0.40437180369E+02 -0.14700948979E+02  0.45278574754E+02  0.00000000000E+00 0.  1.
         13    1    4    4    0    0  0.24650211253E+02  0.39384763130E+02  0.29891862215E+02  0.55247768356E+02  0.00000000000E+00 0. -1.
          1    1    1    2  501    0 -0.56256402433E+01  0.47560506283E+02  0.16145789676E+03  0.16841111012E+03  0.00000000000E+00 0. -1.
<scales pt_clust_5="13000.00000" pt_clust_6="13000.00000" pt_clust_7="13000.00000" pt_clust_8="13000.00000" pt_clust_9="13000.00000"></scales>
<clustering>
<clus scale="   90.914">  5  6 -1 -1</clus>
<clus scale="   91.498">  7  8 -1 -1</clus>
<clus scale="   47.892">  7  9 -1 -1</clus>
<clus scale="  107.358">  2  5  1 -1</clus>
<clus scale="  202.787">  1  5  2 -1</clus>
</clustering>
</event>
<event>
 9    1  0.3303741E-006  0.5440498E+03  0.7546771E-02  0.1055420E+00
          2   -1    0    0  502    0 -0.00000000000E+00  0.00000000000E+00  0.35850717658E+03  0.35850717658E+03  0.00000000000E+00 0. -1.
         21   -1    0    0  501  502  0.00000000000E+00 -0.00000000000E+00 -0.30435119202E+03  0.30435119202E+03  0.00000000000E+00 0. -1.
         23    2    1    2    0    0  0.54040460971E+02  0.39964516925E+02  0.31717740373E+02  0.11834605224E+03  0.92099071604E+02 0.  0.
         23    2    1    2    0    0 -0.24193296098E+03 -0.91707600742E+02 -0.12301237554E+03  0.30133168173E+03  0.93417858228E+02 0.  0.
        -11    1    3    3    0    0  0.68043188324E+02 -0.37124294609E+01  0.19526492714E+02  0.70886821959E+02  0.00000000000E+00 0.  1.
         11    1    3    3    0    0 -0.14002727353E+02  0.43676946386E+02  0.12191247660E+02  0.47459230277E+02  0.00000000000E+00 0. -1.
        -13    1    4    4    0    0 -0.89813439310E+02 -0.12084787887E+02 -0.88014804894E+00  0.90627096608E+02  0.00000000000E+00 0.  1.
         13    1    4    4    0    0 -0.15211952167E+03 -0.79622812855E+02 -0.12213222749E+03  0.21070458512E+03  0.00000000000E+00 0. -1.
          2    1    1    2  501    0  0.18789250001E+03  0.51743083817E+02  0.14545061972E+03  0.24318063463E+03  0.00000000000E+00 0. -1.
<scales pt_clust_5="13000.00000" pt_clust_6="13000.00000" pt_clust_7="13000.00000" pt_clust_8="13000.00000" pt_clust_9="13000.00000"></scales>
<clustering>
<clus scale="   92.099">  5  6 -1 -1</clus>
<clus scale="   93.418">  7  8 -1 -1</clus>
<clus scale="  114.017">  1  5  2 -1</clus>
<clus scale="  238.451">  7  9 -1 -1</clus>
<clus scale="  544.050">  2  5  1 -1</clus>
</clustering>
</event>
<event>
 9    1  0.3303741E-006  0.2041635E+03  0.7546771E-02  0.1171791E+00
         21   -1    0    0  501  502  0.00000000000E+00  0.00000000000E+00  0.36386197079E+02  0.36386197079E+02  0.00000000000E+00 0. -1.
          1   -1    0    0  502    0 -0.00000000000E+00 -0.00000000000E+00 -0.69828172144E+03  0.69828172144E+03  0.00000000000E+00 0. -1.
         23    2    1    2    0    0  0.65696361707E+02 -0.13851902642E+02 -0.19679049738E+03  0.22672556799E+03  0.90388584306E+02 0.  0.
         23    2    1    2    0    0 -0.10938075957E+03  0.28955922876E+02 -0.41603046912E+03  0.44052743917E+03  0.90445991583E+02 0.  0.
        -11    1    3    3    0    0  0.51290000694E+02  0.24533848574E+02 -0.54919305955E+02  0.79048744858E+02  0.00000000000E+00 0.  1.
         11    1    3    3    0    0  0.14406361013E+02 -0.38385751215E+02 -0.14187119143E+03  0.14767682313E+03  0.00000000000E+00 0. -1.
        -13    1    4    4    0    0 -0.66866171990E+02  0.49544348888E+02 -0.34728408712E+03  0.35711617805E+03  0.00000000000E+00 0. -1.
         13    1    4    4    0    0 -0.42514587580E+02 -0.20588426013E+02 -0.68746382003E+02  0.83411261118E+02  0.00000000000E+00 0.  1.
          1    1    1    2  501    0  0.43684397862E+02 -0.15104020234E+02 -0.49074557857E+02  0.67414911353E+02  0.00000000000E+00 0. -1.
<scales pt_clust_5="13000.00000" pt_clust_6="13000.00000" pt_clust_7="13000.00000" pt_clust_8="13000.00000" pt_clust_9="13000.00000"></scales>
<clustering>
<clus scale="   90.389">  5  6 -1 -1</clus>
<clus scale="   90.446">  7  8 -1 -1</clus>
<clus scale="   46.222">  7  9 -1 -1</clus>
<clus scale="  112.597">  2  5  1 -1</clus>
<clus scale="  204.164">  1  5  2 -1</clus>
</clustering>
</event>
<event>
 9    1  0.3303741E-006  0.4467345E+03  0.7546771E-02  0.1031415E+00
          1   -1    0    0  502    0 -0.00000000000E+00  0.00000000000E+00  0.22993587777E+04  0.22993587777E+04  0.00000000000E+00 0. -1.
         21   -1    0    0  501  502  0.00000000000E+00 -0.00000000000E+00 -0.91918733382E+02  0.91918733382E+02  0.00000000000E+00 0. -1.
         23    2    1    2    0    0 -0.37680223772E+03 -0.14035202757E+03  0.14914312682E+04  0.15473342264E+04  0.90539286986E+02 0.  0.
         23    2    1    2    0    0  0.63925408606E+02  0.30173829346E+02  0.19615079203E+03  0.22727200336E+03  0.90446185417E+02 0.  0.
        -11    1    3    3    0    0 -0.25570271837E+03 -0.13018458593E+03  0.94757553360E+03  0.99006631014E+03  0.00000000000E+00 0. -1.
         11    1    3    3    0    0 -0.12109951935E+03 -0.10167441640E+02  0.54385573463E+03  0.55726791631E+03  0.00000000000E+00 0.  1.
        -13    1    4    4    0    0 -0.45736432565E+01 -0.25879082546E+02  0.45563944025E+02  0.52599601911E+02  0.00000000000E+00 0.  1.
         13    1    4    4    0    0  0.68499051862E+02  0.56052911891E+02  0.15058684800E+03  0.17467240145E+03  0.00000000000E+00 0. -1.
          1    1    1    2  501    0  0.31287682912E+03  0.11017819823E+03  0.51985798410E+03  0.61667128132E+03  0.00000000000E+00 0. -1.
<scales pt_clust_5="13000.00000" pt_clust_6="13000.00000" pt_clust_7="13000.00000" pt_clust_8="13000.00000" pt_clust_9="13000.00000"></scales>
<clustering>
<clus scale="   90.446">  7  8 -1 -1</clus>
<clus scale="   90.539">  5  6 -1 -1</clus>
<clus scale="  331.710">  7  9 -1 -1</clus>
<clus scale="  412.160">  1  5  2 -1</clus>
<clus scale="  446.734">  2  5  1 -1</clus>
</clustering>
</event>
<event>
 9    1  0.3303741E-006  0.3361898E+03  0.7546771E-02  0.1099799E+00
          3   -1    0    0  502    0 -0.00000000000E+00  0.00000000000E+00  0.76575604199E+03  0.76575604199E+03  0.00000000000E+00 0. -1.
         21   -1    0    0  501  502  0.00000000000E+00 -0.00000000000E+00 -0.37411497376E+03  0.37411497376E+03  0.00000000000E+00 0. -1.
         23    2    1    2    0    0  0.10989775337E+03 -0.33148912839E+02  0.68098028363E+03  0.69631628867E+03  0.89139556631E+02 0.  0.
         23    2    1    2    0    0 -0.21258333117E+02 -0.29604741484E+02  0.32033330525E+02  0.10432724996E+03  0.92356284975E+02 0.  0.
        -11    1    3    3    0    0  0.24567479445E+02  0.23930048421E+02  0.86751297040E+02  0.93284488538E+02  0.00000000000E+00 0.  1.
         11    1    3    3    0    0  0.85330273924E+02 -0.57078961260E+02  0.59422898659E+03  0.60303180013E+03  0.00000000000E+00 0. -1.
        -13    1    4    4    0    0 -0.32076943415E+02  0.16621702201E+02  0.42429490920E+02  0.55726770790E+02  0.00000000000E+00 0.  1.
         13    1    4    4    0    0  0.10818610298E+02 -0.46226443685E+02 -0.10396160395E+02  0.48600479170E+02  0.00000000000E+00 0. -1.
          3    1    1    2  501    0 -0.88639420252E+02  0.62753654323E+02 -0.32137254593E+03  0.33922747712E+03  0.00000000000E+00 0. -1.
<scales pt_clust_5="13000.00000" pt_clust_6="13000.00000" pt_clust_7="13000.00000" pt_clust_8="13000.00000" pt_clust_9="13000.00000"></scales>
<clustering>
<clus scale="   89.140">  5  6 -1 -1</clus>
<clus scale="   92.356">  7  8 -1 -1</clus>
<clus scale="  108.605">  7  9 -1 -1</clus>
<clus scale="  145.335">  1  5  2 -1</clus>
<clus scale="  336.190">  2  5  1 -1</clus>
</clustering>
</event>
<event>
 9    1  0.3303741E-006  0.3653942E+03  0.7546771E-02  0.1085169E+00
          1   -1    0    0  502    0 -0.00000000000E+00  0.00000000000E+00  0.14162975293E+03  0.14162975293E+03  0.00000000000E+00 0. -1.
         21   -1    0    0  501  502  0.00000000000E+00 -0.00000000000E+00 -0.10297420733E+04  0.10297420733E+04  0.00000000000E+00 0. -1.
         23    2    1    2    0    0  0.12511694824E+03 -0.57394681723E+02  0.42413672873E+02  0.17167609531E+03  0.93409645258E+02 0.  0.
         23    2    1    2    0    0 -0.20887263873E+03 -0.41647992192E+02 -0.61242449951E+03  0.65616548878E+03  0.10063322813E+03 0.  0.
        -11    1    4    4    0    0 -0.68550960144E+02 -0.54632999841E+02 -0.16179364508E+03  0.18401408206E+03  0.00000000000E+00 0. -1.
         11    1    4    4    0    0 -0.14032167858E+03  0.12985007649E+02 -0.45063085443E+03  0.47215140672E+03  0.00000000000E+00 0.  1.
        -13    1    3    3    0    0  0.40279495020E+01 -0.43535402847E+02  0.18491952368E+02  0.47471127863E+02  0.00000000000E+00 0. -1.
         13    1    3    3    0    0  0.12108899874E+03 -0.13859278876E+02  0.23921720505E+02  0.12420496745E+03  0.00000000000E+00 0.  1.
          1    1    1    2  501    0  0.83755690485E+02  0.99042673914E+02 -0.31810149372E+03  0.34353024212E+03  0.00000000000E+00 0. -1.
<scales pt_clust_5="13000.00000" pt_clust_6="13000.00000" pt_clust_7="13000.00000" pt_clust_8="13000.00000" pt_clust_9="13000.00000"></scales>
<clustering>
<clus scale="   93.410">  7  8 -1 -1</clus>
<clus scale="  100.633">  5  6 -1 -1</clus>
<clus scale="  129.709">  5  9 -1 -1</clus>
<clus scale="  166.354">  1  7  2 -1</clus>
<clus scale="  365.394">  2  5  1 -1</clus>
</clustering>
</event>
<event>
 9    1  0.3303741E-006  0.3279342E+03  0.7546771E-02  0.1089351E+00
         21   -1    0    0  501  502  0.00000000000E+00  0.00000000000E+00  0.77314629655E+02  0.77314629655E+02  0.00000000000E+00 0. -1.
          2   -1    0    0  502    0 -0.00000000000E+00 -0.00000000000E+00 -0.93119219901E+03  0.93119219901E+03  0.00000000000E+00 0. -1.
         23    2    1    2    0    0  0.13096152053E+03  0.13408729906E+03 -0.38032133663E+03  0.43248918949E+03  0.85277525197E+02 0.  0.
         23    2    1    2    0    0 -0.36884864228E+02 -0.52466103531E+02 -0.42983035174E+03  0.44401616385E+03  0.91011192992E+02 0.  0.
        -13    1    3    3    0    0  0.13648339389E+03  0.10237255057E+03 -0.34380166820E+03  0.38380651763E+03  0.00000000000E+00 0. -1.
         13    1    3    3    0    0 -0.55218733635E+01  0.31714748494E+02 -0.36519668426E+02  0.48682671860E+02  0.00000000000E+00 0.  1.
        -13    1    4    4    0    0 -0.65577522208E+02 -0.26926396512E+02 -0.23604416028E+03  0.24645950550E+03  0.00000000000E+00 0. -1.
         13    1    4    4    0    0  0.28692657981E+02 -0.25539707019E+02 -0.19378619146E+03  0.19755665835E+03  0.00000000000E+00 0.  1.
          2    1    1    2  501    0 -0.94076656297E+02 -0.81621195531E+02 -0.43725880980E+02  0.13200147532E+03  0.00000000000E+00 0. -1.
<scales pt_clust_5="13000.00000" pt_clust_6="13000.00000" pt_clust_7="13000.00000" pt_clust_8="13000.00000" pt_clust_9="13000.00000"></scales>
<clustering>
<clus scale="   85.278">  5  6 -1 -1</clus>
<clus scale="   91.011">  7  8 -1 -1</clus>
<clus scale="  124.549">  7  9 -1 -1</clus>
<clus scale="  205.919">  2  5  1 -1</clus>
<clus scale="  327.934">  1  5  2 -1</clus>
</clustering>
</event>
<event>
 9    1  0.3303741E-006  0.4654548E+03  0.7546771E-02  0.1059332E+00
          2   -1    0    0  502    0 -0.00000000000E+00  0.00000000000E+00  0.25788426794E+03  0.25788426794E+03  0.00000000000E+00 0. -1.
         21   -1    0    0  501  502  0.00000000000E+00 -0.00000000000E+00 -0.58315494602E+03  0.58315494602E+03  0.00000000000E+00 0. -1.
         23    2    1    2    0    0  0.10365123525E+03  0.86528499747E+02  0.11561314335E+03  0.19992559403E+03  0.91504559433E+02 0.  0.
         23    2    1    2    0    0  0.36476114788E+02  0.59409097494E+00  0.59405460444E+02  0.11431632912E+03  0.90599969532E+02 0.  0.
        -13    1    4    4    0    0  0.47975357595E+02  0.22380856426E+02  0.69777436042E+02  0.87586689921E+02  0.00000000000E+00 0. -1.
         13    1    4    4    0    0 -0.11499242807E+02 -0.21786765451E+02 -0.10371975599E+02  0.26729639200E+02  0.00000000000E+00 0.  1.
        -13    1    3    3    0    0  0.43645949346E+02 -0.14104905472E+02  0.29859434179E+02  0.54731189117E+02  0.00000000000E+00 0.  1.
         13    1    3    3    0    0  0.60005285901E+02  0.10063340522E+03  0.85753709176E+02  0.14519440492E+03  0.00000000000E+00 0. -1.
          2    1    1    2  501    0 -0.14012735004E+03 -0.87122590722E+02 -0.50028928187E+03  0.52679729080E+03  0.00000000000E+00 0. -1.
<scales pt_clust_5="13000.00000" pt_clust_6="13000.00000" pt_clust_7="13000.00000" pt_clust_8="13000.00000" pt_clust_9="13000.00000"></scales>
<clustering>
<clus scale="   90.600">  5  6 -1 -1</clus>
<clus scale="   91.505">  7  8 -1 -1</clus>
<clus scale="  163.107">  1  7  2 -1</clus>
<clus scale="  147.322">  5  9 -1 -1</clus>
<clus scale="  465.455">  2  5  1 -1</clus>
</clustering>
</event>
<event>
 9    1  0.3303741E-006  0.3810956E+03  0.7546771E-02  0.1055289E+00
          1   -1    0    0  502    0 -0.00000000000E+00  0.00000000000E+00  0.16030886006E+04  0.16030886006E+04  0.00000000000E+00 0. -1.
         21   -1    0    0  501  502  0.00000000000E+00 -0.00000000000E+00 -0.15339301140E+03  0.15339301140E+03  0.00000000000E+00 0. -1.
         23    2    1    2    0    0  0.21601171717E+03  0.23611827337E+03  0.13082968579E+04  0.13499998233E+04  0.91901868798E+02 0.  0.
         23    2    1    2    0    0 -0.15657121405E+03 -0.86430874041E+02  0.13990275745E+03  0.24541742619E+03  0.93124059606E+02 0.  0.
        -11    1    4    4    0    0 -0.49532538915E+01 -0.43844793998E+02  0.32282792658E+02  0.54672473756E+02  0.00000000000E+00 0.  1.
         11    1    4    4    0    0 -0.15161796016E+03 -0.42586080043E+02  0.10761996480E+03  0.19074495243E+03  0.00000000000E+00 0. -1.
        -13    1    3    3    0    0  0.20032889660E+03  0.16344820515E+03  0.10049709366E+04  0.10376962783E+04  0.00000000000E+00 0. -1.
         13    1    3    3    0    0  0.15682820566E+02  0.72670068215E+02  0.30332592128E+03  0.31230354496E+03  0.00000000000E+00 0.  1.
          1    1    1    2  501    0 -0.59440503119E+02 -0.14968739933E+03  0.14959738035E+01  0.16106436250E+03  0.00000000000E+00 0. -1.
<scales pt_clust_5="13000.00000" pt_clust_6="13000.00000" pt_clust_7="13000.00000" pt_clust_8="13000.00000" pt_clust_9="13000.00000"></scales>
<clustering>
<clus scale="   91.902">  7  8 -1 -1</clus>
<clus scale="   93.124">  5  6 -1 -1</clus>
<clus scale="  161.057">  5  9 -1 -1</clus>
<clus scale="  332.955">  1  7  2 -1</clus>
<clus scale="  381.096">  2  5  1 -1</clus>
</clustering>
</event>
<event>
 9    1  0.3303741E-006  0.1309232E+03  0.7546771E-02  0.1236779E+00
         21   -1    0    0  501  502  0.00000000000E+00  0.00000000000E+00  0.20121225084E+02  0.20121225084E+02  0.00000000000E+00 0.  1.
          2   -1    0    0  502    0 -0.00000000000E+00 -0.00000000000E+00 -0.75808485630E+03  0.75808485630E+03  0.00000000000E+00 0. -1.
         23    2    1    2    0    0  0.15817857459E+02 -0.34029307829E+02 -0.44643110643E+03  0.45862494563E+03  0.98121911716E+02 0.  0.
         23    2    1    2    0    0 -0.51712152312E+01  0.12272246683E+01 -0.15598637067E+03  0.17971660292E+03  0.89095802267E+02 0.  0.
        -11    1    3    3    0    0 -0.35724622720E+02 -0.35344898658E+02 -0.27702844949E+03  0.28154976888E+03  0.00000000000E+00 0.  1.
         11    1    3    3    0    0  0.51542480179E+02  0.13155908288E+01 -0.16940265694E+03  0.17707517675E+03  0.00000000000E+00 0. -1.
        -11    1    4    4    0    0 -0.32275198251E+02  0.19633459999E+02 -0.26489654489E+02  0.46139603039E+02  0.00000000000E+00 0.  1.
         11    1    4    4    0    0  0.27103983019E+02 -0.18406235331E+02 -0.12949671618E+03  0.13357699988E+03  0.00000000000E+00 0. -1.
          2    1    1    2  501    0 -0.10646642228E+02  0.32802083161E+02 -0.13554615411E+03  0.13986453284E+03  0.00000000000E+00 0. -1.
<scales pt_clust_5="13000.00000" pt_clust_6="13000.00000" pt_clust_7="13000.00000" pt_clust_8="13000.00000" pt_clust_9="13000.00000"></scales>
<clustering>
<clus scale="   89.096">  7  8 -1 -1</clus>
<clus scale="   34.487">  7  9 -1 -1</clus>
<clus scale="   98.122">  5  6 -1 -1</clus>
<clus scale="  105.053">  2  5  1 -1</clus>
<clus scale="  130.923">  1  5  2 -1</clus>
</clustering>
</event>
<event>
 9    1  0.3303741E-006  0.2310531E+03  0.7546771E-02  0.1164314E+00
         21   -1    0    0  501  502  0.00000000000E+00  0.00000000000E+00  0.36598764211E+02  0.36598764211E+02  0.00000000000E+00 0.  1.
          1   -1    0    0  502    0 -0.00000000000E+00 -0.00000000000E+00 -0.73011672114E+03  0.73011672114E+03  0.00000000000E+00 0. -1.
         23    2    1    2    0    0  0.16692346383E+02  0.58203811745E+01 -0.14941928337E+03  0.17559037324E+03  0.90517101523E+02 0.  0.
         23    2    1    2    0    0  0.49620920346E+02  0.70705381082E+02 -0.21668992217E+03  0.24841512959E+03  0.85405313579E+02 0.  0.
        -13    1    4    4    0    0  0.42741100054E+01  0.55741131310E+02 -0.49939139781E+02  0.74961719685E+02  0.00000000000E+00 0.  1.
         13    1    4    4    0    0  0.45346810340E+02  0.14964249773E+02 -0.16675078239E+03  0.17345340990E+03  0.00000000000E+00 0. -1.
        -13    1    3    3    0    0  0.37196671740E+02 -0.18120507556E+02 -0.13449308427E+03  0.14071366280E+03  0.00000000000E+00 0.  1.
         13    1    3    3    0    0 -0.20504325357E+02  0.23940888731E+02 -0.14926199097E+02  0.34876710439E+02  0.00000000000E+00 0. -1.
          1    1    1    2  501    0 -0.66313266729E+02 -0.76525762257E+02 -0.32740875139E+03  0.34270998252E+03  0.00000000000E+00 0. -1.
<scales pt_clust_5="13000.00000" pt_clust_6="13000.00000" pt_clust_7="13000.00000" pt_clust_8="13000.00000" pt_clust_9="13000.00000"></scales>
<clustering>
<clus scale="   85.405">  5  6 -1 -1</clus>
<clus scale="   90.517">  7  8 -1 -1</clus>
<clus scale="   92.227">  2  7  1 -1</clus>
<clus scale="   92.357">  5  9 -1 -1</clus>
<clus scale="  231.053">  1  5  2 -1</clus>
</clustering>
</event>
<event>
 9    1  0.3303741E-006  0.1865187E+03  0.7546771E-02  0.1189589E+00
         -3   -1    0    0    0  501 -0.00000000000E+00  0.00000000000E+00  0.20487228296E+03  0.20487228296E+03  0.00000000000E+00 0.  1.
         21   -1    0    0  501  502  0.00000000000E+00 -0.00000000000E+00 -0.10819991842E+03  0.10819991842E+03  0.00000000000E+00 0.  1.
         23    2    1    2    0    0  0.11914271770E+02  0.36929946510E+02  0.77160172671E+02  0.12553570087E+03  0.91102958929E+02 0.  0.
         23    2    1    2    0    0  0.37690404075E+02  0.30221433795E+02  0.10202604965E+02  0.10353292827E+03  0.91000398170E+02 0.  0.
        -13    1    3    3    0    0  0.32791975917E+02  0.58602937962E+02  0.41785815849E+02  0.79092808956E+02  0.00000000000E+00 0.  1.
         13    1    3    3    0    0 -0.20877704148E+02 -0.21672991452E+02  0.35374356822E+02  0.46442891916E+02  0.00000000000E+00 0. -1.
        -13    1    4    4    0    0  0.66222046860E+02  0.33397204229E+02  0.98896742939E+01  0.74823381361E+02  0.00000000000E+00 0.  1.
         13    1    4    4    0    0 -0.28531642785E+02 -0.31757704336E+01  0.31293067101E+00  0.28709546904E+02  0.00000000000E+00 0. -1.
         -3    1    1    2    0  502 -0.49604675845E+02 -0.67151380306E+02  0.93095869058E+01  0.84003572251E+02  0.00000000000E+00 0.  1.
<scales pt_clust_5="13000.00000" pt_clust_6="13000.00000" pt_clust_7="13000.00000" pt_clust_8="13000.00000" pt_clust_9="13000.00000"></scales>
<clustering>
<clus scale="   91.000">  7  8 -1 -1</clus>
<clus scale="   83.486">  7  9 -1 -1</clus>
<clus scale="   91.103">  5  6 -1 -1</clus>
<clus scale="   99.023">  1  5  2 -1</clus>
<clus scale="  186.519">  2  5  1 -1</clus>
</clustering>
</event>
<event>
 9    1  0.3303741E-006  0.2062906E+03  0.7546771E-02  0.1176695E+00
          4   -1    0    0  502    0 -0.00000000000E+00  0.00000000000E+00  0.46303901942E+03  0.46303901942E+03  0.00000000000E+00 0. -1.
         21   -1    0    0  501  502  0.00000000000E+00 -0.00000000000E+00 -0.61819069274E+02  0.61819069274E+02  0.00000000000E+00 0. -1.
         23    2    1    2    0    0 -0.16790840209E+02 -0.29365900011E+02  0.25199341795E+03  0.27025176393E+03  0.91602646354E+02 0.  0.
         23    2    1    2    0    0 -0.28834451222E+02 -0.32043666030E+02  0.18228262853E+02  0.10290481327E+03  0.91645561359E+02 0.  0.
        -13    1    3    3    0    0 -0.40585617339E+01 -0.61193482153E+02  0.13375812543E+03  0.14714737612E+03  0.00000000000E+00 0.  1.
         13    1    3    3    0    0 -0.12732278475E+02  0.31827582142E+02  0.11823529252E+03  0.12310438781E+03  0.00000000000E+00 0. -1.
        -13    1    4    4    0    0  0.20561444692E+02  0.20485655612E+02  0.77481975161E+01  0.30041132775E+02  0.00000000000E+00 0.  1.
         13    1    4    4    0    0 -0.49395895914E+02 -0.52529321641E+02  0.10480065336E+02  0.72863680491E+02  0.00000000000E+00 0. -1.
          4    1    1    2  501    0  0.45625291431E+02  0.61409566041E+02  0.13099826934E+03  0.15170151149E+03  0.00000000000E+00 0. -1.
<scales pt_clust_5="13000.00000" pt_clust_6="13000.00000" pt_clust_7="13000.00000" pt_clust_8="13000.00000" pt_clust_9="13000.00000"></scales>
<clustering>
<clus scale="   91.603">  5  6 -1 -1</clus>
<clus scale="   91.646">  7  8 -1 -1</clus>
<clus scale="   76.504">  7  9 -1 -1</clus>
<clus scale="   97.649">  1  5  2 -1</clus>
<clus scale="  206.291">  2  5  1 -1</clus>
</clustering>
</event>
<event>
 9    1  0.3303741E-006  0.3797609E+03  0.7546771E-02  0.1094963E+00
         21   -1    0    0  501  502  0.00000000000E+00  0.00000000000E+00  0.10626942150E+04  0.10626942150E+04  0.00000000000E+00 0.  1.
         -2   -1    0    0    0  501 -0.00000000000E+00 -0.00000000000E+00 -0.58425495344E+02  0.58425495344E+02  0.00000000000E+00 0.  1.
         23    2    1    2    0    0 -0.68169354708E+02  0.11951042041E+02  0.17546951835E+03  0.20945834256E+03  0.91067870685E+02 0.  0.
         23    2    1    2    0    0  0.58150623770E+01  0.82144471104E+02  0.54937795795E+02  0.12961053931E+03  0.83661230037E+02 0.  0.
        -11    1    3    3    0    0 -0.83324138373E+02 -0.12169191261E+02  0.11419011315E+03  0.14188158159E+03  0.00000000000E+00 0. -1.
         11    1    3    3    0    0  0.15154783665E+02  0.24120233303E+02  0.61279405194E+02  0.67576760972E+02  0.00000000000E+00 0.  1.
        -11    1    4    4    0    0 -0.27181716610E+02  0.20089407085E+02  0.48387475238E+02  0.59023535601E+02  0.00000000000E+00 0. -1.
         11    1    4    4    0    0  0.32996778987E+02  0.62055064019E+02  0.65503205562E+01  0.70587003714E+02  0.00000000000E+00 0.  1.
         -2    1    1    2    0  502  0.62354292331E+02 -0.94095513145E+02  0.77386140551E+03  0.78205082847E+03  0.00000000000E+00 0.  1.
<scales pt_clust_5="13000.00000" pt_clust_6="13000.00000" pt_clust_7="13000.00000" pt_clust_8="13000.00000" pt_clust_9="13000.00000"></scales>
<clustering>
<clus scale="   83.661">  7  8 -1 -1</clus>
<clus scale="   91.068">  5  6 -1 -1</clus>
<clus scale="  112.881">  7  9 -1 -1</clus>
<clus scale="  114.382">  2  5  1 -1</clus>
<clus scale="  379.761">  1  5  2 -1</clus>
</clustering>
</event>
<event>
 9    1  0.3588691E-006  0.2431705E+03  0.7546771E-02  0.1150856E+00
         21   -1    0    0  501  502  0.00000000000E+00  0.00000000000E+00  0.22546966627E+03  0.22546966627E+03  0.00000000000E+00 0. -1.
         -1   -1    0    0    0  501 -0.00000000000E+00 -0.00000000000E+00 -0.22290296126E+03  0.22290296126E+03  0.00000000000E+00 0.  1.
         23    2    1    2    0    0  0.32317264637E+02 -0.47308104064E+02  0.13369666465E+03  0.17209928486E+03  0.91983169136E+02 0.  0.
         23    2    1    2    0    0  0.86405878043E+01 -0.17669610841E+01 -0.17561566234E+03  0.19839596829E+03  0.91882084563E+02 0.  0.
        -11    1    3    3    0    0  0.28080099137E+02 -0.70676153302E+02  0.12593066390E+03  0.14711268716E+03  0.00000000000E+00 0. -1.
         11    1    3    3    0    0  0.42371655003E+01  0.23368049238E+02  0.77660007538E+01  0.24986597695E+02  0.00000000000E+00 0.  1.
        -11    1    4    4    0    0 -0.41576177990E+02  0.39490220576E+01 -0.79355192462E+02  0.89673964572E+02  0.00000000000E+00 0.  1.
         11    1    4    4    0    0  0.50216765794E+02 -0.57159831417E+01 -0.96260469882E+02  0.10872200372E+03  0.00000000000E+00 0. -1.
         -1    1    1    2    0  502 -0.40957852442E+02  0.49075065148E+02  0.44485702705E+02  0.77877374385E+02  0.00000000000E+00 0.  1.
<scales pt_clust_5="13000.00000" pt_clust_6="13000.00000" pt_clust_7="13000.00000" pt_clust_8="13000.00000" pt_clust_9="13000.00000"></scales>
<clustering>
<clus scale="   91.882">  7  8 -1 -1</clus>
<clus scale="   63.921">  7  9 -1 -1</clus>
<clus scale="   91.983">  5  6 -1 -1</clus>
<clus scale="  108.367">  2  5  1 -1</clus>
<clus scale="  243.171">  1  5  2 -1</clus>
</clustering>
</event>
<event>
 9    1  0.3303741E-006  0.3064849E+03  0.7546771E-02  0.1121804E+00
         21   -1    0    0  501  502  0.00000000000E+00  0.00000000000E+00  0.20629332546E+03  0.20629332546E+03  0.00000000000E+00 0. -1.
          3   -1    0    0  502    0 -0.00000000000E+00 -0.00000000000E+00 -0.21941317505E+03  0.21941317505E+03  0.00000000000E+00 0. -1.
         23    2    1    2    0    0  0.48366091165E+02 -0.17776411506E+02 -0.43076503664E+02  0.11776102409E+03  0.96730522822E+02 0.  0.
         23    2    1    2    0    0 -0.13897271331E+03  0.65824681218E+02 -0.41681580326E+02  0.18284458583E+03  0.89713347536E+02 0.  0.
        -11    1    4    4    0    0 -0.55685041696E+02 -0.74959274961E+01  0.15123139150E+02  0.58186958465E+02  0.00000000000E+00 0.  1.
         11    1    4    4    0    0 -0.83287671617E+02  0.73320608714E+02 -0.56804719476E+02  0.12465762737E+03  0.00000000000E+00 0. -1.
        -13    1    3    3    0    0  0.11855783710E+02  0.21012553359E+02  0.22695302564E+02  0.33123462447E+02  0.00000000000E+00 0. -1.
         13    1    3    3    0    0  0.36510307454E+02 -0.38788964866E+02 -0.65771806228E+02  0.84637561639E+02  0.00000000000E+00 0.  1.
          3    1    1    2  501    0  0.90606622149E+02 -0.48048269711E+02  0.71638234400E+02  0.12510089059E+03  0.00000000000E+00 0. -1.
<scales pt_clust_5="13000.00000" pt_clust_6="13000.00000" pt_clust_7="13000.00000" pt_clust_8="13000.00000" pt_clust_9="13000.00000"></scales>
<clustering>
<clus scale="   89.713">  5  6 -1 -1</clus>
<clus scale="   96.731">  7  8 -1 -1</clus>
<clus scale="  102.558">  5  9 -1 -1</clus>
<clus scale="  109.600">  2  7  1 -1</clus>
<clus scale="  306.485">  1  5  2 -1</clus>
</clustering>
</event>
<event>
 9    1  0.3303741E-006  0.3640637E+03  0.7546771E-02  0.1093058E+00
          2   -1    0    0  502    0 -0.00000000000E+00  0.00000000000E+00  0.88759367948E+03  0.88759367948E+03  0.00000000000E+00 0. -1.
         21   -1    0    0  501  502  0.00000000000E+00 -0.00000000000E+00 -0.97797723244E+02  0.97797723244E+02  0.00000000000E+00 0. -1.
         23    2    1    2    0    0 -0.37483880080E+02  0.94635792612E+02  0.50514623336E+03  0.52325737377E+03  0.90909777347E+02 0.  0.
         23    2    1    2    0    0  0.11822712536E+03  0.66196457470E+02  0.19835593688E+03  0.26255171054E+03  0.10596555505E+03 0.  0.
        -13    1    4    4    0    0  0.59612849105E+02  0.60715961965E+02  0.40816414862E+02  0.94372133270E+02  0.00000000000E+00 0. -1.
         13    1    4    4    0    0  0.58614276251E+02  0.54804955042E+01  0.15753952202E+03  0.16817957727E+03  0.00000000000E+00 0.  1.
        -13    1    3    3    0    0 -0.22186077878E+02 -0.97609537882E+01  0.44408416855E+02  0.50592546467E+02  0.00000000000E+00 0.  1.
         13    1    3    3    0    0 -0.15297802203E+02  0.10439674640E+03  0.46073781651E+03  0.47266482731E+03  0.00000000000E+00 0. -1.
          2    1    1    2  501    0 -0.80743245276E+02 -0.16083225008E+03  0.86293785995E+02  0.19958231842E+03  0.00000000000E+00 0. -1.
<scales pt_clust_5="13000.00000" pt_clust_6="13000.00000" pt_clust_7="13000.00000" pt_clust_8="13000.00000" pt_clust_9="13000.00000"></scales>
<clustering>
<clus scale="   90.910">  7  8 -1 -1</clus>
<clus scale="  105.966">  5  6 -1 -1</clus>
<clus scale="  136.476">  1  7  2 -1</clus>
<clus scale="  156.745">  5  9 -1 -1</clus>
<clus scale="  364.064">  2  5  1 -1</clus>
</clustering>
</event>
<event>
 9    1  0.6588917E-006  0.3681410E+03  0.7546771E-02  0.1088147E+00
          1   -1    0    0  502    0 -0.00000000000E+00  0.00000000000E+00  0.53351899190E+03  0.53351899190E+03  0.00000000000E+00 0. -1.
         21   -1    0    0  501  502  0.00000000000E+00 -0.00000000000E+00 -0.19849969577E+03  0.19849969577E+03  0.00000000000E+00 0. -1.
         23    2    1    2    0    0 -0.10788749839E+03  0.51544701802E+02  0.33138132705E+03  0.36385971623E+03  0.91015056895E+02 0.  0.
         23    2    1    2    0    0  0.33315170621E+02  0.27717480827E+02  0.15238044542E+03  0.18385528202E+03  0.93299545781E+02 0.  0.
        -13    1    4    4    0    0  0.64656823570E+02  0.16432142743E+02  0.79918726407E+02  0.10410342444E+03  0.00000000000E+00 0.  1.
         13    1    4    4    0    0 -0.31341652949E+02  0.11285338084E+02  0.72461719018E+02  0.79751857585E+02  0.00000000000E+00 0. -1.
        -13    1    3    3    0    0 -0.20194986795E+02 -0.16474818130E+01  0.38230955845E+01  0.20619596209E+02  0.00000000000E+00 0.  1.
         13    1    3    3    0    0 -0.87692511590E+02  0.53192183615E+02  0.32755823147E+03  0.34324012002E+03  0.00000000000E+00 0. -1.
          1    1    1    2  501    0  0.74572327764E+02 -0.79262182629E+02 -0.14874247635E+03  0.18430368942E+03  0.00000000000E+00 0. -1.
<scales pt_clust_5="13000.00000" pt_clust_6="13000.00000" pt_clust_7="13000.00000" pt_clust_8="13000.00000" pt_clust_9="13000.00000"></scales>
<clustering>
<clus scale="   91.015">  7  8 -1 -1</clus>
<clus scale="   93.300">  5  6 -1 -1</clus>
<clus scale="  108.828">  5  9 -1 -1</clus>
<clus scale="  150.267">  1  7  2 -1</clus>
<clus scale="  368.141">  2  5  1 -1</clus>
</clustering>
</event>
<event>
 9    1  0.3303741E-006  0.1839302E+03  0.7546771E-02  0.1182954E+00
         21   -1    0    0  501  502  0.00000000000E+00  0.00000000000E+00  0.75386488076E+02  0.75386488076E+02  0.00000000000E+00 0.  1.
          2   -1    0    0  502    0 -0.00000000000E+00 -0.00000000000E+00 -0.31357211046E+03  0.31357211046E+03  0.00000000000E+00 0. -1.
         23    2    1    2    0    0 -0.74804744977E+02 -0.21533735674E+02 -0.64372326880E+02  0.13589459816E+03  0.90907060776E+02 0.  0.
         23    2    1    2    0    0  0.79627410049E+01  0.52636666977E+02 -0.13180109810E+03  0.16820959235E+03  0.89938387481E+02 0.  0.
        -11    1    3    3    0    0 -0.93949517165E+01 -0.48130265054E+02 -0.24839313981E+02  0.54970710847E+02  0.00000000000E+00 0. -1.
         11    1    3    3    0    0 -0.65409793261E+02  0.26596529381E+02 -0.39533012899E+02  0.80923887317E+02  0.00000000000E+00 0.  1.
        -11    1    4    4    0    0 -0.15045289772E+02  0.72065816574E+02 -0.10244861658E+03  0.12615689320E+03  0.00000000000E+00 0.  1.
         11    1    4    4    0    0  0.23008030777E+02 -0.19429149597E+02 -0.29352481526E+02  0.42052699152E+02  0.00000000000E+00 0. -1.
          2    1    1    2  501    0  0.66842003973E+02 -0.31102931303E+02 -0.42012197406E+02  0.84854408027E+02  0.00000000000E+00 0. -1.
<scales pt_clust_5="13000.00000" pt_clust_6="13000.00000" pt_clust_7="13000.00000" pt_clust_8="13000.00000" pt_clust_9="13000.00000"></scales>
<clustering>
<clus scale="   89.938">  7  8 -1 -1</clus>
<clus scale="   73.724">  7  9 -1 -1</clus>
<clus scale="   90.907">  5  6 -1 -1</clus>
<clus scale="  119.681">  2  5  1 -1</clus>
<clus scale="  183.930">  1  5  2 -1</clus>
</clustering>
</event>
<event>
 9    1  0.3303741E-006  0.2146816E+03  0.7546771E-02  0.1172473E+00
         -2   -1    0    0    0  501 -0.00000000000E+00  0.00000000000E+00  0.89769172273E+02  0.89769172273E+02  0.00000000000E+00 0.  1.
         21   -1    0    0  501  502  0.00000000000E+00 -0.00000000000E+00 -0.45841673666E+03  0.45841673666E+03  0.00000000000E+00 0.  1.
         23    2    1    2    0    0 -0.30984312482E+02 -0.94084926991E+01  0.26081892424E+02  0.98853589056E+02  0.89683998584E+02 0.  0.
         23    2    1    2    0    0 -0.64080028038E+02 -0.98695336521E+00 -0.15977235915E+03  0.19565904206E+03  0.92994784375E+02 0.  0.
        -11    1    3    3    0    0  0.16283630458E+02  0.27074692186E+02  0.22971635033E+02  0.39062662402E+02  0.00000000000E+00 0. -1.
         11    1    3    3    0    0 -0.47267942940E+02 -0.36483184885E+02  0.31102573912E+01  0.59790926654E+02  0.00000000000E+00 0.  1.
        -13    1    4    4    0    0 -0.20083864643E+02 -0.15671066442E+02 -0.14464713755E+03  0.14687320499E+03  0.00000000000E+00 0. -1.
         13    1    4    4    0    0 -0.43996163395E+02  0.14684113077E+02 -0.15125221602E+02  0.48785837072E+02  0.00000000000E+00 0.  1.
         -2    1    1    2    0  502  0.95064340520E+02  0.10395446064E+02 -0.23495709767E+03  0.25367327782E+03  0.00000000000E+00 0.  1.
<scales pt_clust_5="13000.00000" pt_clust_6="13000.00000" pt_clust_7="13000.00000" pt_clust_8="13000.00000" pt_clust_9="13000.00000"></scales>
<clustering>
<clus scale="   89.684">  5  6 -1 -1</clus>
<clus scale="   92.995">  7  8 -1 -1</clus>
<clus scale="   95.351">  1  5  2 -1</clus>
<clus scale="   84.748">  7  9 -1 -1</clus>
<clus scale="  214.682">  2  5  1 -1</clus>
</clustering>
</event>
<event>
 9    1  0.3303741E-006  0.1214132E+03  0.7546771E-02  0.1255556E+00
          2   -1    0    0  502    0 -0.00000000000E+00  0.00000000000E+00  0.59102443684E+03  0.59102443684E+03  0.00000000000E+00 0. -1.
         21   -1    0    0  501  502  0.00000000000E+00 -0.00000000000E+00 -0.22173820935E+02  0.22173820935E+02  0.00000000000E+00 0.  1.
         23    2    1    2    0    0 -0.51377636318E+01  0.39665793553E+01  0.36432620038E+03  0.37535081573E+03  0.90069552098E+02 0.  0.
         23    2    1    2    0    0 -0.11774748532E+02  0.15056249318E+02  0.18282997761E+03  0.20440271579E+03  0.89377481284E+02 0.  0.
        -11    1    4    4    0    0  0.25290893229E+02 -0.25733913404E+02  0.65781708959E+02  0.75027307116E+02  0.00000000000E+00 0.  1.
         11    1    4    4    0    0 -0.37065641761E+02  0.40790162723E+02  0.11704826865E+03  0.12937540867E+03  0.00000000000E+00 0. -1.
        -13    1    3    3    0    0 -0.34904737588E+02 -0.28321376351E+02  0.21757373524E+03  0.22216834007E+03  0.00000000000E+00 0. -1.
         13    1    3    3    0    0  0.29766973956E+02  0.32287955707E+02  0.14675246514E+03  0.15318247565E+03  0.00000000000E+00 0.  1.
          2    1    1    2  501    0  0.16912512163E+02 -0.19022828673E+02  0.21694437912E+02  0.33444726262E+02  0.00000000000E+00 0. -1.
<scales pt_clust_5="13000.00000" pt_clust_6="13000.00000" pt_clust_7="13000.00000" pt_clust_8="13000.00000" pt_clust_9="13000.00000"></scales>
<clustering>
<clus scale="   89.377">  5  6 -1 -1</clus>
<clus scale="   25.454">  5  9 -1 -1</clus>
<clus scale="   90.070">  7  8 -1 -1</clus>
<clus scale="   90.303">  1  7  2 -1</clus>
<clus scale="  121.413">  2  5  1 -1</clus>
</clustering>
</event>
<event>
 9    1  0.3303741E-006  0.1560270E+03  0.7546771E-02  0.1211349E+00
         -1   -1    0    0    0  501 -0.00000000000E+00  0.00000000000E+00  0.45348112377E+02  0.45348112377E+02  0.00000000000E+00 0.  1.
         21   -1    0    0  501  502  0.00000000000E+00 -0.00000000000E+00 -0.48071344445E+03  0.48071344445E+03  0.00000000000E+00 0.  1.
         23    2    1    2    0    0 -0.33576662502E+02 -0.27244605978E+02 -0.64334358329E+02  0.12355886437E+03  0.96219657471E+02 0.  0.
         23    2    1    2    0    0  0.14687545478E+02 -0.24498412600E+02 -0.28101139623E+03  0.29696756537E+03  0.91686606745E+02 0.  0.
        -11    1    4    4    0    0 -0.33853955573E+02  0.95212589960E+01 -0.79772075452E+02  0.87179864089E+02  0.00000000000E+00 0. -1.
         11    1    4    4    0    0  0.48541501051E+02 -0.34019671596E+02 -0.20123932078E+03  0.20978770128E+03  0.00000000000E+00 0.  1.
        -13    1    3    3    0    0  0.81450273521E+01 -0.40584751609E+02 -0.67994735898E+02  0.79603691143E+02  0.00000000000E+00 0. -1.
         13    1    3    3    0    0 -0.41721689855E+02  0.13340145631E+02  0.36603775689E+01  0.43955173230E+02  0.00000000000E+00 0.  1.
         -1    1    1    2    0  502  0.18889117024E+02  0.51743018578E+02 -0.90019577509E+02  0.10553512708E+03  0.00000000000E+00 0.  1.
<scales pt_clust_5="13000.00000" pt_clust_6="13000.00000" pt_clust_7="13000.00000" pt_clust_8="13000.00000" pt_clust_9="13000.00000"></scales>
<clustering>
<clus scale="   91.687">  5  6 -1 -1</clus>
<clus scale="   55.083">  5  9 -1 -1</clus>
<clus scale="   96.220">  7  8 -1 -1</clus>
<clus scale="  105.489">  1  7  2 -1</clus>
<clus scale="  156.027">  2  5  1 -1</clus>
</clustering>
</event>
<event>
 9    1  0.3303741E-006  0.1863655E+03  0.7546771E-02  0.1175654E+00
         21   -1    0    0  501  502  0.00000000000E+00  0.00000000000E+00  0.81536657505E+02  0.81536657505E+02  0.00000000000E+00 0.  1.
          1   -1    0    0  502    0 -0.00000000000E+00 -0.00000000000E+00 -0.49918477694E+03  0.49918477694E+03  0.00000000000E+00 0. -1.
         23    2    1    2    0    0 -0.19852051370E+02  0.67591205382E+02 -0.36148299391E+03  0.38607653639E+03  0.11585534977E+03 0.  0.
         23    2    1    2    0    0 -0.41340361930E+01  0.20831459611E+02 -0.53851714443E+01  0.89895178170E+02  0.87184304906E+02 0.  0.
        -13    1    3    3    0    0  0.37464656654E+02 -0.11084654820E+01 -0.53230699328E+02  0.65102507976E+02  0.00000000000E+00 0.  1.
         13    1    3    3    0    0 -0.57316708024E+02  0.68699670864E+02 -0.30825229459E+03  0.32097402841E+03  0.00000000000E+00 0. -1.
        -13    1    4    4    0    0 -0.28337640083E+02 -0.25070089942E+02 -0.17457687068E+01  0.37875836143E+02  0.00000000000E+00 0.  1.
         13    1    4    4    0    0  0.24203603890E+02  0.45901549553E+02 -0.36394027375E+01  0.52019342027E+02  0.00000000000E+00 0. -1.
          1    1    1    2  501    0  0.23986087563E+02 -0.88422664993E+02 -0.50779954079E+02  0.10474971989E+03  0.00000000000E+00 0. -1.
<scales pt_clust_5="13000.00000" pt_clust_6="13000.00000" pt_clust_7="13000.00000" pt_clust_8="13000.00000" pt_clust_9="13000.00000"></scales>
<clustering>
<clus scale="   87.184">  7  8 -1 -1</clus>
<clus scale="   91.618">  7  9 -1 -1</clus>
<clus scale="  115.855">  5  6 -1 -1</clus>
<clus scale="  135.592">  2  5  1 -1</clus>
<clus scale="  186.366">  1  5  2 -1</clus>
</clustering>
</event>
<event>
 9    1  0.3303741E-006  0.7002629E+03  0.7546771E-02  0.1020837E+00
          1   -1    0    0  502    0 -0.00000000000E+00  0.00000000000E+00  0.18806730329E+03  0.18806730329E+03  0.00000000000E+00 0. -1.
         21   -1    0    0  501  502  0.00000000000E+00 -0.00000000000E+00 -0.10894540565E+04  0.10894540565E+04  0.00000000000E+00 0. -1.
         23    2    1    2    0    0  0.82379243108E+02 -0.82871036150E+02 -0.37121662945E+03  0.39919993548E+03  0.88909246888E+02 0.  0.
         23    2    1    2    0    0  0.13889042533E+03  0.32677508983E+03 -0.32798138055E+03  0.49188935853E+03  0.91163838598E+02 0.  0.
        -13    1    3    3    0    0  0.12404989906E+02  0.17101525652E+02 -0.29015115527E+02  0.35891821955E+02  0.00000000000E+00 0.  1.
         13    1    3    3    0    0  0.69974253202E+02 -0.99972561803E+02 -0.34220151392E+03  0.36330811353E+03  0.00000000000E+00 0. -1.
        -13    1    4    4    0    0  0.10340042483E+03  0.16602373672E+03 -0.13211390742E+03  0.23602884049E+03  0.00000000000E+00 0. -1.
         13    1    4    4    0    0  0.35490000495E+02  0.16075135312E+03 -0.19586747312E+03  0.25586051804E+03  0.00000000000E+00 0.  1.
          1    1    1    2  501    0 -0.22126966844E+03 -0.24390405368E+03 -0.20218874319E+03  0.38643206576E+03  0.00000000000E+00 0. -1.
<scales pt_clust_5="13000.00000" pt_clust_6="13000.00000" pt_clust_7="13000.00000" pt_clust_8="13000.00000" pt_clust_9="13000.00000"></scales>
<clustering>
<clus scale="   88.909">  5  6 -1 -1</clus>
<clus scale="   91.164">  7  8 -1 -1</clus>
<clus scale="  146.829">  1  5  2 -1</clus>
<clus scale="  338.192">  7  9 -1 -1</clus>
<clus scale="  700.263">  2  5  1 -1</clus>
</clustering>
</event>
<event>
 9    1  0.3303741E-006  0.2189345E+03  0.7546771E-02  0.1170831E+00
         21   -1    0    0  501  502  0.00000000000E+00  0.00000000000E+00  0.11270779906E+03  0.11270779906E+03  0.00000000000E+00 0.  1.
          2   -1    0    0  502    0 -0.00000000000E+00 -0.00000000000E+00 -0.21922183649E+03  0.21922183649E+03  0.00000000000E+00 0. -1.
         23    2    1    2    0    0 -0.22603478365E+02 -0.11782941870E+02 -0.49715836483E+02  0.10574754367E+03  0.89783760462E+02 0.  0.
         23    2    1    2    0    0 -0.56686257492E+01  0.48319258318E+01 -0.12421770101E+03  0.15274492497E+03  0.88574793459E+02 0.  0.
        -11    1    4    4    0    0  0.26524663322E+02 -0.17813858278E+02 -0.12522857526E+02  0.34317827316E+02  0.00000000000E+00 0. -1.
         11    1    4    4    0    0 -0.32193289071E+02  0.22645784109E+02 -0.11169484348E+03  0.11842709766E+03  0.00000000000E+00 0.  1.
        -11    1    3    3    0    0  0.30068439069E+02  0.12360150821E+02 -0.57515359291E+01  0.33014610734E+02  0.00000000000E+00 0. -1.
         11    1    3    3    0    0 -0.52671917434E+02 -0.24143092691E+02 -0.43964300554E+02  0.72732932940E+02  0.00000000000E+00 0.  1.
          2    1    1    2  501    0  0.28272104114E+02  0.69510160381E+01  0.67419500063E+02  0.73437166910E+02  0.00000000000E+00 0. -1.
<scales pt_clust_5="13000.00000" pt_clust_6="13000.00000" pt_clust_7="13000.00000" pt_clust_8="13000.00000" pt_clust_9="13000.00000"></scales>
<clustering>
<clus scale="   88.575">  5  6 -1 -1</clus>
<clus scale="   29.114">  5  9 -1 -1</clus>
<clus scale="   89.784">  7  8 -1 -1</clus>
<clus scale="   93.332">  2  7  1 -1</clus>
<clus scale="  218.934">  1  5  2 -1</clus>
</clustering>
</event>
<event>
 9    1  0.3303741E-006  0.2037535E+03  0.7546771E-02  0.1172976E+00
         -3   -1    0    0    0  501 -0.00000000000E+00  0.00000000000E+00  0.34273402242E+03  0.34273402242E+03  0.00000000000E+00 0.  1.
         21   -1    0    0  501  502  0.00000000000E+00 -0.00000000000E+00 -0.88110068203E+02  0.88110068203E+02  0.00000000000E+00 0. -1.
         23    2    1    2    0    0 -0.59693134004E+02 -0.73445957692E+01  0.74462077641E+01  0.11051253029E+03  0.92414068233E+02 0.  0.
         23    2    1    2    0    0  0.34914004246E+02  0.25807053773E+01  0.26788464832E+03  0.28768993494E+03  0.98882081931E+02 0.  0.
        -11    1    3    3    0    0 -0.12609386379E+02  0.32543442691E+02 -0.22903041374E+02  0.41744719321E+02  0.00000000000E+00 0.  1.
         11    1    3    3    0    0 -0.47083747625E+02 -0.39888038460E+02  0.30349249138E+02  0.68767810972E+02  0.00000000000E+00 0. -1.
        -11    1    4    4    0    0  0.46991413912E+02 -0.39214123508E+02  0.16498110660E+03  0.17596791185E+03  0.00000000000E+00 0. -1.
         11    1    4    4    0    0 -0.12077409666E+02  0.41794828886E+02  0.10290354172E+03  0.11172202309E+03  0.00000000000E+00 0.  1.
         -3    1    1    2    0  502  0.24779129758E+02  0.47638903919E+01 -0.20706901868E+02  0.32641625391E+02  0.00000000000E+00 0.  1.
<scales pt_clust_5="13000.00000" pt_clust_6="13000.00000" pt_clust_7="13000.00000" pt_clust_8="13000.00000" pt_clust_9="13000.00000"></scales>
<clustering>
<clus scale="   92.414">  5  6 -1 -1</clus>
<clus scale="   98.882">  7  8 -1 -1</clus>
<clus scale="   25.233">  7  9 -1 -1</clus>
<clus scale="  110.261">  1  5  2 -1</clus>
<clus scale="  203.753">  2  5  1 -1</clus>
</clustering>
</event>
<event>
 9    1  0.3303741E-006  0.2594533E+03  0.7546771E-02  0.1128533E+00
         21   -1    0    0  501  502  0.00000000000E+00  0.00000000000E+00  0.96265043388E+02  0.96265043388E+02  0.00000000000E+00 0.  1.
          2   -1    0    0  502    0 -0.00000000000E+00 -0.00000000000E+00 -0.45368961260E+03  0.45368961260E+03  0.00000000000E+00 0. -1.
         23    2    1    2    0    0  0.10946991686E+03  0.60505606013E+02 -0.17714929014E+03  0.23401924787E+03  0.87969007718E+02 0.  0.
         23    2    1    2    0    0 -0.13044277489E+03 -0.11753056795E+03 -0.15082971749E+03  0.24841690580E+03  0.90180948584E+02 0.  0.
        -11    1    3    3    0    0  0.74270352736E+02 -0.55738092772E+01 -0.11347687618E+03  0.13573560356E+03  0.00000000000E+00 0. -1.
         11    1    3    3    0    0  0.35199564125E+02  0.66079415290E+02 -0.63672413964E+02  0.98283644314E+02  0.00000000000E+00 0.  1.
        -13    1    4    4    0    0 -0.12048397645E+03 -0.98867431725E+02 -0.16174183389E+03  0.22461428821E+03  0.00000000000E+00 0.  1.
         13    1    4    4    0    0 -0.99587984319E+01 -0.18663136227E+02  0.10912116398E+02  0.23802617594E+02  0.00000000000E+00 0. -1.
          2    1    1    2  501    0  0.20972858026E+02  0.57024961939E+02 -0.29445561571E+02  0.67518502310E+02  0.00000000000E+00 0. -1.
<scales pt_clust_5="13000.00000" pt_clust_6="13000.00000" pt_clust_7="13000.00000" pt_clust_8="13000.00000" pt_clust_9="13000.00000"></scales>
<clustering>
<clus scale="   87.969">  5  6 -1 -1</clus>
<clus scale="   90.181">  7  8 -1 -1</clus>
<clus scale="   60.759">  7  9 -1 -1</clus>
<clus scale="  152.915">  2  5  1 -1</clus>
<clus scale="  259.453">  1  5  2 -1</clus>
</clustering>
</event>
<event>
 9    1  0.3303741E-006  0.2545566E+03  0.7546771E-02  0.1120172E+00
         -1   -1    0    0    0  501 -0.00000000000E+00  0.00000000000E+00  0.25782091035E+03  0.25782091035E+03  0.00000000000E+00 0.  1.
         21   -1    0    0  501  502  0.00000000000E+00 -0.00000000000E+00 -0.20159358385E+03  0.20159358385E+03  0.00000000000E+00 0.  1.
         23    2    1    2    0    0  0.74211714746E+02 -0.15781189161E+03  0.25287162981E+01  0.19925569546E+03  0.96355934060E+02 0.  0.
         23    2    1    2    0    0 -0.39573689849E+02  0.13905272273E+02  0.53073822146E+02  0.11214090042E+03  0.89438903311E+02 0.  0.
        -11    1    4    4    0    0 -0.65835172792E+01 -0.35205078115E+02  0.35489488198E+02  0.50420670339E+02  0.00000000000E+00 0.  1.
         11    1    4    4    0    0 -0.32990172570E+02  0.49110350388E+02  0.17584333948E+02  0.61720230086E+02  0.00000000000E+00 0. -1.
        -13    1    3    3    0    0  0.31052881129E+02 -0.12791244131E+03  0.36654317146E+02  0.13663606052E+03  0.00000000000E+00 0.  1.
         13    1    3    3    0    0  0.43158833616E+02 -0.29899450302E+02 -0.34125600848E+02  0.62619634945E+02  0.00000000000E+00 0. -1.
         -1    1    1    2    0  502 -0.34638024896E+02  0.14390661934E+03  0.62478805795E+00  0.14801789831E+03  0.00000000000E+00 0.  1.
<scales pt_clust_5="13000.00000" pt_clust_6="13000.00000" pt_clust_7="13000.00000" pt_clust_8="13000.00000" pt_clust_9="13000.00000"></scales>
<clustering>
<clus scale="   89.439">  5  6 -1 -1</clus>
<clus scale="   96.356">  7  8 -1 -1</clus>
<clus scale="  148.017">  5  9 -1 -1</clus>
<clus scale="  199.240">  1  7  2 -1</clus>
<clus scale="  254.557">  2  5  1 -1</clus>
</clustering>
</event>
<event>
 9    1  0.3303741E-006  0.3125880E+03  0.7546771E-02  0.1108617E+00
          1   -1    0    0  502    0 -0.00000000000E+00  0.00000000000E+00  0.60932141582E+02  0.60932141582E+02  0.00000000000E+00 0. -1.
         21   -1    0    0  501  502  0.00000000000E+00 -0.00000000000E+00 -0.86055375761E+03  0.86055375761E+03  0.00000000000E+00 0. -1.
         23    2    1    2    0    0  0.65929696638E+02 -0.67157532757E+02 -0.28545241737E+03  0.31975402866E+03  0.10909948285E+03 0.  0.
         23    2    1    2    0    0 -0.10809692995E+02  0.71598996266E+00 -0.20469510651E+02  0.10054121285E+03  0.97837480090E+02 0.  0.
        -13    1    4    4    0    0  0.43599420493E+02 -0.41780029586E+01 -0.84914286704E+01  0.44614678491E+02  0.00000000000E+00 0.  1.
         13    1    4    4    0    0 -0.54409113487E+02  0.48939929213E+01 -0.11978081980E+02  0.55926534356E+02  0.00000000000E+00 0. -1.
        -13    1    3    3    0    0 -0.25341756709E+02  0.55710819168E+01 -0.71168700348E+02  0.75751075874E+02  0.00000000000E+00 0.  1.
         13    1    3    3    0    0  0.91271453347E+02 -0.72728614674E+02 -0.21428371702E+03  0.24400295279E+03  0.00000000000E+00 0. -1.
          1    1    1    2  501    0 -0.55120003644E+02  0.66441542794E+02 -0.49369968801E+03  0.50119065768E+03  0.00000000000E+00 0. -1.
<scales pt_clust_5="13000.00000" pt_clust_6="13000.00000" pt_clust_7="13000.00000" pt_clust_8="13000.00000" pt_clust_9="13000.00000"></scales>
<clustering>
<clus scale="   97.837">  5  6 -1 -1</clus>
<clus scale="   86.329">  5  9 -1 -1</clus>
<clus scale="  109.099">  7  8 -1 -1</clus>
<clus scale="  144.082">  1  7  2 -1</clus>
<clus scale="  312.588">  2  5  1 -1</clus>
</clustering>
</event>
<event>
 9    1  0.3303741E-006  0.1942195E+03  0.7546771E-02  0.1180685E+00
         -3   -1    0    0    0  501 -0.00000000000E+00  0.00000000000E+00  0.17023616477E+03  0.17023616477E+03  0.00000000000E+00 0.  1.
         21   -1    0    0  501  502  0.00000000000E+00 -0.00000000000E+00 -0.14072957318E+03  0.14072957318E+03  0.00000000000E+00 0.  1.
         23    2    1    2    0    0  0.59345381573E+02  0.24583378216E+02 -0.23791296584E+02  0.10956589203E+03  0.85512818362E+02 0.  0.
         23    2    1    2    0    0 -0.10899872694E+03 -0.22592167559E+02  0.32475638809E+02  0.14752048351E+03  0.91194832256E+02 0.  0.
        -11    1    4    4    0    0 -0.28773007271E+02 -0.45451661444E+02 -0.87004924935E+01  0.54492550363E+02  0.00000000000E+00 0. -1.
         11    1    4    4    0    0 -0.80225719665E+02  0.22859493886E+02  0.41176131303E+02  0.93027933147E+02  0.00000000000E+00 0.  1.
        -11    1    3    3    0    0  0.10474591173E+02  0.48255678807E+02 -0.24793602577E+02  0.55254414540E+02  0.00000000000E+00 0. -1.
         11    1    3    3    0    0  0.48870790400E+02 -0.23672300591E+02  0.10023059934E+01  0.54311477488E+02  0.00000000000E+00 0.  1.
         -3    1    1    2    0  502  0.49653345363E+02 -0.19912106573E+01  0.20822249364E+02  0.53879362415E+02  0.00000000000E+00 0.  1.
<scales pt_clust_5="13000.00000" pt_clust_6="13000.00000" pt_clust_7="13000.00000" pt_clust_8="13000.00000" pt_clust_9="13000.00000"></scales>
<clustering>
<clus scale="   85.513">  7  8 -1 -1</clus>
<clus scale="   91.195">  5  6 -1 -1</clus>
<clus scale="   49.693">  5  9 -1 -1</clus>
<clus scale="  106.952">  1  7  2 -1</clus>
<clus scale="  194.220">  2  5  1 -1</clus>
</clustering>
</event>
<event>
 9    1  0.3303741E-006  0.3942573E+03  0.7546771E-02  0.1079611E+00
         -2   -1    0    0    0  501 -0.00000000000E+00  0.00000000000E+00  0.20179285329E+03  0.20179285329E+03  0.00000000000E+00 0.  1.
         21   -1    0    0  501  502  0.00000000000E+00 -0.00000000000E+00 -0.38468030911E+03  0.38468030911E+03  0.00000000000E+00 0.  1.
         23    2    1    2    0    0  0.98063214346E+02 -0.72817096476E+02 -0.10064534984E+03  0.18372936410E+03  0.93318107794E+02 0.  0.
         23    2    1    2    0    0  0.19739026470E+02  0.30360123858E+02  0.12608140767E+03  0.15968280017E+03  0.91053330661E+02 0.  0.
        -11    1    3    3    0    0  0.27507717110E+02 -0.39276568205E+02  0.93104083486E+01  0.48846770765E+02  0.00000000000E+00 0.  1.
         11    1    3    3    0    0  0.70555497236E+02 -0.33540528270E+02 -0.10995575818E+03  0.13488259334E+03  0.00000000000E+00 0. -1.
        -13    1    4    4    0    0 -0.25477453841E+02  0.39677395430E+02  0.39290054744E+02  0.61376744490E+02  0.00000000000E+00 0.  1.
         13    1    4    4    0    0  0.45216480311E+02 -0.93172715724E+01  0.86791352926E+02  0.98306055683E+02  0.00000000000E+00 0. -1.
         -2    1    1    2    0  502 -0.11780224082E+03  0.42456972618E+02 -0.20832351366E+03  0.24306099813E+03  0.00000000000E+00 0.  1.
<scales pt_clust_5="13000.00000" pt_clust_6="13000.00000" pt_clust_7="13000.00000" pt_clust_8="13000.00000" pt_clust_9="13000.00000"></scales>
<clustering>
<clus scale="   91.053">  7  8 -1 -1</clus>
<clus scale="   93.318">  5  6 -1 -1</clus>
<clus scale="  125.220">  7  9 -1 -1</clus>
<clus scale="  153.711">  1  5  2 -1</clus>
<clus scale="  394.257">  2  5  1 -1</clus>
</clustering>
</event>
<event>
 9    1  0.3303741E-006  0.1584207E+03  0.7546771E-02  0.1213677E+00
          1   -1    0    0  502    0 -0.00000000000E+00  0.00000000000E+00  0.48880770522E+03  0.48880770522E+03  0.00000000000E+00 0. -1.
         21   -1    0    0  501  502  0.00000000000E+00 -0.00000000000E+00 -0.16484224001E+03  0.16484224001E+03  0.00000000000E+00 0.  1.
         23    2    1    2    0    0  0.27167025811E+02 -0.12786093758E+02  0.44441041497E+03  0.45464213031E+03  0.91089616515E+02 0.  0.
         23    2    1    2    0    0 -0.41406933643E+02 -0.22073683217E+02 -0.12344117752E+03  0.16123273839E+03  0.92501297158E+02 0.  0.
        -11    1    4    4    0    0 -0.33098818259E+02  0.42665028919E+01  0.13713488198E+01  0.33400829550E+02  0.00000000000E+00 0. -1.
         11    1    4    4    0    0 -0.83081153839E+01 -0.26340186109E+02 -0.12481252634E+03  0.12783190884E+03  0.00000000000E+00 0.  1.
        -13    1    3    3    0    0 -0.14292298282E+02 -0.42525865615E+02  0.21306184998E+03  0.21773394534E+03  0.00000000000E+00 0.  1.
         13    1    3    3    0    0  0.41459324093E+02  0.29739771856E+02  0.23134856499E+03  0.23690818497E+03  0.00000000000E+00 0. -1.
          1    1    1    2  501    0  0.14239907832E+02  0.34859776976E+02  0.29962277717E+01  0.37775076528E+02  0.00000000000E+00 0. -1.
<scales pt_clust_5="13000.00000" pt_clust_6="13000.00000" pt_clust_7="13000.00000" pt_clust_8="13000.00000" pt_clust_9="13000.00000"></scales>
<clustering>
<clus scale="   91.090">  7  8 -1 -1</clus>
<clus scale="   92.501">  5  6 -1 -1</clus>
<clus scale="   37.656">  5  9 -1 -1</clus>
<clus scale="   95.911">  1  7  2 -1</clus>
<clus scale="  158.421">  2  5  1 -1</clus>
</clustering>
</event>
<event>
 9    1  0.3303741E-006  0.4836917E+03  0.7546771E-02  0.1050919E+00
         -3   -1    0    0    0  501 -0.00000000000E+00  0.00000000000E+00  0.17786899685E+03  0.17786899685E+03  0.00000000000E+00 0.  1.
         21   -1    0    0  501  502  0.00000000000E+00 -0.00000000000E+00 -0.80963234780E+03  0.80963234780E+03  0.00000000000E+00 0.  1.
         23    2    1    2    0    0 -0.15368095888E+03  0.48529265389E+02  0.91374095610E+01  0.18456208840E+03  0.89480419638E+02 0.  0.
         23    2    1    2    0    0 -0.56180492621E+02 -0.73967957334E+02 -0.14181023993E+01  0.12942086312E+03  0.90112387227E+02 0.  0.
        -13    1    3    3    0    0 -0.12980877177E+03  0.36529787035E+02  0.42896570934E+02  0.14150921654E+03  0.00000000000E+00 0.  1.
         13    1    3    3    0    0 -0.23872187112E+02  0.11999478354E+02 -0.33759161373E+02  0.43052871854E+02  0.00000000000E+00 0. -1.
        -13    1    4    4    0    0 -0.76669004621E+02 -0.43158919078E+02  0.14452407018E+02  0.89161093724E+02  0.00000000000E+00 0.  1.
         13    1    4    4    0    0  0.20488512000E+02 -0.30809038257E+02 -0.15870509417E+02  0.40259769391E+02  0.00000000000E+00 0. -1.
         -3    1    1    2    0  502  0.20986145150E+03  0.25438691945E+02 -0.63948265811E+03  0.67351839314E+03  0.00000000000E+00 0.  1.
<scales pt_clust_5="13000.00000" pt_clust_6="13000.00000" pt_clust_7="13000.00000" pt_clust_8="13000.00000" pt_clust_9="13000.00000"></scales>
<clustering>
<clus scale="   89.480">  5  6 -1 -1</clus>
<clus scale="   90.112">  7  8 -1 -1</clus>
<clus scale="  184.336">  1  5  2 -1</clus>
<clus scale="  181.121">  7  9 -1 -1</clus>
<clus scale="  483.692">  2  5  1 -1</clus>
</clustering>
</event>
<event>
 9    1  0.3303741E-006  0.2853883E+03  0.7546771E-02  0.1135141E+00
         21   -1    0    0  501  502  0.00000000000E+00  0.00000000000E+00  0.11223613180E+03  0.11223613180E+03  0.00000000000E+00 0. -1.
          2   -1    0    0  502    0 -0.00000000000E+00 -0.00000000000E+00 -0.32733087890E+03  0.32733087890E+03  0.00000000000E+00 0. -1.
         23    2    1    2    0    0  0.25660914719E+02  0.35154491973E+02 -0.61383333486E+02  0.11541627647E+03  0.87513898295E+02 0.  0.
         23    2    1    2    0    0 -0.56426981387E+02  0.48783895381E+02 -0.19280636135E+03  0.22657707657E+03  0.92730825379E+02 0.  0.
        -11    1    3    3    0    0  0.38945576839E+02 -0.17786465667E+02 -0.22219370017E+02  0.48237088638E+02  0.00000000000E+00 0.  1.
         11    1    3    3    0    0 -0.13284662120E+02  0.52940957640E+02 -0.39163963469E+02  0.67179187835E+02  0.00000000000E+00 0. -1.
        -13    1    4    4    0    0 -0.64337355739E+02 -0.50426984995E+01 -0.10843284863E+03  0.12618401965E+03  0.00000000000E+00 0.  1.
         13    1    4    4    0    0  0.79103743523E+01  0.53826593881E+02 -0.84373512717E+02  0.10039305693E+03  0.00000000000E+00 0. -1.
          2    1    1    2  501    0  0.30766066668E+02 -0.83938387354E+02  0.39094947730E+02  0.97573657653E+02  0.00000000000E+00 0. -1.
<scales pt_clust_5="13000.00000" pt_clust_6="13000.00000" pt_clust_7="13000.00000" pt_clust_8="13000.00000" pt_clust_9="13000.00000"></scales>
<clustering>
<clus scale="   87.514">  5  6 -1 -1</clus>
<clus scale="   92.731">  7  8 -1 -1</clus>
<clus scale="   89.399">  7  9 -1 -1</clus>
<clus scale="   97.739">  2  5  1 -1</clus>
<clus scale="  285.388">  1  5  2 -1</clus>
</clustering>
</event>
<event>
 9    1  0.3303741E-006  0.1720910E+03  0.7546771E-02  0.1200204E+00
         21   -1    0    0  501  502  0.00000000000E+00  0.00000000000E+00  0.41332375058E+03  0.41332375058E+03  0.00000000000E+00 0.  1.
          3   -1    0    0  502    0 -0.00000000000E+00 -0.00000000000E+00 -0.15984617491E+03  0.15984617491E+03  0.00000000000E+00 0. -1.
         23    2    1    2    0    0 -0.39716288532E+02  0.15199588472E+02 -0.12344911880E+03  0.15881617782E+03  0.90412843887E+02 0.  0.
         23    2    1    2    0    0  0.16763525480E+02  0.47838637942E+02  0.20634689043E+03  0.23105585661E+03  0.90764633076E+02 0.  0.
        -11    1    3    3    0    0 -0.25102106166E+02  0.53383995831E+02 -0.75050621927E+02  0.95459743329E+02  0.00000000000E+00 0.  1.
         11    1    3    3    0    0 -0.14614182366E+02 -0.38184407359E+02 -0.48398496871E+02  0.63356434487E+02  0.00000000000E+00 0. -1.
        -13    1    4    4    0    0 -0.61664546127E+01  0.52263577276E+02  0.20006771012E+03  0.20687337989E+03  0.00000000000E+00 0.  1.
         13    1    4    4    0    0  0.22929980092E+02 -0.44249393346E+01  0.62791803073E+01  0.24182476723E+02  0.00000000000E+00 0. -1.
          3    1    1    2  501    0  0.22952763052E+02 -0.63038226414E+02  0.17057980404E+03  0.18329789106E+03  0.00000000000E+00 0. -1.
<scales pt_clust_5="13000.00000" pt_clust_6="13000.00000" pt_clust_7="13000.00000" pt_clust_8="13000.00000" pt_clust_9="13000.00000"></scales>
<clustering>
<clus scale="   90.413">  5  6 -1 -1</clus>
<clus scale="   90.765">  7  8 -1 -1</clus>
<clus scale="   67.087">  7  9 -1 -1</clus>
<clus scale="   99.914">  2  5  1 -1</clus>
<clus scale="  172.091">  1  5  2 -1</clus>
</clustering>
</event>
<event>
 9    1  0.3303741E-006  0.5458161E+03  0.7546771E-02  0.1043091E+00
          2   -1    0    0  502    0 -0.00000000000E+00  0.00000000000E+00  0.76361383378E+03  0.76361383378E+03  0.00000000000E+00 0. -1.
         21   -1    0    0  501  502  0.00000000000E+00 -0.00000000000E+00 -0.16338353294E+03  0.16338353294E+03  0.00000000000E+00 0. -1.
         23    2    1    2    0    0 -0.51486499542E+02  0.11662569664E+03  0.13385251894E+03  0.20906737352E+03  0.97674239670E+02 0.  0.
         23    2    1    2    0    0  0.20315902119E+03 -0.50698027110E+02  0.49967248181E+03  0.54923041266E+03  0.90208532131E+02 0.  0.
        -13    1    4    4    0    0  0.12215769999E+03 -0.67533180605E+02  0.36957098325E+03  0.39505182674E+03  0.00000000000E+00 0. -1.
         13    1    4    4    0    0  0.81001321198E+02  0.16835153495E+02  0.13010149856E+03  0.15417858592E+03  0.00000000000E+00 0.  1.
        -13    1    3    3    0    0  0.12795681777E+02  0.60681512009E+02  0.99378638631E+02  0.11714132144E+03  0.00000000000E+00 0. -1.
         13    1    3    3    0    0 -0.64282181319E+02  0.55944184628E+02  0.34473880305E+02  0.91926052086E+02  0.00000000000E+00 0.  1.
          2    1    1    2  501    0 -0.15167252165E+03 -0.65927669526E+02 -0.33294699905E+02  0.16869958054E+03  0.00000000000E+00 0. -1.
<scales pt_clust_5="13000.00000" pt_clust_6="13000.00000" pt_clust_7="13000.00000" pt_clust_8="13000.00000" pt_clust_9="13000.00000"></scales>
<clustering>
<clus scale="   90.209">  5  6 -1 -1</clus>
<clus scale="   97.674">  7  8 -1 -1</clus>
<clus scale="  160.601">  1  7  2 -1</clus>
<clus scale="  166.105">  5  9 -1 -1</clus>
<clus scale="  545.816">  2  5  1 -1</clus>
</clustering>
</event>
<event>
 9    1  0.3303741E-006  0.3007431E+03  0.7546771E-02  0.1122341E+00
         21   -1    0    0  501  502  0.00000000000E+00  0.00000000000E+00  0.21462802101E+03  0.21462802101E+03  0.00000000000E+00 0. -1.
          2   -1    0    0  502    0 -0.00000000000E+00 -0.00000000000E+00 -0.26150384390E+03  0.26150384390E+03  0.00000000000E+00 0. -1.
         23    2    1    2    0    0 -0.54128748143E+02 -0.48609199714E+02 -0.12082576843E+03  0.16643043342E+03  0.88359759960E+02 0.  0.
         23    2    1    2    0    0  0.51833353743E+02 -0.60985184910E+02 -0.60503056983E+02  0.13622576212E+03  0.92146345677E+02 0.  0.
        -13    1    3    3    0    0  0.47869388939E+01 -0.54882433352E+02 -0.54466458821E+02  0.77469938758E+02  0.00000000000E+00 0. -1.
         13    1    3    3    0    0 -0.58915687037E+02  0.62732336380E+01 -0.66359309606E+02  0.88960494663E+02  0.00000000000E+00 0.  1.
        -13    1    4    4    0    0  0.73391155049E+02 -0.41852307456E+02 -0.20530267202E+02  0.86944632670E+02  0.00000000000E+00 0.  1.
         13    1    4    4    0    0 -0.21557801306E+02 -0.19132877455E+02 -0.39972789780E+02  0.49281129448E+02  0.00000000000E+00 0. -1.
          2    1    1    2  501    0  0.22953944003E+01  0.10959438462E+03  0.13445300252E+03  0.17347566937E+03  0.00000000000E+00 0. -1.
<scales pt_clust_5="13000.00000" pt_clust_6="13000.00000" pt_clust_7="13000.00000" pt_clust_8="13000.00000" pt_clust_9="13000.00000"></scales>
<clustering>
<clus scale="   88.360">  5  6 -1 -1</clus>
<clus scale="   92.146">  7  8 -1 -1</clus>
<clus scale="  109.618">  7  9 -1 -1</clus>
<clus scale="  114.456">  2  5  1 -1</clus>
<clus scale="  300.743">  1  5  2 -1</clus>
</clustering>
</event>
<event>
 9    1  0.3303741E-006  0.1662933E+03  0.7546771E-02  0.1200151E+00
         21   -1    0    0  501  502  0.00000000000E+00  0.00000000000E+00  0.61623672779E+02  0.61623672779E+02  0.00000000000E+00 0. -1.
         -3   -1    0    0    0  501 -0.00000000000E+00 -0.00000000000E+00 -0.32303990576E+03  0.32303990576E+03  0.00000000000E+00 0.  1.
         23    2    1    2    0    0  0.43006223859E+02 -0.34550770557E+02 -0.14093631907E+03  0.17931300250E+03  0.96160364995E+02 0.  0.
         23    2    1    2    0    0  0.12791702924E+02  0.33038875657E+02 -0.37517445999E+02  0.10535824863E+03  0.91856446867E+02 0.  0.
        -13    1    3    3    0    0  0.76895229231E+01  0.31410495465E+02 -0.23144354390E+02  0.39766935112E+02  0.00000000000E+00 0. -1.
         13    1    3    3    0    0  0.35316700936E+02 -0.65961266022E+02 -0.11779196468E+03  0.13954606739E+03  0.00000000000E+00 0.  1.
        -13    1    4    4    0    0 -0.23715771528E+02 -0.83070042279E+01  0.14944298532E+02  0.29236555834E+02  0.00000000000E+00 0.  1.
         13    1    4    4    0    0  0.36507474452E+02  0.41345879885E+02 -0.52461744531E+02  0.76121692793E+02  0.00000000000E+00 0. -1.
         -3    1    1    2    0  502 -0.55797926783E+02  0.15118948997E+01 -0.82962467914E+02  0.99992327415E+02  0.00000000000E+00 0.  1.
<scales pt_clust_5="13000.00000" pt_clust_6="13000.00000" pt_clust_7="13000.00000" pt_clust_8="13000.00000" pt_clust_9="13000.00000"></scales>
<clustering>
<clus scale="   91.856">  7  8 -1 -1</clus>
<clus scale="   55.818">  7  9 -1 -1</clus>
<clus scale="   96.160">  5  6 -1 -1</clus>
<clus scale="  110.861">  2  5  1 -1</clus>
<clus scale="  166.293">  1  5  2 -1</clus>
</clustering>
</event>
<event>
 9    1  0.3303741E-006  0.4397420E+03  0.7546771E-02  0.1058699E+00
         21   -1    0    0  501  502  0.00000000000E+00  0.00000000000E+00  0.37702465917E+03  0.37702465917E+03  0.00000000000E+00 0. -1.
          1   -1    0    0  502    0 -0.00000000000E+00 -0.00000000000E+00 -0.26919186039E+03  0.26919186039E+03  0.00000000000E+00 0. -1.
         23    2    1    2    0    0  0.48740562807E+02  0.16756881278E+03  0.21236542725E+02  0.19802910393E+03  0.91156929401E+02 0.  0.
         23    2    1    2    0    0 -0.33696877396E+02 -0.19237616882E+02 -0.14289422528E+03  0.17451911793E+03  0.92372059922E+02 0.  0.
        -11    1    4    4    0    0 -0.74281727837E+01  0.35828534571E+02 -0.73598049148E+02  0.82192058490E+02  0.00000000000E+00 0.  1.
         11    1    4    4    0    0 -0.26268704612E+02 -0.55066151453E+02 -0.69296176132E+02  0.92327059438E+02  0.00000000000E+00 0. -1.
        -13    1    3    3    0    0  0.75607400356E+02  0.13249203371E+03  0.13165218607E+02  0.15311414359E+03  0.00000000000E+00 0. -1.
         13    1    3    3    0    0 -0.26866837549E+02  0.35076779068E+02  0.80713241177E+01  0.44914960343E+02  0.00000000000E+00 0.  1.
          1    1    1    2  501    0 -0.15043685411E+02 -0.14833119590E+03  0.22949048133E+03  0.27366829770E+03  0.00000000000E+00 0. -1.
<scales pt_clust_5="13000.00000" pt_clust_6="13000.00000" pt_clust_7="13000.00000" pt_clust_8="13000.00000" pt_clust_9="13000.00000"></scales>
<clustering>
<clus scale="   91.157">  7  8 -1 -1</clus>
<clus scale="   92.372">  5  6 -1 -1</clus>
<clus scale="  149.092">  5  9 -1 -1</clus>
<clus scale="  196.887">  2  7  1 -1</clus>
<clus scale="  439.742">  1  5  2 -1</clus>
</clustering>
</event>
<event>
 9    1  0.3303741E-006  0.3253598E+03  0.7546771E-02  0.1087810E+00
          1   -1    0    0  502    0 -0.00000000000E+00  0.00000000000E+00  0.77168898227E+03  0.77168898227E+03  0.00000000000E+00 0. -1.
         21   -1    0    0  501  502  0.00000000000E+00 -0.00000000000E+00 -0.96940113230E+02  0.96940113230E+02  0.00000000000E+00 0. -1.
         23    2    1    2    0    0  0.20106581090E+02  0.19993799266E+03  0.30905275519E+03  0.37914707176E+03  0.88653375698E+02 0.  0.
         23    2    1    2    0    0 -0.12346838102E+03 -0.90359749415E+02  0.19945264691E+03  0.26514312079E+03  0.84321946817E+02 0.  0.
        -11    1    3    3    0    0  0.21378899191E+02  0.10289370794E+02  0.11680685592E+02  0.26445545898E+02  0.00000000000E+00 0.  1.
         11    1    3    3    0    0 -0.12723181013E+01  0.18964862187E+03  0.29737206960E+03  0.35270152586E+03  0.00000000000E+00 0. -1.
        -13    1    4    4    0    0 -0.25768990534E+02 -0.70266742265E+02  0.80837092314E+02  0.11016392983E+03  0.00000000000E+00 0. -1.
         13    1    4    4    0    0 -0.97699390486E+02 -0.20093007150E+02  0.11861555460E+03  0.15497919096E+03  0.00000000000E+00 0.  1.
          1    1    1    2  501    0  0.10336179993E+03 -0.10957824324E+03  0.16624346693E+03  0.22433890295E+03  0.00000000000E+00 0. -1.
<scales pt_clust_5="13000.00000" pt_clust_6="13000.00000" pt_clust_7="13000.00000" pt_clust_8="13000.00000" pt_clust_9="13000.00000"></scales>
<clustering>
<clus scale="   84.322">  7  8 -1 -1</clus>
<clus scale="   88.653">  5  6 -1 -1</clus>
<clus scale="  150.636">  7  9 -1 -1</clus>
<clus scale="  219.634">  1  5  2 -1</clus>
<clus scale="  325.360">  2  5  1 -1</clus>
</clustering>
</event>
<event>
 9    1  0.3303741E-006  0.4132782E+03  0.7546771E-02  0.1056851E+00
          1   -1    0    0  502    0 -0.00000000000E+00  0.00000000000E+00  0.86681104652E+03  0.86681104652E+03  0.00000000000E+00 0. -1.
         21   -1    0    0  501  502  0.00000000000E+00 -0.00000000000E+00 -0.12698109092E+03  0.12698109092E+03  0.00000000000E+00 0. -1.
         23    2    1    2    0    0 -0.85320479984E+02 -0.21752652379E+03  0.29618018763E+03  0.38747208411E+03  0.88399884412E+02 0.  0.
         23    2    1    2    0    0 -0.58442016961E+02 -0.16644973897E+02  0.24018458085E+03  0.26441066733E+03  0.92367979397E+02 0.  0.
        -13    1    3    3    0    0 -0.48431223911E+02 -0.33981850285E+02  0.45700247362E+02  0.74758693189E+02  0.00000000000E+00 0.  1.
         13    1    3    3    0    0 -0.36889256073E+02 -0.18354467351E+03  0.25047994026E+03  0.31271339092E+03  0.00000000000E+00 0. -1.
        -13    1    4    4    0    0  0.25409291310E+02 -0.36344546355E+01  0.52777399568E+02  0.58688118478E+02  0.00000000000E+00 0.  1.
         13    1    4    4    0    0 -0.83851308272E+02 -0.13010519261E+02  0.18740718128E+03  0.20572254885E+03  0.00000000000E+00 0. -1.
          1    1    1    2  501    0  0.14376249695E+03  0.23417149769E+03  0.20346518712E+03  0.34190938599E+03  0.00000000000E+00 0. -1.
<scales pt_clust_5="13000.00000" pt_clust_6="13000.00000" pt_clust_7="13000.00000" pt_clust_8="13000.00000" pt_clust_9="13000.00000"></scales>
<clustering>
<clus scale="   88.400">  5  6 -1 -1</clus>
<clus scale="   92.368">  7  8 -1 -1</clus>
<clus scale="  249.824">  1  5  2 -1</clus>
<clus scale="  156.764">  7  9 -1 -1</clus>
<clus scale="  413.278">  2  5  1 -1</clus>
</clustering>
</event>
<event>
 9    1  0.3303741E-006  0.1661422E+03  0.7546771E-02  0.1209747E+00
         -2   -1    0    0    0  501 -0.00000000000E+00  0.00000000000E+00  0.47811716677E+03  0.47811716677E+03  0.00000000000E+00 0.  1.
         21   -1    0    0  501  502  0.00000000000E+00 -0.00000000000E+00 -0.34576589337E+02  0.34576589337E+02  0.00000000000E+00 0. -1.
         23    2    1    2    0    0  0.20738139620E+01 -0.42316107759E+01  0.17335411973E+03  0.19551248826E+03  0.90284411759E+02 0.  0.
         23    2    1    2    0    0 -0.23190066178E+02  0.98201823813E+01  0.27801324714E+03  0.29397810269E+03  0.92182124753E+02 0.  0.
        -11    1    4    4    0    0  0.42725549862E+01  0.46712529904E+02  0.17474593533E+03  0.18093218921E+03  0.00000000000E+00 0. -1.
         11    1    4    4    0    0 -0.27462621164E+02 -0.36892347523E+02  0.10326731181E+03  0.11304591348E+03  0.00000000000E+00 0.  1.
        -13    1    3    3    0    0  0.32740108245E+02  0.12450952520E+02  0.14871111814E+03  0.15278068453E+03  0.00000000000E+00 0.  1.
         13    1    3    3    0    0 -0.30666294283E+02 -0.16682563296E+02  0.24643001586E+02  0.42731803734E+02  0.00000000000E+00 0. -1.
         -2    1    1    2    0  502  0.21116252216E+02 -0.55885716054E+01 -0.78267894349E+01  0.23203165152E+02  0.00000000000E+00 0.  1.
<scales pt_clust_5="13000.00000" pt_clust_6="13000.00000" pt_clust_7="13000.00000" pt_clust_8="13000.00000" pt_clust_9="13000.00000"></scales>
<clustering>
<clus scale="   90.284">  7  8 -1 -1</clus>
<clus scale="   90.407">  1  7  2 -1</clus>
<clus scale="   92.182">  5  6 -1 -1</clus>
<clus scale="   21.924">  5  9 -1 -1</clus>
<clus scale="  166.142">  2  5  1 -1</clus>
</clustering>
</event>
<event>
 9    1  0.3303741E-006  0.2154676E+03  0.7546771E-02  0.1156250E+00
         21   -1    0    0  501  502  0.00000000000E+00  0.00000000000E+00  0.77101822460E+03  0.77101822460E+03  0.00000000000E+00 0. -1.
          1   -1    0    0  502    0 -0.00000000000E+00 -0.00000000000E+00 -0.93402818492E+02  0.93402818492E+02  0.00000000000E+00 0. -1.
         23    2    1    2    0    0 -0.76405681470E+02  0.68179845721E+02 -0.15988767998E+02  0.13812010539E+03  0.91297334498E+02 0.  0.
         23    2    1    2    0    0 -0.19866399302E+02 -0.41942259053E+02  0.22629689397E+03  0.24845910346E+03  0.91475761567E+02 0.  0.
        -11    1    4    4    0    0 -0.42640816989E+02  0.11753133187E+02  0.99945550409E+02  0.10929541829E+03  0.00000000000E+00 0. -1.
         11    1    4    4    0    0  0.22774417687E+02 -0.53695392240E+02  0.12635134356E+03  0.13916368517E+03  0.00000000000E+00 0.  1.
        -13    1    3    3    0    0  0.54222470187E+01  0.51676050894E+02  0.45385392032E+01  0.52157581777E+02  0.00000000000E+00 0.  1.
         13    1    3    3    0    0 -0.81827928488E+02  0.16503794827E+02 -0.20527307201E+02  0.85962523609E+02  0.00000000000E+00 0. -1.
          1    1    1    2  501    0  0.96272080772E+02 -0.26237586669E+02  0.46730728013E+03  0.47784183425E+03  0.00000000000E+00 0. -1.
<scales pt_clust_5="13000.00000" pt_clust_6="13000.00000" pt_clust_7="13000.00000" pt_clust_8="13000.00000" pt_clust_9="13000.00000"></scales>
<clustering>
<clus scale="   91.297">  7  8 -1 -1</clus>
<clus scale="   91.476">  5  6 -1 -1</clus>
<clus scale="   99.783">  5  9 -1 -1</clus>
<clus scale="  137.192">  2  7  1 -1</clus>
<clus scale="  215.468">  1  5  2 -1</clus>
</clustering>
</event>
<event>
 9    1  0.3303741E-006  0.3291449E+03  0.7546771E-02  0.1117116E+00
         21   -1    0    0  501  502  0.00000000000E+00  0.00000000000E+00  0.99063488984E+03  0.99063488984E+03  0.00000000000E+00 0.  1.
         -1   -1    0    0    0  501 -0.00000000000E+00 -0.00000000000E+00 -0.49929046212E+02  0.49929046212E+02  0.00000000000E+00 0.  1.
         23    2    1    2    0    0 -0.15840909451E+02  0.37013008705E+02  0.11736183222E+03  0.15386683934E+03  0.90996194209E+02 0.  0.
         23    2    1    2    0    0 -0.79376459087E+02  0.16443703641E+02  0.11594642039E+03  0.17092107089E+03  0.95913619607E+02 0.  0.
        -11    1    4    4    0    0 -0.12510536379E+02  0.17253080951E+02  0.99905423283E+02  0.10215319831E+03  0.00000000000E+00 0. -1.
         11    1    4    4    0    0 -0.66865922708E+02 -0.80937731009E+00  0.16040997103E+02  0.68767872581E+02  0.00000000000E+00 0.  1.
        -13    1    3    3    0    0  0.13744527145E+02  0.60167696141E+02  0.77829307585E+02  0.99330080059E+02  0.00000000000E+00 0. -1.
         13    1    3    3    0    0 -0.29585436595E+02 -0.23154687436E+02  0.39532524640E+02  0.54536759284E+02  0.00000000000E+00 0.  1.
         -1    1    1    2    0  502  0.95217368538E+02 -0.53456712346E+02  0.70739759102E+03  0.71577602583E+03  0.00000000000E+00 0.  1.
<scales pt_clust_5="13000.00000" pt_clust_6="13000.00000" pt_clust_7="13000.00000" pt_clust_8="13000.00000" pt_clust_9="13000.00000"></scales>
<clustering>
<clus scale="   90.996">  7  8 -1 -1</clus>
<clus scale="   95.914">  5  6 -1 -1</clus>
<clus scale="   99.505">  2  7  1 -1</clus>
<clus scale="  105.024">  5  9 -1 -1</clus>
<clus scale="  329.145">  1  5  2 -1</clus>
</clustering>
</event>
<event>
 9    1  0.3303741E-006  0.4714612E+03  0.7546771E-02  0.1043633E+00
         21   -1    0    0  501  502  0.00000000000E+00  0.00000000000E+00  0.10836339162E+03  0.10836339162E+03  0.00000000000E+00 0. -1.
          1   -1    0    0  502    0 -0.00000000000E+00 -0.00000000000E+00 -0.12107462426E+04  0.12107462426E+04  0.00000000000E+00 0. -1.
         23    2    1    2    0    0 -0.12734608306E+03 -0.19382999099E+03 -0.47175684611E+03  0.53173121471E+03  0.79977950500E+02 0.  0.
         23    2    1    2    0    0  0.22271730673E+03  0.16170834481E+03 -0.62192917242E+03  0.68636799748E+03  0.92479970532E+02 0.  0.
        -11    1    4    4    0    0  0.14943352990E+03  0.11762240252E+03 -0.31695468212E+03  0.36962911134E+03  0.00000000000E+00 0. -1.
         11    1    4    4    0    0  0.73283776826E+02  0.44085942290E+02 -0.30497449030E+03  0.31673888613E+03  0.00000000000E+00 0.  1.
        -13    1    3    3    0    0 -0.89017941450E+02 -0.13901485298E+03 -0.40445969130E+03  0.43684890424E+03  0.00000000000E+00 0. -1.
         13    1    3    3    0    0 -0.38328141607E+02 -0.54815138012E+02 -0.67297154808E+02  0.94882310467E+02  0.00000000000E+00 0.  1.
          1    1    1    2  501    0 -0.95371223672E+02  0.32121646185E+02 -0.86968324147E+01  0.10101042200E+03  0.00000000000E+00 0. -1.
<scales pt_clust_5="13000.00000" pt_clust_6="13000.00000" pt_clust_7="13000.00000" pt_clust_8="13000.00000" pt_clust_9="13000.00000"></scales>
<clustering>
<clus scale="   79.978">  7  8 -1 -1</clus>
<clus scale="   92.480">  5  6 -1 -1</clus>
<clus scale="  100.635">  5  9 -1 -1</clus>
<clus scale="  245.323">  2  7  1 -1</clus>
<clus scale="  471.461">  1  5  2 -1</clus>
</clustering>
</event>
<event>
 9    1  0.3303741E-006  0.3572317E+03  0.7546771E-02  0.1109474E+00
          1   -1    0    0  502    0 -0.00000000000E+00  0.00000000000E+00  0.78498332165E+03  0.78498332165E+03  0.00000000000E+00 0. -1.
         21   -1    0    0  501  502  0.00000000000E+00 -0.00000000000E+00 -0.76054607730E+02  0.76054607730E+02  0.00000000000E+00 0. -1.
         23    2    1    2    0    0  0.25622908988E+02  0.14552846544E+01  0.31683225323E+03  0.33060969912E+03  0.90892492218E+02 0.  0.
         23    2    1    2    0    0 -0.62775280654E+02 -0.14111062452E+03  0.32621306389E+03  0.37160589352E+03  0.88447910291E+02 0.  0.
        -11    1    4    4    0    0 -0.80718136305E+02 -0.82827069321E+02  0.23449647179E+03  0.26146574579E+03  0.00000000000E+00 0.  1.
         11    1    4    4    0    0  0.17942855651E+02 -0.58283555201E+02  0.91716592099E+02  0.11014014773E+03  0.00000000000E+00 0. -1.
        -11    1    3    3    0    0  0.20465294384E+02 -0.42789727728E+02  0.20067040115E+03  0.20619990051E+03  0.00000000000E+00 0. -1.
         11    1    3    3    0    0  0.51576146040E+01  0.44245012383E+02  0.11616185208E+03  0.12440979860E+03  0.00000000000E+00 0.  1.
          1    1    1    2  501    0  0.37152371666E+02  0.13965533987E+03  0.65883396792E+02  0.15882233674E+03  0.00000000000E+00 0. -1.
<scales pt_clust_5="13000.00000" pt_clust_6="13000.00000" pt_clust_7="13000.00000" pt_clust_8="13000.00000" pt_clust_9="13000.00000"></scales>
<clustering>
<clus scale="   88.448">  5  6 -1 -1</clus>
<clus scale="   90.892">  7  8 -1 -1</clus>
<clus scale="   94.446">  1  7  2 -1</clus>
<clus scale="  146.580">  5  9 -1 -1</clus>
<clus scale="  357.232">  2  5  1 -1</clus>
</clustering>
</event>
<event>
 9    1  0.3303741E-006  0.3098435E+03  0.7546771E-02  0.1125907E+00
         21   -1    0    0  501  502  0.00000000000E+00  0.00000000000E+00  0.37474701831E+03  0.37474701831E+03  0.00000000000E+00 0. -1.
          2   -1    0    0  502    0 -0.00000000000E+00 -0.00000000000E+00 -0.12122546204E+03  0.12122546204E+03  0.00000000000E+00 0. -1.
         23    2    1    2    0    0  0.10119273361E+02  0.28394733121E+02  0.26979022547E+00  0.95798189867E+02  0.90931621742E+02 0.  0.
         23    2    1    2    0    0 -0.92417942319E+02  0.58668740062E+02  0.28746104473E+02  0.14570246228E+03  0.91759314888E+02 0.  0.
        -13    1    3    3    0    0  0.41491287436E+01  0.59957165198E+02 -0.12225449833E+02  0.61331383089E+02  0.00000000000E+00 0. -1.
         13    1    3    3    0    0  0.59701446170E+01 -0.31562432077E+02  0.12495240059E+02  0.34466806778E+02  0.00000000000E+00 0.  1.
        -13    1    4    4    0    0 -0.82286158028E+02  0.34762250674E+02  0.58063564631E+02  0.10654014930E+03  0.00000000000E+00 0.  1.
         13    1    4    4    0    0 -0.10131784291E+02  0.23906489388E+02 -0.29317460158E+02  0.39162312980E+02  0.00000000000E+00 0. -1.
          2    1    1    2  501    0  0.82298668958E+02 -0.87063473183E+02  0.22450566157E+03  0.25447182821E+03  0.00000000000E+00 0. -1.
<scales pt_clust_5="13000.00000" pt_clust_6="13000.00000" pt_clust_7="13000.00000" pt_clust_8="13000.00000" pt_clust_9="13000.00000"></scales>
<clustering>
<clus scale="   90.932">  5  6 -1 -1</clus>
<clus scale="   91.759">  7  8 -1 -1</clus>
<clus scale="   95.798">  2  5  1 -1</clus>
<clus scale="  117.142">  7  9 -1 -1</clus>
<clus scale="  309.844">  1  5  2 -1</clus>
</clustering>
</event>
<event>
 9    1  0.3303741E-006  0.1467263E+03  0.7546771E-02  0.1224743E+00
          1   -1    0    0  502    0 -0.00000000000E+00  0.00000000000E+00  0.38775150279E+03  0.38775150279E+03  0.00000000000E+00 0. -1.
         21   -1    0    0  501  502  0.00000000000E+00 -0.00000000000E+00 -0.45337977698E+02  0.45337977698E+02  0.00000000000E+00 0. -1.
         23    2    1    2    0    0  0.44710681490E+02 -0.15675697055E+01  0.54886612716E+02  0.11028870377E+03  0.84555044854E+02 0.  0.
         23    2    1    2    0    0 -0.67467701762E+01 -0.19420031157E+02  0.24439722223E+03  0.26162963872E+03  0.91090115284E+02 0.  0.
        -11    1    3    3    0    0 -0.92041922754E+01  0.25848296054E+02  0.39118861682E+02  0.47782181863E+02  0.00000000000E+00 0.  1.
         11    1    3    3    0    0  0.53914873765E+02 -0.27415865760E+02  0.15767751034E+02  0.62506521909E+02  0.00000000000E+00 0. -1.
        -11    1    4    4    0    0  0.81436682100E+01 -0.53580071942E+02  0.11793546198E+03  0.12979182037E+03  0.00000000000E+00 0. -1.
         11    1    4    4    0    0 -0.14890438386E+02  0.34160040785E+02  0.12646176025E+03  0.13183781835E+03  0.00000000000E+00 0.  1.
          1    1    1    2  501    0 -0.37963911313E+02  0.20987600862E+02  0.43129690144E+02  0.61171137999E+02  0.00000000000E+00 0. -1.
<scales pt_clust_5="13000.00000" pt_clust_6="13000.00000" pt_clust_7="13000.00000" pt_clust_8="13000.00000" pt_clust_9="13000.00000"></scales>
<clustering>
<clus scale="   84.555">  5  6 -1 -1</clus>
<clus scale="   91.090">  7  8 -1 -1</clus>
<clus scale="   43.379">  7  9 -1 -1</clus>
<clus scale="   95.661">  1  5  2 -1</clus>
<clus scale="  146.726">  2  5  1 -1</clus>
</clustering>
</event>
<event>
 9    1  0.3303741E-006  0.3646127E+03  0.7546771E-02  0.1095509E+00
          1   -1    0    0  502    0 -0.00000000000E+00  0.00000000000E+00  0.61098574818E+03  0.61098574818E+03  0.00000000000E+00 0. -1.
         21   -1    0    0  501  502  0.00000000000E+00 -0.00000000000E+00 -0.32052257486E+03  0.32052257486E+03  0.00000000000E+00 0. -1.
         23    2    1    2    0    0  0.75437466990E+02  0.45853059900E+02  0.49658386590E+03  0.51266688842E+03  0.91861243634E+02 0.  0.
         23    2    1    2    0    0 -0.31153736186E+01  0.13664044960E+03 -0.12452177281E+03  0.20625556983E+03  0.91407713915E+02 0.  0.
        -11    1    3    3    0    0  0.69236009064E+02  0.72312351490E+02  0.38140617232E+03  0.39432647567E+03  0.00000000000E+00 0. -1.
         11    1    3    3    0    0  0.62014579262E+01 -0.26459291590E+02  0.11517769357E+03  0.11834041275E+03  0.00000000000E+00 0.  1.
        -11    1    4    4    0    0 -0.45327714363E+02  0.70091524945E+02 -0.47400703033E+02  0.95990886060E+02  0.00000000000E+00 0. -1.
         11    1    4    4    0    0  0.42212340744E+02  0.66548924659E+02 -0.77121069776E+02  0.11026468377E+03  0.00000000000E+00 0.  1.
          1    1    1    2  501    0 -0.72322093371E+02 -0.18249350950E+03 -0.81598919765E+02  0.21258586479E+03  0.00000000000E+00 0. -1.
<scales pt_clust_5="13000.00000" pt_clust_6="13000.00000" pt_clust_7="13000.00000" pt_clust_8="13000.00000" pt_clust_9="13000.00000"></scales>
<clustering>
<clus scale="   91.408">  7  8 -1 -1</clus>
<clus scale="   91.861">  5  6 -1 -1</clus>
<clus scale="  127.404">  1  5  2 -1</clus>
<clus scale="  156.413">  7  9 -1 -1</clus>
<clus scale="  364.613">  2  5  1 -1</clus>
</clustering>
</event>
<event>
 9    1  0.3303741E-006  0.2244992E+03  0.7546771E-02  0.1169446E+00
         -3   -1    0    0    0  501 -0.00000000000E+00  0.00000000000E+00  0.47823127808E+03  0.47823127808E+03  0.00000000000E+00 0.  1.
         21   -1    0    0  501  502  0.00000000000E+00 -0.00000000000E+00 -0.14932519446E+03  0.14932519446E+03  0.00000000000E+00 0. -1.
         23    2    1    2    0    0  0.61359510736E+01  0.10795400138E+01  0.38575833636E+03  0.39597053172E+03  0.89131097922E+02 0.  0.
         23    2    1    2    0    0 -0.28002629413E+02  0.89632986095E+02 -0.21975422064E+02  0.13197014221E+03  0.90083182719E+02 0.  0.
        -11    1    3    3    0    0  0.17921370839E+02  0.41005414716E+02  0.14881123599E+03  0.15539434844E+03  0.00000000000E+00 0.  1.
         11    1    3    3    0    0 -0.11785419765E+02 -0.39925874703E+02  0.23694710037E+03  0.24057618329E+03  0.00000000000E+00 0. -1.
        -13    1    4    4    0    0 -0.28769009755E+02  0.79553540928E+01  0.23944567635E+02  0.38265988818E+02  0.00000000000E+00 0.  1.
         13    1    4    4    0    0  0.76638034224E+00  0.81677632002E+02 -0.45919989699E+02  0.93704153388E+02  0.00000000000E+00 0. -1.
         -3    1    1    2    0  502  0.21866678339E+02 -0.90712526109E+02 -0.34876830676E+02  0.99615798610E+02  0.00000000000E+00 0.  1.
<scales pt_clust_5="13000.00000" pt_clust_6="13000.00000" pt_clust_7="13000.00000" pt_clust_8="13000.00000" pt_clust_9="13000.00000"></scales>
<clustering>
<clus scale="   89.131">  5  6 -1 -1</clus>
<clus scale="   89.349">  1  5  2 -1</clus>
<clus scale="   90.083">  7  8 -1 -1</clus>
<clus scale="   93.483">  7  9 -1 -1</clus>
<clus scale="  224.499">  2  5  1 -1</clus>
</clustering>
</event>
<event>
 9    1  0.3303741E-006  0.3046816E+03  0.7546771E-02  0.1102999E+00
         21   -1    0    0  501  502  0.00000000000E+00  0.00000000000E+00  0.85278512706E+02  0.85278512706E+02  0.00000000000E+00 0. -1.
         -2   -1    0    0    0  501 -0.00000000000E+00 -0.00000000000E+00 -0.80979584826E+03  0.80979584826E+03  0.00000000000E+00 0.  1.
         23    2    1    2    0    0  0.10731835053E+03 -0.11036943299E+03 -0.11422345955E+03  0.21295304570E+03  0.92754303743E+02 0.  0.
         23    2    1    2    0    0 -0.13420364399E+01  0.12318698841E+03 -0.52081560906E+03  0.54283158439E+03  0.90776622476E+02 0.  0.
        -13    1    3    3    0    0 -0.66944925921E+01 -0.49994814517E+02 -0.37476439629E+02  0.62839328744E+02  0.00000000000E+00 0.  1.
         13    1    3    3    0    0  0.11401284312E+03 -0.60374618473E+02 -0.76747019922E+02  0.15011371696E+03  0.00000000000E+00 0. -1.
        -13    1    4    4    0    0 -0.42249411025E+02  0.51806978942E+02 -0.29545366201E+03  0.30292217185E+03  0.00000000000E+00 0.  1.
         13    1    4    4    0    0  0.40907374585E+02  0.71380009471E+02 -0.22536194705E+03  0.23990941254E+03  0.00000000000E+00 0. -1.
         -2    1    1    2    0  502 -0.10597631409E+03 -0.12817555423E+02 -0.89478266941E+02  0.13928973088E+03  0.00000000000E+00 0.  1.
<scales pt_clust_5="13000.00000" pt_clust_6="13000.00000" pt_clust_7="13000.00000" pt_clust_8="13000.00000" pt_clust_9="13000.00000"></scales>
<clustering>
<clus scale="   90.777">  7  8 -1 -1</clus>
<clus scale="   92.754">  5  6 -1 -1</clus>
<clus scale="  106.749">  7  9 -1 -1</clus>
<clus scale="  179.728">  2  5  1 -1</clus>
<clus scale="  304.682">  1  5  2 -1</clus>
</clustering>
</event>
<event>
 9    1  0.3303741E-006  0.2266110E+03  0.7546771E-02  0.1156271E+00
         21   -1    0    0  501  502  0.00000000000E+00  0.00000000000E+00  0.85836029921E+02  0.85836029921E+02  0.00000000000E+00 0.  1.
          1   -1    0    0  502    0 -0.00000000000E+00 -0.00000000000E+00 -0.37242006618E+03  0.37242006618E+03  0.00000000000E+00 0. -1.
         23    2    1    2    0    0 -0.66056746311E+02 -0.32465098225E+02 -0.42768132961E+02  0.12539161803E+03  0.92067737780E+02 0.  0.
         23    2    1    2    0    0  0.15659530780E+02 -0.37302403276E+02 -0.35488860890E+02  0.10745919819E+03  0.93012525146E+02 0.  0.
        -11    1    3    3    0    0 -0.86108617181E+02 -0.20828073716E+02 -0.49193608881E+02  0.10133367536E+03  0.00000000000E+00 0.  1.
         11    1    3    3    0    0  0.20051870870E+02 -0.11637024508E+02  0.64254759199E+01  0.24057942672E+02  0.00000000000E+00 0. -1.
        -13    1    4    4    0    0 -0.33762201016E+02 -0.76487171828E+00  0.45949303693E+01  0.34082027981E+02  0.00000000000E+00 0.  1.
         13    1    4    4    0    0  0.49421731797E+02 -0.36537531558E+02 -0.40083791260E+02  0.73377170209E+02  0.00000000000E+00 0. -1.
          1    1    1    2  501    0  0.50397215531E+02  0.69767501501E+02 -0.20832704241E+03  0.22540527988E+03  0.00000000000E+00 0. -1.
<scales pt_clust_5="13000.00000" pt_clust_6="13000.00000" pt_clust_7="13000.00000" pt_clust_8="13000.00000" pt_clust_9="13000.00000"></scales>
<clustering>
<clus scale="   92.068">  5  6 -1 -1</clus>
<clus scale="   93.013">  7  8 -1 -1</clus>
<clus scale="   86.066">  7  9 -1 -1</clus>
<clus scale="  117.873">  2  5  1 -1</clus>
<clus scale="  226.611">  1  5  2 -1</clus>
</clustering>
</event>
<event>
 9    1  0.3303741E-006  0.3906981E+03  0.7546771E-02  0.1071432E+00
          2   -1    0    0  502    0 -0.00000000000E+00  0.00000000000E+00  0.30949491485E+03  0.30949491485E+03  0.00000000000E+00 0. -1.
         21   -1    0    0  501  502  0.00000000000E+00 -0.00000000000E+00 -0.28021622713E+03  0.28021622713E+03  0.00000000000E+00 0.  1.
         23    2    1    2    0    0 -0.17060388999E+03 -0.39073812006E+02  0.26337418763E+02  0.19900193258E+03  0.90970651733E+02 0.  0.
         23    2    1    2    0    0  0.78962818634E+02  0.54580137187E+02  0.16049949456E+03  0.20777991559E+03  0.90544395007E+02 0.  0.
        -11    1    4    4    0    0 -0.20569916990E+02  0.10036015571E+02  0.26397113580E+02  0.34937811878E+02  0.00000000000E+00 0.  1.
         11    1    4    4    0    0  0.99532735624E+02  0.44544121616E+02  0.13410238098E+03  0.17284210371E+03  0.00000000000E+00 0. -1.
        -13    1    3    3    0    0 -0.42540674926E+02 -0.52180225727E+02  0.19488583537E+02  0.70087729798E+02  0.00000000000E+00 0. -1.
         13    1    3    3    0    0 -0.12806321507E+03  0.13106413721E+02  0.68488352267E+01  0.12891420278E+03  0.00000000000E+00 0.  1.
          2    1    1    2  501    0  0.91641071357E+02 -0.15506325181E+02 -0.15755822561E+03  0.18292929382E+03  0.00000000000E+00 0. -1.
<scales pt_clust_5="13000.00000" pt_clust_6="13000.00000" pt_clust_7="13000.00000" pt_clust_8="13000.00000" pt_clust_9="13000.00000"></scales>
<clustering>
<clus scale="   90.544">  5  6 -1 -1</clus>
<clus scale="   90.971">  7  8 -1 -1</clus>
<clus scale="   92.944">  5  9 -1 -1</clus>
<clus scale="  197.251">  1  7  2 -1</clus>
<clus scale="  390.698">  2  5  1 -1</clus>
</clustering>
</event>
<event>
 9    1  0.3303741E-006  0.1798683E+03  0.7546771E-02  0.1194266E+00
         21   -1    0    0  501  502  0.00000000000E+00  0.00000000000E+00  0.43162790822E+03  0.43162790822E+03  0.00000000000E+00 0.  1.
          1   -1    0    0  502    0 -0.00000000000E+00 -0.00000000000E+00 -0.92652198873E+02  0.92652198873E+02  0.00000000000E+00 0. -1.
         23    2    1    2    0    0 -0.23496839468E+01  0.40648228854E+02 -0.37982054049E+02  0.10660826973E+03  0.90911425145E+02 0.  0.
         23    2    1    2    0    0 -0.17645704566E+01 -0.79204133624E+02  0.18201034668E+03  0.21890569294E+03  0.92279616453E+02 0.  0.
        -11    1    3    3    0    0 -0.11421987038E+02  0.59803867553E+02 -0.52927154555E+02  0.80673713510E+02  0.00000000000E+00 0. -1.
         11    1    3    3    0    0  0.90723030913E+01 -0.19155638699E+02  0.14945100505E+02  0.25934556223E+02  0.00000000000E+00 0.  1.
        -13    1    4    4    0    0  0.86979527342E+01 -0.98844641327E+02  0.15262931563E+03  0.18204841524E+03  0.00000000000E+00 0.  1.
         13    1    4    4    0    0 -0.10462523191E+02  0.19640507703E+02  0.29381031052E+02  0.36857277708E+02  0.00000000000E+00 0. -1.
          1    1    1    2  501    0  0.41142544034E+01  0.38555904770E+02  0.19494741671E+03  0.19876614441E+03  0.00000000000E+00 0. -1.
<scales pt_clust_5="13000.00000" pt_clust_6="13000.00000" pt_clust_7="13000.00000" pt_clust_8="13000.00000" pt_clust_9="13000.00000"></scales>
<clustering>
<clus scale="   90.911">  5  6 -1 -1</clus>
<clus scale="   92.280">  7  8 -1 -1</clus>
<clus scale="   38.775">  7  9 -1 -1</clus>
<clus scale="   99.613">  2  5  1 -1</clus>
<clus scale="  179.868">  1  5  2 -1</clus>
</clustering>
</event>
<event>
 9    1  0.3303741E-006  0.2316453E+03  0.7546771E-02  0.1151387E+00
         21   -1    0    0  501  502  0.00000000000E+00  0.00000000000E+00  0.31591912798E+03  0.31591912798E+03  0.00000000000E+00 0. -1.
          1   -1    0    0  502    0 -0.00000000000E+00 -0.00000000000E+00 -0.10817193422E+03  0.10817193422E+03  0.00000000000E+00 0. -1.
         23    2    1    2    0    0 -0.83662210917E+02  0.47917283613E+01  0.18921068438E+02  0.12523516150E+03  0.91123611920E+02 0.  0.
         23    2    1    2    0    0  0.37562323681E+02  0.75983603180E+02  0.54581164138E+02  0.13554159209E+03  0.90597922693E+02 0.  0.
        -13    1    3    3    0    0 -0.36083998802E+02  0.46897927733E+02  0.17415960195E+02  0.61682949546E+02  0.00000000000E+00 0.  1.
         13    1    3    3    0    0 -0.47578212115E+02 -0.42106199372E+02  0.15051082433E+01  0.63552211956E+02  0.00000000000E+00 0. -1.
        -13    1    4    4    0    0  0.38042549919E+02 -0.75850324206E+01  0.71344509862E+01  0.39441966381E+02  0.00000000000E+00 0.  1.
         13    1    4    4    0    0 -0.48022623754E+00  0.83568635600E+02  0.47446713152E+02  0.96099625713E+02  0.00000000000E+00 0. -1.
          1    1    1    2  501    0  0.46099887236E+02 -0.80775331541E+02  0.13424496119E+03  0.16331430860E+03  0.00000000000E+00 0. -1.
<scales pt_clust_5="13000.00000" pt_clust_6="13000.00000" pt_clust_7="13000.00000" pt_clust_8="13000.00000" pt_clust_9="13000.00000"></scales>
<clustering>
<clus scale="   90.598">  7  8 -1 -1</clus>
<clus scale="   91.124">  5  6 -1 -1</clus>
<clus scale="   93.005">  7  9 -1 -1</clus>
<clus scale="  123.798">  2  5  1 -1</clus>
<clus scale="  231.645">  1  5  2 -1</clus>
</clustering>
</event>
<event>
 9    1  0.3303741E-006  0.3592821E+03  0.7546771E-02  0.1108153E+00
         21   -1    0    0  501  502  0.00000000000E+00  0.00000000000E+00  0.93594824150E+02  0.93594824150E+02  0.00000000000E+00 0. -1.
          1   -1    0    0  502    0 -0.00000000000E+00 -0.00000000000E+00 -0.57068568662E+03  0.57068568662E+03  0.00000000000E+00 0. -1.
         23    2    1    2    0    0  0.14807105576E+02  0.17406898828E+02 -0.15179115639E+03  0.17961204354E+03  0.93261356002E+02 0.  0.
         23    2    1    2    0    0 -0.58727009572E+02  0.30898719906E+02 -0.38183138707E+03  0.39830747070E+03  0.91924101948E+02 0.  0.
        -11    1    4    4    0    0 -0.12883165520E+02 -0.30199139211E+02 -0.16959875765E+03  0.17274751100E+03  0.00000000000E+00 0.  1.
         11    1    4    4    0    0 -0.45843844051E+02  0.61097859118E+02 -0.21223262942E+03  0.22555995969E+03  0.00000000000E+00 0. -1.
        -13    1    3    3    0    0 -0.35056971930E+02  0.25784144795E+02 -0.88350757188E+02  0.98486901157E+02  0.00000000000E+00 0. -1.
         13    1    3    3    0    0  0.49864077506E+02 -0.83772459663E+01 -0.63440399204E+02  0.81125142384E+02  0.00000000000E+00 0.  1.
          1    1    1    2  501    0  0.43919903995E+02 -0.48305618735E+02  0.56531680984E+02  0.86360996539E+02  0.00000000000E+00 0. -1.
<scales pt_clust_5="13000.00000" pt_clust_6="13000.00000" pt_clust_7="13000.00000" pt_clust_8="13000.00000" pt_clust_9="13000.00000"></scales>
<clustering>
<clus scale="   91.924">  5  6 -1 -1</clus>
<clus scale="   65.287">  5  9 -1 -1</clus>
<clus scale="   93.261">  7  8 -1 -1</clus>
<clus scale="   96.020">  2  7  1 -1</clus>
<clus scale="  359.282">  1  5  2 -1</clus>
</clustering>
</event>
<event>
 9    1  0.3303741E-006  0.1587123E+03  0.7546771E-02  0.1213207E+00
         21   -1    0    0  501  502  0.00000000000E+00  0.00000000000E+00  0.27710319902E+03  0.27710319902E+03  0.00000000000E+00 0. -1.
          1   -1    0    0  502    0 -0.00000000000E+00 -0.00000000000E+00 -0.17860617410E+03  0.17860617410E+03  0.00000000000E+00 0. -1.
         23    2    1    2    0    0 -0.91969840800E+01  0.27931906773E+02 -0.13956843020E+03  0.16958917848E+03  0.91740758765E+02 0.  0.
         23    2    1    2    0    0  0.13368850120E+02  0.32613708131E+02  0.14483189815E+03  0.17487419653E+03  0.91445753199E+02 0.  0.
        -11    1    3    3    0    0 -0.50595267967E+02  0.17161263077E+02 -0.73015636575E+02  0.90474710696E+02  0.00000000000E+00 0. -1.
         11    1    3    3    0    0  0.41398283887E+02  0.10770643695E+02 -0.66552793620E+02  0.79114467786E+02  0.00000000000E+00 0.  1.
        -11    1    4    4    0    0 -0.10593325651E+02  0.33188135106E+02  0.14675002093E+03  0.15082851024E+03  0.00000000000E+00 0. -1.
         11    1    4    4    0    0  0.23962175772E+02 -0.57442697509E+00 -0.19181227735E+01  0.24045686288E+02  0.00000000000E+00 0.  1.
          1    1    1    2  501    0 -0.41718660404E+01 -0.60545614903E+02  0.93233556957E+02  0.11124599810E+03  0.00000000000E+00 0. -1.
<scales pt_clust_5="13000.00000" pt_clust_6="13000.00000" pt_clust_7="13000.00000" pt_clust_8="13000.00000" pt_clust_9="13000.00000"></scales>
<clustering>
<clus scale="   91.446">  7  8 -1 -1</clus>
<clus scale="   60.689">  7  9 -1 -1</clus>
<clus scale="   91.741">  5  6 -1 -1</clus>
<clus scale="   96.339">  2  5  1 -1</clus>
<clus scale="  158.712">  1  5  2 -1</clus>
</clustering>
</event>
<event>
 9    1  0.3303741E-006  0.4514356E+03  0.7546771E-02  0.1051965E+00
         21   -1    0    0  501  502  0.00000000000E+00  0.00000000000E+00  0.60137193367E+02  0.60137193367E+02  0.00000000000E+00 0.  1.
         -3   -1    0    0    0  501 -0.00000000000E+00 -0.00000000000E+00 -0.19937208645E+04  0.19937208645E+04  0.00000000000E+00 0.  1.
         23    2    1    2    0    0 -0.73015699105E+02  0.18583193970E+03 -0.89015078795E+03  0.91695598713E+03  0.92601592381E+02 0.  0.
         23    2    1    2    0    0 -0.25415266035E+02 -0.15003011938E+03 -0.10121100352E+04  0.10275789440E+04  0.91634002115E+02 0.  0.
        -11    1    3    3    0    0  0.13534843786E+02  0.21200405233E+02 -0.44728800436E+02  0.51315833491E+02  0.00000000000E+00 0. -1.
         11    1    3    3    0    0 -0.86550542891E+02  0.16463153446E+03 -0.84542198752E+03  0.86564015364E+03  0.00000000000E+00 0.  1.
        -13    1    4    4    0    0 -0.57120195587E+02 -0.12182409525E+03 -0.80485603144E+03  0.81602515787E+03  0.00000000000E+00 0.  1.
         13    1    4    4    0    0  0.31704929552E+02 -0.28206024133E+02 -0.20725400378E+03  0.21155378616E+03  0.00000000000E+00 0. -1.
         -3    1    1    2    0  502  0.98430965140E+02 -0.35801820315E+02 -0.31322848002E+02  0.10932312675E+03  0.00000000000E+00 0.  1.
<scales pt_clust_5="13000.00000" pt_clust_6="13000.00000" pt_clust_7="13000.00000" pt_clust_8="13000.00000" pt_clust_9="13000.00000"></scales>
<clustering>
<clus scale="   91.634">  7  8 -1 -1</clus>
<clus scale="   92.602">  5  6 -1 -1</clus>
<clus scale="  104.740">  7  9 -1 -1</clus>
<clus scale="  220.091">  2  5  1 -1</clus>
<clus scale="  451.436">  1  5  2 -1</clus>
</clustering>
</event>
<event>
 9    1  0.3303741E-006  0.2407472E+03  0.7546771E-02  0.1155745E+00
          2   -1    0    0  502    0 -0.00000000000E+00  0.00000000000E+00  0.36258040144E+03  0.36258040144E+03  0.00000000000E+00 0.  1.
         21   -1    0    0  501  502  0.00000000000E+00 -0.00000000000E+00 -0.83828178045E+02  0.83828178045E+02  0.00000000000E+00 0.  1.
         23    2    1    2    0    0  0.39595212166E+02  0.16150527849E+02  0.12883267776E+03  0.16279774512E+03  0.89870053859E+02 0.  0.
         23    2    1    2    0    0  0.75434662907E+02  0.13537990279E+02  0.93876539846E+02  0.15225597619E+03  0.92170559316E+02 0.  0.
        -11    1    4    4    0    0  0.24537356788E+02 -0.28980648274E+02  0.81640247500E+00  0.37981921562E+02  0.00000000000E+00 0. -1.
         11    1    4    4    0    0  0.50897306119E+02  0.42518638553E+02  0.93060137371E+02  0.11427405463E+03  0.00000000000E+00 0.  1.
        -13    1    3    3    0    0 -0.73803144740E+01  0.28418104587E+02  0.49947789720E+01  0.29782638013E+02  0.00000000000E+00 0. -1.
         13    1    3    3    0    0  0.46975526640E+02 -0.12267576737E+02  0.12383789879E+03  0.13301510711E+03  0.00000000000E+00 0.  1.
          2    1    1    2  501    0 -0.11502987507E+03 -0.29688518128E+02  0.56043005792E+02  0.13135485817E+03  0.00000000000E+00 0.  1.
<scales pt_clust_5="13000.00000" pt_clust_6="13000.00000" pt_clust_7="13000.00000" pt_clust_8="13000.00000" pt_clust_9="13000.00000"></scales>
<clustering>
<clus scale="   89.870">  7  8 -1 -1</clus>
<clus scale="   92.171">  5  6 -1 -1</clus>
<clus scale="   99.525">  1  7  2 -1</clus>
<clus scale="  100.513">  5  9 -1 -1</clus>
<clus scale="  240.747">  2  5  1 -1</clus>
</clustering>
</event>
<event>
 9    1  0.3303741E-006  0.2657211E+03  0.7546771E-02  0.1124425E+00
         21   -1    0    0  501  502  0.00000000000E+00  0.00000000000E+00  0.21604632598E+03  0.21604632598E+03  0.00000000000E+00 0.  1.
         -1   -1    0    0    0  501 -0.00000000000E+00 -0.00000000000E+00 -0.23139419582E+03  0.23139419582E+03  0.00000000000E+00 0.  1.
         23    2    1    2    0    0 -0.12465120458E+03 -0.16658691857E+02 -0.75925633011E+02  0.17490179195E+03  0.94923654919E+02 0.  0.
         23    2    1    2    0    0  0.43977610610E+02  0.53242730853E+02 -0.56376500181E+02  0.12582499364E+03  0.88796399862E+02 0.  0.
        -11    1    4    4    0    0 -0.11078159311E+01 -0.20709783677E+02 -0.27669795305E+02  0.34579473222E+02  0.00000000000E+00 0.  1.
         11    1    4    4    0    0  0.45085426541E+02  0.73952514530E+02 -0.28706704876E+02  0.91245520419E+02  0.00000000000E+00 0. -1.
        -13    1    3    3    0    0 -0.52228384717E+02 -0.42796080390E+02 -0.10914336178E+01  0.67531473360E+02  0.00000000000E+00 0.  1.
         13    1    3    3    0    0 -0.72422819862E+02  0.26137388532E+02 -0.74834199393E+02  0.10737031859E+03  0.00000000000E+00 0. -1.
         -1    1    1    2    0  502  0.80673593969E+02 -0.36584038996E+02  0.11695426335E+03  0.14671373620E+03  0.00000000000E+00 0.  1.
<scales pt_clust_5="13000.00000" pt_clust_6="13000.00000" pt_clust_7="13000.00000" pt_clust_8="13000.00000" pt_clust_9="13000.00000"></scales>
<clustering>
<clus scale="   88.796">  5  6 -1 -1</clus>
<clus scale="   88.581">  5  9 -1 -1</clus>
<clus scale="   94.924">  7  8 -1 -1</clus>
<clus scale="  157.562">  2  7  1 -1</clus>
<clus scale="  265.721">  1  5  2 -1</clus>
</clustering>
</event>
<event>
 9    1  0.3303741E-006  0.2783802E+03  0.7546771E-02  0.1120633E+00
          3   -1    0    0  502    0 -0.00000000000E+00  0.00000000000E+00  0.14081333710E+03  0.14081333710E+03  0.00000000000E+00 0. -1.
         21   -1    0    0  501  502  0.00000000000E+00 -0.00000000000E+00 -0.69061603252E+03  0.69061603252E+03  0.00000000000E+00 0.  1.
         23    2    1    2    0    0  0.33654781387E+02  0.11170774408E+03  0.59203750821E+02  0.16181427452E+03  0.95223478886E+02 0.  0.
         23    2    1    2    0    0  0.10794191265E+02 -0.17277369229E+03 -0.50059291761E+03  0.53748540733E+03  0.91269001401E+02 0.  0.
        -11    1    3    3    0    0  0.55572879399E+02  0.11356245406E+03  0.59688842979E+02  0.13981249541E+03  0.00000000000E+00 0. -1.
         11    1    3    3    0    0 -0.21918098012E+02 -0.18547099861E+01 -0.48509215860E+00  0.22001779109E+02  0.00000000000E+00 0.  1.
        -13    1    4    4    0    0 -0.29340575916E+02 -0.63024887158E+02 -0.27214880349E+03  0.28088783711E+03  0.00000000000E+00 0.  1.
         13    1    4    4    0    0  0.40134767181E+02 -0.10974880513E+03 -0.22844411412E+03  0.25659757021E+03  0.00000000000E+00 0. -1.
          3    1    1    2  501    0 -0.44448972652E+02  0.61065948213E+02 -0.10841352863E+03  0.13212968777E+03  0.00000000000E+00 0. -1.
<scales pt_clust_5="13000.00000" pt_clust_6="13000.00000" pt_clust_7="13000.00000" pt_clust_8="13000.00000" pt_clust_9="13000.00000"></scales>
<clustering>
<clus scale="   91.269">  7  8 -1 -1</clus>
<clus scale="   75.530">  7  9 -1 -1</clus>
<clus scale="   95.223">  5  6 -1 -1</clus>
<clus scale="  150.595">  1  5  2 -1</clus>
<clus scale="  278.380">  2  5  1 -1</clus>
</clustering>
</event>
<event>
 9    1  0.3303741E-006  0.9876019E+03  0.7546771E-02  0.9950568E-01
          1   -1    0    0  502    0 -0.00000000000E+00  0.00000000000E+00  0.21327951960E+04  0.21327951960E+04  0.00000000000E+00 0. -1.
         21   -1    0    0  501  502  0.00000000000E+00 -0.00000000000E+00 -0.14968953518E+03  0.14968953518E+03  0.00000000000E+00 0. -1.
         23    2    1    2    0    0  0.22402299533E+02  0.66872385894E+02  0.39982240225E+03  0.41643449422E+03  0.92660431770E+02 0.  0.
         23    2    1    2    0    0  0.45986912613E+03  0.93874439748E+02  0.72185463976E+03  0.86580799866E+03  0.90869940051E+02 0.  0.
        -11    1    3    3    0    0  0.19645773678E+02 -0.93428126300E+01  0.21806580423E+02  0.30802135007E+02  0.00000000000E+00 0.  1.
         11    1    3    3    0    0  0.27565258554E+01  0.76215198524E+02  0.37801582183E+03  0.38563235921E+03  0.00000000000E+00 0. -1.
        -13    1    4    4    0    0  0.39056591278E+03  0.69455836727E+02  0.65864610071E+03  0.76888265129E+03  0.00000000000E+00 0. -1.
         13    1    4    4    0    0  0.69303213353E+02  0.24418603022E+02  0.63208539051E+02  0.96925347374E+02  0.00000000000E+00 0.  1.
          1    1    1    2  501    0 -0.48227142566E+03 -0.16074682564E+03  0.86142861878E+03  0.10002422383E+04  0.00000000000E+00 0. -1.
<scales pt_clust_5="13000.00000" pt_clust_6="13000.00000" pt_clust_7="13000.00000" pt_clust_8="13000.00000" pt_clust_9="13000.00000"></scales>
<clustering>
<clus scale="   90.870">  7  8 -1 -1</clus>
<clus scale="   92.660">  5  6 -1 -1</clus>
<clus scale="  116.446">  1  5  2 -1</clus>
<clus scale="  486.424">  7  9 -1 -1</clus>
<clus scale="  987.602">  2  5  1 -1</clus>
</clustering>
</event>
<event>
 9    1  0.8441340E-006  0.7991968E+03  0.7546771E-02  0.1018571E+00
          1   -1    0    0  502    0 -0.00000000000E+00  0.00000000000E+00  0.29214623951E+03  0.29214623951E+03  0.00000000000E+00 0. -1.
         21   -1    0    0  501  502  0.00000000000E+00 -0.00000000000E+00 -0.71895670471E+03  0.71895670471E+03  0.00000000000E+00 0. -1.
         23    2    1    2    0    0  0.39928476456E+02 -0.30399762016E+02 -0.15346948329E+01  0.10579913183E+03  0.93127183166E+02 0.  0.
         23    2    1    2    0    0  0.38915590253E+02 -0.49837051322E+02  0.22266878930E+03  0.24766676548E+03  0.88086787576E+02 0.  0.
        -11    1    4    4    0    0 -0.26696786329E+02 -0.21698382336E+02  0.99796954174E+02  0.10556026837E+03  0.00000000000E+00 0. -1.
         11    1    4    4    0    0  0.65612376581E+02 -0.28138668985E+02  0.12287183513E+03  0.14210649711E+03  0.00000000000E+00 0.  1.
        -13    1    3    3    0    0 -0.95621799284E+00 -0.53235864028E+02 -0.17929584147E+02  0.56182217465E+02  0.00000000000E+00 0. -1.
         13    1    3    3    0    0  0.40884694448E+02  0.22836102012E+02  0.16394889314E+02  0.49616914362E+02  0.00000000000E+00 0.  1.
          1    1    1    2  501    0 -0.78844066708E+02  0.80236813338E+02 -0.64794455967E+03  0.65763704692E+03  0.00000000000E+00 0. -1.
<scales pt_clust_5="13000.00000" pt_clust_6="13000.00000" pt_clust_7="13000.00000" pt_clust_8="13000.00000" pt_clust_9="13000.00000"></scales>
<clustering>
<clus scale="   88.087">  5  6 -1 -1</clus>
<clus scale="   93.127">  7  8 -1 -1</clus>
<clus scale="  105.788">  1  7  2 -1</clus>
<clus scale="  111.489">  5  9 -1 -1</clus>
<clus scale="  799.197">  2  5  1 -1</clus>
</clustering>
</event>
<event>
 9    1  0.3303741E-006  0.4510313E+03  0.7546771E-02  0.1080321E+00
         21   -1    0    0  501  502  0.00000000000E+00  0.00000000000E+00  0.84122020752E+03  0.84122020752E+03  0.00000000000E+00 0. -1.
          3   -1    0    0  502    0 -0.00000000000E+00 -0.00000000000E+00 -0.10116430650E+03  0.10116430650E+03  0.00000000000E+00 0. -1.
         23    2    1    2    0    0 -0.46689862790E+02 -0.10511713137E+02  0.28242177091E+03  0.29984407698E+03  0.88622651839E+02 0.  0.
         23    2    1    2    0    0  0.42692621153E+02  0.85555430162E+02 -0.48091269009E+02  0.13126192514E+03  0.75990336914E+02 0.  0.
        -11    1    4    4    0    0  0.56246286372E+02  0.66856934191E+02 -0.59297999877E+02  0.10559236322E+03  0.00000000000E+00 0. -1.
         11    1    4    4    0    0 -0.13553665219E+02  0.18698495971E+02  0.11206730868E+02  0.25669561921E+02  0.00000000000E+00 0.  1.
        -11    1    3    3    0    0 -0.24322920051E+02 -0.48015088001E+02  0.19245776261E+03  0.19984254678E+03  0.00000000000E+00 0.  1.
         11    1    3    3    0    0 -0.22366942740E+02  0.37503374864E+02  0.89964008300E+02  0.10000153020E+03  0.00000000000E+00 0. -1.
          3    1    1    2  501    0  0.39972416375E+01 -0.75043717025E+02  0.50572539912E+03  0.51127851189E+03  0.00000000000E+00 0. -1.
<scales pt_clust_5="13000.00000" pt_clust_6="13000.00000" pt_clust_7="13000.00000" pt_clust_8="13000.00000" pt_clust_9="13000.00000"></scales>
<clustering>
<clus scale="   75.990">  5  6 -1 -1</clus>
<clus scale="   75.150">  5  9 -1 -1</clus>
<clus scale="   88.623">  7  8 -1 -1</clus>
<clus scale="  100.720">  2  7  1 -1</clus>
<clus scale="  451.031">  1  5  2 -1</clus>
</clustering>
</event>
<event>
 9    1  0.3303741E-006  0.2123804E+03  0.7546771E-02  0.1160055E+00
          4   -1    0    0  502    0 -0.00000000000E+00  0.00000000000E+00  0.11771512179E+03  0.11771512179E+03  0.00000000000E+00 0. -1.
         21   -1    0    0  501  502  0.00000000000E+00 -0.00000000000E+00 -0.40140108246E+03  0.40140108246E+03  0.00000000000E+00 0.  1.
         23    2    1    2    0    0 -0.27300366658E+02  0.90919203351E+02  0.35434208640E+02  0.13578457882E+03  0.90389474758E+02 0.  0.
         23    2    1    2    0    0  0.99873745952E+01 -0.63090963484E+02 -0.69811157125E+02  0.13187758553E+03  0.91857947837E+02 0.  0.
        -11    1    3    3    0    0 -0.52472341422E+02  0.57126241572E+02  0.48723438194E+02  0.91600914405E+02  0.00000000000E+00 0. -1.
         11    1    3    3    0    0  0.25171974765E+02  0.33792961780E+02 -0.13289229554E+02  0.44183664419E+02  0.00000000000E+00 0.  1.
        -13    1    4    4    0    0  0.29197232363E+02 -0.80689796795E+02 -0.54648434738E+02  0.10173383461E+03  0.00000000000E+00 0.  1.
         13    1    4    4    0    0 -0.19209857768E+02  0.17598833311E+02 -0.15162722387E+02  0.30143750921E+02  0.00000000000E+00 0. -1.
          4    1    1    2  501    0  0.17312992062E+02 -0.27828239867E+02 -0.24930901218E+03  0.25145403990E+03  0.00000000000E+00 0. -1.
<scales pt_clust_5="13000.00000" pt_clust_6="13000.00000" pt_clust_7="13000.00000" pt_clust_8="13000.00000" pt_clust_9="13000.00000"></scales>
<clustering>
<clus scale="   90.389">  5  6 -1 -1</clus>
<clus scale="   91.858">  7  8 -1 -1</clus>
<clus scale="   32.774">  7  9 -1 -1</clus>
<clus scale="  131.080">  1  5  2 -1</clus>
<clus scale="  212.380">  2  5  1 -1</clus>
</clustering>
</event>
<event>
 9    1  0.3303741E-006  0.3555705E+03  0.7546771E-02  0.1064946E+00
         21   -1    0    0  501  502  0.00000000000E+00  0.00000000000E+00  0.96815200321E+02  0.96815200321E+02  0.00000000000E+00 0.  1.
          2   -1    0    0  502    0 -0.00000000000E+00 -0.00000000000E+00 -0.13744949319E+04  0.13744949319E+04  0.00000000000E+00 0. -1.
         23    2    1    2    0    0 -0.17798509207E+03  0.24016375243E+03 -0.31030064545E+03  0.44065370138E+03  0.92368138390E+02 0.  0.
         23    2    1    2    0    0  0.30391851398E+02 -0.95162727023E+02 -0.53010080520E+03  0.54689889133E+03  0.90066222456E+02 0.  0.
        -11    1    3    3    0    0 -0.86233493267E+02  0.17036851244E+03 -0.23569410041E+03  0.30333703097E+03  0.00000000000E+00 0.  1.
         11    1    3    3    0    0 -0.91751598801E+02  0.69795239991E+02 -0.74606545046E+02  0.13731667041E+03  0.00000000000E+00 0. -1.
        -11    1    4    4    0    0  0.15409510380E+02 -0.10896064298E+03 -0.48627661033E+03  0.49857277953E+03  0.00000000000E+00 0. -1.
         11    1    4    4    0    0  0.14982341018E+02  0.13797915954E+02 -0.43824194864E+02  0.48326111809E+02  0.00000000000E+00 0.  1.
          2    1    1    2  501    0  0.14759324067E+03 -0.14500102541E+03 -0.43727828094E+03  0.48375753952E+03  0.00000000000E+00 0. -1.
<scales pt_clust_5="13000.00000" pt_clust_6="13000.00000" pt_clust_7="13000.00000" pt_clust_8="13000.00000" pt_clust_9="13000.00000"></scales>
<clustering>
<clus scale="   90.066">  7  8 -1 -1</clus>
<clus scale="   92.368">  5  6 -1 -1</clus>
<clus scale="  206.904">  7  9 -1 -1</clus>
<clus scale="  312.873">  2  5  1 -1</clus>
<clus scale="  355.571">  1  5  2 -1</clus>
</clustering>
</event>
<event>
 9    1  0.3303741E-006  0.2602744E+03  0.7546771E-02  0.1117394E+00
         21   -1    0    0  501  502  0.00000000000E+00  0.00000000000E+00  0.18729688934E+03  0.18729688934E+03  0.00000000000E+00 0. -1.
          2   -1    0    0  502    0 -0.00000000000E+00 -0.00000000000E+00 -0.84715029195E+03  0.84715029195E+03  0.00000000000E+00 0. -1.
         23    2    1    2    0    0  0.17760353632E+03 -0.27585036833E+02 -0.73649350787E+03  0.76312366941E+03  0.87356152113E+02 0.  0.
         23    2    1    2    0    0 -0.12974185726E+03  0.30372503224E+02  0.11217567258E+03  0.21164699359E+03  0.12023156781E+03 0.  0.
        -11    1    3    3    0    0  0.84981999623E+02 -0.17859435505E+02 -0.19202302991E+03  0.21074568492E+03  0.00000000000E+00 0.  1.
         11    1    3    3    0    0  0.92621536693E+02 -0.97256013275E+01 -0.54447047796E+03  0.55237798449E+03  0.00000000000E+00 0. -1.
        -13    1    4    4    0    0 -0.49994233432E+02 -0.42641730263E+02  0.68826978035E+02  0.95157203835E+02  0.00000000000E+00 0.  1.
         13    1    4    4    0    0 -0.79747623828E+02  0.73014233487E+02  0.43348694543E+02  0.11648978975E+03  0.00000000000E+00 0. -1.
          2    1    1    2  501    0 -0.47861679057E+02 -0.27874663908E+01 -0.35535567312E+02  0.59676518290E+02  0.00000000000E+00 0. -1.
<scales pt_clust_5="13000.00000" pt_clust_6="13000.00000" pt_clust_7="13000.00000" pt_clust_8="13000.00000" pt_clust_9="13000.00000"></scales>
<clustering>
<clus scale="   87.356">  5  6 -1 -1</clus>
<clus scale="  120.232">  7  8 -1 -1</clus>
<clus scale="   47.943">  7  9 -1 -1</clus>
<clus scale="  199.838">  2  5  1 -1</clus>
<clus scale="  260.274">  1  5  2 -1</clus>
</clustering>
</event>
<event>
 9    1  0.3303741E-006  0.3843981E+03  0.7546771E-02  0.1085907E+00
          1   -1    0    0  502    0 -0.00000000000E+00  0.00000000000E+00  0.65536280488E+03  0.65536280488E+03  0.00000000000E+00 0. -1.
         21   -1    0    0  501  502  0.00000000000E+00 -0.00000000000E+00 -0.13694532644E+03  0.13694532644E+03  0.00000000000E+00 0. -1.
         23    2    1    2    0    0 -0.96152246347E+02 -0.53983016929E+01  0.34156342228E+03  0.36917779254E+03  0.10174612978E+03 0.  0.
         23    2    1    2    0    0  0.74277600312E+02  0.16480068672E+03  0.16590103111E+03  0.26186165227E+03  0.91498330880E+02 0.  0.
        -13    1    3    3    0    0 -0.82299336429E+02 -0.47951446414E+02  0.22598715501E+03  0.24524011951E+03  0.00000000000E+00 0.  1.
         13    1    3    3    0    0 -0.13852909919E+02  0.42553144721E+02  0.11557626727E+03  0.12393767303E+03  0.00000000000E+00 0. -1.
        -13    1    4    4    0    0  0.59011936652E+02  0.11886834309E+03  0.60444080336E+02  0.14582722141E+03  0.00000000000E+00 0. -1.
         13    1    4    4    0    0  0.15265663660E+02  0.45932343632E+02  0.10545695077E+03  0.11603443086E+03  0.00000000000E+00 0.  1.
          1    1    1    2  501    0  0.21874646035E+02 -0.15940238503E+03  0.10953025060E+02  0.16126868652E+03  0.00000000000E+00 0. -1.
<scales pt_clust_5="13000.00000" pt_clust_6="13000.00000" pt_clust_7="13000.00000" pt_clust_8="13000.00000" pt_clust_9="13000.00000"></scales>
<clustering>
<clus scale="   91.498">  7  8 -1 -1</clus>
<clus scale="  101.746">  5  6 -1 -1</clus>
<clus scale="  140.095">  1  5  2 -1</clus>
<clus scale="  161.054">  7  9 -1 -1</clus>
<clus scale="  384.398">  2  5  1 -1</clus>
</clustering>
</event>
<event>
 9    1  0.3303741E-006  0.3082187E+03  0.7546771E-02  0.1097139E+00
         21   -1    0    0  501  502  0.00000000000E+00  0.00000000000E+00  0.11203235861E+03  0.11203235861E+03  0.00000000000E+00 0.  1.
         -3   -1    0    0    0  501 -0.00000000000E+00 -0.00000000000E+00 -0.58132490056E+03  0.58132490056E+03  0.00000000000E+00 0.  1.
         23    2    1    2    0    0  0.18167106902E+03 -0.15790515762E+02 -0.18060905950E+03  0.27105766852E+03  0.87171724670E+02 0.  0.
         23    2    1    2    0    0 -0.30752989360E+02  0.51801171501E+02 -0.23356590199E+03  0.25764546294E+03  0.90548585171E+02 0.  0.
        -11    1    3    3    0    0  0.15064030068E+03 -0.46539013086E+02 -0.13127555914E+03  0.20516250231E+03  0.00000000000E+00 0.  1.
         11    1    3    3    0    0  0.31030768344E+02  0.30748497324E+02 -0.49333500363E+02  0.65895166209E+02  0.00000000000E+00 0. -1.
        -13    1    4    4    0    0 -0.59543949035E+02  0.43313940633E+02 -0.19716471028E+03  0.21046496691E+03  0.00000000000E+00 0. -1.
         13    1    4    4    0    0  0.28790959676E+02  0.84872308684E+01 -0.36401191715E+02  0.47180496024E+02  0.00000000000E+00 0.  1.
         -3    1    1    2    0  502 -0.15091807966E+03 -0.36010655739E+02 -0.55117580463E+02  0.16465412771E+03  0.00000000000E+00 0.  1.
<scales pt_clust_5="13000.00000" pt_clust_6="13000.00000" pt_clust_7="13000.00000" pt_clust_8="13000.00000" pt_clust_9="13000.00000"></scales>
<clustering>
<clus scale="   87.172">  5  6 -1 -1</clus>
<clus scale="   90.549">  7  8 -1 -1</clus>
<clus scale="  155.155">  7  9 -1 -1</clus>
<clus scale="  202.120">  2  5  1 -1</clus>
<clus scale="  308.219">  1  5  2 -1</clus>
</clustering>
</event>
<event>
 9    1  0.3303741E-006  0.6071634E+03  0.7546771E-02  0.1035611E+00
          2   -1    0    0  502    0 -0.00000000000E+00  0.00000000000E+00  0.37071692422E+03  0.37071692422E+03  0.00000000000E+00 0. -1.
         21   -1    0    0  501  502  0.00000000000E+00 -0.00000000000E+00 -0.55550465527E+03  0.55550465527E+03  0.00000000000E+00 0. -1.
         23    2    1    2    0    0  0.15175199556E+02  0.10996017206E+03  0.16961227968E+03  0.22319472166E+03  0.93413233722E+02 0.  0.
         23    2    1    2    0    0 -0.30982360363E+02 -0.33044548418E+03 -0.84213491113E+02  0.35393604648E+03  0.89580624279E+02 0.  0.
        -11    1    4    4    0    0  0.95822314412E+01 -0.47248281540E+02  0.16012996666E+02  0.50799954037E+02  0.00000000000E+00 0.  1.
         11    1    4    4    0    0 -0.40564591804E+02 -0.28319720264E+03 -0.10022648778E+03  0.30313609244E+03  0.00000000000E+00 0. -1.
        -11    1    3    3    0    0  0.54480217061E+02  0.62362221838E+02  0.87554998855E+02  0.12051148737E+03  0.00000000000E+00 0. -1.
         11    1    3    3    0    0 -0.39305017505E+02  0.47597950225E+02  0.82057280829E+02  0.10268323429E+03  0.00000000000E+00 0.  1.
          2    1    1    2  501    0  0.15807160807E+02  0.22048531211E+03 -0.27018651962E+03  0.34909081136E+03  0.00000000000E+00 0. -1.
<scales pt_clust_5="13000.00000" pt_clust_6="13000.00000" pt_clust_7="13000.00000" pt_clust_8="13000.00000" pt_clust_9="13000.00000"></scales>
<clustering>
<clus scale="   89.581">  5  6 -1 -1</clus>
<clus scale="   93.413">  7  8 -1 -1</clus>
<clus scale="  145.078">  1  7  2 -1</clus>
<clus scale="  246.126">  5  9 -1 -1</clus>
<clus scale="  607.163">  2  5  1 -1</clus>
</clustering>
</event>
<event>
 9    1  0.3303741E-006  0.2033932E+03  0.7546771E-02  0.1174036E+00
         21   -1    0    0  501  502  0.00000000000E+00  0.00000000000E+00  0.39858423155E+02  0.39858423155E+02  0.00000000000E+00 0.  1.
         -3   -1    0    0    0  501 -0.00000000000E+00 -0.00000000000E+00 -0.61046226229E+03  0.61046226229E+03  0.00000000000E+00 0.  1.
         23    2    1    2    0    0  0.38042703735E+02 -0.48056768290E+02 -0.21351525840E+03  0.23936929583E+03  0.89175074594E+02 0.  0.
         23    2    1    2    0    0 -0.89271975148E+02 -0.76382147487E+01 -0.21953142891E+03  0.25395349345E+03  0.90942293142E+02 0.  0.
        -11    1    3    3    0    0  0.43499024454E+02 -0.55177708095E+01 -0.17907498534E+03  0.18436502190E+03  0.00000000000E+00 0. -1.
         11    1    3    3    0    0 -0.54563207186E+01 -0.42538997481E+02 -0.34440273060E+02  0.55004273933E+02  0.00000000000E+00 0.  1.
        -11    1    4    4    0    0  0.44602132158E+01  0.26797068862E+02 -0.37126915168E+02  0.46004176238E+02  0.00000000000E+00 0. -1.
         11    1    4    4    0    0 -0.93732188363E+02 -0.34435283611E+02 -0.18240451375E+03  0.20794931721E+03  0.00000000000E+00 0.  1.
         -3    1    1    2    0  502  0.51229271412E+02  0.55694983039E+02 -0.13755715182E+03  0.15699789617E+03  0.00000000000E+00 0.  1.
<scales pt_clust_5="13000.00000" pt_clust_6="13000.00000" pt_clust_7="13000.00000" pt_clust_8="13000.00000" pt_clust_9="13000.00000"></scales>
<clustering>
<clus scale="   89.175">  5  6 -1 -1</clus>
<clus scale="   90.942">  7  8 -1 -1</clus>
<clus scale="   75.673">  7  9 -1 -1</clus>
<clus scale="  108.208">  2  5  1 -1</clus>
<clus scale="  203.393">  1  5  2 -1</clus>
</clustering>
</event>
<event>
 9    1  0.3303741E-006  0.4336171E+03  0.7546771E-02  0.1072228E+00
         21   -1    0    0  501  502  0.00000000000E+00  0.00000000000E+00  0.70556270818E+02  0.70556270818E+02  0.00000000000E+00 0. -1.
          2   -1    0    0  502    0 -0.00000000000E+00 -0.00000000000E+00 -0.11715622969E+04  0.11715622969E+04  0.00000000000E+00 0. -1.
         23    2    1    2    0    0  0.65343657757E+02  0.87231520111E+02 -0.25578790015E+03  0.29216201679E+03  0.89733285265E+02 0.  0.
         23    2    1    2    0    0 -0.40289739128E+02 -0.23348913533E+03 -0.69146607478E+03  0.73627762805E+03  0.88537978304E+02 0.  0.
        -11    1    3    3    0    0 -0.17032234989E+02  0.15101477070E+02 -0.13962939756E+02  0.26704219236E+02  0.00000000000E+00 0.  1.
         11    1    3    3    0    0  0.82375892746E+02  0.72130043041E+02 -0.24182496039E+03  0.26545779756E+03  0.00000000000E+00 0. -1.
        -13    1    4    4    0    0 -0.29452221821E+02 -0.29570060868E+02 -0.19572093494E+03  0.20012122887E+03  0.00000000000E+00 0.  1.
         13    1    4    4    0    0 -0.10837517306E+02 -0.20391907446E+03 -0.49574513983E+03  0.53615639918E+03  0.00000000000E+00 0. -1.
          2    1    1    2  501    0 -0.25053918630E+02  0.14625761521E+03 -0.15375205115E+03  0.21367892287E+03  0.00000000000E+00 0. -1.
<scales pt_clust_5="13000.00000" pt_clust_6="13000.00000" pt_clust_7="13000.00000" pt_clust_8="13000.00000" pt_clust_9="13000.00000"></scales>
<clustering>
<clus scale="   88.538">  7  8 -1 -1</clus>
<clus scale="   89.733">  5  6 -1 -1</clus>
<clus scale="  141.178">  2  5  1 -1</clus>
<clus scale="  164.527">  7  9 -1 -1</clus>
<clus scale="  433.617">  1  5  2 -1</clus>
</clustering>
</event>
<event>
 9    1  0.3303741E-006  0.2102691E+03  0.7546771E-02  0.1176168E+00
          2   -1    0    0  502    0 -0.00000000000E+00  0.00000000000E+00  0.51558422071E+03  0.51558422071E+03  0.00000000000E+00 0. -1.
         21   -1    0    0  501  502  0.00000000000E+00 -0.00000000000E+00 -0.54809489229E+02  0.54809489229E+02  0.00000000000E+00 0. -1.
         23    2    1    2    0    0  0.51613566124E+01  0.21677670834E+02  0.27291812740E+03  0.28843061940E+03  0.90616537839E+02 0.  0.
         23    2    1    2    0    0 -0.85878158153E+02 -0.21579866306E+02  0.92522999156E+02  0.15704828819E+03  0.90900554313E+02 0.  0.
        -11    1    3    3    0    0 -0.36615763170E+02 -0.78423673861E+01  0.16220065933E+03  0.16646702594E+03  0.00000000000E+00 0.  1.
         11    1    3    3    0    0  0.41777119783E+02  0.29520038220E+02  0.11071746807E+03  0.12196359346E+03  0.00000000000E+00 0. -1.
        -11    1    4    4    0    0 -0.39465256833E+02 -0.17754226279E+02  0.10084705441E+03  0.10973990811E+03  0.00000000000E+00 0.  1.
         11    1    4    4    0    0 -0.46412901320E+02 -0.38256400273E+01 -0.83240552565E+01  0.47308380088E+02  0.00000000000E+00 0. -1.
          2    1    1    2  501    0  0.80716801541E+02 -0.97804527594E-01  0.95333604928E+02  0.12491480235E+03  0.00000000000E+00 0. -1.
<scales pt_clust_5="13000.00000" pt_clust_6="13000.00000" pt_clust_7="13000.00000" pt_clust_8="13000.00000" pt_clust_9="13000.00000"></scales>
<clustering>
<clus scale="   90.617">  5  6 -1 -1</clus>
<clus scale="   90.901">  7  8 -1 -1</clus>
<clus scale="   80.717">  7  9 -1 -1</clus>
<clus scale="   93.316">  1  5  2 -1</clus>
<clus scale="  210.269">  2  5  1 -1</clus>
</clustering>
</event>
<event>
 9    1  0.3303741E-006  0.3131115E+03  0.7546771E-02  0.1115592E+00
         21   -1    0    0  501  502  0.00000000000E+00  0.00000000000E+00  0.72155538258E+03  0.72155538258E+03  0.00000000000E+00 0. -1.
          3   -1    0    0  502    0 -0.00000000000E+00 -0.00000000000E+00 -0.71888602037E+02  0.71888602037E+02  0.00000000000E+00 0. -1.
         23    2    1    2    0    0  0.40050367369E+02 -0.66358429927E+02  0.30496477560E+03  0.32776351030E+03  0.91749284357E+02 0.  0.
         23    2    1    2    0    0  0.43751548305E+02  0.71142824398E+02  0.12674701936E+02  0.12320743677E+03  0.89687930988E+02 0.  0.
        -11    1    3    3    0    0  0.24032770471E+02  0.12881695365E+02  0.27362229945E+02  0.38629053309E+02  0.00000000000E+00 0.  1.
         11    1    3    3    0    0  0.16017596899E+02 -0.79240125292E+02  0.27760254565E+03  0.28913445699E+03  0.00000000000E+00 0. -1.
        -13    1    4    4    0    0  0.10483283070E+02  0.85618443288E+02  0.80481000897E+01  0.86632493731E+02  0.00000000000E+00 0. -1.
         13    1    4    4    0    0  0.33268265235E+02 -0.14475618890E+02  0.46266018468E+01  0.36574943043E+02  0.00000000000E+00 0.  1.
          3    1    1    2  501    0 -0.83801915674E+02 -0.47843944711E+01  0.33202730301E+03  0.34247303754E+03  0.00000000000E+00 0. -1.
<scales pt_clust_5="13000.00000" pt_clust_6="13000.00000" pt_clust_7="13000.00000" pt_clust_8="13000.00000" pt_clust_9="13000.00000"></scales>
<clustering>
<clus scale="   89.688">  7  8 -1 -1</clus>
<clus scale="   83.938">  7  9 -1 -1</clus>
<clus scale="   91.749">  5  6 -1 -1</clus>
<clus scale="  120.106">  2  5  1 -1</clus>
<clus scale="  313.112">  1  5  2 -1</clus>
</clustering>
</event>
<event>
 9    1  0.3303741E-006  0.3524828E+03  0.7546771E-02  0.1099793E+00
         21   -1    0    0  501  502  0.00000000000E+00  0.00000000000E+00  0.11805596092E+03  0.11805596092E+03  0.00000000000E+00 0. -1.
          2   -1    0    0  502    0 -0.00000000000E+00 -0.00000000000E+00 -0.48507230231E+03  0.48507230231E+03  0.00000000000E+00 0. -1.
         23    2    1    2    0    0  0.85623317071E+02 -0.23058595984E+02 -0.97972931481E+02  0.15970014437E+03  0.89679370720E+02 0.  0.
         23    2    1    2    0    0 -0.21865396969E+02 -0.77739703252E+02 -0.29791404017E+03  0.32071347917E+03  0.87079293437E+02 0.  0.
        -11    1    4    4    0    0  0.25576112250E+02  0.88724867159E+00 -0.86747141067E+02  0.90443303850E+02  0.00000000000E+00 0.  1.
         11    1    4    4    0    0 -0.47441509219E+02 -0.78626951924E+02 -0.21116689910E+03  0.23027017532E+03  0.00000000000E+00 0. -1.
        -13    1    3    3    0    0  0.80344571645E+02 -0.44269541788E+02 -0.10231310050E+03  0.13741547604E+03  0.00000000000E+00 0. -1.
         13    1    3    3    0    0  0.52787454259E+01  0.21210945804E+02  0.43401690161E+01  0.22284668323E+02  0.00000000000E+00 0.  1.
          2    1    1    2  501    0 -0.63757920101E+02  0.10079829924E+03  0.28870630253E+02  0.12271463970E+03  0.00000000000E+00 0. -1.
<scales pt_clust_5="13000.00000" pt_clust_6="13000.00000" pt_clust_7="13000.00000" pt_clust_8="13000.00000" pt_clust_9="13000.00000"></scales>
<clustering>
<clus scale="   87.079">  5  6 -1 -1</clus>
<clus scale="   89.679">  7  8 -1 -1</clus>
<clus scale="  119.270">  5  9 -1 -1</clus>
<clus scale="  126.117">  2  7  1 -1</clus>
<clus scale="  352.483">  1  5  2 -1</clus>
</clustering>
</event>
<event>
 9    1  0.3303741E-006  0.2943797E+03  0.7546771E-02  0.1099567E+00
         21   -1    0    0  501  502  0.00000000000E+00  0.00000000000E+00  0.34531874297E+03  0.34531874297E+03  0.00000000000E+00 0. -1.
          2   -1    0    0  502    0 -0.00000000000E+00 -0.00000000000E+00 -0.30462568820E+03  0.30462568820E+03  0.00000000000E+00 0. -1.
         23    2    1    2    0    0 -0.14591708607E+03  0.13373590712E+03 -0.17958615817E+03  0.28227288350E+03  0.90827879513E+02 0.  0.
         23    2    1    2    0    0  0.40685933360E+01 -0.11696196876E+03  0.13652516950E+03  0.20209045064E+03  0.92221324775E+02 0.  0.
        -11    1    4    4    0    0 -0.24190736787E+02  0.20051458481E+01  0.10355604914E+02  0.26390356370E+02  0.00000000000E+00 0. -1.
         11    1    4    4    0    0  0.28259330123E+02 -0.11896711461E+03  0.12616956459E+03  0.17570009427E+03  0.00000000000E+00 0.  1.
        -13    1    3    3    0    0 -0.17768118053E+02  0.67525831049E+02 -0.84010617675E+02  0.10923931417E+03  0.00000000000E+00 0.  1.
         13    1    3    3    0    0 -0.12814896801E+03  0.66210076069E+02 -0.95575540496E+02  0.17303356934E+03  0.00000000000E+00 0. -1.
          2    1    1    2  501    0  0.14184849273E+03 -0.16773938354E+02  0.83754043447E+02  0.16558109702E+03  0.00000000000E+00 0. -1.
<scales pt_clust_5="13000.00000" pt_clust_6="13000.00000" pt_clust_7="13000.00000" pt_clust_8="13000.00000" pt_clust_9="13000.00000"></scales>
<clustering>
<clus scale="   90.828">  7  8 -1 -1</clus>
<clus scale="   92.221">  5  6 -1 -1</clus>
<clus scale="  142.837">  5  9 -1 -1</clus>
<clus scale="  217.777">  2  7  1 -1</clus>
<clus scale="  294.380">  1  5  2 -1</clus>
</clustering>
</event>
<event>
 9    1  0.3303741E-006  0.2914976E+03  0.7546771E-02  0.1125780E+00
         21   -1    0    0  501  502  0.00000000000E+00  0.00000000000E+00  0.60638742698E+02  0.60638742698E+02  0.00000000000E+00 0.  1.
          2   -1    0    0  502    0 -0.00000000000E+00 -0.00000000000E+00 -0.70720591319E+03  0.70720591319E+03  0.00000000000E+00 0.  1.
         23    2    1    2    0    0  0.64361505875E+02 -0.30759718159E+02 -0.25304013658E+03  0.27811579576E+03  0.90722221279E+02 0.  0.
         23    2    1    2    0    0  0.70921100664E+02  0.13254553986E+02 -0.30779200801E+03  0.32861303510E+03  0.89694598083E+02 0.  0.
        -11    1    3    3    0    0  0.10001537897E+02 -0.51037197111E+02 -0.78326113459E+02  0.94020244090E+02  0.00000000000E+00 0. -1.
         11    1    3    3    0    0  0.54359967979E+02  0.20277478951E+02 -0.17471402312E+03  0.18409555167E+03  0.00000000000E+00 0.  1.
        -13    1    4    4    0    0  0.94085928493E+01  0.43572466350E+02 -0.92851986197E+02  0.10299792611E+03  0.00000000000E+00 0. -1.
         13    1    4    4    0    0  0.61512507814E+02 -0.30317912363E+02 -0.21494002181E+03  0.22561510899E+03  0.00000000000E+00 0.  1.
          2    1    1    2  501    0 -0.13528260654E+03  0.17505164173E+02 -0.85735025900E+02  0.16111582502E+03  0.00000000000E+00 0.  1.
<scales pt_clust_5="13000.00000" pt_clust_6="13000.00000" pt_clust_7="13000.00000" pt_clust_8="13000.00000" pt_clust_9="13000.00000"></scales>
<clustering>
<clus scale="   89.695">  7  8 -1 -1</clus>
<clus scale="   90.722">  5  6 -1 -1</clus>
<clus scale="  115.408">  2  5  1 -1</clus>
<clus scale="  117.633">  7  9 -1 -1</clus>
<clus scale="  291.498">  1  5  2 -1</clus>
</clustering>
</event>
<event>
 9    1  0.3303741E-006  0.3376582E+03  0.7546771E-02  0.1115812E+00
         21   -1    0    0  501  502  0.00000000000E+00  0.00000000000E+00  0.14716708231E+03  0.14716708231E+03  0.00000000000E+00 0. -1.
          2   -1    0    0  502    0 -0.00000000000E+00 -0.00000000000E+00 -0.48142737472E+03  0.48142737472E+03  0.00000000000E+00 0. -1.
         23    2    1    2    0    0 -0.27550953754E+02 -0.21267334674E+01 -0.26810174823E+03  0.28451596815E+03  0.91143900975E+02 0.  0.
         23    2    1    2    0    0  0.15015556175E+03  0.72590403098E+02 -0.65881704648E+02  0.20266740276E+03  0.94433139253E+02 0.  0.
        -13    1    3    3    0    0 -0.52121335445E+02 -0.27873236814E+02 -0.15223133492E+03  0.16330318513E+03  0.00000000000E+00 0.  1.
         13    1    3    3    0    0  0.24570381691E+02  0.25746503346E+02 -0.11587041330E+03  0.12121278303E+03  0.00000000000E+00 0. -1.
        -13    1    4    4    0    0  0.16626450138E+02 -0.17429285989E+02 -0.28557282736E+02  0.37359567068E+02  0.00000000000E+00 0.  1.
         13    1    4    4    0    0  0.13352911161E+03  0.90019689087E+02 -0.37324421911E+02  0.16530783569E+03  0.00000000000E+00 0. -1.
          2    1    1    2  501    0 -0.12260460799E+03 -0.70463669631E+02 -0.27683953538E+00  0.14141108612E+03  0.00000000000E+00 0. -1.
<scales pt_clust_5="13000.00000" pt_clust_6="13000.00000" pt_clust_7="13000.00000" pt_clust_8="13000.00000" pt_clust_9="13000.00000"></scales>
<clustering>
<clus scale="   91.144">  5  6 -1 -1</clus>
<clus scale="   94.433">  7  8 -1 -1</clus>
<clus scale="   95.241">  2  5  1 -1</clus>
<clus scale="  150.083">  7  9 -1 -1</clus>
<clus scale="  337.658">  1  5  2 -1</clus>
</clustering>
</event>
<event>
 9    1  0.3303741E-006  0.2370084E+03  0.7546771E-02  0.1146353E+00
          1   -1    0    0  502    0 -0.00000000000E+00  0.00000000000E+00  0.22968561380E+03  0.22968561380E+03  0.00000000000E+00 0. -1.
         21   -1    0    0  501  502  0.00000000000E+00 -0.00000000000E+00 -0.15396668311E+03  0.15396668311E+03  0.00000000000E+00 0. -1.
         23    2    1    2    0    0  0.20526353230E+02  0.81139749137E+02 -0.12288735529E+02  0.13083154762E+03  0.99804262257E+02 0.  0.
         23    2    1    2    0    0  0.53066925179E+02 -0.65959908294E+02  0.11665562931E+03  0.17240244302E+03  0.94589949035E+02 0.  0.
        -11    1    3    3    0    0  0.42547419536E+02 -0.35213198509E+01 -0.62139867370E+01  0.43142742539E+02  0.00000000000E+00 0. -1.
         11    1    3    3    0    0 -0.22021066306E+02  0.84661068988E+02 -0.60747487920E+01  0.87688805080E+02  0.00000000000E+00 0.  1.
        -13    1    4    4    0    0  0.36497991310E+02  0.97796513533E+01  0.75962663800E+02  0.84841447665E+02  0.00000000000E+00 0.  1.
         13    1    4    4    0    0  0.16568933869E+02 -0.75739559647E+02  0.40692965509E+02  0.87560995352E+02  0.00000000000E+00 0. -1.
          1    1    1    2  501    0 -0.73593278409E+02 -0.15179840844E+02 -0.28647963094E+02  0.80418306277E+02  0.00000000000E+00 0. -1.
<scales pt_clust_5="13000.00000" pt_clust_6="13000.00000" pt_clust_7="13000.00000" pt_clust_8="13000.00000" pt_clust_9="13000.00000"></scales>
<clustering>
<clus scale="   94.590">  7  8 -1 -1</clus>
<clus scale="   75.143">  7  9 -1 -1</clus>
<clus scale="   99.804">  5  6 -1 -1</clus>
<clus scale="  130.253">  1  5  2 -1</clus>
<clus scale="  237.008">  2  5  1 -1</clus>
</clustering>
</event>
<event>
 9    1  0.3303741E-006  0.2048466E+03  0.7546771E-02  0.1159975E+00
          1   -1    0    0  502    0 -0.00000000000E+00  0.00000000000E+00  0.29332684688E+03  0.29332684688E+03  0.00000000000E+00 0. -1.
         21   -1    0    0  501  502  0.00000000000E+00 -0.00000000000E+00 -0.12356373078E+03  0.12356373078E+03  0.00000000000E+00 0. -1.
         23    2    1    2    0    0  0.47852968736E+02 -0.10156554459E+03  0.15242232670E+03  0.21131129099E+03  0.93885193502E+02 0.  0.
         23    2    1    2    0    0 -0.36307982821E+02  0.59171509215E+02  0.71339963751E+02  0.13596282477E+03  0.92611890014E+02 0.  0.
        -11    1    4    4    0    0 -0.13390817573E+02 -0.22336050364E+02  0.12917219065E+01  0.26074540967E+02  0.00000000000E+00 0.  1.
         11    1    4    4    0    0 -0.22917165248E+02  0.81507559579E+02  0.70048241845E+02  0.10988828380E+03  0.00000000000E+00 0. -1.
        -11    1    3    3    0    0  0.19484144508E+02  0.15560363576E+02  0.17851965421E+02  0.30666748625E+02  0.00000000000E+00 0.  1.
         11    1    3    3    0    0  0.28368824228E+02 -0.11712590817E+03  0.13457036128E+03  0.18064454237E+03  0.00000000000E+00 0. -1.
          1    1    1    2  501    0 -0.11544985915E+02  0.42394035377E+02 -0.53999174361E+02  0.69616461896E+02  0.00000000000E+00 0. -1.
<scales pt_clust_5="13000.00000" pt_clust_6="13000.00000" pt_clust_7="13000.00000" pt_clust_8="13000.00000" pt_clust_9="13000.00000"></scales>
<clustering>
<clus scale="   92.612">  5  6 -1 -1</clus>
<clus scale="   43.938">  5  9 -1 -1</clus>
<clus scale="   93.885">  7  8 -1 -1</clus>
<clus scale="  146.355">  1  7  2 -1</clus>
<clus scale="  204.847">  2  5  1 -1</clus>
</clustering>
</event>
<event>
 9    1  0.3303741E-006  0.2812449E+03  0.7546771E-02  0.1121204E+00
         -3   -1    0    0    0  501 -0.00000000000E+00  0.00000000000E+00  0.47325884687E+03  0.47325884687E+03  0.00000000000E+00 0.  1.
         21   -1    0    0  501  502  0.00000000000E+00 -0.00000000000E+00 -0.97207430442E+02  0.97207430442E+02  0.00000000000E+00 0.  1.
         23    2    1    2    0    0  0.12325600999E+03 -0.49263289515E+01  0.16405972425E+03  0.21827429751E+03  0.74241249421E+02 0.  0.
         23    2    1    2    0    0 -0.30997156147E+02 -0.60823853543E+02  0.21056739066E+03  0.23889232736E+03  0.89836257781E+02 0.  0.
        -13    1    4    4    0    0 -0.50688867164E+02 -0.39330147379E+01  0.11779263618E+03  0.12829627819E+03  0.00000000000E+00 0. -1.
         13    1    4    4    0    0  0.19691711017E+02 -0.56890838806E+02  0.92774754486E+02  0.11059604917E+03  0.00000000000E+00 0.  1.
        -13    1    3    3    0    0  0.67510896605E+02  0.27404581390E+02  0.53828698578E+02  0.90588415552E+02  0.00000000000E+00 0. -1.
         13    1    3    3    0    0  0.55745113382E+02 -0.32330910341E+02  0.11023102568E+03  0.12768588196E+03  0.00000000000E+00 0.  1.
         -3    1    1    2    0  502 -0.92258853840E+02  0.65750182495E+02  0.14243015148E+01  0.11329965245E+03  0.00000000000E+00 0.  1.
<scales pt_clust_5="13000.00000" pt_clust_6="13000.00000" pt_clust_7="13000.00000" pt_clust_8="13000.00000" pt_clust_9="13000.00000"></scales>
<clustering>
<clus scale="   74.241">  7  8 -1 -1</clus>
<clus scale="   89.836">  5  6 -1 -1</clus>
<clus scale="  113.291">  5  9 -1 -1</clus>
<clus scale="  143.972">  1  7  2 -1</clus>
<clus scale="  281.245">  2  5  1 -1</clus>
</clustering>
</event>
<event>
 9    1  0.3303741E-006  0.2825883E+03  0.7546771E-02  0.1136793E+00
         21   -1    0    0  501  502  0.00000000000E+00  0.00000000000E+00  0.14924400182E+03  0.14924400182E+03  0.00000000000E+00 0.  1.
          3   -1    0    0  502    0 -0.00000000000E+00 -0.00000000000E+00 -0.25247683518E+03  0.25247683518E+03  0.00000000000E+00 0. -1.
         23    2    1    2    0    0 -0.13347398754E-01  0.29520957082E+02 -0.65073443856E+02  0.11656770644E+03  0.92097719871E+02 0.  0.
         23    2    1    2    0    0  0.43701991189E+02  0.49396559152E+01  0.95987869056E+02  0.13992324926E+03  0.91818192333E+02 0.  0.
        -11    1    4    4    0    0 -0.27706213859E+02  0.46435658284E+01  0.41436870639E+02  0.50062073852E+02  0.00000000000E+00 0.  1.
         11    1    4    4    0    0  0.71408205048E+02  0.29609008685E+00  0.54550998417E+02  0.89861175409E+02  0.00000000000E+00 0. -1.
        -13    1    3    3    0    0  0.38434227026E+02  0.41382504359E+02 -0.38124687004E+02  0.68140980572E+02  0.00000000000E+00 0.  1.
         13    1    3    3    0    0 -0.38447574425E+02 -0.11861547277E+02 -0.26948756851E+02  0.48426725873E+02  0.00000000000E+00 0. -1.
          3    1    1    2  501    0 -0.43688643790E+02 -0.34460612997E+02 -0.13414725856E+03  0.14522988130E+03  0.00000000000E+00 0. -1.
<scales pt_clust_5="13000.00000" pt_clust_6="13000.00000" pt_clust_7="13000.00000" pt_clust_8="13000.00000" pt_clust_9="13000.00000"></scales>
<clustering>
<clus scale="   91.818">  5  6 -1 -1</clus>
<clus scale="   55.644">  5  9 -1 -1</clus>
<clus scale="   92.098">  7  8 -1 -1</clus>
<clus scale="   96.713">  2  7  1 -1</clus>
<clus scale="  282.588">  1  5  2 -1</clus>
</clustering>
</event>
<event>
 9    1  0.3303741E-006  0.1866513E+03  0.7546771E-02  0.1189843E+00
          2   -1    0    0  502    0 -0.00000000000E+00  0.00000000000E+00  0.54595040818E+03  0.54595040818E+03  0.00000000000E+00 0. -1.
         21   -1    0    0  501  502  0.00000000000E+00 -0.00000000000E+00 -0.41157136302E+02  0.41157136302E+02  0.00000000000E+00 0. -1.
         23    2    1    2    0    0 -0.45367534189E+01  0.40562226690E+02  0.26897143353E+03  0.28635737323E+03  0.89381411850E+02 0.  0.
         23    2    1    2    0    0  0.31053730823E+02 -0.60038297980E+02  0.24172675204E+03  0.26732360324E+03  0.91984535540E+02 0.  0.
        -11    1    3    3    0    0  0.19205476345E+02  0.60789297921E+02  0.14273611356E+03  0.15632590053E+03  0.00000000000E+00 0.  1.
         11    1    3    3    0    0 -0.23742229764E+02 -0.20227071230E+02  0.12623531997E+03  0.13003147270E+03  0.00000000000E+00 0. -1.
        -13    1    4    4    0    0  0.57198303438E+02 -0.16533852606E+02  0.95516537254E+02  0.11255408961E+03  0.00000000000E+00 0.  1.
         13    1    4    4    0    0 -0.26144572615E+02 -0.43504445374E+02  0.14621021478E+03  0.15476951364E+03  0.00000000000E+00 0. -1.
          2    1    1    2  501    0 -0.26516977404E+02  0.19476071289E+02 -0.59049136807E+01  0.33426568012E+02  0.00000000000E+00 0. -1.
<scales pt_clust_5="13000.00000" pt_clust_6="13000.00000" pt_clust_7="13000.00000" pt_clust_8="13000.00000" pt_clust_9="13000.00000"></scales>
<clustering>
<clus scale="   89.381">  5  6 -1 -1</clus>
<clus scale="   91.985">  7  8 -1 -1</clus>
<clus scale="   32.901">  7  9 -1 -1</clus>
<clus scale="   98.259">  1  5  2 -1</clus>
<clus scale="  186.651">  2  5  1 -1</clus>
</clustering>
</event>
<event>
 9    1  0.3303741E-006  0.1365661E+03  0.7546771E-02  0.1235949E+00
         -1   -1    0    0    0  501 -0.00000000000E+00  0.00000000000E+00  0.92836950320E+03  0.92836950320E+03  0.00000000000E+00 0.  1.
         21   -1    0    0  501  502  0.00000000000E+00 -0.00000000000E+00 -0.14346592743E+02  0.14346592743E+02  0.00000000000E+00 0. -1.
         23    2    1    2    0    0 -0.15916769910E+02  0.32225511638E+02  0.38706427782E+03  0.39834884474E+03  0.87012756398E+02 0.  0.
         23    2    1    2    0    0 -0.64219195257E+01 -0.46587039196E+02  0.32332023772E+03  0.33900448339E+03  0.90423837386E+02 0.  0.
        -13    1    4    4    0    0 -0.21162881533E+02  0.18171908675E+02  0.16463219478E+03  0.16697857760E+03  0.00000000000E+00 0.  1.
         13    1    4    4    0    0  0.14740962007E+02 -0.64758947871E+02  0.15868804294E+03  0.17202590579E+03  0.00000000000E+00 0. -1.
        -13    1    3    3    0    0 -0.32653778250E+02 -0.19049032954E+02  0.11716310914E+03  0.12311104351E+03  0.00000000000E+00 0. -1.
         13    1    3    3    0    0  0.16737008340E+02  0.51274544592E+02  0.26990116868E+03  0.27523780123E+03  0.00000000000E+00 0.  1.
         -1    1    1    2    0  502  0.22338689436E+02  0.14361527558E+02  0.20363839492E+03  0.20536276782E+03  0.00000000000E+00 0.  1.
<scales pt_clust_5="13000.00000" pt_clust_6="13000.00000" pt_clust_7="13000.00000" pt_clust_8="13000.00000" pt_clust_9="13000.00000"></scales>
<clustering>
<clus scale="   87.013">  7  8 -1 -1</clus>
<clus scale="   90.424">  5  6 -1 -1</clus>
<clus scale="   26.557">  5  9 -1 -1</clus>
<clus scale="   94.144">  1  7  2 -1</clus>
<clus scale="  136.566">  2  5  1 -1</clus>
</clustering>
</event>
<event>
 9    1  0.3303741E-006  0.1594999E+03  0.7546771E-02  0.1205323E+00
         21   -1    0    0  501  502  0.00000000000E+00  0.00000000000E+00  0.20483643886E+03  0.20483643886E+03  0.00000000000E+00 0.  1.
          1   -1    0    0  502    0 -0.00000000000E+00 -0.00000000000E+00 -0.11878216229E+03  0.11878216229E+03  0.00000000000E+00 0. -1.
         23    2    1    2    0    0 -0.32698584980E+02 -0.56885347197E+02  0.11582940232E+03  0.16136335363E+03  0.91195072600E+02 0.  0.
         23    2    1    2    0    0  0.18113443275E+02  0.55496171806E+01 -0.49719355466E+02  0.10528283460E+03  0.90849138005E+02 0.  0.
        -13    1    4    4    0    0  0.54466272428E+02  0.11195028549E+02 -0.25038359349E+02  0.60982152597E+02  0.00000000000E+00 0. -1.
         13    1    4    4    0    0 -0.36352829154E+02 -0.56454113681E+01 -0.24680996117E+02  0.44300682007E+02  0.00000000000E+00 0.  1.
        -13    1    3    3    0    0  0.21867068167E+02 -0.43552680784E+02  0.83146619755E+02  0.96376164326E+02  0.00000000000E+00 0. -1.
         13    1    3    3    0    0 -0.54565653147E+02 -0.13332666413E+02  0.32682782568E+02  0.64987189302E+02  0.00000000000E+00 0.  1.
          1    1    1    2  501    0  0.14585141705E+02  0.51335730016E+02  0.19944229710E+02  0.56972412917E+02  0.00000000000E+00 0. -1.
<scales pt_clust_5="13000.00000" pt_clust_6="13000.00000" pt_clust_7="13000.00000" pt_clust_8="13000.00000" pt_clust_9="13000.00000"></scales>
<clustering>
<clus scale="   90.849">  5  6 -1 -1</clus>
<clus scale="   53.367">  5  9 -1 -1</clus>
<clus scale="   91.195">  7  8 -1 -1</clus>
<clus scale="  112.346">  2  7  1 -1</clus>
<clus scale="  159.500">  1  5  2 -1</clus>
</clustering>
</event>
<event>
 9    1  0.3303741E-006  0.1830796E+03  0.7546771E-02  0.1190470E+00
         21   -1    0    0  501  502  0.00000000000E+00  0.00000000000E+00  0.49331657806E+02  0.49331657806E+02  0.00000000000E+00 0.  1.
          4   -1    0    0  502    0 -0.00000000000E+00 -0.00000000000E+00 -0.43963179799E+03  0.43963179799E+03  0.00000000000E+00 0. -1.
         23    2    1    2    0    0 -0.10923530352E+02 -0.44224581045E+02 -0.86518739355E+02  0.13427870133E+03  0.92033365074E+02 0.  0.
         23    2    1    2    0    0 -0.35782540759E+02  0.20647012822E+02 -0.28003049877E+03  0.29722638562E+03  0.90662862884E+02 0.  0.
        -11    1    4    4    0    0 -0.33466958230E+02 -0.32332996043E+02 -0.12547683241E+03  0.13382785733E+03  0.00000000000E+00 0. -1.
         11    1    4    4    0    0 -0.23155825288E+01  0.52980008866E+02 -0.15455366636E+03  0.16339852829E+03  0.00000000000E+00 0.  1.
        -11    1    3    3    0    0 -0.51269422664E+02 -0.27259045473E+02 -0.57802949043E+02  0.81931618918E+02  0.00000000000E+00 0.  1.
         11    1    3    3    0    0  0.40345892312E+02 -0.16965535572E+02 -0.28715790312E+02  0.52347082411E+02  0.00000000000E+00 0. -1.
          4    1    1    2  501    0  0.46706071111E+02  0.23577568222E+02 -0.23750902059E+02  0.57458368847E+02  0.00000000000E+00 0. -1.
<scales pt_clust_5="13000.00000" pt_clust_6="13000.00000" pt_clust_7="13000.00000" pt_clust_8="13000.00000" pt_clust_9="13000.00000"></scales>
<clustering>
<clus scale="   90.663">  5  6 -1 -1</clus>
<clus scale="   52.320">  5  9 -1 -1</clus>
<clus scale="   92.033">  7  8 -1 -1</clus>
<clus scale="  102.690">  2  7  1 -1</clus>
<clus scale="  183.080">  1  5  2 -1</clus>
</clustering>
</event>
<event>
 9    1  0.3303741E-006  0.2650349E+03  0.7546771E-02  0.1136087E+00
         21   -1    0    0  501  502  0.00000000000E+00  0.00000000000E+00  0.79791680189E+02  0.79791680189E+02  0.00000000000E+00 0. -1.
          2   -1    0    0  502    0 -0.00000000000E+00 -0.00000000000E+00 -0.64907617523E+03  0.64907617523E+03  0.00000000000E+00 0. -1.
         23    2    1    2    0    0 -0.70324065310E+02  0.33831975515E+02 -0.39266299881E+03  0.41037350270E+03  0.90178181184E+02 0.  0.
         23    2    1    2    0    0  0.28995467843E+02 -0.55870259062E+02 -0.22495793710E+03  0.25118796055E+03  0.92342271243E+02 0.  0.
        -11    1    4    4    0    0  0.57826958555E+02 -0.38117090120E+02 -0.99433272900E+02  0.12117691799E+03  0.00000000000E+00 0.  1.
         11    1    4    4    0    0 -0.28831490712E+02 -0.17753168943E+02 -0.12552466420E+03  0.13001104256E+03  0.00000000000E+00 0. -1.
        -13    1    3    3    0    0 -0.49221107957E+02  0.61670588060E+02 -0.20859271767E+03  0.22301771402E+03  0.00000000000E+00 0.  1.
         13    1    3    3    0    0 -0.21102957353E+02 -0.27838612545E+02 -0.18407028113E+03  0.18735578869E+03  0.00000000000E+00 0. -1.
          2    1    1    2  501    0  0.41328597467E+02  0.22038283548E+02  0.48336440866E+02  0.67306392162E+02  0.00000000000E+00 0. -1.
<scales pt_clust_5="13000.00000" pt_clust_6="13000.00000" pt_clust_7="13000.00000" pt_clust_8="13000.00000" pt_clust_9="13000.00000"></scales>
<clustering>
<clus scale="   90.178">  7  8 -1 -1</clus>
<clus scale="   92.342">  5  6 -1 -1</clus>
<clus scale="   46.837">  5  9 -1 -1</clus>
<clus scale="  119.257">  2  7  1 -1</clus>
<clus scale="  265.035">  1  5  2 -1</clus>
</clustering>
</event>
<event>
 9    1  0.3303741E-006  0.6103139E+03  0.7546771E-02  0.1026600E+00
          1   -1    0    0  502    0 -0.00000000000E+00  0.00000000000E+00  0.10410294495E+04  0.10410294495E+04  0.00000000000E+00 0. -1.
         21   -1    0    0  501  502  0.00000000000E+00 -0.00000000000E+00 -0.15902001518E+03  0.15902001518E+03  0.00000000000E+00 0.  1.
         23    2    1    2    0    0 -0.11849779557E+03 -0.10839219070E+03  0.11223780981E+03  0.21768932324E+03  0.94872129446E+02 0.  0.
         23    2    1    2    0    0  0.29462474197E+03  0.78479288391E+02  0.73425768328E+03  0.80021535567E+03  0.90815927598E+02 0.  0.
        -11    1    4    4    0    0  0.27295351069E+03  0.85267218068E+02  0.71627461753E+03  0.77124797905E+03  0.00000000000E+00 0.  1.
         11    1    4    4    0    0  0.21671231273E+02 -0.67879296769E+01  0.17983065754E+02  0.28967376617E+02  0.00000000000E+00 0. -1.
        -13    1    3    3    0    0 -0.10086530876E+02 -0.35129888827E+02 -0.10769861988E+02  0.38102980479E+02  0.00000000000E+00 0.  1.
         13    1    3    3    0    0 -0.10841126469E+03 -0.73262301869E+02  0.12300767179E+03  0.17958634276E+03  0.00000000000E+00 0. -1.
          1    1    1    2  501    0 -0.17612694640E+03  0.29912902305E+02  0.35513941262E+02  0.18214478580E+03  0.00000000000E+00 0. -1.
<scales pt_clust_5="13000.00000" pt_clust_6="13000.00000" pt_clust_7="13000.00000" pt_clust_8="13000.00000" pt_clust_9="13000.00000"></scales>
<clustering>
<clus scale="   90.816">  5  6 -1 -1</clus>
<clus scale="   94.872">  7  8 -1 -1</clus>
<clus scale="  178.649">  5  9 -1 -1</clus>
<clus scale="  186.524">  1  7  2 -1</clus>
<clus scale="  610.314">  2  5  1 -1</clus>
</clustering>
</event>
<event>
 9    1  0.3303741E-006  0.5004357E+03  0.7546771E-02  0.1042537E+00
          1   -1    0    0  502    0 -0.00000000000E+00  0.00000000000E+00  0.11494008256E+04  0.11494008256E+04  0.00000000000E+00 0. -1.
         21   -1    0    0  501  502  0.00000000000E+00 -0.00000000000E+00 -0.29770618116E+03  0.29770618116E+03  0.00000000000E+00 0. -1.
         23    2    1    2    0    0 -0.16608003931E+03  0.88290224031E+02  0.91817685726E+03  0.94227462270E+03  0.97236722845E+02 0.  0.
         23    2    1    2    0    0  0.83493738593E+02 -0.53553113690E+02  0.19045482403E+03  0.23272247094E+03  0.89708238827E+02 0.  0.
        -13    1    4    4    0    0  0.54836394772E+02 -0.78075633424E+02  0.12605978515E+03  0.15809460509E+03  0.00000000000E+00 0.  1.
         13    1    4    4    0    0  0.28657343821E+02  0.24522519734E+02  0.64395038877E+02  0.74627865847E+02  0.00000000000E+00 0. -1.
        -13    1    3    3    0    0 -0.10823264829E+03  0.10556247693E+03  0.67331155900E+03  0.69007695091E+03  0.00000000000E+00 0.  1.
         13    1    3    3    0    0 -0.57847391013E+02 -0.17272252900E+02  0.24486529825E+03  0.25219767179E+03  0.00000000000E+00 0. -1.
          1    1    1    2  501    0  0.82586300713E+02 -0.34737110341E+02 -0.25693703686E+03  0.27210991311E+03  0.00000000000E+00 0. -1.
<scales pt_clust_5="13000.00000" pt_clust_6="13000.00000" pt_clust_7="13000.00000" pt_clust_8="13000.00000" pt_clust_9="13000.00000"></scales>
<clustering>
<clus scale="   89.708">  5  6 -1 -1</clus>
<clus scale="   89.594">  5  9 -1 -1</clus>
<clus scale="   97.237">  7  8 -1 -1</clus>
<clus scale="  211.737">  1  7  2 -1</clus>
<clus scale="  500.436">  2  5  1 -1</clus>
</clustering>
</event>
<event>
 9    1  0.3303741E-006  0.2236027E+03  0.7546771E-02  0.1169536E+00
         21   -1    0    0  501  502  0.00000000000E+00  0.00000000000E+00  0.16057066740E+03  0.16057066740E+03  0.00000000000E+00 0.  1.
          1   -1    0    0  502    0 -0.00000000000E+00 -0.00000000000E+00 -0.27485912530E+03  0.27485912530E+03  0.00000000000E+00 0. -1.
         23    2    1    2    0    0  0.14354131765E+02 -0.68258067229E+00 -0.18086337754E+03  0.20212660427E+03  0.89090379983E+02 0.  0.
         23    2    1    2    0    0  0.73831914254E+02  0.20631040329E+02 -0.13242206783E+01  0.12023235659E+03  0.92613576889E+02 0.  0.
        -13    1    3    3    0    0  0.37043771796E+01 -0.44690556526E+02 -0.95203769041E+02  0.10523652357E+03  0.00000000000E+00 0. -1.
         13    1    3    3    0    0  0.10649754586E+02  0.44007975853E+02 -0.85659608495E+02  0.96890080705E+02  0.00000000000E+00 0.  1.
        -13    1    4    4    0    0  0.61882394271E+02 -0.24030450593E+02 -0.21514194806E+02  0.69783621678E+02  0.00000000000E+00 0.  1.
         13    1    4    4    0    0  0.11949519983E+02  0.44661490922E+02  0.20189974128E+02  0.50448734915E+02  0.00000000000E+00 0. -1.
          1    1    1    2  501    0 -0.88186046019E+02 -0.19948459657E+02  0.67899140313E+02  0.11307083183E+03  0.00000000000E+00 0. -1.
<scales pt_clust_5="13000.00000" pt_clust_6="13000.00000" pt_clust_7="13000.00000" pt_clust_8="13000.00000" pt_clust_9="13000.00000"></scales>
<clustering>
<clus scale="   89.090">  5  6 -1 -1</clus>
<clus scale="   90.242">  2  5  1 -1</clus>
<clus scale="   92.614">  7  8 -1 -1</clus>
<clus scale="   86.668">  7  9 -1 -1</clus>
<clus scale="  223.603">  1  5  2 -1</clus>
</clustering>
</event>
<event>
 9    1  0.3303741E-006  0.3217016E+03  0.7546771E-02  0.1115527E+00
          1   -1    0    0  502    0 -0.00000000000E+00  0.00000000000E+00  0.98056601237E+02  0.98056601237E+02  0.00000000000E+00 0. -1.
         21   -1    0    0  501  502  0.00000000000E+00 -0.00000000000E+00 -0.48171402190E+03  0.48171402190E+03  0.00000000000E+00 0. -1.
         23    2    1    2    0    0 -0.36329310893E+02 -0.51235179443E+02 -0.12383598725E+03  0.16625025755E+03  0.91427205762E+02 0.  0.
         23    2    1    2    0    0  0.12022903863E+03 -0.76842852343E+02 -0.11512745974E+03  0.20285595816E+03  0.86812223157E+02 0.  0.
        -11    1    4    4    0    0  0.55211035867E+02 -0.47166387523E+02 -0.10920077491E+03  0.13114013815E+03  0.00000000000E+00 0. -1.
         11    1    4    4    0    0  0.65018002761E+02 -0.29676464821E+02 -0.59266848386E+01  0.71715820015E+02  0.00000000000E+00 0.  1.
        -13    1    3    3    0    0  0.17820665062E+02 -0.31507867478E+02 -0.82994761733E+01  0.37137624063E+02  0.00000000000E+00 0. -1.
         13    1    3    3    0    0 -0.54149975954E+02 -0.19727311965E+02 -0.11553651108E+03  0.12911263349E+03  0.00000000000E+00 0.  1.
          1    1    1    2  501    0 -0.83899727735E+02  0.12807803179E+03 -0.14469397366E+03  0.21066440742E+03  0.00000000000E+00 0. -1.
<scales pt_clust_5="13000.00000" pt_clust_6="13000.00000" pt_clust_7="13000.00000" pt_clust_8="13000.00000" pt_clust_9="13000.00000"></scales>
<clustering>
<clus scale="   86.812">  5  6 -1 -1</clus>
<clus scale="   91.427">  7  8 -1 -1</clus>
<clus scale="  110.923">  1  7  2 -1</clus>
<clus scale="  145.442">  5  9 -1 -1</clus>
<clus scale="  321.702">  2  5  1 -1</clus>
</clustering>
</event>
<event>
 9    1  0.3303741E-006  0.1227845E+03  0.7546771E-02  0.1253551E+00
         21   -1    0    0  501  502  0.00000000000E+00  0.00000000000E+00  0.37508099098E+03  0.37508099098E+03  0.00000000000E+00 0. -1.
         -2   -1    0    0    0  501 -0.00000000000E+00 -0.00000000000E+00 -0.48571639878E+02  0.48571639878E+02  0.00000000000E+00 0.  1.
         23    2    1    2    0    0  0.85858296567E+01  0.94791038727E+01  0.19391067009E+02  0.92899452870E+02  0.89948457366E+02 0.  0.
         23    2    1    2    0    0 -0.16898211311E+02  0.16665596347E+02  0.20745195558E+03  0.22737997993E+03  0.90011386781E+02 0.  0.
        -13    1    4    4    0    0 -0.54151682603E+02  0.11464098271E+02  0.11777346241E+03  0.13013231239E+03  0.00000000000E+00 0.  1.
         13    1    4    4    0    0  0.37253471292E+02  0.52014980756E+01  0.89678493164E+02  0.97247667539E+02  0.00000000000E+00 0. -1.
        -13    1    3    3    0    0  0.30470951846E+02  0.40960163099E+02  0.28143369991E+01  0.51128606085E+02  0.00000000000E+00 0. -1.
         13    1    3    3    0    0 -0.21885122190E+02 -0.31481059226E+02  0.16576730010E+02  0.41770846784E+02  0.00000000000E+00 0.  1.
         -2    1    1    2    0  502  0.83123816541E+01 -0.26144700219E+02  0.99666328513E+02  0.10337319806E+03  0.00000000000E+00 0.  1.
<scales pt_clust_5="13000.00000" pt_clust_6="13000.00000" pt_clust_7="13000.00000" pt_clust_8="13000.00000" pt_clust_9="13000.00000"></scales>
<clustering>
<clus scale="   89.948">  7  8 -1 -1</clus>
<clus scale="   90.011">  5  6 -1 -1</clus>
<clus scale="   27.434">  5  9 -1 -1</clus>
<clus scale="   90.853">  2  7  1 -1</clus>
<clus scale="  122.784">  1  5  2 -1</clus>
</clustering>
</event>
<event>
 9    1  0.3303741E-006  0.1209655E+03  0.7546771E-02  0.1253954E+00
          3   -1    0    0  502    0 -0.00000000000E+00  0.00000000000E+00  0.37034016834E+02  0.37034016834E+02  0.00000000000E+00 0. -1.
         21   -1    0    0  501  502  0.00000000000E+00 -0.00000000000E+00 -0.38963088052E+03  0.38963088052E+03  0.00000000000E+00 0.  1.
         23    2    1    2    0    0 -0.11731224151E+02 -0.29869658396E+01 -0.25295235634E+03  0.26994324315E+03  0.93476822592E+02 0.  0.
         23    2    1    2    0    0  0.19409880165E+02 -0.19425292514E+02 -0.63927041849E+02  0.11386131794E+03  0.90131279847E+02 0.  0.
        -11    1    3    3    0    0 -0.26615692234E+02 -0.41379522744E+02 -0.98609794084E+02  0.11020232060E+03  0.00000000000E+00 0.  1.
         11    1    3    3    0    0  0.14884468083E+02  0.38392556905E+02 -0.15434256225E+03  0.15974092255E+03  0.00000000000E+00 0. -1.
        -13    1    4    4    0    0 -0.23762938568E+02 -0.38216511914E+02 -0.19226066440E+02  0.48936904919E+02  0.00000000000E+00 0.  1.
         13    1    4    4    0    0  0.43172818733E+02  0.18791219401E+02 -0.44700975409E+02  0.64924413023E+02  0.00000000000E+00 0. -1.
          3    1    1    2  501    0 -0.76786560136E+01  0.22412258353E+02 -0.35717465504E+02  0.42860336265E+02  0.00000000000E+00 0. -1.
<scales pt_clust_5="13000.00000" pt_clust_6="13000.00000" pt_clust_7="13000.00000" pt_clust_8="13000.00000" pt_clust_9="13000.00000"></scales>
<clustering>
<clus scale="   90.131">  7  8 -1 -1</clus>
<clus scale="   23.691">  7  9 -1 -1</clus>
<clus scale="   93.477">  5  6 -1 -1</clus>
<clus scale="   94.257">  1  5  2 -1</clus>
<clus scale="  120.965">  2  5  1 -1</clus>
</clustering>
</event>
<event>
 9    1  0.3303741E-006  0.2227291E+03  0.7546771E-02  0.1167557E+00
          3   -1    0    0  502    0 -0.00000000000E+00  0.00000000000E+00  0.12278104905E+03  0.12278104905E+03  0.00000000000E+00 0. -1.
         21   -1    0    0  501  502  0.00000000000E+00 -0.00000000000E+00 -0.33206267337E+03  0.33206267337E+03  0.00000000000E+00 0. -1.
         23    2    1    2    0    0  0.52904186367E+02  0.13241058614E+02  0.54189312039E+02  0.10984345189E+03  0.78453322525E+02 0.  0.
         23    2    1    2    0    0  0.30657637624E+02  0.50852474609E+02 -0.19746509793E+03  0.22071298181E+03  0.78713979208E+02 0.  0.
        -11    1    3    3    0    0  0.52972333800E+02  0.36641583384E+02  0.18229644778E+02  0.66940225051E+02  0.00000000000E+00 0. -1.
         11    1    3    3    0    0 -0.68147432706E-01 -0.23400524770E+02  0.35959667262E+02  0.42903226838E+02  0.00000000000E+00 0.  1.
        -11    1    4    4    0    0  0.43150285142E+02 -0.22935556760E+01 -0.10130191672E+03  0.11013303699E+03  0.00000000000E+00 0.  1.
         11    1    4    4    0    0 -0.12492647518E+02  0.53146030285E+02 -0.96163181204E+02  0.11057994482E+03  0.00000000000E+00 0. -1.
          3    1    1    2  501    0 -0.83561823991E+02 -0.64093533223E+02 -0.66005838426E+02  0.12428728872E+03  0.00000000000E+00 0. -1.
<scales pt_clust_5="13000.00000" pt_clust_6="13000.00000" pt_clust_7="13000.00000" pt_clust_8="13000.00000" pt_clust_9="13000.00000"></scales>
<clustering>
<clus scale="   78.453">  5  6 -1 -1</clus>
<clus scale="   78.714">  7  8 -1 -1</clus>
<clus scale="   95.546">  1  5  2 -1</clus>
<clus scale="   71.251">  7  9 -1 -1</clus>
<clus scale="  222.729">  2  5  1 -1</clus>
</clustering>
</event>
<event>
 9    1  0.3303741E-006  0.2982578E+03  0.7546771E-02  0.1125810E+00
          2   -1    0    0  502    0 -0.00000000000E+00  0.00000000000E+00  0.32760532795E+03  0.32760532795E+03  0.00000000000E+00 0. -1.
         21   -1    0    0  501  502  0.00000000000E+00 -0.00000000000E+00 -0.13005723211E+03  0.13005723211E+03  0.00000000000E+00 0. -1.
         23    2    1    2    0    0 -0.94961042394E+01  0.57243781199E+02  0.16935063544E+02  0.10898106391E+03  0.90681031268E+02 0.  0.
         23    2    1    2    0    0 -0.45871540163E+02  0.37517961304E+02  0.20931952215E+03  0.23523800163E+03  0.89501170053E+02 0.  0.
        -11    1    3    3    0    0 -0.35136010268E+02  0.61340586382E+02  0.33453370309E+02  0.78206999305E+02  0.00000000000E+00 0. -1.
         11    1    3    3    0    0  0.25639906029E+02 -0.40968051827E+01 -0.16518306765E+02  0.30774064604E+02  0.00000000000E+00 0.  1.
        -13    1    4    4    0    0 -0.26432272968E+02  0.52769229450E+02  0.20049534485E+03  0.20900153094E+03  0.00000000000E+00 0. -1.
         13    1    4    4    0    0 -0.19439267195E+02 -0.15251268145E+02  0.88241773037E+01  0.26236470689E+02  0.00000000000E+00 0.  1.
          2    1    1    2  501    0  0.55367644402E+02 -0.94761742504E+02 -0.28706489860E+02  0.11344349452E+03  0.00000000000E+00 0. -1.
<scales pt_clust_5="13000.00000" pt_clust_6="13000.00000" pt_clust_7="13000.00000" pt_clust_8="13000.00000" pt_clust_9="13000.00000"></scales>
<clustering>
<clus scale="   89.501">  7  8 -1 -1</clus>
<clus scale="   90.681">  5  6 -1 -1</clus>
<clus scale="  107.657">  1  5  2 -1</clus>
<clus scale="  101.126">  7  9 -1 -1</clus>
<clus scale="  298.258">  2  5  1 -1</clus>
</clustering>
</event>
<event>
 9    1  0.3303741E-006  0.2811910E+03  0.7546771E-02  0.1139856E+00
         21   -1    0    0  501  502  0.00000000000E+00  0.00000000000E+00  0.12732120009E+04  0.12732120009E+04  0.00000000000E+00 0.  1.
         -3   -1    0    0    0  501 -0.00000000000E+00 -0.00000000000E+00 -0.41649411411E+02  0.41649411411E+02  0.00000000000E+00 0.  1.
         23    2    1    2    0    0 -0.24160736517E+01 -0.81391973283E+01  0.57904839146E+02  0.10798904524E+03  0.90755603412E+02 0.  0.
         23    2    1    2    0    0 -0.10919475697E+03  0.24711900105E+02  0.40940129864E+03  0.43433139343E+03  0.92196328715E+02 0.  0.
        -11    1    4    4    0    0 -0.36667316900E+02  0.44135473237E+02  0.26964933372E+03  0.27568677027E+03  0.00000000000E+00 0. -1.
         11    1    4    4    0    0 -0.72527440073E+02 -0.19423573131E+02  0.13975196492E+03  0.15864462316E+03  0.00000000000E+00 0.  1.
        -13    1    3    3    0    0 -0.16256720509E+02 -0.43162131609E+02  0.52602363586E+02  0.69958982422E+02  0.00000000000E+00 0.  1.
         13    1    3    3    0    0  0.13840646857E+02  0.35022934281E+02  0.53024755607E+01  0.38030062820E+02  0.00000000000E+00 0. -1.
         -3    1    1    2    0  502  0.11161083062E+03 -0.16572702777E+02  0.76425645170E+03  0.77254097364E+03  0.00000000000E+00 0.  1.
<scales pt_clust_5="13000.00000" pt_clust_6="13000.00000" pt_clust_7="13000.00000" pt_clust_8="13000.00000" pt_clust_9="13000.00000"></scales>
<clustering>
<clus scale="   90.756">  7  8 -1 -1</clus>
<clus scale="   91.152">  2  7  1 -1</clus>
<clus scale="   92.196">  5  6 -1 -1</clus>
<clus scale="  112.556">  5  9 -1 -1</clus>
<clus scale="  281.191">  1  5  2 -1</clus>
</clustering>
</event>
<event>
 9    1  0.3303741E-006  0.1826930E+03  0.7546771E-02  0.1186135E+00
         21   -1    0    0  501  502  0.00000000000E+00  0.00000000000E+00  0.92309031076E+02  0.92309031076E+02  0.00000000000E+00 0.  1.
         -3   -1    0    0    0  501 -0.00000000000E+00 -0.00000000000E+00 -0.54152329562E+03  0.54152329562E+03  0.00000000000E+00 0.  1.
         23    2    1    2    0    0 -0.62304676885E+02  0.26696146540E+02 -0.43607186378E+03  0.45066718890E+03  0.91365681563E+02 0.  0.
         23    2    1    2    0    0  0.31459759313E+02  0.34287144129E+02  0.22353008875E+02  0.10615673055E+03  0.92759202928E+02 0.  0.
        -11    1    4    4    0    0 -0.14946236743E+02 -0.20385190217E+02  0.23387896805E+02  0.34437475080E+02  0.00000000000E+00 0.  1.
         11    1    4    4    0    0  0.46405996056E+02  0.54672334346E+02 -0.10348879298E+01  0.71719255474E+02  0.00000000000E+00 0. -1.
        -13    1    3    3    0    0 -0.42970236489E+01  0.48203901862E+02 -0.13792023142E+03  0.14616453333E+03  0.00000000000E+00 0. -1.
         13    1    3    3    0    0 -0.58007653236E+02 -0.21507755323E+02 -0.29815163235E+03  0.30450265557E+03  0.00000000000E+00 0.  1.
         -3    1    1    2    0  502  0.30844917572E+02 -0.60983290669E+02 -0.35495409643E+02  0.77008407246E+02  0.00000000000E+00 0.  1.
<scales pt_clust_5="13000.00000" pt_clust_6="13000.00000" pt_clust_7="13000.00000" pt_clust_8="13000.00000" pt_clust_9="13000.00000"></scales>
<clustering>
<clus scale="   91.366">  7  8 -1 -1</clus>
<clus scale="   92.759">  5  6 -1 -1</clus>
<clus scale="   68.340">  5  9 -1 -1</clus>
<clus scale="  113.764">  2  7  1 -1</clus>
<clus scale="  182.693">  1  5  2 -1</clus>
</clustering>
</event>
<event>
 9    1  0.3303741E-006  0.3046580E+03  0.7546771E-02  0.1111630E+00
         -4   -1    0    0    0  501 -0.00000000000E+00  0.00000000000E+00  0.44509567262E+03  0.44509567262E+03  0.00000000000E+00 0.  1.
         21   -1    0    0  501  502  0.00000000000E+00 -0.00000000000E+00 -0.13967245323E+03  0.13967245323E+03  0.00000000000E+00 0.  1.
         23    2    1    2    0    0 -0.73423531072E+02 -0.82666168809E+02  0.22914506535E+03  0.27070623243E+03  0.92464549546E+02 0.  0.
         23    2    1    2    0    0  0.11526398975E+03  0.13307771224E+03 -0.18622329246E+02  0.19874472462E+03  0.90317271824E+02 0.  0.
        -11    1    4    4    0    0  0.48099489379E+02  0.54646803508E+01 -0.24824008061E+02  0.54402711201E+02  0.00000000000E+00 0.  1.
         11    1    4    4    0    0  0.67164500374E+02  0.12761303189E+03  0.62016788145E+01  0.14434201342E+03  0.00000000000E+00 0. -1.
        -11    1    3    3    0    0 -0.37343069616E+02  0.72371925294E+01  0.27307599233E+02  0.46825065723E+02  0.00000000000E+00 0. -1.
         11    1    3    3    0    0 -0.36080461456E+02 -0.89903361338E+02  0.20183746612E+03  0.22388116671E+03  0.00000000000E+00 0.  1.
         -4    1    1    2    0  502 -0.41840458681E+02 -0.50411543428E+02  0.94900483286E+02  0.11531716881E+03  0.00000000000E+00 0.  1.
<scales pt_clust_5="13000.00000" pt_clust_6="13000.00000" pt_clust_7="13000.00000" pt_clust_8="13000.00000" pt_clust_9="13000.00000"></scales>
<clustering>
<clus scale="   90.317">  5  6 -1 -1</clus>
<clus scale="   65.513">  5  9 -1 -1</clus>
<clus scale="   92.465">  7  8 -1 -1</clus>
<clus scale="  144.133">  1  7  2 -1</clus>
<clus scale="  304.658">  2  5  1 -1</clus>
</clustering>
</event>
<event>
 9    1  0.3303741E-006  0.3471471E+03  0.7546771E-02  0.1099058E+00
         -3   -1    0    0    0  501 -0.00000000000E+00  0.00000000000E+00  0.43183569466E+03  0.43183569466E+03  0.00000000000E+00 0.  1.
         21   -1    0    0  501  502  0.00000000000E+00 -0.00000000000E+00 -0.13816745022E+03  0.13816745022E+03  0.00000000000E+00 0. -1.
         23    2    1    2    0    0 -0.77544300053E+02 -0.62692056529E+02  0.41120783961E+02  0.14071147935E+03  0.90362542715E+02 0.  0.
         23    2    1    2    0    0  0.18896883770E+03  0.93059082394E+02  0.15139955380E+03  0.27577136434E+03  0.93588493204E+02 0.  0.
        -11    1    4    4    0    0  0.13096102843E+02  0.43531634966E+02  0.15389757475E+02  0.47993288985E+02  0.00000000000E+00 0.  1.
         11    1    4    4    0    0  0.17587273486E+03  0.49527447428E+02  0.13600979632E+03  0.22777807535E+03  0.00000000000E+00 0. -1.
        -11    1    3    3    0    0 -0.72939005317E+02 -0.39839933886E+02  0.66360603094E+02  0.10635341307E+03  0.00000000000E+00 0.  1.
         11    1    3    3    0    0 -0.46052947358E+01 -0.22852122643E+02 -0.25239819133E+02  0.34358066284E+02  0.00000000000E+00 0. -1.
         -3    1    1    2    0  502 -0.11142453765E+03 -0.30367025865E+02  0.10114790669E+03  0.15352030119E+03  0.00000000000E+00 0.  1.
<scales pt_clust_5="13000.00000" pt_clust_6="13000.00000" pt_clust_7="13000.00000" pt_clust_8="13000.00000" pt_clust_9="13000.00000"></scales>
<clustering>
<clus scale="   90.363">  7  8 -1 -1</clus>
<clus scale="   93.588">  5  6 -1 -1</clus>
<clus scale="  115.489">  5  9 -1 -1</clus>
<clus scale="  134.569">  1  7  2 -1</clus>
<clus scale="  347.147">  2  5  1 -1</clus>
</clustering>
</event>
<event>
 9    1  0.3303741E-006  0.1981231E+03  0.7546771E-02  0.1160569E+00
         -3   -1    0    0    0  501 -0.00000000000E+00  0.00000000000E+00  0.60496743971E+03  0.60496743971E+03  0.00000000000E+00 0.  1.
         21   -1    0    0  501  502  0.00000000000E+00 -0.00000000000E+00 -0.53699775374E+02  0.53699775374E+02  0.00000000000E+00 0.  1.
         23    2    1    2    0    0 -0.12812528872E+03 -0.28127049563E+02  0.20552491345E+03  0.26018154356E+03  0.90811480726E+02 0.  0.
         23    2    1    2    0    0  0.10997721558E+03  0.63655731016E+02  0.29967542836E+03  0.33754440497E+03  0.89352240755E+02 0.  0.
        -13    1    4    4    0    0  0.13858254458E+02 -0.17680540405E+02  0.17254990465E+02  0.28326443857E+02  0.00000000000E+00 0.  1.
         13    1    4    4    0    0  0.96118961123E+02  0.81336271421E+02  0.28242043790E+03  0.30921796112E+03  0.00000000000E+00 0. -1.
        -13    1    3    3    0    0 -0.76812356098E+02 -0.28094232570E-01  0.44302212663E+02  0.88672571212E+02  0.00000000000E+00 0.  1.
         13    1    3    3    0    0 -0.51312932623E+02 -0.28098955331E+02  0.16122270079E+03  0.17150897235E+03  0.00000000000E+00 0. -1.
         -3    1    1    2    0  502  0.18148073140E+02 -0.35528681452E+02  0.46067322519E+02  0.60941266548E+02  0.00000000000E+00 0.  1.
<scales pt_clust_5="13000.00000" pt_clust_6="13000.00000" pt_clust_7="13000.00000" pt_clust_8="13000.00000" pt_clust_9="13000.00000"></scales>
<clustering>
<clus scale="   89.352">  5  6 -1 -1</clus>
<clus scale="   39.895">  5  9 -1 -1</clus>
<clus scale="   90.811">  7  8 -1 -1</clus>
<clus scale="  159.543">  1  7  2 -1</clus>
<clus scale="  198.123">  2  5  1 -1</clus>
</clustering>
</event>
<event>
 9    1  0.3303741E-006  0.2446348E+03  0.7546771E-02  0.1145783E+00
          1   -1    0    0  502    0 -0.00000000000E+00  0.00000000000E+00  0.54277152050E+03  0.54277152050E+03  0.00000000000E+00 0. -1.
         21   -1    0    0  501  502  0.00000000000E+00 -0.00000000000E+00 -0.65202383165E+02  0.65202383165E+02  0.00000000000E+00 0. -1.
         23    2    1    2    0    0 -0.61496269101E+02 -0.47296725727E+02  0.23264789911E+03  0.26180548052E+03  0.91642202577E+02 0.  0.
         23    2    1    2    0    0  0.34707153025E+02 -0.59545413136E+02  0.19502459534E+03  0.22524458617E+03  0.89164388159E+02 0.  0.
        -11    1    4    4    0    0  0.92868971729E+01 -0.20855000663E+02 -0.19410525950E+01  0.22911682542E+02  0.00000000000E+00 0.  1.
         11    1    4    4    0    0  0.25420255852E+02 -0.38690412473E+02  0.19696564793E+03  0.20233290363E+03  0.00000000000E+00 0. -1.
        -11    1    3    3    0    0 -0.27185225853E+02 -0.61079202308E+02  0.20502783818E+03  0.21565277621E+03  0.00000000000E+00 0. -1.
         11    1    3    3    0    0 -0.34311043248E+02  0.13782476581E+02  0.27620060934E+02  0.46152704314E+02  0.00000000000E+00 0.  1.
          1    1    1    2  501    0  0.26789116076E+02  0.10684213886E+03  0.49896642887E+02  0.12092383697E+03  0.00000000000E+00 0. -1.
<scales pt_clust_5="13000.00000" pt_clust_6="13000.00000" pt_clust_7="13000.00000" pt_clust_8="13000.00000" pt_clust_9="13000.00000"></scales>
<clustering>
<clus scale="   89.164">  5  6 -1 -1</clus>
<clus scale="   91.642">  7  8 -1 -1</clus>
<clus scale="  110.149">  5  9 -1 -1</clus>
<clus scale="  120.071">  1  7  2 -1</clus>
<clus scale="  244.635">  2  5  1 -1</clus>
</clustering>
</event>
<event>
 9    1  0.3303741E-006  0.2306637E+03  0.7546771E-02  0.1156385E+00
         21   -1    0    0  501  502  0.00000000000E+00  0.00000000000E+00  0.33775005720E+03  0.33775005720E+03  0.00000000000E+00 0. -1.
          1   -1    0    0  502    0 -0.00000000000E+00 -0.00000000000E+00 -0.91856238614E+02  0.91856238614E+02  0.00000000000E+00 0. -1.
         23    2    1    2    0    0 -0.40219015524E+02 -0.39111716154E+02  0.34397833702E+02  0.11665858188E+03  0.96326103483E+02 0.  0.
         23    2    1    2    0    0  0.72292644777E+02 -0.29211354780E+02  0.40743197975E+02  0.12625739830E+03  0.90561540994E+02 0.  0.
        -11    1    4    4    0    0  0.29181447943E+02 -0.12855604314E+02 -0.28699246056E+02  0.42900701515E+02  0.00000000000E+00 0. -1.
         11    1    4    4    0    0  0.43111196834E+02 -0.16355750466E+02  0.69442444031E+02  0.83356696784E+02  0.00000000000E+00 0.  1.
        -13    1    3    3    0    0  0.28679554251E+02 -0.29945599558E+02  0.75375742107E+01  0.42143454888E+02  0.00000000000E+00 0. -1.
         13    1    3    3    0    0 -0.68898569774E+02 -0.91661165957E+01  0.26860259491E+02  0.74515126990E+02  0.00000000000E+00 0.  1.
          1    1    1    2  501    0 -0.32073629253E+02  0.68323070934E+02  0.17075278691E+03  0.18669031564E+03  0.00000000000E+00 0. -1.
<scales pt_clust_5="13000.00000" pt_clust_6="13000.00000" pt_clust_7="13000.00000" pt_clust_8="13000.00000" pt_clust_9="13000.00000"></scales>
<clustering>
<clus scale="   90.562">  5  6 -1 -1</clus>
<clus scale="   75.477">  5  9 -1 -1</clus>
<clus scale="   96.326">  7  8 -1 -1</clus>
<clus scale="  111.472">  2  7  1 -1</clus>
<clus scale="  230.664">  1  5  2 -1</clus>
</clustering>
</event>
<event>
 9    1  0.3303741E-006  0.1747119E+03  0.7546771E-02  0.1190604E+00
          4   -1    0    0  502    0 -0.00000000000E+00  0.00000000000E+00  0.15731151128E+03  0.15731151128E+03  0.00000000000E+00 0. -1.
         21   -1    0    0  501  502  0.00000000000E+00 -0.00000000000E+00 -0.15615659115E+03  0.15615659115E+03  0.00000000000E+00 0. -1.
         23    2    1    2    0    0  0.76552561371E+02  0.19074335991E+02  0.55868246412E+02  0.13038940768E+03  0.87498638452E+02 0.  0.
         23    2    1    2    0    0 -0.31973113248E+02 -0.46925537768E+02  0.20599440148E-01  0.10719181012E+03  0.90916432322E+02 0.  0.
        -11    1    4    4    0    0  0.30429252458E+02 -0.22004019503E+02  0.10946682760E+02  0.39114525983E+02  0.00000000000E+00 0.  1.
         11    1    4    4    0    0 -0.62402365706E+02 -0.24921518265E+02 -0.10926083320E+02  0.68077284133E+02  0.00000000000E+00 0. -1.
        -13    1    3    3    0    0  0.98137010080E+01  0.17492574440E+02 -0.20687887124E+02  0.28814710855E+02  0.00000000000E+00 0.  1.
         13    1    3    3    0    0  0.66738860363E+02  0.15817615513E+01  0.76556133536E+02  0.10157469682E+03  0.00000000000E+00 0. -1.
          4    1    1    2  501    0 -0.44579448123E+02  0.27851201777E+02 -0.54733925715E+02  0.75886884635E+02  0.00000000000E+00 0. -1.
<scales pt_clust_5="13000.00000" pt_clust_6="13000.00000" pt_clust_7="13000.00000" pt_clust_8="13000.00000" pt_clust_9="13000.00000"></scales>
<clustering>
<clus scale="   87.499">  7  8 -1 -1</clus>
<clus scale="   90.916">  5  6 -1 -1</clus>
<clus scale="   52.564">  5  9 -1 -1</clus>
<clus scale="  117.814">  1  7  2 -1</clus>
<clus scale="  174.712">  2  5  1 -1</clus>
</clustering>
</event>
<event>
 9    1  0.3303741E-006  0.1997160E+03  0.7546771E-02  0.1183250E+00
         -2   -1    0    0    0  501 -0.00000000000E+00  0.00000000000E+00  0.40122184860E+03  0.40122184860E+03  0.00000000000E+00 0.  1.
         21   -1    0    0  501  502  0.00000000000E+00 -0.00000000000E+00 -0.76919548160E+02  0.76919548160E+02  0.00000000000E+00 0.  1.
         23    2    1    2    0    0 -0.82934634535E+01  0.13034140194E+02  0.24718336919E+03  0.26405306176E+03  0.91573637440E+02 0.  0.
         23    2    1    2    0    0 -0.13490903119E+02 -0.76114991678E+02  0.86362346440E+02  0.14671480033E+03  0.89951549888E+02 0.  0.
        -11    1    4    4    0    0  0.24538433267E+02 -0.75398948612E+02  0.47978785279E+02  0.92677397438E+02  0.00000000000E+00 0.  1.
         11    1    4    4    0    0 -0.38029336386E+02 -0.71604306554E+00  0.38383561161E+02  0.54037402889E+02  0.00000000000E+00 0. -1.
        -13    1    3    3    0    0 -0.32754878206E+01  0.50023374965E+02  0.95660600001E+02  0.10800007989E+03  0.00000000000E+00 0.  1.
         13    1    3    3    0    0 -0.50179756329E+01 -0.36989234770E+02  0.15152276919E+03  0.15605298187E+03  0.00000000000E+00 0. -1.
         -2    1    1    2    0  502  0.21784366573E+02  0.63080851484E+02 -0.92434151846E+01  0.67373534679E+02  0.00000000000E+00 0.  1.
<scales pt_clust_5="13000.00000" pt_clust_6="13000.00000" pt_clust_7="13000.00000" pt_clust_8="13000.00000" pt_clust_9="13000.00000"></scales>
<clustering>
<clus scale="   89.952">  5  6 -1 -1</clus>
<clus scale="   66.736">  5  9 -1 -1</clus>
<clus scale="   91.574">  7  8 -1 -1</clus>
<clus scale="   92.868">  1  7  2 -1</clus>
<clus scale="  199.716">  2  5  1 -1</clus>
</clustering>
</event>
<event>
 9    1  0.3303741E-006  0.2733210E+03  0.7546771E-02  0.1113018E+00
         21   -1    0    0  501  502  0.00000000000E+00  0.00000000000E+00  0.23985694949E+03  0.23985694949E+03  0.00000000000E+00 0. -1.
          2   -1    0    0  502    0 -0.00000000000E+00 -0.00000000000E+00 -0.24312522519E+03  0.24312522519E+03  0.00000000000E+00 0. -1.
         23    2    1    2    0    0  0.16844710033E+03 -0.21689553402E+02 -0.63888646208E+02  0.20301935160E+03  0.91050731313E+02 0.  0.
         23    2    1    2    0    0 -0.24281077528E+02 -0.22629963396E+02 -0.32759305726E+02  0.10257109375E+03  0.91356287103E+02 0.  0.
        -11    1    4    4    0    0  0.17798985619E+02 -0.45736369310E+02 -0.19050867314E+02  0.52645559282E+02  0.00000000000E+00 0.  1.
         11    1    4    4    0    0 -0.42080063147E+02  0.23106405913E+02 -0.13708438413E+02  0.49925534473E+02  0.00000000000E+00 0. -1.
        -13    1    3    3    0    0  0.88619554089E+02  0.28133771156E+02 -0.74138199738E+01  0.93273250040E+02  0.00000000000E+00 0.  1.
         13    1    3    3    0    0  0.79827546239E+02 -0.49823324558E+02 -0.56474826234E+02  0.10974610156E+03  0.00000000000E+00 0. -1.
          2    1    1    2  501    0 -0.14416602280E+03  0.44319516798E+02  0.93379676237E+02  0.17739172933E+03  0.00000000000E+00 0. -1.
<scales pt_clust_5="13000.00000" pt_clust_6="13000.00000" pt_clust_7="13000.00000" pt_clust_8="13000.00000" pt_clust_9="13000.00000"></scales>
<clustering>
<clus scale="   91.051">  7  8 -1 -1</clus>
<clus scale="   91.356">  5  6 -1 -1</clus>
<clus scale="  150.825">  5  9 -1 -1</clus>
<clus scale="  192.705">  2  7  1 -1</clus>
<clus scale="  273.321">  1  5  2 -1</clus>
</clustering>
</event>
<event>
 9    1  0.3303741E-006  0.1515002E+03  0.7546771E-02  0.1210270E+00
         21   -1    0    0  501  502  0.00000000000E+00  0.00000000000E+00  0.34438646999E+03  0.34438646999E+03  0.00000000000E+00 0.  1.
          3   -1    0    0  502    0 -0.00000000000E+00 -0.00000000000E+00 -0.57445309209E+02  0.57445309209E+02  0.00000000000E+00 0. -1.
         23    2    1    2    0    0  0.65819124473E+02  0.35806761509E+02  0.69666207778E+02  0.13695307655E+03  0.91041108040E+02 0.  0.
         23    2    1    2    0    0 -0.25625565313E+02  0.49434250900E+01  0.12502060837E+03  0.15631091734E+03  0.90121270026E+02 0.  0.
        -13    1    4    4    0    0 -0.41292584613E+02  0.20820200388E+02  0.22566428169E+02  0.51456797107E+02  0.00000000000E+00 0. -1.
         13    1    4    4    0    0  0.15667019300E+02 -0.15876775298E+02  0.10245418021E+03  0.10485412023E+03  0.00000000000E+00 0.  1.
        -13    1    3    3    0    0 -0.14710647499E+02  0.15703006155E+02  0.45777858979E+02  0.50582604963E+02  0.00000000000E+00 0. -1.
         13    1    3    3    0    0  0.80529771971E+02  0.20103755354E+02  0.23888348799E+02  0.86370471583E+02  0.00000000000E+00 0.  1.
          3    1    1    2  501    0 -0.40193559160E+02 -0.40750186600E+02  0.92254344628E+02  0.10856778532E+03  0.00000000000E+00 0. -1.
<scales pt_clust_5="13000.00000" pt_clust_6="13000.00000" pt_clust_7="13000.00000" pt_clust_8="13000.00000" pt_clust_9="13000.00000"></scales>
<clustering>
<clus scale="   90.121">  5  6 -1 -1</clus>
<clus scale="   57.237">  5  9 -1 -1</clus>
<clus scale="   91.041">  7  8 -1 -1</clus>
<clus scale="  117.910">  2  7  1 -1</clus>
<clus scale="  151.500">  1  5  2 -1</clus>
</clustering>
</event>
<event>
 9    1  0.3303741E-006  0.5344590E+03  0.7546771E-02  0.1037346E+00
         21   -1    0    0  501  502  0.00000000000E+00  0.00000000000E+00  0.87629208303E+02  0.87629208303E+02  0.00000000000E+00 0. -1.
          2   -1    0    0  502    0 -0.00000000000E+00 -0.00000000000E+00 -0.17202709169E+04  0.17202709169E+04  0.00000000000E+00 0. -1.
         23    2    1    2    0    0 -0.17261033365E+03 -0.63582081587E+02 -0.74346036126E+03  0.77045618339E+03  0.83859485902E+02 0.  0.
         23    2    1    2    0    0  0.98827418626E+02 -0.20368478186E+03 -0.53807859110E+03  0.59006419228E+03  0.85981578132E+02 0.  0.
        -11    1    4    4    0    0  0.45731657612E+02 -0.53798204031E+02 -0.26319073751E+03  0.27249769830E+03  0.00000000000E+00 0.  1.
         11    1    4    4    0    0  0.53095761014E+02 -0.14988657783E+03 -0.27488785359E+03  0.31756649398E+03  0.00000000000E+00 0. -1.
        -13    1    3    3    0    0 -0.39773742918E+02 -0.53983786951E+02 -0.20117087382E+03  0.21205169264E+03  0.00000000000E+00 0.  1.
         13    1    3    3    0    0 -0.13283659073E+03 -0.95982946356E+01 -0.54228948744E+03  0.55840449075E+03  0.00000000000E+00 0. -1.
          2    1    1    2  501    0  0.73782915026E+02  0.26726686345E+03 -0.35110275620E+03  0.44737974950E+03  0.00000000000E+00 0. -1.
<scales pt_clust_5="13000.00000" pt_clust_6="13000.00000" pt_clust_7="13000.00000" pt_clust_8="13000.00000" pt_clust_9="13000.00000"></scales>
<clustering>
<clus scale="   83.859">  7  8 -1 -1</clus>
<clus scale="   85.982">  5  6 -1 -1</clus>
<clus scale="  202.162">  2  7  1 -1</clus>
<clus scale="  240.926">  5  9 -1 -1</clus>
<clus scale="  534.459">  1  5  2 -1</clus>
</clustering>
</event>
<event>
 9    1  0.3303741E-006  0.1783538E+03  0.7546771E-02  0.1195787E+00
         21   -1    0    0  501  502  0.00000000000E+00  0.00000000000E+00  0.74060164292E+03  0.74060164292E+03  0.00000000000E+00 0. -1.
          1   -1    0    0  502    0 -0.00000000000E+00 -0.00000000000E+00 -0.49410178627E+02  0.49410178627E+02  0.00000000000E+00 0. -1.
         23    2    1    2    0    0  0.32000509485E+02 -0.28449149072E+02  0.27219939103E+02  0.10250307443E+03  0.89064967821E+02 0.  0.
         23    2    1    2    0    0 -0.85660571912E+01 -0.44463812290E+02  0.42298146731E+03  0.43464182265E+03  0.89161563326E+02 0.  0.
        -11    1    3    3    0    0 -0.27366098751E+02  0.83159476972E+01  0.12100825229E+02  0.31056212232E+02  0.00000000000E+00 0. -1.
         11    1    3    3    0    0  0.59366608236E+02 -0.36765096769E+02  0.15119113874E+02  0.71446862199E+02  0.00000000000E+00 0.  1.
        -13    1    4    4    0    0 -0.23845511666E+02  0.18309697479E+02  0.76635419916E+02  0.82321570891E+02  0.00000000000E+00 0.  1.
         13    1    4    4    0    0  0.15279454475E+02 -0.62773509769E+02  0.34634604739E+03  0.35232025176E+03  0.00000000000E+00 0. -1.
          1    1    1    2  501    0 -0.23434452293E+02  0.72912961362E+02  0.24099005788E+03  0.25286692446E+03  0.00000000000E+00 0. -1.
<scales pt_clust_5="13000.00000" pt_clust_6="13000.00000" pt_clust_7="13000.00000" pt_clust_8="13000.00000" pt_clust_9="13000.00000"></scales>
<clustering>
<clus scale="   89.065">  5  6 -1 -1</clus>
<clus scale="   89.162">  7  8 -1 -1</clus>
<clus scale="   76.586">  7  9 -1 -1</clus>
<clus scale="   98.823">  2  5  1 -1</clus>
<clus scale="  178.354">  1  5  2 -1</clus>
</clustering>
</event>
<event>
 9    1  0.3303741E-006  0.6224208E+03  0.7546771E-02  0.1048206E+00
         21   -1    0    0  501  502  0.00000000000E+00  0.00000000000E+00  0.46182913100E+03  0.46182913100E+03  0.00000000000E+00 0.  1.
         -1   -1    0    0    0  501 -0.00000000000E+00 -0.00000000000E+00 -0.29808469090E+03  0.29808469090E+03  0.00000000000E+00 0.  1.
         23    2    1    2    0    0 -0.16140178520E+02  0.19233875964E+02  0.95709855126E+02  0.13378578052E+03  0.90043385947E+02 0.  0.
         23    2    1    2    0    0 -0.75669472952E+02  0.16006979970E+03 -0.20574611407E+03  0.28622409704E+03  0.90799561464E+02 0.  0.
        -11    1    3    3    0    0  0.16728192072E+02  0.47285437238E+02  0.48169699416E+02  0.69541821421E+02  0.00000000000E+00 0.  1.
         11    1    3    3    0    0 -0.32868370592E+02 -0.28051561274E+02  0.47540155710E+02  0.64243959095E+02  0.00000000000E+00 0. -1.
        -11    1    4    4    0    0 -0.45484098603E+02  0.35833626640E+02 -0.21084934050E+02  0.61623262392E+02  0.00000000000E+00 0. -1.
         11    1    4    4    0    0 -0.30185374349E+02  0.12423617306E+03 -0.18466118002E+03  0.22460083465E+03  0.00000000000E+00 0.  1.
         -1    1    1    2    0  502  0.91809651472E+02 -0.17930367567E+03  0.27378069904E+03  0.33990394434E+03  0.00000000000E+00 0.  1.
<scales pt_clust_5="13000.00000" pt_clust_6="13000.00000" pt_clust_7="13000.00000" pt_clust_8="13000.00000" pt_clust_9="13000.00000"></scales>
<clustering>
<clus scale="   90.043">  5  6 -1 -1</clus>
<clus scale="   90.800">  7  8 -1 -1</clus>
<clus scale="   93.479">  2  5  1 -1</clus>
<clus scale="  198.543">  7  9 -1 -1</clus>
<clus scale="  622.421">  1  5  2 -1</clus>
</clustering>
</event>
<event>
 9    1  0.3303741E-006  0.2808722E+03  0.7546771E-02  0.1108072E+00
          2   -1    0    0  502    0 -0.00000000000E+00  0.00000000000E+00  0.11614220236E+04  0.11614220236E+04  0.00000000000E+00 0. -1.
         21   -1    0    0  501  502  0.00000000000E+00 -0.00000000000E+00 -0.51262776040E+02  0.51262776040E+02  0.00000000000E+00 0.  1.
         23    2    1    2    0    0  0.11679598546E+03  0.12288611400E+03  0.55724002888E+03  0.59251638811E+03  0.10870566294E+03 0.  0.
         23    2    1    2    0    0 -0.28374992575E+02 -0.42093454050E+01  0.38284097400E+03  0.39471540823E+03  0.91707051683E+02 0.  0.
        -11    1    4    4    0    0 -0.55403224534E+02  0.56754587788E+01  0.32885520444E+03  0.33353781436E+03  0.00000000000E+00 0. -1.
         11    1    4    4    0    0  0.27028231959E+02 -0.98848041838E+01  0.53985769554E+02  0.61177593864E+02  0.00000000000E+00 0.  1.
        -11    1    3    3    0    0 -0.14367565333E+02  0.46177455520E+02  0.16241494869E+03  0.16946208983E+03  0.00000000000E+00 0. -1.
         11    1    3    3    0    0  0.13116355079E+03  0.76708658480E+02  0.39482508019E+03  0.42305429828E+03  0.00000000000E+00 0.  1.
          2    1    1    2  501    0 -0.88420992881E+02 -0.11867676859E+03  0.17007824469E+03  0.22545300331E+03  0.00000000000E+00 0. -1.
<scales pt_clust_5="13000.00000" pt_clust_6="13000.00000" pt_clust_7="13000.00000" pt_clust_8="13000.00000" pt_clust_9="13000.00000"></scales>
<clustering>
<clus scale="   91.707">  5  6 -1 -1</clus>
<clus scale="  108.706">  7  8 -1 -1</clus>
<clus scale="  147.995">  5  9 -1 -1</clus>
<clus scale="  201.393">  1  7  2 -1</clus>
<clus scale="  280.872">  2  5  1 -1</clus>
</clustering>
</event>
<event>
 9    1  0.3303741E-006  0.2609724E+03  0.7546771E-02  0.1141446E+00
         21   -1    0    0  501  502  0.00000000000E+00  0.00000000000E+00  0.16337345913E+03  0.16337345913E+03  0.00000000000E+00 0. -1.
         -3   -1    0    0    0  501 -0.00000000000E+00 -0.00000000000E+00 -0.29745509874E+03  0.29745509874E+03  0.00000000000E+00 0.  1.
         23    2    1    2    0    0 -0.25059833315E+02 -0.58522255393E+02 -0.16486558350E+03  0.19804686302E+03  0.89381484143E+02 0.  0.
         23    2    1    2    0    0  0.29096025975E+02 -0.65167957967E+02  0.67012950759E+02  0.13383170194E+03  0.91251013147E+02 0.  0.
        -11    1    4    4    0    0  0.42525708192E+01 -0.69656637772E+02  0.87479998957E+01  0.70332489266E+02  0.00000000000E+00 0. -1.
         11    1    4    4    0    0  0.24843455155E+02  0.44886798052E+01  0.58264950863E+02  0.63499212669E+02  0.00000000000E+00 0.  1.
        -13    1    3    3    0    0  0.13515748908E+02  0.16339586175E+02 -0.14451427768E+02  0.25661280355E+02  0.00000000000E+00 0.  1.
         13    1    3    3    0    0 -0.38575582223E+02 -0.74861841568E+02 -0.15041415573E+03  0.17238558266E+03  0.00000000000E+00 0. -1.
         -3    1    1    2    0  502 -0.40361926600E+01  0.12369021336E+03 -0.36229006870E+02  0.12894999291E+03  0.00000000000E+00 0.  1.
<scales pt_clust_5="13000.00000" pt_clust_6="13000.00000" pt_clust_7="13000.00000" pt_clust_8="13000.00000" pt_clust_9="13000.00000"></scales>
<clustering>
<clus scale="   89.381">  7  8 -1 -1</clus>
<clus scale="   91.251">  5  6 -1 -1</clus>
<clus scale="  109.736">  2  7  1 -1</clus>
<clus scale="   84.891">  5  9 -1 -1</clus>
<clus scale="  260.972">  1  5  2 -1</clus>
</clustering>
</event>
<event>
 9    1  0.3303741E-006  0.1836216E+03  0.7546771E-02  0.1190006E+00
         21   -1    0    0  501  502  0.00000000000E+00  0.00000000000E+00  0.27336922563E+03  0.27336922563E+03  0.00000000000E+00 0. -1.
         -1   -1    0    0    0  501 -0.00000000000E+00 -0.00000000000E+00 -0.30872164530E+03  0.30872164530E+03  0.00000000000E+00 0.  1.
         23    2    1    2    0    0 -0.46621138588E+02  0.18919885984E+02 -0.26721892037E+03  0.28632244164E+03  0.89683312474E+02 0.  0.
         23    2    1    2    0    0 -0.68396252068E+01 -0.64193323213E+02  0.12855081291E+03  0.17094107360E+03  0.92347040698E+02 0.  0.
        -11    1    4    4    0    0 -0.38023484301E+02  0.33921325936E+01  0.40807845177E+02  0.55879979867E+02  0.00000000000E+00 0.  1.
         11    1    4    4    0    0  0.31183859094E+02 -0.67585455806E+02  0.87742967738E+02  0.11506109374E+03  0.00000000000E+00 0. -1.
        -13    1    3    3    0    0 -0.68209135513E+02  0.25064546435E+02 -0.24145206949E+03  0.25215039067E+03  0.00000000000E+00 0.  1.
         13    1    3    3    0    0  0.21587996925E+02 -0.61446604505E+01 -0.25766850879E+02  0.34172050970E+02  0.00000000000E+00 0. -1.
         -1    1    1    2    0  502  0.53460763795E+02  0.45273437228E+02  0.10331568778E+03  0.12482735568E+03  0.00000000000E+00 0.  1.
<scales pt_clust_5="13000.00000" pt_clust_6="13000.00000" pt_clust_7="13000.00000" pt_clust_8="13000.00000" pt_clust_9="13000.00000"></scales>
<clustering>
<clus scale="   89.683">  7  8 -1 -1</clus>
<clus scale="   92.347">  5  6 -1 -1</clus>
<clus scale="   70.055">  5  9 -1 -1</clus>
<clus scale="  102.833">  2  7  1 -1</clus>
<clus scale="  183.622">  1  5  2 -1</clus>
</clustering>
</event>
<event>
 9    1  0.3303741E-006  0.2534607E+03  0.7546771E-02  0.1134165E+00
         -4   -1    0    0    0  501 -0.00000000000E+00  0.00000000000E+00  0.10531567624E+03  0.10531567624E+03  0.00000000000E+00 0.  1.
         21   -1    0    0  501  502  0.00000000000E+00 -0.00000000000E+00 -0.38253863809E+03  0.38253863809E+03  0.00000000000E+00 0.  1.
         23    2    1    2    0    0 -0.10242061476E+03  0.41432342986E+02 -0.13814887601E+03  0.19874546161E+03  0.90598152272E+02 0.  0.
         23    2    1    2    0    0 -0.13248839275E+02  0.44134366778E+02 -0.26158733206E+02  0.10621281319E+03  0.92051660984E+02 0.  0.
        -11    1    4    4    0    0  0.33428309939E+00  0.71009558695E+02 -0.90649702242E+01  0.71586610874E+02  0.00000000000E+00 0.  1.
         11    1    4    4    0    0 -0.13583122375E+02 -0.26875191917E+02 -0.17093762981E+02  0.34626202317E+02  0.00000000000E+00 0. -1.
        -11    1    3    3    0    0 -0.36772239024E+02  0.61416479569E+02 -0.51348667948E+02  0.88095784380E+02  0.00000000000E+00 0.  1.
         11    1    3    3    0    0 -0.65648375738E+02 -0.19984136583E+02 -0.86800208062E+02  0.11064967723E+03  0.00000000000E+00 0. -1.
         -4    1    1    2    0  502  0.11566945404E+03 -0.85566709764E+02 -0.11291535264E+03  0.18289603954E+03  0.00000000000E+00 0.  1.
<scales pt_clust_5="13000.00000" pt_clust_6="13000.00000" pt_clust_7="13000.00000" pt_clust_8="13000.00000" pt_clust_9="13000.00000"></scales>
<clustering>
<clus scale="   90.598">  7  8 -1 -1</clus>
<clus scale="   92.052">  5  6 -1 -1</clus>
<clus scale="  142.880">  1  7  2 -1</clus>
<clus scale="   94.858">  5  9 -1 -1</clus>
<clus scale="  253.461">  2  5  1 -1</clus>
</clustering>
</event>
<event>
 9    1  0.3303741E-006  0.3481481E+03  0.7546771E-02  0.1105030E+00
         21   -1    0    0  501  502  0.00000000000E+00  0.00000000000E+00  0.33753113653E+03  0.33753113653E+03  0.00000000000E+00 0. -1.
          1   -1    0    0  502    0 -0.00000000000E+00 -0.00000000000E+00 -0.28301563690E+03  0.28301563690E+03  0.00000000000E+00 0. -1.
         23    2    1    2    0    0  0.47966048572E+02 -0.53451272620E+02 -0.17103142724E+03  0.20572328840E+03  0.88952470031E+02 0.  0.
         23    2    1    2    0    0 -0.17602374997E+02  0.18736735705E+03  0.15752046694E+03  0.26158161871E+03  0.90531075590E+02 0.  0.
        -13    1    4    4    0    0 -0.16912783901E+02  0.34883197940E+02 -0.45742334064E+01  0.39035924083E+02  0.00000000000E+00 0.  1.
         13    1    4    4    0    0 -0.68959109574E+00  0.15248415911E+03  0.16209470035E+03  0.22254569463E+03  0.00000000000E+00 0. -1.
        -13    1    3    3    0    0  0.10822924454E+02 -0.64722646401E+02 -0.14451244068E+03  0.15871358531E+03  0.00000000000E+00 0. -1.
         13    1    3    3    0    0  0.37143124118E+02  0.11271373780E+02 -0.26518986562E+02  0.47009703088E+02  0.00000000000E+00 0.  1.
          1    1    1    2  501    0 -0.30363673575E+02 -0.13391608443E+03  0.68026459924E+02  0.15324186632E+03  0.00000000000E+00 0. -1.
<scales pt_clust_5="13000.00000" pt_clust_6="13000.00000" pt_clust_7="13000.00000" pt_clust_8="13000.00000" pt_clust_9="13000.00000"></scales>
<clustering>
<clus scale="   88.952">  7  8 -1 -1</clus>
<clus scale="   90.531">  5  6 -1 -1</clus>
<clus scale="  114.326">  2  7  1 -1</clus>
<clus scale="  158.224">  5  9 -1 -1</clus>
<clus scale="  348.148">  1  5  2 -1</clus>
</clustering>
</event>
<event>
 9    1  0.3303741E-006  0.2346234E+03  0.7546771E-02  0.1157630E+00
          2   -1    0    0  502    0 -0.00000000000E+00  0.00000000000E+00  0.45540751854E+03  0.45540751854E+03  0.00000000000E+00 0. -1.
         21   -1    0    0  501  502  0.00000000000E+00 -0.00000000000E+00 -0.85424618912E+02  0.85424618912E+02  0.00000000000E+00 0.  1.
         23    2    1    2    0    0 -0.42382332664E+02  0.45833300083E+01  0.18042345945E+00  0.10288008063E+03  0.93632309608E+02 0.  0.
         23    2    1    2    0    0  0.51593267026E+02  0.42329993956E+02  0.37302261885E+03  0.39003472596E+03  0.92344570466E+02 0.  0.
        -11    1    3    3    0    0 -0.73454821404E+01 -0.43091070505E+02 -0.30108359103E+00  0.43713694839E+02  0.00000000000E+00 0. -1.
         11    1    3    3    0    0 -0.35036850523E+02  0.47674400514E+02  0.48150705048E+00  0.59166385794E+02  0.00000000000E+00 0.  1.
        -13    1    4    4    0    0  0.60006033500E+02  0.65319039383E+02  0.27239439312E+03  0.28647165020E+03  0.00000000000E+00 0.  1.
         13    1    4    4    0    0 -0.84127664740E+01 -0.22989045428E+02  0.10062822573E+03  0.10356307577E+03  0.00000000000E+00 0. -1.
          2    1    1    2  501    0 -0.92109343628E+01 -0.46913323964E+02 -0.32201426812E+01  0.47917330853E+02  0.00000000000E+00 0. -1.
<scales pt_clust_5="13000.00000" pt_clust_6="13000.00000" pt_clust_7="13000.00000" pt_clust_8="13000.00000" pt_clust_9="13000.00000"></scales>
<clustering>
<clus scale="   92.345">  7  8 -1 -1</clus>
<clus scale="   47.809">  7  9 -1 -1</clus>
<clus scale="   93.632">  5  6 -1 -1</clus>
<clus scale="  102.880">  1  5  2 -1</clus>
<clus scale="  234.623">  2  5  1 -1</clus>
</clustering>
</event>
<event>
 9    1  0.3303741E-006  0.4485713E+03  0.7546771E-02  0.1044858E+00
         21   -1    0    0  501  502  0.00000000000E+00  0.00000000000E+00  0.11733679277E+04  0.11733679277E+04  0.00000000000E+00 0.  1.
          1   -1    0    0  502    0 -0.00000000000E+00 -0.00000000000E+00 -0.16277185819E+03  0.16277185819E+03  0.00000000000E+00 0. -1.
         23    2    1    2    0    0  0.25017153946E+03 -0.67885428002E+02  0.54846422290E+02  0.28035876142E+03  0.91644282836E+02 0.  0.
         23    2    1    2    0    0 -0.28401191940E+03  0.16472336943E+03  0.79607043017E+03  0.86599111282E+03  0.91738317443E+02 0.  0.
        -13    1    3    3    0    0  0.81171690755E+02 -0.61167453366E+02 -0.27848722846E+01  0.10167623245E+03  0.00000000000E+00 0.  1.
         13    1    3    3    0    0  0.16899984870E+03 -0.67179746356E+01  0.57631294575E+02  0.17868252897E+03  0.00000000000E+00 0. -1.
        -13    1    4    4    0    0 -0.24998762324E+02  0.36786531506E+02  0.55853255177E+02  0.71398691388E+02  0.00000000000E+00 0. -1.
         13    1    4    4    0    0 -0.25901315708E+03  0.12793683792E+03  0.74021717499E+03  0.79459242143E+03  0.00000000000E+00 0.  1.
          1    1    1    2  501    0  0.33840379946E+02 -0.96837941424E+02  0.15967921709E+03  0.18978991170E+03  0.00000000000E+00 0. -1.
<scales pt_clust_5="13000.00000" pt_clust_6="13000.00000" pt_clust_7="13000.00000" pt_clust_8="13000.00000" pt_clust_9="13000.00000"></scales>
<clustering>
<clus scale="   91.644">  5  6 -1 -1</clus>
<clus scale="   91.738">  7  8 -1 -1</clus>
<clus scale="  102.581">  7  9 -1 -1</clus>
<clus scale="  274.942">  2  5  1 -1</clus>
<clus scale="  448.571">  1  5  2 -1</clus>
</clustering>
</event>
<event>
 9    1  0.3303741E-006  0.3120339E+03  0.7546771E-02  0.1119776E+00
         -1   -1    0    0    0  501 -0.00000000000E+00  0.00000000000E+00  0.32214368706E+03  0.32214368706E+03  0.00000000000E+00 0.  1.
         21   -1    0    0  501  502  0.00000000000E+00 -0.00000000000E+00 -0.26246285951E+03  0.26246285951E+03  0.00000000000E+00 0. -1.
         23    2    1    2    0    0  0.45275704965E+02 -0.43931101588E+02  0.21115986797E+03  0.23774767461E+03  0.89194370863E+02 0.  0.
         23    2    1    2    0    0 -0.69602949775E+02 -0.91875567739E+02 -0.14638163778E+03  0.20879638687E+03  0.94247847333E+02 0.  0.
        -13    1    4    4    0    0 -0.99691987721E+00 -0.47448474717E+02 -0.80710991558E+01  0.48140359822E+02  0.00000000000E+00 0.  1.
         13    1    4    4    0    0 -0.68606029898E+02 -0.44427093022E+02 -0.13831053863E+03  0.16065602705E+03  0.00000000000E+00 0. -1.
        -13    1    3    3    0    0 -0.14685111292E+02  0.17054245214E+02  0.30891180414E+02  0.38219952915E+02  0.00000000000E+00 0. -1.
         13    1    3    3    0    0  0.59960816257E+02 -0.60985346801E+02  0.18026868756E+03  0.19952772170E+03  0.00000000000E+00 0.  1.
         -1    1    1    2    0  502  0.24327244811E+02  0.13580666933E+03 -0.50974026450E+01  0.13806248508E+03  0.00000000000E+00 0.  1.
<scales pt_clust_5="13000.00000" pt_clust_6="13000.00000" pt_clust_7="13000.00000" pt_clust_8="13000.00000" pt_clust_9="13000.00000"></scales>
<clustering>
<clus scale="   89.194">  7  8 -1 -1</clus>
<clus scale="   94.248">  5  6 -1 -1</clus>
<clus scale="  109.250">  1  7  2 -1</clus>
<clus scale="  119.404">  5  9 -1 -1</clus>
<clus scale="  312.034">  2  5  1 -1</clus>
</clustering>
</event>
<event>
 9    1  0.3303741E-006  0.1625858E+03  0.7546771E-02  0.1226703E+00
         21   -1    0    0  501  502  0.00000000000E+00  0.00000000000E+00  0.21345884128E+03  0.21345884128E+03  0.00000000000E+00 0. -1.
         -3   -1    0    0    0  501 -0.00000000000E+00 -0.00000000000E+00 -0.63004644118E+02  0.63004644118E+02  0.00000000000E+00 0.  1.
         23    2    1    2    0    0  0.99207511030E+01 -0.30893725358E+02  0.28731765003E+02  0.73361338487E+02  0.59190608170E+02 0.  0.
         23    2    1    2    0    0 -0.91377080084E+01  0.64677279130E+01  0.13199310129E+02  0.91861369663E+02  0.90216186112E+02 0.  0.
        -11    1    3    3    0    0  0.29962255473E+02 -0.19605164498E+02 -0.93900236225E+00  0.35818723505E+02  0.00000000000E+00 0. -1.
         11    1    3    3    0    0 -0.20041504370E+02 -0.11288560859E+02  0.29670767365E+02  0.37542614982E+02  0.00000000000E+00 0.  1.
        -13    1    4    4    0    0 -0.77331508618E+01  0.48222824103E+02  0.10768324656E+02  0.50011990588E+02  0.00000000000E+00 0.  1.
         13    1    4    4    0    0 -0.14045571466E+01 -0.41755096190E+02  0.24309854737E+01  0.41849379075E+02  0.00000000000E+00 0. -1.
         -3    1    1    2    0  502 -0.78304309461E+00  0.24425997445E+02  0.10852312203E+03  0.11124077725E+03  0.00000000000E+00 0.  1.
<scales pt_clust_5="13000.00000" pt_clust_6="13000.00000" pt_clust_7="13000.00000" pt_clust_8="13000.00000" pt_clust_9="13000.00000"></scales>
<clustering>
<clus scale="   59.191">  5  6 -1 -1</clus>
<clus scale="   67.501">  2  5  1 -1</clus>
<clus scale="   90.216">  7  8 -1 -1</clus>
<clus scale="   23.399">  7  9 -1 -1</clus>
<clus scale="  162.586">  1  5  2 -1</clus>
</clustering>
</event>
<event>
 9    1  0.3303741E-006  0.2025119E+03  0.7546771E-02  0.1162780E+00
         21   -1    0    0  501  502  0.00000000000E+00  0.00000000000E+00  0.76533697705E+02  0.76533697705E+02  0.00000000000E+00 0. -1.
          1   -1    0    0  502    0 -0.00000000000E+00 -0.00000000000E+00 -0.39049220310E+03  0.39049220310E+03  0.00000000000E+00 0. -1.
         23    2    1    2    0    0 -0.12366190459E+02  0.10387233299E+03 -0.10952403863E+03  0.17926816125E+03  0.95912326485E+02 0.  0.
         23    2    1    2    0    0 -0.47055508597E+01 -0.13519679264E+03 -0.18379329699E+03  0.24654215981E+03  0.93288507332E+02 0.  0.
        -11    1    3    3    0    0  0.20324368351E+02  0.29296436368E+02 -0.88142619024E+02  0.95081451509E+02  0.00000000000E+00 0.  1.
         11    1    3    3    0    0 -0.32690558811E+02  0.74575896618E+02 -0.21381419607E+02  0.84186709736E+02  0.00000000000E+00 0. -1.
        -13    1    4    4    0    0  0.79793173951E+01 -0.11399879957E+03 -0.79122102921E+02  0.13899533439E+03  0.00000000000E+00 0. -1.
         13    1    4    4    0    0 -0.12684868255E+02 -0.21197993063E+02 -0.10467119406E+03  0.10754682543E+03  0.00000000000E+00 0.  1.
          1    1    1    2  501    0  0.17071741319E+02  0.31324459652E+02 -0.20641169780E+02  0.41215579749E+02  0.00000000000E+00 0. -1.
<scales pt_clust_5="13000.00000" pt_clust_6="13000.00000" pt_clust_7="13000.00000" pt_clust_8="13000.00000" pt_clust_9="13000.00000"></scales>
<clustering>
<clus scale="   93.289">  7  8 -1 -1</clus>
<clus scale="   35.674">  7  9 -1 -1</clus>
<clus scale="   95.912">  5  6 -1 -1</clus>
<clus scale="  141.921">  2  5  1 -1</clus>
<clus scale="  202.512">  1  5  2 -1</clus>
</clustering>
</event>
<event>
 9    1  0.3303741E-006  0.2732722E+03  0.7546771E-02  0.1142961E+00
         21   -1    0    0  501  502  0.00000000000E+00  0.00000000000E+00  0.99123345561E+02  0.99123345561E+02  0.00000000000E+00 0.  1.
         -1   -1    0    0    0  501 -0.00000000000E+00 -0.00000000000E+00 -0.34394549166E+03  0.34394549166E+03  0.00000000000E+00 0.  1.
         23    2    1    2    0    0  0.48941450092E+01 -0.73822908244E+01 -0.35175398037E+02  0.98642598016E+02  0.91731143256E+02 0.  0.
         23    2    1    2    0    0 -0.35295457561E+02 -0.68531400774E+01 -0.26352614083E+03  0.28094493280E+03  0.90505765050E+02 0.  0.
        -11    1    3    3    0    0  0.82325376117E+01 -0.48987653038E+02 -0.25321551453E+02  0.55756127858E+02  0.00000000000E+00 0.  1.
         11    1    3    3    0    0 -0.33383926025E+01  0.41605362214E+02 -0.98538465841E+01  0.42886470158E+02  0.00000000000E+00 0. -1.
        -13    1    4    4    0    0 -0.31926832607E+02  0.37659908019E+02 -0.10133297341E+03  0.11272072930E+03  0.00000000000E+00 0. -1.
         13    1    4    4    0    0 -0.33686249543E+01 -0.44513048097E+02 -0.16219316742E+03  0.16822420350E+03  0.00000000000E+00 0.  1.
         -1    1    1    2    0  502  0.30401312552E+02  0.14235430902E+02  0.53879392773E+02  0.63481306409E+02  0.00000000000E+00 0.  1.
<scales pt_clust_5="13000.00000" pt_clust_6="13000.00000" pt_clust_7="13000.00000" pt_clust_8="13000.00000" pt_clust_9="13000.00000"></scales>
<clustering>
<clus scale="   90.506">  7  8 -1 -1</clus>
<clus scale="   33.569">  7  9 -1 -1</clus>
<clus scale="   91.731">  5  6 -1 -1</clus>
<clus scale="   92.158">  2  5  1 -1</clus>
<clus scale="  273.272">  1  5  2 -1</clus>
</clustering>
</event>
<event>
 9    1  0.3303741E-006  0.1715835E+03  0.7546771E-02  0.1193537E+00
         21   -1    0    0  501  502  0.00000000000E+00  0.00000000000E+00  0.17601620189E+03  0.17601620189E+03  0.00000000000E+00 0.  1.
          1   -1    0    0  502    0 -0.00000000000E+00 -0.00000000000E+00 -0.15106104086E+03  0.15106104086E+03  0.00000000000E+00 0. -1.
         23    2    1    2    0    0 -0.15328810418E+02 -0.74300978221E+02  0.86079032336E+02  0.14493164317E+03  0.88543625350E+02 0.  0.
         23    2    1    2    0    0 -0.19256563374E+02  0.14097283926E+02 -0.61516983217E+02  0.11271370904E+03  0.91381028307E+02 0.  0.
        -13    1    4    4    0    0  0.32492420445E+02  0.24776112763E+02 -0.19877191080E+02  0.45439144746E+02  0.00000000000E+00 0. -1.
         13    1    4    4    0    0 -0.51748983820E+02 -0.10678828838E+02 -0.41639792137E+02  0.67274564294E+02  0.00000000000E+00 0.  1.
        -13    1    3    3    0    0 -0.35909998335E+01 -0.52336600023E+02 -0.28935379565E+01  0.52539390401E+02  0.00000000000E+00 0. -1.
         13    1    3    3    0    0 -0.11737810585E+02 -0.21964378198E+02  0.88972570293E+02  0.92392252767E+02  0.00000000000E+00 0.  1.
          1    1    1    2  501    0  0.34585373793E+02  0.60203694296E+02  0.39311191479E+00  0.69431890542E+02  0.00000000000E+00 0. -1.
<scales pt_clust_5="13000.00000" pt_clust_6="13000.00000" pt_clust_7="13000.00000" pt_clust_8="13000.00000" pt_clust_9="13000.00000"></scales>
<clustering>
<clus scale="   88.544">  7  8 -1 -1</clus>
<clus scale="   91.381">  5  6 -1 -1</clus>
<clus scale="   69.431">  5  9 -1 -1</clus>
<clus scale="  116.600">  2  7  1 -1</clus>
<clus scale="  171.583">  1  5  2 -1</clus>
</clustering>
</event>
<event>
 9    1  0.3303741E-006  0.2503270E+03  0.7546771E-02  0.1130390E+00
          1   -1    0    0  502    0 -0.00000000000E+00  0.00000000000E+00  0.51878570700E+03  0.51878570700E+03  0.00000000000E+00 0. -1.
         21   -1    0    0  501  502  0.00000000000E+00 -0.00000000000E+00 -0.82710152639E+02  0.82710152639E+02  0.00000000000E+00 0. -1.
         23    2    1    2    0    0 -0.84623031698E+02  0.10425877772E+03  0.19533752013E+03  0.25419423196E+03  0.91798750344E+02 0.  0.
         23    2    1    2    0    0  0.21515530385E+02  0.15167550262E+02  0.16907121632E+03  0.19439205530E+03  0.92250866374E+02 0.  0.
        -11    1    3    3    0    0 -0.37845129871E+02  0.77777511583E+02  0.17767949325E+03  0.19761477042E+03  0.00000000000E+00 0. -1.
         11    1    3    3    0    0 -0.46777901827E+02  0.26481266134E+02  0.17658026879E+02  0.56579461544E+02  0.00000000000E+00 0.  1.
        -13    1    4    4    0    0  0.73637853339E+01 -0.38117360237E+02  0.89814311413E+02  0.97845638740E+02  0.00000000000E+00 0.  1.
         13    1    4    4    0    0  0.14151745051E+02  0.53284910500E+02  0.79256904910E+02  0.96546416562E+02  0.00000000000E+00 0. -1.
          1    1    1    2  501    0  0.63107501313E+02 -0.11942632798E+03  0.71666817905E+02  0.15290957238E+03  0.00000000000E+00 0. -1.
<scales pt_clust_5="13000.00000" pt_clust_6="13000.00000" pt_clust_7="13000.00000" pt_clust_8="13000.00000" pt_clust_9="13000.00000"></scales>
<clustering>
<clus scale="   91.799">  5  6 -1 -1</clus>
<clus scale="   92.251">  7  8 -1 -1</clus>
<clus scale="  135.075">  7  9 -1 -1</clus>
<clus scale="  162.659">  1  5  2 -1</clus>
<clus scale="  250.327">  2  5  1 -1</clus>
</clustering>
</event>
<event>
 9    1  0.3303741E-006  0.4310231E+03  0.7546771E-02  0.1079292E+00
          1   -1    0    0  502    0 -0.00000000000E+00  0.00000000000E+00  0.80613207495E+03  0.80613207495E+03  0.00000000000E+00 0. -1.
         21   -1    0    0  501  502  0.00000000000E+00 -0.00000000000E+00 -0.93981391899E+02  0.93981391899E+02  0.00000000000E+00 0. -1.
         23    2    1    2    0    0  0.78882087508E+02 -0.17401261885E+01  0.13412384311E+03  0.17907535714E+03  0.88619221814E+02 0.  0.
         23    2    1    2    0    0 -0.20383065477E+03 -0.12046483288E+03  0.34669860968E+03  0.43110890008E+03  0.97960430703E+02 0.  0.
        -11    1    4    4    0    0 -0.36514125709E+02  0.13003610791E+02  0.82053958643E+02  0.90748153694E+02  0.00000000000E+00 0.  1.
         11    1    4    4    0    0 -0.16731652907E+03 -0.13346844367E+03  0.26464465104E+03  0.34036074638E+03  0.00000000000E+00 0. -1.
        -13    1    3    3    0    0  0.22539647363E+02  0.11640099633E+02 -0.71810071599E+01  0.26364644632E+02  0.00000000000E+00 0.  1.
         13    1    3    3    0    0  0.56342440144E+02 -0.13380225822E+02  0.14130485027E+03  0.15271071251E+03  0.00000000000E+00 0. -1.
          1    1    1    2  501    0  0.12494856727E+03  0.12220495907E+03  0.23132823026E+03  0.28992920963E+03  0.00000000000E+00 0. -1.
<scales pt_clust_5="13000.00000" pt_clust_6="13000.00000" pt_clust_7="13000.00000" pt_clust_8="13000.00000" pt_clust_9="13000.00000"></scales>
<clustering>
<clus scale="   88.619">  7  8 -1 -1</clus>
<clus scale="   97.960">  5  6 -1 -1</clus>
<clus scale="  118.654">  1  7  2 -1</clus>
<clus scale="  198.211">  5  9 -1 -1</clus>
<clus scale="  431.023">  2  5  1 -1</clus>
</clustering>
</event>
<event>
 9    1  0.3303741E-006  0.2118079E+03  0.7546771E-02  0.1158367E+00
         21   -1    0    0  501  502  0.00000000000E+00  0.00000000000E+00  0.69699530197E+02  0.69699530197E+02  0.00000000000E+00 0.  1.
         -2   -1    0    0    0  501 -0.00000000000E+00 -0.00000000000E+00 -0.67728299137E+03  0.67728299137E+03  0.00000000000E+00 0.  1.
         23    2    1    2    0    0 -0.48951083421E+02  0.89373249622E+02 -0.48095164724E+03  0.50020690666E+03  0.92242485714E+02 0.  0.
         23    2    1    2    0    0  0.16024388295E+02 -0.14612703440E+02 -0.13672588906E+03  0.16446403085E+03  0.88792660643E+02 0.  0.
        -11    1    3    3    0    0 -0.32854467219E+02  0.73243367844E+01 -0.44384767781E+02  0.55705202060E+02  0.00000000000E+00 0. -1.
         11    1    3    3    0    0 -0.16096616202E+02  0.82048912837E+02 -0.43656687946E+03  0.44450170460E+03  0.00000000000E+00 0.  1.
        -11    1    4    4    0    0 -0.11057870080E+02  0.27216259578E+02 -0.95102136910E+02  0.99536012181E+02  0.00000000000E+00 0.  1.
         11    1    4    4    0    0  0.27082258374E+02 -0.41828963018E+02 -0.41623752146E+02  0.64928018671E+02  0.00000000000E+00 0. -1.
         -2    1    1    2    0  502  0.32926695126E+02 -0.74760546182E+02  0.10094075121E+02  0.82311584057E+02  0.00000000000E+00 0.  1.
<scales pt_clust_5="13000.00000" pt_clust_6="13000.00000" pt_clust_7="13000.00000" pt_clust_8="13000.00000" pt_clust_9="13000.00000"></scales>
<clustering>
<clus scale="   88.793">  7  8 -1 -1</clus>
<clus scale="   81.690">  7  9 -1 -1</clus>
<clus scale="   92.242">  5  6 -1 -1</clus>
<clus scale="  137.450">  2  5  1 -1</clus>
<clus scale="  211.808">  1  5  2 -1</clus>
</clustering>
</event>
<event>
 9    1  0.3303741E-006  0.1928234E+03  0.7546771E-02  0.1186511E+00
         -1   -1    0    0    0  501 -0.00000000000E+00  0.00000000000E+00  0.34424673869E+03  0.34424673869E+03  0.00000000000E+00 0.  1.
         21   -1    0    0  501  502  0.00000000000E+00 -0.00000000000E+00 -0.60715269841E+02  0.60715269841E+02  0.00000000000E+00 0.  1.
         23    2    1    2    0    0  0.40586583516E+02 -0.16719429500E+01  0.10395314342E+03  0.14146769385E+03  0.86929777526E+02 0.  0.
         23    2    1    2    0    0 -0.56973659607E+02  0.67508835589E+02  0.13027475659E+03  0.17962611692E+03  0.86548188341E+02 0.  0.
        -11    1    4    4    0    0 -0.69195258501E+02  0.20057022227E+02  0.58932228154E+02  0.93076718113E+02  0.00000000000E+00 0. -1.
         11    1    4    4    0    0  0.12221598894E+02  0.47451813362E+02  0.71342528432E+02  0.86549398808E+02  0.00000000000E+00 0.  1.
        -13    1    3    3    0    0 -0.18802940597E+02  0.69485894749E+01 -0.15343667068E+01  0.20104421204E+02  0.00000000000E+00 0. -1.
         13    1    3    3    0    0  0.59389524113E+02 -0.86205324249E+01  0.10548751013E+03  0.12136327265E+03  0.00000000000E+00 0.  1.
         -1    1    1    2    0  502  0.16387076091E+02 -0.65836892639E+02  0.49303568840E+02  0.83868197760E+02  0.00000000000E+00 0.  1.
<scales pt_clust_5="13000.00000" pt_clust_6="13000.00000" pt_clust_7="13000.00000" pt_clust_8="13000.00000" pt_clust_9="13000.00000"></scales>
<clustering>
<clus scale="   86.548">  5  6 -1 -1</clus>
<clus scale="   67.846">  5  9 -1 -1</clus>
<clus scale="   86.930">  7  8 -1 -1</clus>
<clus scale="   95.952">  1  7  2 -1</clus>
<clus scale="  192.823">  2  5  1 -1</clus>
</clustering>
</event>
<event>
 9    1  0.3303741E-006  0.1994295E+03  0.7546771E-02  0.1179502E+00
         21   -1    0    0  501  502  0.00000000000E+00  0.00000000000E+00  0.46706591690E+02  0.46706591690E+02  0.00000000000E+00 0.  1.
          1   -1    0    0  502    0 -0.00000000000E+00 -0.00000000000E+00 -0.70893086120E+03  0.70893086120E+03  0.00000000000E+00 0. -1.
         23    2    1    2    0    0  0.37472164724E+02  0.25727021741E+02 -0.46211965583E+03  0.47312375359E+03  0.90694361056E+02 0.  0.
         23    2    1    2    0    0 -0.96999002765E+02  0.44782504148E+01 -0.13105365246E+03  0.18647288423E+03  0.90378180263E+02 0.  0.
        -11    1    3    3    0    0 -0.73587082199E+01 -0.28751928149E+02 -0.10566699589E+03  0.10975581069E+03  0.00000000000E+00 0.  1.
         11    1    3    3    0    0  0.44830872944E+02  0.54478949890E+02 -0.35645265994E+03  0.36336794290E+03  0.00000000000E+00 0. -1.
        -13    1    4    4    0    0 -0.30064117309E+02  0.39106341095E+02 -0.22236086701E+02  0.54107306486E+02  0.00000000000E+00 0.  1.
         13    1    4    4    0    0 -0.66934885456E+02 -0.34628090680E+02 -0.10881756576E+03  0.13236557775E+03  0.00000000000E+00 0. -1.
          1    1    1    2  501    0  0.59526838041E+02 -0.30205272156E+02 -0.69050961222E+02  0.96040815068E+02  0.00000000000E+00 0. -1.
<scales pt_clust_5="13000.00000" pt_clust_6="13000.00000" pt_clust_7="13000.00000" pt_clust_8="13000.00000" pt_clust_9="13000.00000"></scales>
<clustering>
<clus scale="   90.378">  7  8 -1 -1</clus>
<clus scale="   66.752">  7  9 -1 -1</clus>
<clus scale="   90.694">  5  6 -1 -1</clus>
<clus scale="  101.447">  2  5  1 -1</clus>
<clus scale="  199.430">  1  5  2 -1</clus>
</clustering>
</event>
<event>
 9    1  0.4958491E-006  0.4336296E+03  0.7546771E-02  0.1068506E+00
         21   -1    0    0  501  502  0.00000000000E+00  0.00000000000E+00  0.55097845379E+03  0.55097845379E+03  0.00000000000E+00 0.  1.
         -4   -1    0    0    0  501 -0.00000000000E+00 -0.00000000000E+00 -0.21715478454E+03  0.21715478454E+03  0.00000000000E+00 0.  1.
         23    2    1    2    0    0 -0.92472142580E+02 -0.85944313636E+02 -0.73895190773E+02  0.17292797334E+03  0.92228317481E+02 0.  0.
         23    2    1    2    0    0  0.95907652034E+01  0.33928108560E+02 -0.62600753190E+02  0.11481422959E+03  0.89556427403E+02 0.  0.
        -11    1    3    3    0    0 -0.97308688214E+02 -0.62423241621E+02 -0.87808129919E+02  0.14517544412E+03  0.00000000000E+00 0.  1.
         11    1    3    3    0    0  0.48365456348E+01 -0.23521072014E+02  0.13912939146E+02  0.27752529219E+02  0.00000000000E+00 0. -1.
        -13    1    4    4    0    0  0.49636896329E+02  0.14354533191E+02 -0.34002309622E+02  0.61854920256E+02  0.00000000000E+00 0.  1.
         13    1    4    4    0    0 -0.40046131125E+02  0.19573575369E+02 -0.28598443568E+02  0.52959309336E+02  0.00000000000E+00 0. -1.
         -4    1    1    2    0  502  0.82881377376E+02  0.52016205076E+02  0.47031961322E+03  0.48039103539E+03  0.00000000000E+00 0.  1.
<scales pt_clust_5="13000.00000" pt_clust_6="13000.00000" pt_clust_7="13000.00000" pt_clust_8="13000.00000" pt_clust_9="13000.00000"></scales>
<clustering>
<clus scale="   89.556">  7  8 -1 -1</clus>
<clus scale="   92.228">  5  6 -1 -1</clus>
<clus scale="   97.852">  7  9 -1 -1</clus>
<clus scale="  156.344">  2  5  1 -1</clus>
<clus scale="  433.630">  1  5  2 -1</clus>
</clustering>
</event>
<event>
 9    1  0.3303741E-006  0.9590552E+03  0.7546771E-02  0.1002631E+00
          2   -1    0    0  502    0 -0.00000000000E+00  0.00000000000E+00  0.76928649470E+03  0.76928649470E+03  0.00000000000E+00 0. -1.
         21   -1    0    0  501  502  0.00000000000E+00 -0.00000000000E+00 -0.40243292938E+03  0.40243292938E+03  0.00000000000E+00 0. -1.
         23    2    1    2    0    0  0.28279415521E+02  0.28235463071E+02  0.16293431174E+03  0.19122467212E+03  0.91773190903E+02 0.  0.
         23    2    1    2    0    0  0.30981944315E+03  0.17656828372E+03  0.39634255674E+03  0.54085610427E+03  0.90958545916E+02 0.  0.
        -11    1    4    4    0    0  0.14226924127E+03  0.42459182300E+02  0.20646072968E+03  0.25430169498E+03  0.00000000000E+00 0.  1.
         11    1    4    4    0    0  0.16755020188E+03  0.13410910142E+03  0.18988182707E+03  0.28655440929E+03  0.00000000000E+00 0. -1.
        -13    1    3    3    0    0 -0.27841370879E+02  0.33484777117E+02  0.65317936522E+02  0.78503535351E+02  0.00000000000E+00 0.  1.
         13    1    3    3    0    0  0.56120786400E+02 -0.52493140466E+01  0.97616375217E+02  0.11272113677E+03  0.00000000000E+00 0. -1.
          2    1    1    2  501    0 -0.33809885867E+03 -0.20480374679E+03 -0.19242330316E+03  0.43963864768E+03  0.00000000000E+00 0. -1.
<scales pt_clust_5="13000.00000" pt_clust_6="13000.00000" pt_clust_7="13000.00000" pt_clust_8="13000.00000" pt_clust_9="13000.00000"></scales>
<clustering>
<clus scale="   90.959">  5  6 -1 -1</clus>
<clus scale="   91.773">  7  8 -1 -1</clus>
<clus scale="  100.096">  1  7  2 -1</clus>
<clus scale="  387.195">  5  9 -1 -1</clus>
<clus scale="  959.055">  2  5  1 -1</clus>
</clustering>
</event>
<event>
 9    1  0.3303741E-006  0.2203759E+03  0.7546771E-02  0.1165658E+00
          1   -1    0    0  502    0 -0.00000000000E+00  0.00000000000E+00  0.73869574428E+03  0.73869574428E+03  0.00000000000E+00 0. -1.
         21   -1    0    0  501  502  0.00000000000E+00 -0.00000000000E+00 -0.35411781725E+02  0.35411781725E+02  0.00000000000E+00 0.  1.
         23    2    1    2    0    0 -0.44470374495E+02 -0.19519284730E+02  0.23046866359E+03  0.25245646683E+03  0.90883695241E+02 0.  0.
         23    2    1    2    0    0  0.16789342755E+02  0.36465498674E+02  0.47832932400E+03  0.48872966557E+03  0.91902824670E+02 0.  0.
        -11    1    4    4    0    0  0.52895748537E+02  0.12376745117E+02  0.31907069468E+03  0.32366225025E+03  0.00000000000E+00 0. -1.
         11    1    4    4    0    0 -0.36106405782E+02  0.24088753557E+02  0.15925862932E+03  0.16506741532E+03  0.00000000000E+00 0.  1.
        -11    1    3    3    0    0  0.16330666302E+02 -0.22746257571E+02  0.22995344822E+02  0.36233531139E+02  0.00000000000E+00 0. -1.
         11    1    3    3    0    0 -0.60801040797E+02  0.32269728410E+01  0.20747331877E+03  0.21622293569E+03  0.00000000000E+00 0.  1.
          1    1    1    2  501    0  0.27681031740E+02 -0.16946213944E+02 -0.55140250373E+01  0.32921393612E+02  0.00000000000E+00 0. -1.
<scales pt_clust_5="13000.00000" pt_clust_6="13000.00000" pt_clust_7="13000.00000" pt_clust_8="13000.00000" pt_clust_9="13000.00000"></scales>
<clustering>
<clus scale="   90.884">  7  8 -1 -1</clus>
<clus scale="   91.903">  5  6 -1 -1</clus>
<clus scale="   32.456">  5  9 -1 -1</clus>
<clus scale="  103.046">  1  7  2 -1</clus>
<clus scale="  220.376">  2  5  1 -1</clus>
</clustering>
</event>
<event>
 9    1  0.3303741E-006  0.2738913E+03  0.7546771E-02  0.1144527E+00
          1   -1    0    0  502    0 -0.00000000000E+00  0.00000000000E+00  0.84961633584E+02  0.84961633584E+02  0.00000000000E+00 0. -1.
         21   -1    0    0  501  502  0.00000000000E+00 -0.00000000000E+00 -0.48772540169E+03  0.48772540169E+03  0.00000000000E+00 0. -1.
         23    2    1    2    0    0  0.77414771451E+01  0.14284987845E+02 -0.31504664679E+01  0.88221105123E+02  0.86654755231E+02 0.  0.
         23    2    1    2    0    0 -0.69474462315E+02 -0.53006226851E+02 -0.39155957219E+03  0.41115045862E+03  0.89941314458E+02 0.  0.
        -11    1    4    4    0    0 -0.29774632133E+02 -0.73500756123E+02 -0.27889681202E+03  0.28995227473E+03  0.00000000000E+00 0.  1.
         11    1    4    4    0    0 -0.39699830182E+02  0.20494529272E+02 -0.11266276017E+03  0.12119818388E+03  0.00000000000E+00 0. -1.
        -13    1    3    3    0    0 -0.24670483213E+02 -0.14510453681E+02  0.23755184449E+02  0.37195359874E+02  0.00000000000E+00 0.  1.
         13    1    3    3    0    0  0.32411960358E+02  0.28795441527E+02 -0.26905650917E+02  0.51025745249E+02  0.00000000000E+00 0. -1.
          1    1    1    2  501    0  0.61732985169E+02  0.38721239006E+02 -0.80537294442E+01  0.73315471532E+02  0.00000000000E+00 0. -1.
<scales pt_clust_5="13000.00000" pt_clust_6="13000.00000" pt_clust_7="13000.00000" pt_clust_8="13000.00000" pt_clust_9="13000.00000"></scales>
<clustering>
<clus scale="   86.655">  7  8 -1 -1</clus>
<clus scale="   88.165">  1  7  2 -1</clus>
<clus scale="   89.941">  5  6 -1 -1</clus>
<clus scale="   83.979">  5  9 -1 -1</clus>
<clus scale="  273.891">  2  5  1 -1</clus>
</clustering>
</event>
<event>
 9    1  0.3303741E-006  0.1254716E+03  0.7546771E-02  0.1247555E+00
          2   -1    0    0  502    0 -0.00000000000E+00  0.00000000000E+00  0.14764248619E+03  0.14764248619E+03  0.00000000000E+00 0. -1.
         21   -1    0    0  501  502  0.00000000000E+00 -0.00000000000E+00 -0.90053913172E+02  0.90053913172E+02  0.00000000000E+00 0.  1.
         23    2    1    2    0    0  0.34916109177E+02  0.25180498900E+00 -0.76677934473E+01  0.96269652348E+02  0.89385976647E+02 0.  0.
         23    2    1    2    0    0 -0.33361498649E+01  0.92755455697E+01  0.57313317247E+02  0.10749805311E+03  0.90409343807E+02 0.  0.
        -13    1    3    3    0    0  0.63739792662E+02 -0.61477157525E+01  0.48094687184E+01  0.64215937017E+02  0.00000000000E+00 0.  1.
         13    1    3    3    0    0 -0.28823683486E+02  0.63995207414E+01 -0.12477262166E+02  0.32053715332E+02  0.00000000000E+00 0. -1.
        -13    1    4    4    0    0  0.39848642924E+02 -0.79655564724E+01  0.42246936254E+02  0.58618837038E+02  0.00000000000E+00 0.  1.
         13    1    4    4    0    0 -0.43184792789E+02  0.17241102042E+02  0.15066380993E+02  0.48879216074E+02  0.00000000000E+00 0. -1.
          2    1    1    2  501    0 -0.31579959312E+02 -0.95273505587E+01  0.79430492152E+01  0.33928693898E+02  0.00000000000E+00 0. -1.
<scales pt_clust_5="13000.00000" pt_clust_6="13000.00000" pt_clust_7="13000.00000" pt_clust_8="13000.00000" pt_clust_9="13000.00000"></scales>
<clustering>
<clus scale="   89.386">  5  6 -1 -1</clus>
<clus scale="   90.409">  7  8 -1 -1</clus>
<clus scale="   32.986">  7  9 -1 -1</clus>
<clus scale="   95.964">  1  5  2 -1</clus>
<clus scale="  125.472">  2  5  1 -1</clus>
</clustering>
</event>
<event>
 9    1  0.3303741E-006  0.4381036E+03  0.7546771E-02  0.1072004E+00
         21   -1    0    0  501  502  0.00000000000E+00  0.00000000000E+00  0.29682095126E+03  0.29682095126E+03  0.00000000000E+00 0. -1.
          1   -1    0    0  502    0 -0.00000000000E+00 -0.00000000000E+00 -0.54856438216E+03  0.54856438216E+03  0.00000000000E+00 0. -1.
         23    2    1    2    0    0 -0.47982332274E+02 -0.94074011074E+02 -0.36732154222E+03  0.39229260197E+03  0.88408972472E+02 0.  0.
         23    2    1    2    0    0 -0.11902519965E+03  0.18610544846E+03  0.10665152380E+03  0.26219751110E+03  0.92578351689E+02 0.  0.
        -11    1    3    3    0    0  0.24357229866E+02 -0.18023041984E+02 -0.54837976529E+02  0.62652281354E+02  0.00000000000E+00 0.  1.
         11    1    3    3    0    0 -0.72339562140E+02 -0.76050969090E+02 -0.31248356569E+03  0.32964032062E+03  0.00000000000E+00 0. -1.
        -13    1    4    4    0    0 -0.40737866586E+02  0.19424617158E+02 -0.71880416190E+01  0.45700738156E+02  0.00000000000E+00 0. -1.
         13    1    4    4    0    0 -0.78287333066E+02  0.16668083130E+03  0.11383956542E+03  0.21649677294E+03  0.00000000000E+00 0.  1.
          1    1    1    2  501    0  0.16700753193E+03 -0.92031437383E+02  0.89265875254E+01  0.19089522035E+03  0.00000000000E+00 0. -1.
<scales pt_clust_5="13000.00000" pt_clust_6="13000.00000" pt_clust_7="13000.00000" pt_clust_8="13000.00000" pt_clust_9="13000.00000"></scales>
<clustering>
<clus scale="   88.409">  5  6 -1 -1</clus>
<clus scale="   92.578">  7  8 -1 -1</clus>
<clus scale="  137.726">  2  5  1 -1</clus>
<clus scale="  200.743">  7  9 -1 -1</clus>
<clus scale="  438.104">  1  5  2 -1</clus>
</clustering>
</event>
<event>
 9    1  0.3303741E-006  0.4063956E+03  0.7546771E-02  0.1082946E+00
         -4   -1    0    0    0  501 -0.00000000000E+00  0.00000000000E+00  0.22611493566E+03  0.22611493566E+03  0.00000000000E+00 0. -1.
         21   -1    0    0  501  502  0.00000000000E+00 -0.00000000000E+00 -0.32725452105E+03  0.32725452105E+03  0.00000000000E+00 0. -1.
         23    2    1    2    0    0 -0.60053155124E+02  0.80140749450E+02  0.18705857399E+02  0.12967103784E+03  0.80223112568E+02 0.  0.
         23    2    1    2    0    0  0.21808091064E+02  0.20539845750E+02  0.12392792596E+03  0.15719378010E+03  0.91947134652E+02 0.  0.
        -13    1    3    3    0    0 -0.19442750760E+02  0.41030514418E+02 -0.30615569065E+02  0.54761635656E+02  0.00000000000E+00 0.  1.
         13    1    3    3    0    0 -0.40610404364E+02  0.39110235032E+02  0.49321426464E+02  0.74909402182E+02  0.00000000000E+00 0. -1.
        -13    1    4    4    0    0 -0.13865149621E+02 -0.18231582607E+02  0.93685959537E+02  0.96445279784E+02  0.00000000000E+00 0.  1.
         13    1    4    4    0    0  0.35673240685E+02  0.38771428357E+02  0.30241966426E+02  0.60748500320E+02  0.00000000000E+00 0. -1.
         -4    1    1    2    0  502  0.38245064060E+02 -0.10068059520E+03 -0.24377336875E+03  0.26650463877E+03  0.00000000000E+00 0. -1.
<scales pt_clust_5="13000.00000" pt_clust_6="13000.00000" pt_clust_7="13000.00000" pt_clust_8="13000.00000" pt_clust_9="13000.00000"></scales>
<clustering>
<clus scale="   80.223">  5  6 -1 -1</clus>
<clus scale="   91.947">  7  8 -1 -1</clus>
<clus scale="  107.700">  7  9 -1 -1</clus>
<clus scale="  128.315">  1  5  2 -1</clus>
<clus scale="  406.396">  2  5  1 -1</clus>
</clustering>
</event>
<event>
 9    1  0.3303741E-006  0.2092702E+03  0.7546771E-02  0.1174258E+00
         -4   -1    0    0    0  501 -0.00000000000E+00  0.00000000000E+00  0.41204524200E+03  0.41204524200E+03  0.00000000000E+00 0.  1.
         21   -1    0    0  501  502  0.00000000000E+00 -0.00000000000E+00 -0.12659790420E+03  0.12659790420E+03  0.00000000000E+00 0. -1.
         23    2    1    2    0    0  0.23004880303E+02  0.17355648528E+02  0.31238082476E+03  0.32764684719E+03  0.94552809279E+02 0.  0.
         23    2    1    2    0    0  0.56844845908E+02 -0.53690132695E+02 -0.29296301183E+02  0.12323664766E+03  0.90636809344E+02 0.  0.
        -11    1    4    4    0    0  0.26774243699E+02 -0.37352357399E+02  0.29922937800E+02  0.54840139821E+02  0.00000000000E+00 0.  1.
         11    1    4    4    0    0  0.30070602209E+02 -0.16337775296E+02 -0.59219238983E+02  0.68396507838E+02  0.00000000000E+00 0. -1.
        -11    1    3    3    0    0 -0.51827530609E+01  0.52287296732E+02  0.19567418687E+03  0.20260604565E+03  0.00000000000E+00 0.  1.
         11    1    3    3    0    0  0.28187633364E+02 -0.34931648204E+02  0.11670663789E+03  0.12504080153E+03  0.00000000000E+00 0. -1.
         -4    1    1    2    0  502 -0.79849726211E+02  0.36334484167E+02  0.23628142235E+01  0.87759651360E+02  0.00000000000E+00 0.  1.
<scales pt_clust_5="13000.00000" pt_clust_6="13000.00000" pt_clust_7="13000.00000" pt_clust_8="13000.00000" pt_clust_9="13000.00000"></scales>
<clustering>
<clus scale="   90.637">  5  6 -1 -1</clus>
<clus scale="   87.728">  5  9 -1 -1</clus>
<clus scale="   94.553">  7  8 -1 -1</clus>
<clus scale="   98.847">  1  7  2 -1</clus>
<clus scale="  209.270">  2  5  1 -1</clus>
</clustering>
</event>
<event>
 9    1  0.3303741E-006  0.2676640E+03  0.7546771E-02  0.1130189E+00
         21   -1    0    0  501  502  0.00000000000E+00  0.00000000000E+00  0.88756817599E+03  0.88756817599E+03  0.00000000000E+00 0.  1.
         -3   -1    0    0    0  501 -0.00000000000E+00 -0.00000000000E+00 -0.46892799941E+02  0.46892799941E+02  0.00000000000E+00 0.  1.
         23    2    1    2    0    0  0.97669956399E+02  0.18184742121E+02  0.20526175228E+03  0.24497239026E+03  0.89492903695E+02 0.  0.
         23    2    1    2    0    0 -0.42529071545E+02  0.66114942331E+02  0.14850035097E+03  0.19226480385E+03  0.93453159575E+02 0.  0.
        -13    1    3    3    0    0  0.50147990751E+02  0.99152859664E+01  0.22321551944E+02  0.55779795207E+02  0.00000000000E+00 0.  1.
         13    1    3    3    0    0  0.47521965648E+02  0.82694561546E+01  0.18294020033E+03  0.18919259505E+03  0.00000000000E+00 0. -1.
        -13    1    4    4    0    0 -0.45898318135E+02  0.86700428235E+02  0.13682932201E+03  0.16836235691E+03  0.00000000000E+00 0. -1.
         13    1    4    4    0    0  0.33692465903E+01 -0.20585485904E+02  0.11671028962E+02  0.23902446936E+02  0.00000000000E+00 0.  1.
         -3    1    1    2    0  502 -0.55140884855E+02 -0.84299684453E+02  0.48691327281E+03  0.49722378183E+03  0.00000000000E+00 0.  1.
<scales pt_clust_5="13000.00000" pt_clust_6="13000.00000" pt_clust_7="13000.00000" pt_clust_8="13000.00000" pt_clust_9="13000.00000"></scales>
<clustering>
<clus scale="   89.493">  5  6 -1 -1</clus>
<clus scale="   93.453">  7  8 -1 -1</clus>
<clus scale="  100.732">  7  9 -1 -1</clus>
<clus scale="  133.713">  2  5  1 -1</clus>
<clus scale="  267.664">  1  5  2 -1</clus>
</clustering>
</event>
<event>
 9    1  0.3303741E-006  0.1983219E+03  0.7546771E-02  0.1180292E+00
          1   -1    0    0  502    0 -0.00000000000E+00  0.00000000000E+00  0.53286695711E+02  0.53286695711E+02  0.00000000000E+00 0. -1.
         21   -1    0    0  501  502  0.00000000000E+00 -0.00000000000E+00 -0.49565035731E+03  0.49565035731E+03  0.00000000000E+00 0.  1.
         23    2    1    2    0    0  0.38061861072E+02 -0.16311066254E+02 -0.26180336301E+03  0.28073263524E+03  0.92493542776E+02 0.  0.
         23    2    1    2    0    0 -0.15777017253E+00  0.37296177263E+02 -0.23215338929E+02  0.10500352525E+03  0.95371686702E+02 0.  0.
        -13    1    4    4    0    0 -0.34780967889E+02  0.50468146969E+02 -0.11848287978E-01  0.61292330076E+02  0.00000000000E+00 0.  1.
         13    1    4    4    0    0  0.34623197716E+02 -0.13171969706E+02 -0.23203490641E+02  0.43711195179E+02  0.00000000000E+00 0. -1.
        -13    1    3    3    0    0  0.22525321608E+02 -0.52281368268E+02 -0.10881580018E+03  0.12280720643E+03  0.00000000000E+00 0. -1.
         13    1    3    3    0    0  0.15536539464E+02  0.35970302014E+02 -0.15298756282E+03  0.15792542881E+03  0.00000000000E+00 0.  1.
          1    1    1    2  501    0 -0.37904090900E+02 -0.20985111008E+02 -0.15734495966E+03  0.16320089253E+03  0.00000000000E+00 0. -1.
<scales pt_clust_5="13000.00000" pt_clust_6="13000.00000" pt_clust_7="13000.00000" pt_clust_8="13000.00000" pt_clust_9="13000.00000"></scales>
<clustering>
<clus scale="   92.494">  7  8 -1 -1</clus>
<clus scale="   95.372">  5  6 -1 -1</clus>
<clus scale="   43.325">  5  9 -1 -1</clus>
<clus scale="  101.340">  1  7  2 -1</clus>
<clus scale="  198.322">  2  5  1 -1</clus>
</clustering>
</event>
<event>
 9    1  0.3303741E-006  0.1776374E+03  0.7546771E-02  0.1200160E+00
         21   -1    0    0  501  502  0.00000000000E+00  0.00000000000E+00  0.30433741599E+03  0.30433741599E+03  0.00000000000E+00 0.  1.
          1   -1    0    0  502    0 -0.00000000000E+00 -0.00000000000E+00 -0.61711560328E+02  0.61711560328E+02  0.00000000000E+00 0. -1.
         23    2    1    2    0    0  0.93911631148E+01  0.26087362447E+02  0.11837979652E+03  0.14927227089E+03  0.86600751781E+02 0.  0.
         23    2    1    2    0    0 -0.41747555778E+02  0.26718534587E+02  0.38026515509E+02  0.11062017660E+03  0.91291122709E+02 0.  0.
        -11    1    4    4    0    0 -0.41947393337E+02 -0.25785345883E+02  0.29580164074E+02  0.57440873747E+02  0.00000000000E+00 0. -1.
         11    1    4    4    0    0  0.19983755904E+00  0.52503880471E+02  0.84463514351E+01  0.53179302855E+02  0.00000000000E+00 0.  1.
        -13    1    3    3    0    0 -0.23767174399E+02  0.46090183826E+02  0.61240572446E+02  0.80247064354E+02  0.00000000000E+00 0.  1.
         13    1    3    3    0    0  0.33158337514E+02 -0.20002821379E+02  0.57139224076E+02  0.69025206539E+02  0.00000000000E+00 0. -1.
          1    1    1    2  501    0  0.32356392663E+02 -0.52805897034E+02  0.86219543632E+02  0.10615652882E+03  0.00000000000E+00 0. -1.
<scales pt_clust_5="13000.00000" pt_clust_6="13000.00000" pt_clust_7="13000.00000" pt_clust_8="13000.00000" pt_clust_9="13000.00000"></scales>
<clustering>
<clus scale="   86.601">  7  8 -1 -1</clus>
<clus scale="   90.931">  2  7  1 -1</clus>
<clus scale="   91.291">  5  6 -1 -1</clus>
<clus scale="   58.382">  5  9 -1 -1</clus>
<clus scale="  177.637">  1  5  2 -1</clus>
</clustering>
</event>
<event>
 9    1  0.3303741E-006  0.3554256E+03  0.7546771E-02  0.1107043E+00
         21   -1    0    0  501  502  0.00000000000E+00  0.00000000000E+00  0.74404125032E+02  0.74404125032E+02  0.00000000000E+00 0. -1.
          2   -1    0    0  502    0 -0.00000000000E+00 -0.00000000000E+00 -0.70678340100E+03  0.70678340100E+03  0.00000000000E+00 0. -1.
         23    2    1    2    0    0 -0.48793790224E+02 -0.60079743018E-01 -0.11865378140E+03  0.15649461339E+03  0.89615883672E+02 0.  0.
         23    2    1    2    0    0  0.13827588740E+03  0.66649156799E+02 -0.46995170820E+03  0.50487098113E+03  0.10236097110E+03 0.  0.
        -11    1    3    3    0    0 -0.41375485281E+00  0.20684971838E+02  0.56984821874E+01  0.21459542219E+02  0.00000000000E+00 0. -1.
         11    1    3    3    0    0 -0.48380035371E+02 -0.20745051581E+02 -0.12435226359E+03  0.13503507117E+03  0.00000000000E+00 0.  1.
        -13    1    4    4    0    0  0.14949229507E+03  0.42821249518E+02 -0.36661785338E+03  0.39823392135E+03  0.00000000000E+00 0. -1.
         13    1    4    4    0    0 -0.11216407665E+02  0.23827907281E+02 -0.10333385482E+03  0.10663705978E+03  0.00000000000E+00 0.  1.
          2    1    1    2  501    0 -0.89482097178E+02 -0.66589077056E+02 -0.43773786368E+02  0.11982193151E+03  0.00000000000E+00 0. -1.
<scales pt_clust_5="13000.00000" pt_clust_6="13000.00000" pt_clust_7="13000.00000" pt_clust_8="13000.00000" pt_clust_9="13000.00000"></scales>
<clustering>
<clus scale="   89.616">  5  6 -1 -1</clus>
<clus scale="  102.038">  2  5  1 -1</clus>
<clus scale="  102.361">  7  8 -1 -1</clus>
<clus scale="  117.245">  7  9 -1 -1</clus>
<clus scale="  355.426">  1  5  2 -1</clus>
</clustering>
</event>
<event>
 9    1  0.3303741E-006  0.2820809E+03  0.7546771E-02  0.1130608E+00
         21   -1    0    0  501  502  0.00000000000E+00  0.00000000000E+00  0.67521138352E+02  0.67521138352E+02  0.00000000000E+00 0.  1.
         -2   -1    0    0    0  501 -0.00000000000E+00 -0.00000000000E+00 -0.64365260989E+03  0.64365260989E+03  0.00000000000E+00 0.  1.
         23    2    1    2    0    0 -0.46375058573E+02  0.46256455939E+02 -0.73692521195E+02  0.13496671115E+03  0.92168973446E+02 0.  0.
         23    2    1    2    0    0 -0.28796402987E+02  0.31401379872E+02 -0.44242519531E+03  0.45258204411E+03  0.85294628925E+02 0.  0.
        -11    1    4    4    0    0 -0.35156803888E+02  0.58086771685E+02 -0.31164480702E+03  0.31895541953E+03  0.00000000000E+00 0.  1.
         11    1    4    4    0    0  0.63604009011E+01 -0.26685391813E+02 -0.13078038829E+03  0.13362662458E+03  0.00000000000E+00 0. -1.
        -13    1    3    3    0    0 -0.27533670634E+02 -0.25532218332E+02 -0.34696560903E+02  0.51125810800E+02  0.00000000000E+00 0.  1.
         13    1    3    3    0    0 -0.18841387939E+02  0.71788674271E+02 -0.38995960293E+02  0.83840900354E+02  0.00000000000E+00 0. -1.
         -2    1    1    2    0  502  0.75171461560E+02 -0.77657835811E+02 -0.60013755039E+02  0.12362499298E+03  0.00000000000E+00 0.  1.
<scales pt_clust_5="13000.00000" pt_clust_6="13000.00000" pt_clust_7="13000.00000" pt_clust_8="13000.00000" pt_clust_9="13000.00000"></scales>
<clustering>
<clus scale="   85.295">  5  6 -1 -1</clus>
<clus scale="   92.169">  7  8 -1 -1</clus>
<clus scale="  108.081">  5  9 -1 -1</clus>
<clus scale="  113.073">  2  7  1 -1</clus>
<clus scale="  282.081">  1  5  2 -1</clus>
</clustering>
</event>
<event>
 9    1  0.3303741E-006  0.2906021E+03  0.7546771E-02  0.1129369E+00
          2   -1    0    0  502    0 -0.00000000000E+00  0.00000000000E+00  0.14437302179E+03  0.14437302179E+03  0.00000000000E+00 0. -1.
         21   -1    0    0  501  502  0.00000000000E+00 -0.00000000000E+00 -0.32167625394E+03  0.32167625394E+03  0.00000000000E+00 0. -1.
         23    2    1    2    0    0  0.21421021983E+02 -0.59493022446E+02  0.28019504289E+02  0.11023047957E+03  0.85833478914E+02 0.  0.
         23    2    1    2    0    0  0.94711057415E+02 -0.40914461192E+01 -0.30595407219E+02  0.13659451811E+03  0.93461538120E+02 0.  0.
        -11    1    4    4    0    0  0.63957835415E+02  0.46848058108E+01 -0.63823386950E+02  0.90476388291E+02  0.00000000000E+00 0. -1.
         11    1    4    4    0    0  0.30753222000E+02 -0.87762519300E+01  0.33227979731E+02  0.46118129823E+02  0.00000000000E+00 0.  1.
        -13    1    3    3    0    0  0.28561038829E+02  0.10481453570E+02 -0.76423069984E+01  0.31368752991E+02  0.00000000000E+00 0.  1.
         13    1    3    3    0    0 -0.71400168465E+01 -0.69974476016E+02  0.35661811288E+02  0.78861726576E+02  0.00000000000E+00 0. -1.
          2    1    1    2  501    0 -0.11613207940E+03  0.63584468565E+02 -0.17472732923E+03  0.21922427805E+03  0.00000000000E+00 0. -1.
<scales pt_clust_5="13000.00000" pt_clust_6="13000.00000" pt_clust_7="13000.00000" pt_clust_8="13000.00000" pt_clust_9="13000.00000"></scales>
<clustering>
<clus scale="   85.833">  7  8 -1 -1</clus>
<clus scale="   93.462">  5  6 -1 -1</clus>
<clus scale="  106.610">  1  7  2 -1</clus>
<clus scale="  119.043">  5  9 -1 -1</clus>
<clus scale="  290.602">  2  5  1 -1</clus>
</clustering>
</event>
<event>
 9    1  0.3303741E-006  0.1679476E+03  0.7546771E-02  0.1186935E+00
         21   -1    0    0  501  502  0.00000000000E+00  0.00000000000E+00  0.72306266147E+02  0.72306266147E+02  0.00000000000E+00 0. -1.
          2   -1    0    0  502    0 -0.00000000000E+00 -0.00000000000E+00 -0.34399897464E+03  0.34399897464E+03  0.00000000000E+00 0. -1.
         23    2    1    2    0    0  0.10135242538E+03 -0.46463415386E+02 -0.94220792819E+02  0.17196395056E+03  0.90900381695E+02 0.  0.
         23    2    1    2    0    0 -0.48715106898E+02  0.40360765568E+02 -0.11636587226E+03  0.16345941233E+03  0.95790449495E+02 0.  0.
        -11    1    4    4    0    0 -0.20056600780E+02  0.58104407122E+02 -0.11418905493E+03  0.12968241835E+03  0.00000000000E+00 0. -1.
         11    1    4    4    0    0 -0.28658506118E+02 -0.17743641555E+02 -0.21768173234E+01  0.33776993978E+02  0.00000000000E+00 0.  1.
        -11    1    3    3    0    0  0.25329041021E+02  0.15857989693E+02 -0.61469288382E+02  0.68348442340E+02  0.00000000000E+00 0.  1.
         11    1    3    3    0    0  0.76023384355E+02 -0.62321405079E+02 -0.32751504437E+02  0.10361550822E+03  0.00000000000E+00 0. -1.
          2    1    1    2  501    0 -0.52637318478E+02  0.61026498186E+01 -0.61106043414E+02  0.80881877902E+02  0.00000000000E+00 0. -1.
<scales pt_clust_5="13000.00000" pt_clust_6="13000.00000" pt_clust_7="13000.00000" pt_clust_8="13000.00000" pt_clust_9="13000.00000"></scales>
<clustering>
<clus scale="   90.900">  7  8 -1 -1</clus>
<clus scale="   95.790">  5  6 -1 -1</clus>
<clus scale="   52.990">  5  9 -1 -1</clus>
<clus scale="  143.854">  2  7  1 -1</clus>
<clus scale="  167.948">  1  5  2 -1</clus>
</clustering>
</event>
<event>
 9    1  0.3303741E-006  0.2769545E+03  0.7546771E-02  0.1145517E+00
          1   -1    0    0  502    0 -0.00000000000E+00  0.00000000000E+00  0.31595942212E+03  0.31595942212E+03  0.00000000000E+00 0. -1.
         21   -1    0    0  501  502  0.00000000000E+00 -0.00000000000E+00 -0.13287552220E+03  0.13287552220E+03  0.00000000000E+00 0. -1.
         23    2    1    2    0    0  0.50466018350E+02  0.13153826310E+02  0.14779476304E+03  0.16964126535E+03  0.64923222150E+02 0.  0.
         23    2    1    2    0    0 -0.25127588071E+02  0.28519045510E+02  0.13584688550E+03  0.16743266117E+03  0.90191951339E+02 0.  0.
        -11    1    4    4    0    0 -0.35539190481E+02  0.56145165190E+02  0.10826570974E+03  0.12703061654E+03  0.00000000000E+00 0.  1.
         11    1    4    4    0    0  0.10411602410E+02 -0.27626119680E+02  0.27581175762E+02  0.40402044624E+02  0.00000000000E+00 0. -1.
        -11    1    3    3    0    0  0.25289698091E+02  0.23649638702E+02  0.13526185690E+03  0.13962322218E+03  0.00000000000E+00 0. -1.
         11    1    3    3    0    0  0.25176320259E+02 -0.10495812393E+02  0.12532906138E+02  0.30018043171E+02  0.00000000000E+00 0.  1.
          1    1    1    2  501    0 -0.25338430279E+02 -0.41672871819E+02 -0.10055774861E+03  0.11176101781E+03  0.00000000000E+00 0. -1.
<scales pt_clust_5="13000.00000" pt_clust_6="13000.00000" pt_clust_7="13000.00000" pt_clust_8="13000.00000" pt_clust_9="13000.00000"></scales>
<clustering>
<clus scale="   64.923">  7  8 -1 -1</clus>
<clus scale="   83.276">  1  7  2 -1</clus>
<clus scale="   90.192">  5  6 -1 -1</clus>
<clus scale="   47.455">  5  9 -1 -1</clus>
<clus scale="  276.954">  2  5  1 -1</clus>
</clustering>
</event>
<event>
 9    1  0.3303741E-006  0.1544565E+03  0.7546771E-02  0.1208026E+00
          1   -1    0    0  502    0 -0.00000000000E+00  0.00000000000E+00  0.60089872039E+03  0.60089872039E+03  0.00000000000E+00 0. -1.
         21   -1    0    0  501  502  0.00000000000E+00 -0.00000000000E+00 -0.36370962426E+02  0.36370962426E+02  0.00000000000E+00 0.  1.
         23    2    1    2    0    0 -0.41741161847E+02 -0.64850773420E+02  0.12333646768E+03  0.16982282907E+03  0.87635390164E+02 0.  0.
         23    2    1    2    0    0  0.38723120252E+02  0.24677211874E+02  0.37844475832E+03  0.39288043439E+03  0.95006082926E+02 0.  0.
        -11    1    4    4    0    0  0.11922504231E+02 -0.35305490468E+02  0.98065169808E+02  0.10490663131E+03  0.00000000000E+00 0.  1.
         11    1    4    4    0    0  0.26800616020E+02  0.59982702341E+02  0.28037958852E+03  0.28797380307E+03  0.00000000000E+00 0. -1.
        -13    1    3    3    0    0 -0.37113304573E+02 -0.86729118140E+02  0.97928563563E+02  0.13597551571E+03  0.00000000000E+00 0.  1.
         13    1    3    3    0    0 -0.46278572741E+01  0.21878344720E+02  0.25407904115E+02  0.33847313367E+02  0.00000000000E+00 0. -1.
          1    1    1    2  501    0  0.30180415959E+01  0.40173561546E+02  0.62746531961E+02  0.74566419356E+02  0.00000000000E+00 0. -1.
<scales pt_clust_5="13000.00000" pt_clust_6="13000.00000" pt_clust_7="13000.00000" pt_clust_8="13000.00000" pt_clust_9="13000.00000"></scales>
<clustering>
<clus scale="   87.635">  7  8 -1 -1</clus>
<clus scale="   95.006">  5  6 -1 -1</clus>
<clus scale="   40.287">  5  9 -1 -1</clus>
<clus scale="  116.739">  1  7  2 -1</clus>
<clus scale="  154.456">  2  5  1 -1</clus>
</clustering>
</event>
<event>
 9    1  0.4901148E-006  0.3080306E+03  0.7546771E-02  0.1121320E+00
         21   -1    0    0  501  502  0.00000000000E+00  0.00000000000E+00  0.11078453577E+03  0.11078453577E+03  0.00000000000E+00 0. -1.
          2   -1    0    0  502    0 -0.00000000000E+00 -0.00000000000E+00 -0.44488287428E+03  0.44488287428E+03  0.00000000000E+00 0. -1.
         23    2    1    2    0    0 -0.52956449049E+02 -0.27305506223E+02 -0.11898748802E+02  0.10991477882E+03  0.91595317642E+02 0.  0.
         23    2    1    2    0    0 -0.53501758448E+01  0.16831239082E+02 -0.36240139320E+03  0.37415963030E+03  0.91371462526E+02 0.  0.
        -11    1    4    4    0    0 -0.11241389455E+02 -0.34835568661E+02 -0.96245375393E+02  0.10297115113E+03  0.00000000000E+00 0.  1.
         11    1    4    4    0    0  0.58912136101E+01  0.51666807743E+02 -0.26615601780E+03  0.27118847917E+03  0.00000000000E+00 0. -1.
        -11    1    3    3    0    0  0.10079159981E+02  0.19954061489E+02  0.14707310472E+02  0.26759279085E+02  0.00000000000E+00 0.  1.
         11    1    3    3    0    0 -0.63035609030E+02 -0.47259567712E+02 -0.26606059274E+02  0.83155499735E+02  0.00000000000E+00 0. -1.
          2    1    1    2  501    0  0.58306624894E+02  0.10474267141E+02  0.40201803488E+02  0.71593000931E+02  0.00000000000E+00 0. -1.
<scales pt_clust_5="13000.00000" pt_clust_6="13000.00000" pt_clust_7="13000.00000" pt_clust_8="13000.00000" pt_clust_9="13000.00000"></scales>
<clustering>
<clus scale="   91.371">  5  6 -1 -1</clus>
<clus scale="   59.240">  5  9 -1 -1</clus>
<clus scale="   91.595">  7  8 -1 -1</clus>
<clus scale="  109.269">  2  7  1 -1</clus>
<clus scale="  308.031">  1  5  2 -1</clus>
</clustering>
</event>
<event>
 9    1  0.3303741E-006  0.4328681E+03  0.7546771E-02  0.1077540E+00
         -3   -1    0    0    0  501 -0.00000000000E+00  0.00000000000E+00  0.30277313848E+03  0.30277313848E+03  0.00000000000E+00 0.  1.
         21   -1    0    0  501  502  0.00000000000E+00 -0.00000000000E+00 -0.25649755866E+03  0.25649755866E+03  0.00000000000E+00 0.  1.
         23    2    1    2    0    0 -0.81438360296E+02  0.53851672559E+01 -0.76413655334E+01  0.12305766057E+03  0.91780122055E+02 0.  0.
         23    2    1    2    0    0 -0.90776181358E+02  0.47440684651E+02  0.17326433506E+03  0.22012921391E+03  0.89137014489E+02 0.  0.
        -11    1    4    4    0    0 -0.16936302219E+02 -0.25355263685E+02  0.54665290329E+02  0.62594102726E+02  0.00000000000E+00 0.  1.
         11    1    4    4    0    0 -0.73839879140E+02  0.72795948335E+02  0.11859904473E+03  0.15753511118E+03  0.00000000000E+00 0. -1.
        -13    1    3    3    0    0  0.15443796901E+02  0.16883498973E+02  0.80204094487E+01  0.24246450627E+02  0.00000000000E+00 0. -1.
         13    1    3    3    0    0 -0.96882157197E+02 -0.11498331717E+02 -0.15661774982E+02  0.98811209946E+02  0.00000000000E+00 0.  1.
         -3    1    1    2    0  502  0.17221454165E+03 -0.52825851906E+02 -0.11934738970E+03  0.21608382266E+03  0.00000000000E+00 0.  1.
<scales pt_clust_5="13000.00000" pt_clust_6="13000.00000" pt_clust_7="13000.00000" pt_clust_8="13000.00000" pt_clust_9="13000.00000"></scales>
<clustering>
<clus scale="   89.137">  5  6 -1 -1</clus>
<clus scale="   91.780">  7  8 -1 -1</clus>
<clus scale="  122.820">  1  7  2 -1</clus>
<clus scale="  164.498">  5  9 -1 -1</clus>
<clus scale="  432.868">  2  5  1 -1</clus>
</clustering>
</event>
<event>
 9    1  0.3303741E-006  0.2946297E+03  0.7546771E-02  0.1116767E+00
         21   -1    0    0  501  502  0.00000000000E+00  0.00000000000E+00  0.54318393253E+02  0.54318393253E+02  0.00000000000E+00 0. -1.
          1   -1    0    0  502    0 -0.00000000000E+00 -0.00000000000E+00 -0.97193223813E+03  0.97193223813E+03  0.00000000000E+00 0. -1.
         23    2    1    2    0    0 -0.85537331963E+02 -0.65497532093E+02 -0.46982203793E+03  0.49022436335E+03  0.89334300393E+02 0.  0.
         23    2    1    2    0    0 -0.21767593556E+02  0.88773906354E+02 -0.38195546453E+03  0.40800064317E+03  0.11054371698E+03 0.  0.
        -13    1    3    3    0    0 -0.80379935471E+02 -0.13806905430E+02 -0.35420787586E+03  0.36347597443E+03  0.00000000000E+00 0. -1.
         13    1    3    3    0    0 -0.51573964919E+01 -0.51690626663E+02 -0.11561416207E+03  0.12674838892E+03  0.00000000000E+00 0.  1.
        -13    1    4    4    0    0  0.17311294889E+02 -0.16313487888E+02 -0.28144007514E+02  0.36849640117E+02  0.00000000000E+00 0. -1.
         13    1    4    4    0    0 -0.39078888445E+02  0.10508739424E+03 -0.35381145702E+03  0.37115100305E+03  0.00000000000E+00 0.  1.
          1    1    1    2  501    0  0.10730492552E+03 -0.23276374261E+02 -0.65836342419E+02  0.12802562487E+03  0.00000000000E+00 0. -1.
<scales pt_clust_5="13000.00000" pt_clust_6="13000.00000" pt_clust_7="13000.00000" pt_clust_8="13000.00000" pt_clust_9="13000.00000"></scales>
<clustering>
<clus scale="   89.334">  5  6 -1 -1</clus>
<clus scale="  110.544">  7  8 -1 -1</clus>
<clus scale="  109.800">  7  9 -1 -1</clus>
<clus scale="  139.954">  2  5  1 -1</clus>
<clus scale="  294.630">  1  5  2 -1</clus>
</clustering>
</event>
<event>
 9    1  0.3303741E-006  0.2085226E+03  0.7546771E-02  0.1175553E+00
         21   -1    0    0  501  502  0.00000000000E+00  0.00000000000E+00  0.11889883178E+03  0.11889883178E+03  0.00000000000E+00 0. -1.
          1   -1    0    0  502    0 -0.00000000000E+00 -0.00000000000E+00 -0.19709718589E+03  0.19709718589E+03  0.00000000000E+00 0. -1.
         23    2    1    2    0    0  0.57693927905E+00 -0.18614860331E+02 -0.34266999117E+02  0.10289597905E+03  0.95218219853E+02 0.  0.
         23    2    1    2    0    0 -0.65891401378E+02  0.66046868268E+02 -0.25109910108E+02  0.13021444806E+03  0.87300797895E+02 0.  0.
        -11    1    3    3    0    0  0.34245314450E+02 -0.43328986734E+02 -0.18265348073E+02  0.58170143488E+02  0.00000000000E+00 0. -1.
         11    1    3    3    0    0 -0.33668375171E+02  0.24714126404E+02 -0.16001651043E+02  0.44725835561E+02  0.00000000000E+00 0.  1.
        -13    1    4    4    0    0 -0.24816453264E+02  0.34467071988E+02 -0.55700981048E+02  0.70045947019E+02  0.00000000000E+00 0. -1.
         13    1    4    4    0    0 -0.41074948114E+02  0.31579796280E+02  0.30591070940E+02  0.60168501036E+02  0.00000000000E+00 0.  1.
          1    1    1    2  501    0  0.65314462098E+02 -0.47432007938E+02 -0.18821444876E+02  0.82885590566E+02  0.00000000000E+00 0. -1.
<scales pt_clust_5="13000.00000" pt_clust_6="13000.00000" pt_clust_7="13000.00000" pt_clust_8="13000.00000" pt_clust_9="13000.00000"></scales>
<clustering>
<clus scale="   87.301">  7  8 -1 -1</clus>
<clus scale="   80.720">  7  9 -1 -1</clus>
<clus scale="   95.218">  5  6 -1 -1</clus>
<clus scale="   97.022">  2  5  1 -1</clus>
<clus scale="  208.523">  1  5  2 -1</clus>
</clustering>
</event>
<event>
 9    1  0.3303741E-006  0.1675073E+03  0.7546771E-02  0.1202905E+00
         -1   -1    0    0    0  501 -0.00000000000E+00  0.00000000000E+00  0.66045518765E+03  0.66045518765E+03  0.00000000000E+00 0.  1.
         21   -1    0    0  501  502  0.00000000000E+00 -0.00000000000E+00 -0.27762108191E+02  0.27762108191E+02  0.00000000000E+00 0. -1.
         23    2    1    2    0    0  0.17938028825E+02 -0.22890657974E+02  0.20993801324E+03  0.23348600788E+03  0.97959131147E+02 0.  0.
         23    2    1    2    0    0 -0.23951511889E+01 -0.26374261519E+02  0.36295597586E+03  0.37570885731E+03  0.93374336004E+02 0.  0.
        -11    1    4    4    0    0  0.36015353440E+02  0.12464543441E+02  0.97353479494E+02  0.10454745571E+03  0.00000000000E+00 0.  1.
         11    1    4    4    0    0 -0.38410504629E+02 -0.38838804960E+02  0.26560249637E+03  0.27116140159E+03  0.00000000000E+00 0. -1.
        -13    1    3    3    0    0  0.78172608349E+01 -0.61195038475E+02  0.14232367848E+03  0.15511921788E+03  0.00000000000E+00 0. -1.
         13    1    3    3    0    0  0.10120767990E+02  0.38304380501E+02  0.67614334760E+02  0.78366790002E+02  0.00000000000E+00 0.  1.
         -1    1    1    2    0  502 -0.15542877636E+02  0.49264919493E+02  0.59799090354E+02  0.79022430645E+02  0.00000000000E+00 0.  1.
<scales pt_clust_5="13000.00000" pt_clust_6="13000.00000" pt_clust_7="13000.00000" pt_clust_8="13000.00000" pt_clust_9="13000.00000"></scales>
<clustering>
<clus scale="   93.374">  5  6 -1 -1</clus>
<clus scale="   51.659">  5  9 -1 -1</clus>
<clus scale="   97.959">  7  8 -1 -1</clus>
<clus scale="  102.185">  1  7  2 -1</clus>
<clus scale="  167.507">  2  5  1 -1</clus>
</clustering>
</event>
<event>
 9    1  0.3303741E-006  0.5421023E+03  0.7546771E-02  0.1057828E+00
         21   -1    0    0  501  502  0.00000000000E+00  0.00000000000E+00  0.34891287943E+03  0.34891287943E+03  0.00000000000E+00 0. -1.
          4   -1    0    0  502    0 -0.00000000000E+00 -0.00000000000E+00 -0.33029937548E+03  0.33029937548E+03  0.00000000000E+00 0. -1.
         23    2    1    2    0    0 -0.18199561156E+02 -0.54969539031E+02 -0.72062303190E+02  0.12957874022E+03  0.90800881757E+02 0.  0.
         23    2    1    2    0    0 -0.19860082602E+03  0.11868872445E+03  0.17914268747E+03  0.30696309749E+03  0.92762812258E+02 0.  0.
        -11    1    3    3    0    0 -0.40368823044E+02 -0.36041132195E+02 -0.82457690898E+02  0.98629994789E+02  0.00000000000E+00 0.  1.
         11    1    3    3    0    0  0.22169261888E+02 -0.18928406836E+02  0.10395387708E+02  0.30948745429E+02  0.00000000000E+00 0. -1.
        -13    1    4    4    0    0 -0.94419018728E+02  0.65445023246E+02  0.14517760639E+03  0.18513384229E+03  0.00000000000E+00 0.  1.
         13    1    4    4    0    0 -0.10418180729E+03  0.53243701200E+02  0.33965081082E+02  0.12182925519E+03  0.00000000000E+00 0. -1.
          4    1    1    2  501    0  0.21680038718E+03 -0.63719185415E+02 -0.88466880332E+02  0.24267041720E+03  0.00000000000E+00 0. -1.
<scales pt_clust_5="13000.00000" pt_clust_6="13000.00000" pt_clust_7="13000.00000" pt_clust_8="13000.00000" pt_clust_9="13000.00000"></scales>
<clustering>
<clus scale="   90.801">  5  6 -1 -1</clus>
<clus scale="   92.763">  7  8 -1 -1</clus>
<clus scale="  107.692">  2  5  1 -1</clus>
<clus scale="  228.405">  7  9 -1 -1</clus>
<clus scale="  542.102">  1  5  2 -1</clus>
</clustering>
</event>
<event>
 9    1  0.3303741E-006  0.5868904E+03  0.7546771E-02  0.1020754E+00
         21   -1    0    0  501  502  0.00000000000E+00  0.00000000000E+00  0.29883145178E+03  0.29883145178E+03  0.00000000000E+00 0. -1.
          1   -1    0    0  502    0 -0.00000000000E+00 -0.00000000000E+00 -0.58606629554E+03  0.58606629554E+03  0.00000000000E+00 0. -1.
         23    2    1    2    0    0  0.21603486582E+03  0.85403146542E+02 -0.81259792960E+02  0.26291212738E+03  0.92492551500E+02 0.  0.
         23    2    1    2    0    0 -0.27183084258E+03  0.15216611568E+03 -0.41471016229E+02  0.32768318576E+03  0.92789499978E+02 0.  0.
        -11    1    3    3    0    0  0.45305131273E+02 -0.16183352754E+02 -0.33386768905E+02  0.58558792370E+02  0.00000000000E+00 0.  1.
         11    1    3    3    0    0  0.17072973455E+03  0.10158649930E+03 -0.47873024056E+02  0.20435333501E+03  0.00000000000E+00 0. -1.
        -13    1    4    4    0    0 -0.23162944112E+03  0.16125879526E+03 -0.25152846735E+02  0.28335360019E+03  0.00000000000E+00 0. -1.
         13    1    4    4    0    0 -0.40201401462E+02 -0.90926795812E+01 -0.16318169494E+02  0.44329585573E+02  0.00000000000E+00 0.  1.
          1    1    1    2  501    0  0.55795976754E+02 -0.23756926222E+03 -0.16450403457E+03  0.29430243418E+03  0.00000000000E+00 0. -1.
<scales pt_clust_5="13000.00000" pt_clust_6="13000.00000" pt_clust_7="13000.00000" pt_clust_8="13000.00000" pt_clust_9="13000.00000"></scales>
<clustering>
<clus scale="   92.493">  5  6 -1 -1</clus>
<clus scale="   92.789">  7  8 -1 -1</clus>
<clus scale="  244.034">  7  9 -1 -1</clus>
<clus scale="  250.039">  2  5  1 -1</clus>
<clus scale="  586.890">  1  5  2 -1</clus>
</clustering>
</event>
<event>
 9    1  0.3303741E-006  0.2270581E+03  0.7546771E-02  0.1163238E+00
          2   -1    0    0  502    0 -0.00000000000E+00  0.00000000000E+00  0.15599308285E+04  0.15599308285E+04  0.00000000000E+00 0. -1.
         21   -1    0    0  501  502  0.00000000000E+00 -0.00000000000E+00 -0.17104347963E+02  0.17104347963E+02  0.00000000000E+00 0.  1.
         23    2    1    2    0    0 -0.31018798071E+01 -0.43273834211E+02  0.46720535116E+03  0.47770983192E+03  0.89686102446E+02 0.  0.
         23    2    1    2    0    0  0.66916202260E+02 -0.35907541767E+02  0.47269372090E+03  0.48788162846E+03  0.93925502010E+02 0.  0.
        -13    1    4    4    0    0  0.73888448708E+02  0.95695565248E+01  0.30786682487E+03  0.31675394413E+03  0.00000000000E+00 0.  1.
         13    1    4    4    0    0 -0.69722464481E+01 -0.45477098292E+02  0.16482689603E+03  0.17112768433E+03  0.00000000000E+00 0. -1.
        -13    1    3    3    0    0 -0.15585702810E+02  0.25392834850E+02  0.13352017547E+03  0.13680404764E+03  0.00000000000E+00 0.  1.
         13    1    3    3    0    0  0.12483823003E+02 -0.68666669060E+02  0.33368517569E+03  0.34090578428E+03  0.00000000000E+00 0. -1.
          2    1    1    2  501    0 -0.63814322453E+02  0.79181375978E+02  0.60292740848E+03  0.61144371609E+03  0.00000000000E+00 0. -1.
<scales pt_clust_5="13000.00000" pt_clust_6="13000.00000" pt_clust_7="13000.00000" pt_clust_8="13000.00000" pt_clust_9="13000.00000"></scales>
<clustering>
<clus scale="   89.686">  7  8 -1 -1</clus>
<clus scale="   93.926">  5  6 -1 -1</clus>
<clus scale="   99.629">  1  7  2 -1</clus>
<clus scale="   85.577">  5  9 -1 -1</clus>
<clus scale="  227.058">  2  5  1 -1</clus>
</clustering>
</event>
<event>
 9    1  0.3303741E-006  0.2134023E+03  0.7546771E-02  0.1168190E+00
          1   -1    0    0  502    0 -0.00000000000E+00  0.00000000000E+00  0.31527187726E+03  0.31527187726E+03  0.00000000000E+00 0. -1.
         21   -1    0    0  501  502  0.00000000000E+00 -0.00000000000E+00 -0.42503170911E+03  0.42503170911E+03  0.00000000000E+00 0. -1.
         23    2    1    2    0    0 -0.25131836009E+02  0.51992688582E+02  0.27788753102E+03  0.29779818712E+03  0.90152268472E+02 0.  0.
         23    2    1    2    0    0  0.22014054728E+02 -0.45684790608E+01 -0.28536292082E+02  0.80263025461E+02  0.71570550395E+02 0.  0.
        -11    1    4    4    0    0 -0.17419487087E+02 -0.24900897816E+02 -0.83198621887E+01  0.31507353892E+02  0.00000000000E+00 0.  1.
         11    1    4    4    0    0  0.39433541815E+02  0.20332418755E+02 -0.20216429893E+02  0.48755671569E+02  0.00000000000E+00 0. -1.
        -11    1    3    3    0    0 -0.16334955667E+01  0.69273904496E+02  0.24104329380E+03  0.25080552553E+03  0.00000000000E+00 0. -1.
         11    1    3    3    0    0 -0.23498340443E+02 -0.17281215915E+02  0.36844237219E+02  0.46992661590E+02  0.00000000000E+00 0.  1.
          1    1    1    2  501    0  0.31177812811E+01 -0.47424209521E+02 -0.35911107079E+03  0.36224237379E+03  0.00000000000E+00 0. -1.
<scales pt_clust_5="13000.00000" pt_clust_6="13000.00000" pt_clust_7="13000.00000" pt_clust_8="13000.00000" pt_clust_9="13000.00000"></scales>
<clustering>
<clus scale="   71.571">  5  6 -1 -1</clus>
<clus scale="   47.527">  5  9 -1 -1</clus>
<clus scale="   90.152">  7  8 -1 -1</clus>
<clus scale="  107.062">  1  7  2 -1</clus>
<clus scale="  213.402">  2  5  1 -1</clus>
</clustering>
</event>
<event>
 9    1  0.3303741E-006  0.2366362E+03  0.7546771E-02  0.1158606E+00
         21   -1    0    0  501  502  0.00000000000E+00  0.00000000000E+00  0.23871154990E+03  0.23871154990E+03  0.00000000000E+00 0.  1.
         -1   -1    0    0    0  501 -0.00000000000E+00 -0.00000000000E+00 -0.12144059628E+03  0.12144059628E+03  0.00000000000E+00 0.  1.
         23    2    1    2    0    0 -0.30021976390E+02  0.14113834911E+02  0.65591407280E+02  0.11793846518E+03  0.92231932966E+02 0.  0.
         23    2    1    2    0    0  0.22224312254E+02 -0.61834458405E+02 -0.53691643383E+02  0.12627771119E+03  0.93519235843E+02 0.  0.
        -11    1    4    4    0    0 -0.32392285433E+02 -0.47765745263E+02 -0.30714045481E+02  0.65377206776E+02  0.00000000000E+00 0.  1.
         11    1    4    4    0    0  0.54616597687E+02 -0.14068713143E+02 -0.22977597902E+02  0.60900504413E+02  0.00000000000E+00 0. -1.
        -13    1    3    3    0    0 -0.56878198253E+02  0.30313398398E+02  0.55315403505E+02  0.84934241763E+02  0.00000000000E+00 0. -1.
         13    1    3    3    0    0  0.26856221863E+02 -0.16199563488E+02  0.10276003775E+02  0.33004223420E+02  0.00000000000E+00 0.  1.
         -1    1    1    2    0  502  0.77976641361E+01  0.47720623495E+02  0.10537118972E+03  0.11593596981E+03  0.00000000000E+00 0.  1.
<scales pt_clust_5="13000.00000" pt_clust_6="13000.00000" pt_clust_7="13000.00000" pt_clust_8="13000.00000" pt_clust_9="13000.00000"></scales>
<clustering>
<clus scale="   92.232">  7  8 -1 -1</clus>
<clus scale="   93.519">  5  6 -1 -1</clus>
<clus scale="   48.354">  5  9 -1 -1</clus>
<clus scale="   98.017">  2  7  1 -1</clus>
<clus scale="  236.636">  1  5  2 -1</clus>
</clustering>
</event>
<event>
 9    1  0.3303741E-006  0.1749310E+03  0.7546771E-02  0.1181620E+00
         21   -1    0    0  501  502  0.00000000000E+00  0.00000000000E+00  0.65830542771E+03  0.65830542771E+03  0.00000000000E+00 0.  1.
          3   -1    0    0  502    0 -0.00000000000E+00 -0.00000000000E+00 -0.39111693171E+02  0.39111693171E+02  0.00000000000E+00 0. -1.
         23    2    1    2    0    0 -0.30386257700E+02  0.10530122191E+03  0.32390871124E+03  0.35420568331E+03  0.92375001364E+02 0.  0.
         23    2    1    2    0    0  0.57806054152E+02 -0.62381144584E+02  0.18857298862E+03  0.22496831253E+03  0.88419582150E+02 0.  0.
        -11    1    4    4    0    0  0.25375035268E+02 -0.56089121352E+02  0.41531261136E+02  0.74261211951E+02  0.00000000000E+00 0. -1.
         11    1    4    4    0    0  0.32431018884E+02 -0.62920232318E+01  0.14704172749E+03  0.15070710058E+03  0.00000000000E+00 0.  1.
        -13    1    3    3    0    0 -0.52090334029E+02  0.64274404233E+02  0.12460900832E+03  0.14957274783E+03  0.00000000000E+00 0. -1.
         13    1    3    3    0    0  0.21704076329E+02  0.41026817681E+02  0.19929970293E+03  0.20463293548E+03  0.00000000000E+00 0.  1.
          3    1    1    2  501    0 -0.27419796452E+02 -0.42920077330E+02  0.10671203468E+03  0.11824312505E+03  0.00000000000E+00 0. -1.
<scales pt_clust_5="13000.00000" pt_clust_6="13000.00000" pt_clust_7="13000.00000" pt_clust_8="13000.00000" pt_clust_9="13000.00000"></scales>
<clustering>
<clus scale="   88.420">  5  6 -1 -1</clus>
<clus scale="   50.931">  5  9 -1 -1</clus>
<clus scale="   92.375">  7  8 -1 -1</clus>
<clus scale="  143.335">  2  7  1 -1</clus>
<clus scale="  174.931">  1  5  2 -1</clus>
</clustering>
</event>
<event>
 9    1  0.3303741E-006  0.4442885E+03  0.7546771E-02  0.1054583E+00
         21   -1    0    0  501  502  0.00000000000E+00  0.00000000000E+00  0.85684423078E+03  0.85684423078E+03  0.00000000000E+00 0.  1.
         -1   -1    0    0    0  501 -0.00000000000E+00 -0.00000000000E+00 -0.17177668755E+03  0.17177668755E+03  0.00000000000E+00 0.  1.
         23    2    1    2    0    0  0.18146783410E+03 -0.66732385110E+02  0.27305341615E+01  0.21438748449E+03  0.92578354136E+02 0.  0.
         23    2    1    2    0    0 -0.15534775694E+02 -0.80458070230E+01 -0.13913279783E+02  0.94587671952E+02  0.91908563608E+02 0.  0.
        -11    1    3    3    0    0  0.15640340701E+03 -0.80921560726E+02 -0.20631384256E+02  0.17730194227E+03  0.00000000000E+00 0.  1.
         11    1    3    3    0    0  0.25064427083E+02  0.14189175616E+02  0.23361918418E+02  0.37085542221E+02  0.00000000000E+00 0. -1.
        -13    1    4    4    0    0  0.16140023529E+02 -0.19505659100E+02 -0.43120993720E+02  0.50003911805E+02  0.00000000000E+00 0.  1.
         13    1    4    4    0    0 -0.31674799223E+02  0.11459852077E+02  0.29207713937E+02  0.44583760147E+02  0.00000000000E+00 0. -1.
         -1    1    1    2    0  502 -0.16593305840E+03  0.74778192133E+02  0.69625028885E+03  0.71964576189E+03  0.00000000000E+00 0.  1.
<scales pt_clust_5="13000.00000" pt_clust_6="13000.00000" pt_clust_7="13000.00000" pt_clust_8="13000.00000" pt_clust_9="13000.00000"></scales>
<clustering>
<clus scale="   91.909">  7  8 -1 -1</clus>
<clus scale="   92.578">  5  6 -1 -1</clus>
<clus scale="  182.004">  7  9 -1 -1</clus>
<clus scale="  214.370">  2  5  1 -1</clus>
<clus scale="  444.289">  1  5  2 -1</clus>
</clustering>
</event>
<event>
 9    1  0.3303741E-006  0.7764189E+03  0.7546771E-02  0.9955722E-01
         21   -1    0    0  501  502  0.00000000000E+00  0.00000000000E+00  0.43698445929E+03  0.43698445929E+03  0.00000000000E+00 0.  1.
         -4   -1    0    0    0  501 -0.00000000000E+00 -0.00000000000E+00 -0.64522496251E+03  0.64522496251E+03  0.00000000000E+00 0.  1.
         23    2    1    2    0    0  0.66906716630E+02 -0.20672389472E+03 -0.19456088623E+03  0.30567001072E+03  0.91481908735E+02 0.  0.
         23    2    1    2    0    0 -0.48571043585E+02  0.44518807931E+03 -0.17351223444E+03  0.48888018588E+03  0.91355177224E+02 0.  0.
        -11    1    4    4    0    0 -0.55867111558E+02  0.39464508711E+03 -0.18011745006E+03  0.43738789964E+03  0.00000000000E+00 0.  1.
         11    1    4    4    0    0  0.72960679732E+01  0.50542992206E+02  0.66052156197E+01  0.51492286242E+02  0.00000000000E+00 0. -1.
        -13    1    3    3    0    0  0.22737841923E+02 -0.15337426768E+03 -0.17477465690E+03  0.23363830194E+03  0.00000000000E+00 0. -1.
         13    1    3    3    0    0  0.44168874706E+02 -0.53349627048E+02 -0.19786229332E+02  0.72031708783E+02  0.00000000000E+00 0.  1.
         -4    1    1    2    0  502 -0.18335673045E+02 -0.23846418459E+03  0.15983261745E+03  0.28765922519E+03  0.00000000000E+00 0.  1.
<scales pt_clust_5="13000.00000" pt_clust_6="13000.00000" pt_clust_7="13000.00000" pt_clust_8="13000.00000" pt_clust_9="13000.00000"></scales>
<clustering>
<clus scale="   91.355">  5  6 -1 -1</clus>
<clus scale="   91.482">  7  8 -1 -1</clus>
<clus scale="  235.755">  2  7  1 -1</clus>
<clus scale="  272.008">  5  9 -1 -1</clus>
<clus scale="  776.419">  1  5  2 -1</clus>
</clustering>
</event>
<event>
 9    1  0.3303741E-006  0.3472696E+03  0.7546771E-02  0.1103802E+00
         21   -1    0    0  501  502  0.00000000000E+00  0.00000000000E+00  0.66024757864E+02  0.66024757864E+02  0.00000000000E+00 0.  1.
         -2   -1    0    0    0  501 -0.00000000000E+00 -0.00000000000E+00 -0.82373523441E+03  0.82373523441E+03  0.00000000000E+00 0.  1.
         23    2    1    2    0    0  0.49111962271E+02 -0.57073690830E+02 -0.20626144462E+03  0.23807587352E+03  0.92016014866E+02 0.  0.
         23    2    1    2    0    0 -0.11328268900E+03  0.55700978491E+02 -0.56208361710E+03  0.58662367832E+03  0.11069679637E+03 0.  0.
        -11    1    4    4    0    0  0.17357769230E+01  0.48886694192E+02 -0.11583939120E+03  0.12574452809E+03  0.00000000000E+00 0. -1.
         11    1    4    4    0    0 -0.11501846592E+03  0.68142842994E+01 -0.44624422589E+03  0.46087915023E+03  0.00000000000E+00 0.  1.
        -11    1    3    3    0    0 -0.24845428711E+02 -0.59758200456E+01 -0.25004012753E+02  0.35752012625E+02  0.00000000000E+00 0. -1.
         11    1    3    3    0    0  0.73957390982E+02 -0.51097870784E+02 -0.18125743187E+03  0.20232386089E+03  0.00000000000E+00 0.  1.
         -2    1    1    2    0  502  0.64170726728E+02  0.13727123388E+01  0.10634585170E+02  0.65060440436E+02  0.00000000000E+00 0.  1.
<scales pt_clust_5="13000.00000" pt_clust_6="13000.00000" pt_clust_7="13000.00000" pt_clust_8="13000.00000" pt_clust_9="13000.00000"></scales>
<clustering>
<clus scale="   92.016">  7  8 -1 -1</clus>
<clus scale="  110.697">  5  6 -1 -1</clus>
<clus scale="   64.185">  5  9 -1 -1</clus>
<clus scale="  118.896">  2  7  1 -1</clus>
<clus scale="  347.270">  1  5  2 -1</clus>
</clustering>
</event>
<event>
 9    1  0.3303741E-006  0.2968098E+03  0.7546771E-02  0.1109770E+00
         21   -1    0    0  501  502  0.00000000000E+00  0.00000000000E+00  0.32985084629E+03  0.32985084629E+03  0.00000000000E+00 0.  1.
         -1   -1    0    0    0  501 -0.00000000000E+00 -0.00000000000E+00 -0.24812825839E+03  0.24812825839E+03  0.00000000000E+00 0.  1.
         23    2    1    2    0    0  0.76454063428E+02 -0.11335218510E+03 -0.13376833898E+03  0.21119254429E+03  0.89523072829E+02 0.  0.
         23    2    1    2    0    0  0.15329295529E+02  0.13777488409E+02 -0.17454572822E+02  0.97337286803E+02  0.93515126057E+02 0.  0.
        -11    1    4    4    0    0  0.28101703526E+02 -0.30755885582E+02 -0.27517309565E+02  0.49928274201E+02  0.00000000000E+00 0. -1.
         11    1    4    4    0    0 -0.12772407997E+02  0.44533373992E+02  0.10062736743E+02  0.47409012602E+02  0.00000000000E+00 0.  1.
        -13    1    3    3    0    0  0.51145591886E+02 -0.10699180079E+03 -0.14087796771E+03  0.18414591712E+03  0.00000000000E+00 0.  1.
         13    1    3    3    0    0  0.25308471542E+02 -0.63603843042E+01  0.71096287332E+01  0.27046627165E+02  0.00000000000E+00 0. -1.
         -1    1    1    2    0  502 -0.91783358957E+02  0.99574696689E+02  0.23294549970E+03  0.26944927358E+03  0.00000000000E+00 0.  1.
<scales pt_clust_5="13000.00000" pt_clust_6="13000.00000" pt_clust_7="13000.00000" pt_clust_8="13000.00000" pt_clust_9="13000.00000"></scales>
<clustering>
<clus scale="   89.523">  7  8 -1 -1</clus>
<clus scale="   93.515">  5  6 -1 -1</clus>
<clus scale="  135.423">  5  9 -1 -1</clus>
<clus scale="  163.427">  2  7  1 -1</clus>
<clus scale="  296.810">  1  5  2 -1</clus>
</clustering>
</event>
<event>
 9    1  0.3303741E-006  0.2878387E+03  0.7546771E-02  0.1115897E+00
          3   -1    0    0  502    0 -0.00000000000E+00  0.00000000000E+00  0.11285667624E+04  0.11285667624E+04  0.00000000000E+00 0. -1.
         21   -1    0    0  501  502  0.00000000000E+00 -0.00000000000E+00 -0.43835462521E+02  0.43835462521E+02  0.00000000000E+00 0.  1.
         23    2    1    2    0    0 -0.12212308428E+03  0.19905128677E+02  0.45059372970E+03  0.47599605602E+03  0.90704323162E+02 0.  0.
         23    2    1    2    0    0  0.38186578036E+02 -0.11527698887E+03  0.36646786918E+03  0.40011543730E+03  0.10510311661E+03 0.  0.
        -11    1    3    3    0    0 -0.37708707414E+02 -0.57471194042E+01  0.37156882514E+02  0.53250445204E+02  0.00000000000E+00 0.  1.
         11    1    3    3    0    0 -0.84414376867E+02  0.25652248082E+02  0.41343684718E+03  0.42274561081E+03  0.00000000000E+00 0. -1.
        -11    1    4    4    0    0  0.54103041732E+02 -0.12856809025E+03  0.30913847227E+03  0.33915112854E+03  0.00000000000E+00 0.  1.
         11    1    4    4    0    0 -0.15916463695E+02  0.13291101379E+02  0.57329396911E+02  0.60964308760E+02  0.00000000000E+00 0. -1.
          3    1    1    2  501    0  0.83936506245E+02  0.95371860196E+02  0.26766970102E+03  0.29629073161E+03  0.00000000000E+00 0. -1.
<scales pt_clust_5="13000.00000" pt_clust_6="13000.00000" pt_clust_7="13000.00000" pt_clust_8="13000.00000" pt_clust_9="13000.00000"></scales>
<clustering>
<clus scale="   90.704">  5  6 -1 -1</clus>
<clus scale="  105.103">  7  8 -1 -1</clus>
<clus scale="  127.048">  7  9 -1 -1</clus>
<clus scale="  153.419">  1  5  2 -1</clus>
<clus scale="  287.839">  2  5  1 -1</clus>
</clustering>
</event>
<event>
 9    1  0.3303741E-006  0.2279524E+03  0.7546771E-02  0.1146890E+00
         21   -1    0    0  501  502  0.00000000000E+00  0.00000000000E+00  0.18845548242E+03  0.18845548242E+03  0.00000000000E+00 0.  1.
         -1   -1    0    0    0  501 -0.00000000000E+00 -0.00000000000E+00 -0.18429850466E+03  0.18429850466E+03  0.00000000000E+00 0.  1.
         23    2    1    2    0    0 -0.11178176379E+03 -0.15186072372E+02 -0.48848786881E+01  0.14462234421E+03  0.90365817074E+02 0.  0.
         23    2    1    2    0    0  0.13292616435E+03  0.62797792101E+02  0.19933622184E+02  0.17490954134E+03  0.92644862224E+02 0.  0.
        -11    1    4    4    0    0  0.67341099300E+02  0.41097748261E+02 -0.35331700684E+02  0.86441758661E+02  0.00000000000E+00 0. -1.
         11    1    4    4    0    0  0.65585065051E+02  0.21700043839E+02  0.55265322868E+02  0.88467782679E+02  0.00000000000E+00 0.  1.
        -13    1    3    3    0    0 -0.31005323340E+02 -0.44559266846E+02 -0.19011792475E+02  0.57517880615E+02  0.00000000000E+00 0.  1.
         13    1    3    3    0    0 -0.80776440450E+02  0.29373194474E+02  0.14126913787E+02  0.87104463598E+02  0.00000000000E+00 0. -1.
         -1    1    1    2    0  502 -0.21144400560E+02 -0.47611719729E+02 -0.10891765735E+02  0.53222101532E+02  0.00000000000E+00 0.  1.
<scales pt_clust_5="13000.00000" pt_clust_6="13000.00000" pt_clust_7="13000.00000" pt_clust_8="13000.00000" pt_clust_9="13000.00000"></scales>
<clustering>
<clus scale="   90.366">  7  8 -1 -1</clus>
<clus scale="   92.645">  5  6 -1 -1</clus>
<clus scale="   52.096">  5  9 -1 -1</clus>
<clus scale="  144.540">  2  7  1 -1</clus>
<clus scale="  227.952">  1  5  2 -1</clus>
</clustering>
</event>
<event>
 9    1  0.3303741E-006  0.2193258E+03  0.7546771E-02  0.1153122E+00
          1   -1    0    0  502    0 -0.00000000000E+00  0.00000000000E+00  0.13725001728E+03  0.13725001728E+03  0.00000000000E+00 0. -1.
         21   -1    0    0  501  502  0.00000000000E+00 -0.00000000000E+00 -0.26431787162E+03  0.26431787162E+03  0.00000000000E+00 0.  1.
         23    2    1    2    0    0 -0.10282131611E+03  0.30548102718E+02  0.14146771333E+02  0.14071281865E+03  0.89969753631E+02 0.  0.
         23    2    1    2    0    0  0.10058986005E+03 -0.49259725571E+00 -0.15073948468E+02  0.13116396319E+03  0.82814242266E+02 0.  0.
        -11    1    3    3    0    0 -0.10352535720E+03 -0.57562177206E+01  0.10911578317E+02  0.10425783504E+03  0.00000000000E+00 0. -1.
         11    1    3    3    0    0  0.70404109282E+00  0.36304320438E+02  0.32351930157E+01  0.36454983613E+02  0.00000000000E+00 0.  1.
        -13    1    4    4    0    0  0.39350029910E+02  0.38983570312E+02 -0.18006870966E+02  0.58244235854E+02  0.00000000000E+00 0.  1.
         13    1    4    4    0    0  0.61239830135E+02 -0.39476167568E+02  0.29329224986E+01  0.72919727339E+02  0.00000000000E+00 0. -1.
          1    1    1    2  501    0  0.22314560644E+01 -0.30055505462E+02 -0.12614067720E+03  0.12969110705E+03  0.00000000000E+00 0. -1.
<scales pt_clust_5="13000.00000" pt_clust_6="13000.00000" pt_clust_7="13000.00000" pt_clust_8="13000.00000" pt_clust_9="13000.00000"></scales>
<clustering>
<clus scale="   82.814">  7  8 -1 -1</clus>
<clus scale="   30.138">  7  9 -1 -1</clus>
<clus scale="   89.970">  5  6 -1 -1</clus>
<clus scale="  140.000">  1  5  2 -1</clus>
<clus scale="  219.326">  2  5  1 -1</clus>
</clustering>
</event>
<event>
 9    1  0.3303741E-006  0.4239268E+03  0.7546771E-02  0.1078575E+00
         21   -1    0    0  501  502  0.00000000000E+00  0.00000000000E+00  0.17720832258E+03  0.17720832258E+03  0.00000000000E+00 0. -1.
          1   -1    0    0  502    0 -0.00000000000E+00 -0.00000000000E+00 -0.42866642624E+03  0.42866642624E+03  0.00000000000E+00 0. -1.
         23    2    1    2    0    0  0.89254082748E+02  0.10958318725E+02 -0.52038642940E+02  0.13738563137E+03  0.89891130329E+02 0.  0.
         23    2    1    2    0    0 -0.21945305243E+03 -0.10778890440E+03 -0.13150566242E+03  0.29259080015E+03  0.92398847137E+02 0.  0.
        -11    1    3    3    0    0  0.94943171348E+02 -0.18792269716E+02 -0.41615364948E+02  0.10535271134E+03  0.00000000000E+00 0.  1.
         11    1    3    3    0    0 -0.56890886003E+01  0.29750588441E+02 -0.10423277991E+02  0.32032920032E+02  0.00000000000E+00 0. -1.
        -13    1    4    4    0    0 -0.15851238831E+03 -0.42001966348E+02 -0.50069407954E+02  0.17145637357E+03  0.00000000000E+00 0. -1.
         13    1    4    4    0    0 -0.60940664119E+02 -0.65786938051E+02 -0.81436254468E+02  0.12113442658E+03  0.00000000000E+00 0.  1.
          1    1    1    2  501    0  0.13019896968E+03  0.96830585673E+02 -0.67913798304E+02  0.17589831730E+03  0.00000000000E+00 0. -1.
<scales pt_clust_5="13000.00000" pt_clust_6="13000.00000" pt_clust_7="13000.00000" pt_clust_8="13000.00000" pt_clust_9="13000.00000"></scales>
<clustering>
<clus scale="   89.891">  5  6 -1 -1</clus>
<clus scale="   92.399">  7  8 -1 -1</clus>
<clus scale="  127.149">  2  5  1 -1</clus>
<clus scale="  191.479">  7  9 -1 -1</clus>
<clus scale="  423.927">  1  5  2 -1</clus>
</clustering>
</event>
<event>
 9    1  0.3303741E-006  0.2559181E+03  0.7546771E-02  0.1150559E+00
          1   -1    0    0  502    0 -0.00000000000E+00  0.00000000000E+00  0.73605423756E+03  0.73605423756E+03  0.00000000000E+00 0. -1.
         21   -1    0    0  501  502  0.00000000000E+00 -0.00000000000E+00 -0.42036476836E+02  0.42036476836E+02  0.00000000000E+00 0.  1.
         23    2    1    2    0    0 -0.98184035893E+01  0.12392540379E+02  0.22701782299E+03  0.24556559756E+03  0.92278895984E+02 0.  0.
         23    2    1    2    0    0 -0.77525560235E+02 -0.70495310686E+02  0.34232206320E+03  0.36958502867E+03  0.91809025388E+02 0.  0.
        -11    1    3    3    0    0 -0.40283831304E+02  0.31083900922E+02  0.84524302139E+02  0.98657760025E+02  0.00000000000E+00 0.  1.
         11    1    3    3    0    0  0.30465427715E+02 -0.18691360543E+02  0.14249352085E+03  0.14690783754E+03  0.00000000000E+00 0. -1.
        -11    1    4    4    0    0 -0.20211534280E+02 -0.62376344060E+02  0.94026678905E+02  0.11463128178E+03  0.00000000000E+00 0. -1.
         11    1    4    4    0    0 -0.57314025955E+02 -0.81189666260E+01  0.24829538430E+03  0.25495374689E+03  0.00000000000E+00 0.  1.
          1    1    1    2  501    0  0.87343963824E+02  0.58102770306E+02  0.12467787453E+03  0.16294008816E+03  0.00000000000E+00 0. -1.
<scales pt_clust_5="13000.00000" pt_clust_6="13000.00000" pt_clust_7="13000.00000" pt_clust_8="13000.00000" pt_clust_9="13000.00000"></scales>
<clustering>
<clus scale="   91.809">  7  8 -1 -1</clus>
<clus scale="   92.279">  5  6 -1 -1</clus>
<clus scale="   93.624">  1  5  2 -1</clus>
<clus scale="  104.625">  7  9 -1 -1</clus>
<clus scale="  255.918">  2  5  1 -1</clus>
</clustering>
</event>
<event>
 9    1  0.3303741E-006  0.7014640E+03  0.7546771E-02  0.1031019E+00
         21   -1    0    0  501  502  0.00000000000E+00  0.00000000000E+00  0.28704831577E+03  0.28704831577E+03  0.00000000000E+00 0. -1.
          1   -1    0    0  502    0 -0.00000000000E+00 -0.00000000000E+00 -0.75731401543E+03  0.75731401543E+03  0.00000000000E+00 0. -1.
         23    2    1    2    0    0  0.52152821385E+02 -0.96747875238E+01 -0.30532107114E+03  0.32376638207E+03  0.93756041850E+02 0.  0.
         23    2    1    2    0    0 -0.15124223472E+03  0.56176857866E+02 -0.41102072493E+03  0.45127346657E+03  0.93164652050E+02 0.  0.
        -11    1    4    4    0    0 -0.10848220894E+03  0.75122665575E+02 -0.23898586389E+03  0.27299459276E+03  0.00000000000E+00 0. -1.
         11    1    4    4    0    0 -0.42760025777E+02 -0.18945807709E+02 -0.17203486104E+03  0.17827887381E+03  0.00000000000E+00 0.  1.
        -13    1    3    3    0    0  0.27921223109E+02  0.36892307303E+02 -0.80040949337E+02  0.92451017349E+02  0.00000000000E+00 0. -1.
         13    1    3    3    0    0  0.24231598276E+02 -0.46567094827E+02 -0.22528012181E+03  0.23131536472E+03  0.00000000000E+00 0.  1.
          1    1    1    2  501    0  0.99089413335E+02 -0.46502070342E+02  0.24607609642E+03  0.26932248256E+03  0.00000000000E+00 0. -1.
<scales pt_clust_5="13000.00000" pt_clust_6="13000.00000" pt_clust_7="13000.00000" pt_clust_8="13000.00000" pt_clust_9="13000.00000"></scales>
<clustering>
<clus scale="   93.165">  5  6 -1 -1</clus>
<clus scale="   93.756">  7  8 -1 -1</clus>
<clus scale="  107.721">  2  7  1 -1</clus>
<clus scale="  110.806">  5  9 -1 -1</clus>
<clus scale="  701.464">  1  5  2 -1</clus>
</clustering>
</event>
<event>
 9    1  0.3303741E-006  0.5212841E+03  0.7546771E-02  0.1055812E+00
         21   -1    0    0  501  502  0.00000000000E+00  0.00000000000E+00  0.80284252246E+02  0.80284252246E+02  0.00000000000E+00 0. -1.
          3   -1    0    0  502    0 -0.00000000000E+00 -0.00000000000E+00 -0.13232465130E+04  0.13232465130E+04  0.00000000000E+00 0. -1.
         23    2    1    2    0    0 -0.91097943959E+02  0.23367560631E+00 -0.29611824205E+03  0.32267430678E+03  0.90187609930E+02 0.  0.
         23    2    1    2    0    0  0.13935417601E+03  0.12826406142E+03 -0.91450696931E+03  0.93983866839E+03  0.10536825836E+03 0.  0.
        -11    1    3    3    0    0 -0.46877288184E+02  0.44425147360E+02 -0.17141253139E+03  0.18317568010E+03  0.00000000000E+00 0. -1.
         11    1    3    3    0    0 -0.44220655775E+02 -0.44191471754E+02 -0.12470571066E+03  0.13949862668E+03  0.00000000000E+00 0.  1.
        -13    1    4    4    0    0  0.90892163442E+01  0.61634573798E+02 -0.16920457774E+03  0.18030979915E+03  0.00000000000E+00 0.  1.
         13    1    4    4    0    0  0.13026495966E+03  0.66629487624E+02 -0.74530239157E+03  0.75952886924E+03  0.00000000000E+00 0. -1.
          3    1    1    2  501    0 -0.48256232050E+02 -0.12849773703E+03 -0.32337049395E+02  0.14101779007E+03  0.00000000000E+00 0. -1.
<scales pt_clust_5="13000.00000" pt_clust_6="13000.00000" pt_clust_7="13000.00000" pt_clust_8="13000.00000" pt_clust_9="13000.00000"></scales>
<clustering>
<clus scale="   90.188">  5  6 -1 -1</clus>
<clus scale="  105.368">  7  8 -1 -1</clus>
<clus scale="  128.190">  2  5  1 -1</clus>
<clus scale="  140.170">  7  9 -1 -1</clus>
<clus scale="  521.284">  1  5  2 -1</clus>
</clustering>
</event>
<event>
 9    1  0.3303741E-006  0.4385076E+03  0.7546771E-02  0.1071559E+00
          2   -1    0    0  502    0 -0.00000000000E+00  0.00000000000E+00  0.83367147935E+03  0.83367147935E+03  0.00000000000E+00 0. -1.
         21   -1    0    0  501  502  0.00000000000E+00 -0.00000000000E+00 -0.15139081293E+03  0.15139081293E+03  0.00000000000E+00 0. -1.
         23    2    1    2    0    0  0.10241603148E+01  0.10371808775E+03  0.48443129169E+03  0.50398715744E+03  0.92579089794E+02 0.  0.
         23    2    1    2    0    0  0.40723579913E+02  0.14451589454E+03  0.13609600924E+03  0.22189091094E+03  0.90389152515E+02 0.  0.
        -11    1    3    3    0    0 -0.19058065216E+02  0.11420854045E+03  0.38663316705E+03  0.40359881866E+03  0.00000000000E+00 0. -1.
         11    1    3    3    0    0  0.20082225530E+02 -0.10490452701E+02  0.97798124631E+02  0.10038833877E+03  0.00000000000E+00 0.  1.
        -13    1    4    4    0    0  0.69296441775E+02  0.10638982196E+03  0.90286549315E+02  0.15579618752E+03  0.00000000000E+00 0. -1.
         13    1    4    4    0    0 -0.28572861861E+02  0.38126072573E+02  0.45809459925E+02  0.66094723416E+02  0.00000000000E+00 0.  1.
          2    1    1    2  501    0 -0.41747740228E+02 -0.24823398228E+03  0.61753365492E+02  0.25918422391E+03  0.00000000000E+00 0. -1.
<scales pt_clust_5="13000.00000" pt_clust_6="13000.00000" pt_clust_7="13000.00000" pt_clust_8="13000.00000" pt_clust_9="13000.00000"></scales>
<clustering>
<clus scale="   90.389">  7  8 -1 -1</clus>
<clus scale="   92.579">  5  6 -1 -1</clus>
<clus scale="  139.030">  1  5  2 -1</clus>
<clus scale="  203.434">  7  9 -1 -1</clus>
<clus scale="  438.508">  2  5  1 -1</clus>
</clustering>
</event>
<event>
 9    1  0.3303741E-006  0.2873259E+03  0.7546771E-02  0.1099165E+00
         21   -1    0    0  501  502  0.00000000000E+00  0.00000000000E+00  0.38928205755E+03  0.38928205755E+03  0.00000000000E+00 0. -1.
          1   -1    0    0  502    0 -0.00000000000E+00 -0.00000000000E+00 -0.18557560983E+03  0.18557560983E+03  0.00000000000E+00 0. -1.
         23    2    1    2    0    0  0.16423860502E+03  0.14486209917E+03  0.28642973572E+02  0.23840057864E+03  0.89750035142E+02 0.  0.
         23    2    1    2    0    0 -0.11883580583E+02 -0.78330674974E+02  0.67957750152E+02  0.13869430158E+03  0.91328743311E+02 0.  0.
        -11    1    4    4    0    0  0.15022913486E+02 -0.89675500978E+02  0.44457309163E+02  0.10121183598E+03  0.00000000000E+00 0.  1.
         11    1    4    4    0    0 -0.26906494069E+02  0.11344826005E+02  0.23500440988E+02  0.37482465592E+02  0.00000000000E+00 0. -1.
        -13    1    3    3    0    0  0.33201524495E+02  0.64305637454E+02  0.42553669059E+02  0.83954576930E+02  0.00000000000E+00 0.  1.
         13    1    3    3    0    0  0.13103708052E+03  0.80556461715E+02 -0.13910695487E+02  0.15444600171E+03  0.00000000000E+00 0. -1.
          1    1    1    2  501    0 -0.15235502443E+03 -0.66531424195E+02  0.10710572399E+03  0.19776278716E+03  0.00000000000E+00 0. -1.
<scales pt_clust_5="13000.00000" pt_clust_6="13000.00000" pt_clust_7="13000.00000" pt_clust_8="13000.00000" pt_clust_9="13000.00000"></scales>
<clustering>
<clus scale="   89.750">  7  8 -1 -1</clus>
<clus scale="   91.329">  5  6 -1 -1</clus>
<clus scale="  166.248">  5  9 -1 -1</clus>
<clus scale="  236.674">  2  7  1 -1</clus>
<clus scale="  287.326">  1  5  2 -1</clus>
</clustering>
</event>
<event>
 9    1  0.3303741E-006  0.6682292E+03  0.7546771E-02  0.1019822E+00
         21   -1    0    0  501  502  0.00000000000E+00  0.00000000000E+00  0.46923145855E+03  0.46923145855E+03  0.00000000000E+00 0. -1.
          2   -1    0    0  502    0 -0.00000000000E+00 -0.00000000000E+00 -0.37825946786E+03  0.37825946786E+03  0.00000000000E+00 0. -1.
         23    2    1    2    0    0 -0.87348788640E+02 -0.12334899719E+03  0.12883412904E+02  0.17471456115E+03  0.86685694123E+02 0.  0.
         23    2    1    2    0    0 -0.29118730960E+02  0.88066866984E+02 -0.27249042697E+03  0.30167644554E+03  0.90299343601E+02 0.  0.
        -13    1    4    4    0    0 -0.48376231288E+02  0.47481627081E+02 -0.84164007382E+02  0.10806639072E+03  0.00000000000E+00 0.  1.
         13    1    4    4    0    0  0.19257500329E+02  0.40585239903E+02 -0.18832641958E+03  0.19361005483E+03  0.00000000000E+00 0. -1.
        -13    1    3    3    0    0 -0.94583913799E+02 -0.71046485074E+02 -0.64875477892E+01  0.11847281573E+03  0.00000000000E+00 0. -1.
         13    1    3    3    0    0  0.72351251593E+01 -0.52302512116E+02  0.19370960693E+02  0.56241745420E+02  0.00000000000E+00 0.  1.
          2    1    1    2  501    0  0.11646751960E+03  0.35282130205E+02  0.35057900476E+03  0.37109991971E+03  0.00000000000E+00 0. -1.
<scales pt_clust_5="13000.00000" pt_clust_6="13000.00000" pt_clust_7="13000.00000" pt_clust_8="13000.00000" pt_clust_9="13000.00000"></scales>
<clustering>
<clus scale="   86.686">  7  8 -1 -1</clus>
<clus scale="   90.299">  5  6 -1 -1</clus>
<clus scale="  121.694">  5  9 -1 -1</clus>
<clus scale="  174.239">  2  7  1 -1</clus>
<clus scale="  668.229">  1  5  2 -1</clus>
</clustering>
</event>
<event>
 9    1  0.3303741E-006  0.2561271E+03  0.7546771E-02  0.1133780E+00
          1   -1    0    0  502    0 -0.00000000000E+00  0.00000000000E+00  0.37547231578E+03  0.37547231578E+03  0.00000000000E+00 0. -1.
         21   -1    0    0  501  502  0.00000000000E+00 -0.00000000000E+00 -0.10442132110E+03  0.10442132110E+03  0.00000000000E+00 0. -1.
         23    2    1    2    0    0 -0.76539467517E+01 -0.10564535404E+03  0.90080240617E+02  0.16628316627E+03  0.91192751371E+02 0.  0.
         23    2    1    2    0    0  0.39325837074E+02  0.88935831249E+01  0.18781285098E+03  0.21157700502E+03  0.88687906595E+02 0.  0.
        -11    1    4    4    0    0  0.22550396200E+02  0.48362176352E+02  0.12017204541E+03  0.13148665699E+03  0.00000000000E+00 0. -1.
         11    1    4    4    0    0  0.16775440874E+02 -0.39468593227E+02  0.67640805578E+02  0.80090348027E+02  0.00000000000E+00 0.  1.
        -11    1    3    3    0    0 -0.19786743110E+00 -0.23271602738E+02  0.79574850070E+02  0.82908162500E+02  0.00000000000E+00 0.  1.
         11    1    3    3    0    0 -0.74560793206E+01 -0.82373751303E+02  0.10505390547E+02  0.83375003766E+02  0.00000000000E+00 0. -1.
          1    1    1    2  501    0 -0.31671890322E+02  0.96751770916E+02 -0.68420969237E+01  0.10203346560E+03  0.00000000000E+00 0. -1.
<scales pt_clust_5="13000.00000" pt_clust_6="13000.00000" pt_clust_7="13000.00000" pt_clust_8="13000.00000" pt_clust_9="13000.00000"></scales>
<clustering>
<clus scale="   88.688">  5  6 -1 -1</clus>
<clus scale="   91.193">  7  8 -1 -1</clus>
<clus scale="  101.804">  5  9 -1 -1</clus>
<clus scale="  139.770">  1  7  2 -1</clus>
<clus scale="  256.127">  2  5  1 -1</clus>
</clustering>
</event>
<event>
 9    1  0.4263976E-006  0.5182764E+03  0.7546771E-02  0.1052576E+00
         21   -1    0    0  501  502  0.00000000000E+00  0.00000000000E+00  0.18164803789E+03  0.18164803789E+03  0.00000000000E+00 0. -1.
          1   -1    0    0  502    0 -0.00000000000E+00 -0.00000000000E+00 -0.91775718467E+03  0.91775718467E+03  0.00000000000E+00 0. -1.
         23    2    1    2    0    0 -0.97896843826E+02 -0.49859026115E+02  0.55402237744E+02  0.15330760707E+03  0.91455453207E+02 0.  0.
         23    2    1    2    0    0 -0.93437657083E+02  0.11179068132E+03 -0.70954493405E+03  0.72892735933E+03  0.81567944385E+02 0.  0.
        -13    1    4    4    0    0 -0.25697537304E+02 -0.10021907242E+02 -0.11390661277E+03  0.11719862833E+03  0.00000000000E+00 0.  1.
         13    1    4    4    0    0 -0.67740119780E+02  0.12181258856E+03 -0.59563832128E+03  0.61172873100E+03  0.00000000000E+00 0. -1.
        -13    1    3    3    0    0 -0.98427228345E+02 -0.66755161001E+01  0.47140933163E+02  0.10933777652E+03  0.00000000000E+00 0. -1.
         13    1    3    3    0    0  0.53038451901E+00 -0.43183510015E+02  0.82613045816E+01  0.43969830547E+02  0.00000000000E+00 0.  1.
          1    1    1    2  501    0  0.19133450091E+03 -0.61931655207E+02 -0.81966450474E+02  0.21717025615E+03  0.00000000000E+00 0. -1.
<scales pt_clust_5="13000.00000" pt_clust_6="13000.00000" pt_clust_7="13000.00000" pt_clust_8="13000.00000" pt_clust_9="13000.00000"></scales>
<clustering>
<clus scale="   81.568">  5  6 -1 -1</clus>
<clus scale="   91.455">  7  8 -1 -1</clus>
<clus scale="  142.947">  2  7  1 -1</clus>
<clus scale="  188.192">  5  9 -1 -1</clus>
<clus scale="  518.276">  1  5  2 -1</clus>
</clustering>
</event>
<event>
 9    1  0.3303741E-006  0.2116645E+03  0.7546771E-02  0.1167850E+00
         21   -1    0    0  501  502  0.00000000000E+00  0.00000000000E+00  0.51369513020E+02  0.51369513020E+02  0.00000000000E+00 0.  1.
          1   -1    0    0  502    0 -0.00000000000E+00 -0.00000000000E+00 -0.53699948513E+03  0.53699948513E+03  0.00000000000E+00 0. -1.
         23    2    1    2    0    0 -0.50670451761E+02  0.34104798529E+02 -0.23914933115E+03  0.26347739299E+03  0.92180811791E+02 0.  0.
         23    2    1    2    0    0 -0.39938139912E+02 -0.52612563371E+02 -0.99947588823E+02  0.15161613196E+03  0.92923592887E+02 0.  0.
        -11    1    4    4    0    0 -0.66127614159E+02 -0.49195490440E+02 -0.53737964109E+02  0.98391190767E+02  0.00000000000E+00 0.  1.
         11    1    4    4    0    0  0.26189474247E+02 -0.34170729304E+01 -0.46209624715E+02  0.53224941193E+02  0.00000000000E+00 0. -1.
        -11    1    3    3    0    0  0.90165543031E+01  0.38857677479E+02 -0.44192902066E+02  0.59533435509E+02  0.00000000000E+00 0. -1.
         11    1    3    3    0    0 -0.59687006064E+02 -0.47528789496E+01 -0.19495642909E+03  0.20394395748E+03  0.00000000000E+00 0.  1.
          1    1    1    2  501    0  0.90608591673E+02  0.18507764842E+02 -0.14653305214E+03  0.17327547320E+03  0.00000000000E+00 0. -1.
<scales pt_clust_5="13000.00000" pt_clust_6="13000.00000" pt_clust_7="13000.00000" pt_clust_8="13000.00000" pt_clust_9="13000.00000"></scales>
<clustering>
<clus scale="   92.181">  7  8 -1 -1</clus>
<clus scale="   92.924">  5  6 -1 -1</clus>
<clus scale="   92.480">  5  9 -1 -1</clus>
<clus scale="  110.580">  2  7  1 -1</clus>
<clus scale="  211.664">  1  5  2 -1</clus>
</clustering>
</event>
<event>
 9    1  0.3303741E-006  0.3818593E+03  0.7546771E-02  0.1101096E+00
          1   -1    0    0  502    0 -0.00000000000E+00  0.00000000000E+00  0.53575837293E+03  0.53575837293E+03  0.00000000000E+00 0. -1.
         21   -1    0    0  501  502  0.00000000000E+00 -0.00000000000E+00 -0.10773034226E+03  0.10773034226E+03  0.00000000000E+00 0.  1.
         23    2    1    2    0    0 -0.19478112175E+02  0.27219591513E+02  0.11489995953E+03  0.14966111172E+03  0.89867372515E+02 0.  0.
         23    2    1    2    0    0 -0.93954998174E+02  0.48483454987E+02 -0.13152730780E+02  0.14019335250E+03  0.91120769684E+02 0.  0.
        -11    1    4    4    0    0 -0.64874672069E+02 -0.83936555796E+01  0.19757615572E+02  0.68334031808E+02  0.00000000000E+00 0. -1.
         11    1    4    4    0    0 -0.29080326105E+02  0.56877110566E+02 -0.32910346352E+02  0.71859320688E+02  0.00000000000E+00 0.  1.
        -13    1    3    3    0    0  0.82894558814E+01 -0.24903544277E+02  0.78411213373E+01  0.27393152067E+02  0.00000000000E+00 0.  1.
         13    1    3    3    0    0 -0.27767568057E+02  0.52123135790E+02  0.10705883820E+03  0.12226795965E+03  0.00000000000E+00 0. -1.
          1    1    1    2  501    0  0.11343311035E+03 -0.75703046500E+02  0.32628080191E+03  0.35363425099E+03  0.00000000000E+00 0. -1.
<scales pt_clust_5="13000.00000" pt_clust_6="13000.00000" pt_clust_7="13000.00000" pt_clust_8="13000.00000" pt_clust_9="13000.00000"></scales>
<clustering>
<clus scale="   89.867">  7  8 -1 -1</clus>
<clus scale="   91.121">  5  6 -1 -1</clus>
<clus scale="   95.898">  1  7  2 -1</clus>
<clus scale="  110.443">  5  9 -1 -1</clus>
<clus scale="  381.859">  2  5  1 -1</clus>
</clustering>
</event>
<event>
 9    1  0.3303741E-006  0.3915953E+03  0.7546771E-02  0.1092702E+00
         -1   -1    0    0    0  501 -0.00000000000E+00  0.00000000000E+00  0.21850115441E+03  0.21850115441E+03  0.00000000000E+00 0.  1.
         21   -1    0    0  501  502  0.00000000000E+00 -0.00000000000E+00 -0.29256853789E+03  0.29256853789E+03  0.00000000000E+00 0.  1.
         23    2    1    2    0    0  0.16119975677E+02 -0.59518395479E+02  0.79227747245E+01  0.11098314085E+03  0.91935815526E+02 0.  0.
         23    2    1    2    0    0  0.15705265701E+03  0.10932095837E+03 -0.39844920884E+02  0.21503175684E+03  0.89634980431E+02 0.  0.
        -11    1    4    4    0    0  0.14719026544E+03  0.56961493419E+02 -0.33834330126E+02  0.16141359258E+03  0.00000000000E+00 0.  1.
         11    1    4    4    0    0  0.98623915623E+01  0.52359464951E+02 -0.60105907582E+01  0.53618164260E+02  0.00000000000E+00 0. -1.
        -13    1    3    3    0    0  0.50908862626E+02 -0.54484340573E+02 -0.15309939360E+01  0.74582837195E+02  0.00000000000E+00 0.  1.
         13    1    3    3    0    0 -0.34788886949E+02 -0.50340549060E+01  0.94537686605E+01  0.36400303651E+02  0.00000000000E+00 0. -1.
         -1    1    1    2    0  502 -0.17317263268E+03 -0.49802562891E+02 -0.42145237324E+02  0.18505479462E+03  0.00000000000E+00 0.  1.
<scales pt_clust_5="13000.00000" pt_clust_6="13000.00000" pt_clust_7="13000.00000" pt_clust_8="13000.00000" pt_clust_9="13000.00000"></scales>
<clustering>
<clus scale="   89.635">  5  6 -1 -1</clus>
<clus scale="   91.936">  7  8 -1 -1</clus>
<clus scale="  110.700">  1  7  2 -1</clus>
<clus scale="  182.734">  5  9 -1 -1</clus>
<clus scale="  391.595">  2  5  1 -1</clus>
</clustering>
</event>
<event>
 9    1  0.3303741E-006  0.3293238E+03  0.7546771E-02  0.1120468E+00
         21   -1    0    0  501  502  0.00000000000E+00  0.00000000000E+00  0.52671071092E+02  0.52671071092E+02  0.00000000000E+00 0. -1.
         -1   -1    0    0    0  501 -0.00000000000E+00 -0.00000000000E+00 -0.84346189619E+03  0.84346189619E+03  0.00000000000E+00 0.  1.
         23    2    1    2    0    0 -0.12726071796E+02 -0.64532997124E-01 -0.14864530034E+03  0.17446472269E+03  0.90446432118E+02 0.  0.
         23    2    1    2    0    0  0.25991419308E+02 -0.84554398520E+02 -0.61996131024E+03  0.63318958960E+03  0.93552284829E+02 0.  0.
        -11    1    4    4    0    0 -0.16276915744E+02 -0.84535221173E+02 -0.43847142237E+03  0.44684262312E+03  0.00000000000E+00 0.  1.
         11    1    4    4    0    0  0.42268335053E+02 -0.19177347431E-01 -0.18148988787E+03  0.18634696648E+03  0.00000000000E+00 0. -1.
        -13    1    3    3    0    0  0.26630761481E+02 -0.30820741108E+02 -0.77260340195E+02  0.87340000610E+02  0.00000000000E+00 0.  1.
         13    1    3    3    0    0 -0.39356833277E+02  0.30756208111E+02 -0.71384960144E+02  0.87124722081E+02  0.00000000000E+00 0. -1.
         -1    1    1    2    0  502 -0.13265347513E+02  0.84618931517E+02 -0.22184214522E+02  0.88478654995E+02  0.00000000000E+00 0.  1.
<scales pt_clust_5="13000.00000" pt_clust_6="13000.00000" pt_clust_7="13000.00000" pt_clust_8="13000.00000" pt_clust_9="13000.00000"></scales>
<clustering>
<clus scale="   90.446">  7  8 -1 -1</clus>
<clus scale="   91.337">  2  7  1 -1</clus>
<clus scale="   93.552">  5  6 -1 -1</clus>
<clus scale="   85.813">  5  9 -1 -1</clus>
<clus scale="  329.324">  1  5  2 -1</clus>
</clustering>
</event>
<event>
 9    1  0.3303741E-006  0.4319485E+03  0.7546771E-02  0.1071174E+00
         21   -1    0    0  501  502  0.00000000000E+00  0.00000000000E+00  0.17486418297E+03  0.17486418297E+03  0.00000000000E+00 0. -1.
          2   -1    0    0  502    0 -0.00000000000E+00 -0.00000000000E+00 -0.49664887702E+03  0.49664887702E+03  0.00000000000E+00 0. -1.
         23    2    1    2    0    0  0.10794398252E+03 -0.43441853179E+02 -0.13957134380E+03  0.20270478508E+03  0.89833022395E+02 0.  0.
         23    2    1    2    0    0  0.97142617139E+01  0.10012408500E+03 -0.27717073170E+03  0.30733616546E+03  0.86675860601E+02 0.  0.
        -11    1    3    3    0    0  0.56584825031E+02  0.13335782560E+02 -0.10204330109E+03  0.11744156342E+03  0.00000000000E+00 0.  1.
         11    1    3    3    0    0  0.51359157485E+02 -0.56777635739E+02 -0.37528042710E+02  0.85263221657E+02  0.00000000000E+00 0. -1.
        -13    1    4    4    0    0 -0.18348809837E+02  0.44546183643E+02 -0.41522327823E+02  0.63601454444E+02  0.00000000000E+00 0.  1.
         13    1    4    4    0    0  0.28063071551E+02  0.55577901356E+02 -0.23564840388E+03  0.24373471102E+03  0.00000000000E+00 0. -1.
          2    1    1    2  501    0 -0.11765824423E+03 -0.56682231820E+02  0.94957381456E+02  0.16147210946E+03  0.00000000000E+00 0. -1.
<scales pt_clust_5="13000.00000" pt_clust_6="13000.00000" pt_clust_7="13000.00000" pt_clust_8="13000.00000" pt_clust_9="13000.00000"></scales>
<clustering>
<clus scale="   86.676">  7  8 -1 -1</clus>
<clus scale="   89.833">  5  6 -1 -1</clus>
<clus scale="  130.600">  7  9 -1 -1</clus>
<clus scale="  147.000">  2  5  1 -1</clus>
<clus scale="  431.948">  1  5  2 -1</clus>
</clustering>
</event>
<event>
 9    1  0.3303741E-006  0.2585583E+03  0.7546771E-02  0.1113344E+00
         21   -1    0    0  501  502  0.00000000000E+00  0.00000000000E+00  0.57553130490E+03  0.57553130490E+03  0.00000000000E+00 0.  1.
         -3   -1    0    0    0  501 -0.00000000000E+00 -0.00000000000E+00 -0.10190199536E+03  0.10190199536E+03  0.00000000000E+00 0.  1.
         23    2    1    2    0    0  0.17170410840E+03 -0.11514365141E+03  0.21754332275E+03  0.31352061899E+03  0.90717803959E+02 0.  0.
         23    2    1    2    0    0 -0.95017310302E+02  0.53108085204E+02  0.82214027002E+02  0.16401086818E+03  0.91058556301E+02 0.  0.
        -13    1    3    3    0    0  0.15593047580E+02 -0.56140941111E+02  0.66676779960E+02  0.88547960945E+02  0.00000000000E+00 0. -1.
         13    1    3    3    0    0  0.15611106082E+03 -0.59002710301E+02  0.15086654279E+03  0.22497265804E+03  0.00000000000E+00 0.  1.
        -13    1    4    4    0    0 -0.90356605401E+02  0.10766381445E+02  0.80316453657E+02  0.12137118207E+03  0.00000000000E+00 0. -1.
         13    1    4    4    0    0 -0.46607049015E+01  0.42341703759E+02  0.18975733451E+01  0.42639686115E+02  0.00000000000E+00 0.  1.
         -3    1    1    2    0  502 -0.76686798100E+02  0.62035566208E+02  0.17387195978E+03  0.19990181309E+03  0.00000000000E+00 0.  1.
<scales pt_clust_5="13000.00000" pt_clust_6="13000.00000" pt_clust_7="13000.00000" pt_clust_8="13000.00000" pt_clust_9="13000.00000"></scales>
<clustering>
<clus scale="   90.718">  5  6 -1 -1</clus>
<clus scale="   91.059">  7  8 -1 -1</clus>
<clus scale="   98.637">  7  9 -1 -1</clus>
<clus scale="  225.766">  2  5  1 -1</clus>
<clus scale="  258.558">  1  5  2 -1</clus>
</clustering>
</event>
<event>
 9    1  0.3303741E-006  0.2214295E+03  0.7546771E-02  0.1160283E+00
         21   -1    0    0  501  502  0.00000000000E+00  0.00000000000E+00  0.10576860840E+03  0.10576860840E+03  0.00000000000E+00 0. -1.
          2   -1    0    0  502    0 -0.00000000000E+00 -0.00000000000E+00 -0.27781259581E+03  0.27781259581E+03  0.00000000000E+00 0. -1.
         23    2    1    2    0    0  0.40471603909E+02 -0.14792271140E+02 -0.24868035002E+02  0.11770191278E+03  0.10667032905E+03 0.  0.
         23    2    1    2    0    0  0.49294028729E+02 -0.46665215470E+02 -0.64439783843E+02  0.12920389110E+03  0.89070848940E+02 0.  0.
        -11    1    3    3    0    0 -0.33409313300E+02 -0.42378491130E+01  0.10276351141E+02  0.35210012398E+02  0.00000000000E+00 0.  1.
         11    1    3    3    0    0  0.73880917210E+02 -0.10554422027E+02 -0.35144386143E+02  0.82491900387E+02  0.00000000000E+00 0. -1.
        -11    1    4    4    0    0  0.19141802365E+02 -0.69297048845E+02 -0.54499286126E+02  0.90214531893E+02  0.00000000000E+00 0.  1.
         11    1    4    4    0    0  0.30152226364E+02  0.22631833376E+02 -0.99404977170E+01  0.38989359209E+02  0.00000000000E+00 0. -1.
          2    1    1    2  501    0 -0.89765632638E+02  0.61457486609E+02 -0.82736168563E+02  0.13667540032E+03  0.00000000000E+00 0. -1.
<scales pt_clust_5="13000.00000" pt_clust_6="13000.00000" pt_clust_7="13000.00000" pt_clust_8="13000.00000" pt_clust_9="13000.00000"></scales>
<clustering>
<clus scale="   89.071">  7  8 -1 -1</clus>
<clus scale="  106.670">  5  6 -1 -1</clus>
<clus scale="  108.788">  7  9 -1 -1</clus>
<clus scale="  115.045">  2  5  1 -1</clus>
<clus scale="  221.430">  1  5  2 -1</clus>
</clustering>
</event>
<event>
 9    1  0.3303741E-006  0.1955216E+03  0.7546771E-02  0.1179549E+00
         21   -1    0    0  501  502  0.00000000000E+00  0.00000000000E+00  0.30439544917E+03  0.30439544917E+03  0.00000000000E+00 0. -1.
          2   -1    0    0  502    0 -0.00000000000E+00 -0.00000000000E+00 -0.19723076834E+03  0.19723076834E+03  0.00000000000E+00 0. -1.
         23    2    1    2    0    0 -0.84357661803E+01  0.59482567343E+02 -0.14626237992E+03  0.18154187010E+03  0.89193210783E+02 0.  0.
         23    2    1    2    0    0  0.53112107471E+02 -0.44766609864E+02  0.79513540228E+02  0.13992206641E+03  0.91819585436E+02 0.  0.
        -11    1    4    4    0    0  0.24840046242E+02  0.16242523952E+02  0.64534938208E+02  0.71032427321E+02  0.00000000000E+00 0.  1.
         11    1    4    4    0    0  0.28272061229E+02 -0.61009133815E+02  0.14978602019E+02  0.68889639087E+02  0.00000000000E+00 0. -1.
        -11    1    3    3    0    0  0.28098728938E+02  0.17653155149E+02 -0.11076460104E+03  0.11562858340E+03  0.00000000000E+00 0.  1.
         11    1    3    3    0    0 -0.36534495118E+02  0.41829412194E+02 -0.35497778876E+02  0.65913286697E+02  0.00000000000E+00 0. -1.
          2    1    1    2  501    0 -0.44676341291E+02 -0.14715957480E+02  0.17391352052E+03  0.18016228100E+03  0.00000000000E+00 0. -1.
<scales pt_clust_5="13000.00000" pt_clust_6="13000.00000" pt_clust_7="13000.00000" pt_clust_8="13000.00000" pt_clust_9="13000.00000"></scales>
<clustering>
<clus scale="   89.193">  7  8 -1 -1</clus>
<clus scale="   91.820">  5  6 -1 -1</clus>
<clus scale="   47.038">  5  9 -1 -1</clus>
<clus scale="  107.540">  2  7  1 -1</clus>
<clus scale="  195.522">  1  5  2 -1</clus>
</clustering>
</event>
<event>
 9    1  0.3303741E-006  0.1851294E+03  0.7546771E-02  0.1187021E+00
          2   -1    0    0  502    0 -0.00000000000E+00  0.00000000000E+00  0.49908325705E+03  0.49908325705E+03  0.00000000000E+00 0. -1.
         21   -1    0    0  501  502  0.00000000000E+00 -0.00000000000E+00 -0.46341248179E+02  0.46341248179E+02  0.00000000000E+00 0. -1.
         23    2    1    2    0    0  0.51851692080E+02 -0.25395132666E+02  0.24342870820E+03  0.26598766311E+03  0.90323807590E+02 0.  0.
         23    2    1    2    0    0  0.25913732760E+02 -0.18474792233E+02  0.12827793115E+03  0.15886005030E+03  0.88138802284E+02 0.  0.
        -11    1    4    4    0    0  0.20698398573E+02  0.31684207200E+02  0.29613672479E+02  0.48054992322E+02  0.00000000000E+00 0.  1.
         11    1    4    4    0    0  0.52153341864E+01 -0.50158999433E+02  0.98664258668E+02  0.11080505798E+03  0.00000000000E+00 0. -1.
        -11    1    3    3    0    0  0.76341008441E+02 -0.81350521146E+01  0.16348462622E+03  0.18061381911E+03  0.00000000000E+00 0.  1.
         11    1    3    3    0    0 -0.24489316360E+02 -0.17260080552E+02  0.79944081978E+02  0.85373844003E+02  0.00000000000E+00 0. -1.
          2    1    1    2  501    0 -0.77765424840E+02  0.43869924899E+02  0.81035369525E+02  0.12057679182E+03  0.00000000000E+00 0. -1.
<scales pt_clust_5="13000.00000" pt_clust_6="13000.00000" pt_clust_7="13000.00000" pt_clust_8="13000.00000" pt_clust_9="13000.00000"></scales>
<clustering>
<clus scale="   88.139">  5  6 -1 -1</clus>
<clus scale="   89.286">  5  9 -1 -1</clus>
<clus scale="   90.324">  7  8 -1 -1</clus>
<clus scale="  107.200">  1  7  2 -1</clus>
<clus scale="  185.129">  2  5  1 -1</clus>
</clustering>
</event>
<event>
 9    1  0.3303741E-006  0.1215442E+03  0.7546771E-02  0.1251999E+00
         21   -1    0    0  501  502  0.00000000000E+00  0.00000000000E+00  0.13499461387E+03  0.13499461387E+03  0.00000000000E+00 0.  1.
          2   -1    0    0  502    0 -0.00000000000E+00 -0.00000000000E+00 -0.30301455011E+03  0.30301455011E+03  0.00000000000E+00 0. -1.
         23    2    1    2    0    0  0.23507399590E+01  0.33952178557E+02 -0.26529306717E+03  0.28233304180E+03  0.90406076101E+02 0.  0.
         23    2    1    2    0    0  0.14986084027E+02 -0.12729345110E+02  0.85191840917E+02  0.12572730428E+03  0.90349799891E+02 0.  0.
        -11    1    4    4    0    0  0.36497036361E+02 -0.12560722704E+02  0.76769516908E+00  0.38605631375E+02  0.00000000000E+00 0. -1.
         11    1    4    4    0    0 -0.21510952334E+02 -0.16862240573E+00  0.84424145748E+02  0.87121672901E+02  0.00000000000E+00 0.  1.
        -11    1    3    3    0    0  0.21892670780E+02 -0.25165106861E+02 -0.74205083364E+02  0.81357028180E+02  0.00000000000E+00 0.  1.
         11    1    3    3    0    0 -0.19541930821E+02  0.59117285418E+02 -0.19108798380E+03  0.20097601362E+03  0.00000000000E+00 0. -1.
          2    1    1    2  501    0 -0.17336823987E+02 -0.21222833447E+02  0.12081290007E+02  0.29948817901E+02  0.00000000000E+00 0. -1.
<scales pt_clust_5="13000.00000" pt_clust_6="13000.00000" pt_clust_7="13000.00000" pt_clust_8="13000.00000" pt_clust_9="13000.00000"></scales>
<clustering>
<clus scale="   90.350">  5  6 -1 -1</clus>
<clus scale="   27.404">  5  9 -1 -1</clus>
<clus scale="   90.406">  7  8 -1 -1</clus>
<clus scale="   96.600">  2  7  1 -1</clus>
<clus scale="  121.544">  1  5  2 -1</clus>
</clustering>
</event>
<event>
 9    1  0.3303741E-006  0.3657457E+03  0.7546771E-02  0.1106908E+00
         21   -1    0    0  501  502  0.00000000000E+00  0.00000000000E+00  0.40817715404E+03  0.40817715404E+03  0.00000000000E+00 0. -1.
          2   -1    0    0  502    0 -0.00000000000E+00 -0.00000000000E+00 -0.27395217229E+03  0.27395217229E+03  0.00000000000E+00 0. -1.
         23    2    1    2    0    0 -0.53154868578E-01  0.22817669360E+02 -0.17797381960E+03  0.20125722307E+03  0.91154487068E+02 0.  0.
         23    2    1    2    0    0  0.14114697460E+03  0.85202749711E+02  0.16013234331E+03  0.24699161120E+03  0.90446180864E+02 0.  0.
        -11    1    4    4    0    0  0.10344074166E+03  0.99381521216E+02  0.10097711843E+03  0.17542249639E+03  0.00000000000E+00 0.  1.
         11    1    4    4    0    0  0.37706232941E+02 -0.14178771505E+02  0.59155224877E+02  0.71569114807E+02  0.00000000000E+00 0. -1.
        -13    1    3    3    0    0 -0.43755941604E+01 -0.35359550229E+02 -0.67647155207E+02  0.76456400806E+02  0.00000000000E+00 0.  1.
         13    1    3    3    0    0  0.43224392918E+01  0.58177219589E+02 -0.11032666439E+03  0.12480082226E+03  0.00000000000E+00 0. -1.
          2    1    1    2  501    0 -0.14109381973E+03 -0.10802041907E+03  0.15206645804E+03  0.23388049206E+03  0.00000000000E+00 0. -1.
<scales pt_clust_5="13000.00000" pt_clust_6="13000.00000" pt_clust_7="13000.00000" pt_clust_8="13000.00000" pt_clust_9="13000.00000"></scales>
<clustering>
<clus scale="   90.446">  5  6 -1 -1</clus>
<clus scale="   91.154">  7  8 -1 -1</clus>
<clus scale="   93.967">  2  7  1 -1</clus>
<clus scale="  171.215">  5  9 -1 -1</clus>
<clus scale="  365.746">  1  5  2 -1</clus>
</clustering>
</event>
<event>
 9    1  0.3303741E-006  0.1728196E+03  0.7546771E-02  0.1195724E+00
         21   -1    0    0  501  502  0.00000000000E+00  0.00000000000E+00  0.24687326242E+03  0.24687326242E+03  0.00000000000E+00 0. -1.
          3   -1    0    0  502    0 -0.00000000000E+00 -0.00000000000E+00 -0.11249707445E+03  0.11249707445E+03  0.00000000000E+00 0. -1.
         23    2    1    2    0    0 -0.43782267087E+02 -0.43789435742E+01 -0.38057198836E+02  0.11523948508E+03  0.99477266146E+02 0.  0.
         23    2    1    2    0    0 -0.93303843706E+00  0.75641913346E+01  0.31026103786E+02  0.95787924610E+02  0.90302933694E+02 0.  0.
        -11    1    4    4    0    0  0.38436923978E+02 -0.99296683125E+01 -0.44928381599E+01  0.39952234385E+02  0.00000000000E+00 0.  1.
         11    1    4    4    0    0 -0.39369962415E+02  0.17493859647E+02  0.35518941946E+02  0.55835690225E+02  0.00000000000E+00 0. -1.
        -13    1    3    3    0    0  0.22784404174E+02  0.30924421544E+01  0.16948230153E+02  0.28564572067E+02  0.00000000000E+00 0.  1.
         13    1    3    3    0    0 -0.66566671261E+02 -0.74713857286E+01 -0.55005428989E+02  0.86674913012E+02  0.00000000000E+00 0. -1.
          3    1    1    2  501    0  0.44715305524E+02 -0.31852477604E+01  0.14140728302E+03  0.14834292717E+03  0.00000000000E+00 0. -1.
<scales pt_clust_5="13000.00000" pt_clust_6="13000.00000" pt_clust_7="13000.00000" pt_clust_8="13000.00000" pt_clust_9="13000.00000"></scales>
<clustering>
<clus scale="   90.303">  5  6 -1 -1</clus>
<clus scale="   44.829">  5  9 -1 -1</clus>
<clus scale="   99.477">  7  8 -1 -1</clus>
<clus scale="  108.774">  2  7  1 -1</clus>
<clus scale="  172.820">  1  5  2 -1</clus>
</clustering>
</event>
<event>
 9    1  0.3303741E-006  0.1948158E+03  0.7546771E-02  0.1165750E+00
          1   -1    0    0  502    0 -0.00000000000E+00  0.00000000000E+00  0.30078945986E+03  0.30078945986E+03  0.00000000000E+00 0. -1.
         21   -1    0    0  501  502  0.00000000000E+00 -0.00000000000E+00 -0.10778496901E+03  0.10778496901E+03  0.00000000000E+00 0.  1.
         23    2    1    2    0    0 -0.10847273741E+03 -0.25799070620E+02  0.14529395191E+03  0.20800156740E+03  0.98602194574E+02 0.  0.
         23    2    1    2    0    0  0.64701777088E+02  0.27704306025E+02  0.84732024463E+02  0.14321331754E+03  0.91524258102E+02 0.  0.
        -11    1    4    4    0    0  0.20456415950E+02  0.56513085628E+02  0.30025104577E+02  0.67184080745E+02  0.00000000000E+00 0. -1.
         11    1    4    4    0    0  0.44245361138E+02 -0.28808779603E+02  0.54706919886E+02  0.76029236797E+02  0.00000000000E+00 0.  1.
        -13    1    3    3    0    0 -0.25937362999E+02 -0.51239213590E+02  0.85340427744E+02  0.10286492316E+03  0.00000000000E+00 0. -1.
         13    1    3    3    0    0 -0.82535374410E+02  0.25440142970E+02  0.59953524166E+02  0.10513664425E+03  0.00000000000E+00 0.  1.
          1    1    1    2  501    0  0.43770960321E+02 -0.19052354046E+01 -0.37021485521E+02  0.57359543927E+02  0.00000000000E+00 0. -1.
<scales pt_clust_5="13000.00000" pt_clust_6="13000.00000" pt_clust_7="13000.00000" pt_clust_8="13000.00000" pt_clust_9="13000.00000"></scales>
<clustering>
<clus scale="   91.524">  5  6 -1 -1</clus>
<clus scale="   43.812">  5  9 -1 -1</clus>
<clus scale="   98.602">  7  8 -1 -1</clus>
<clus scale="  148.843">  1  7  2 -1</clus>
<clus scale="  194.816">  2  5  1 -1</clus>
</clustering>
</event>
<event>
 9    1  0.3303741E-006  0.2195107E+03  0.7546771E-02  0.1152727E+00
         -1   -1    0    0    0  501 -0.00000000000E+00  0.00000000000E+00  0.52051677369E+03  0.52051677369E+03  0.00000000000E+00 0.  1.
         21   -1    0    0  501  502  0.00000000000E+00 -0.00000000000E+00 -0.12004465910E+03  0.12004465910E+03  0.00000000000E+00 0.  1.
         23    2    1    2    0    0 -0.80930972961E+02 -0.69385958173E+02  0.39672322133E+03  0.42101874690E+03  0.92212999731E+02 0.  0.
         23    2    1    2    0    0  0.34959316863E+02  0.36002187621E+02  0.77245595501E+02  0.12664685961E+03  0.86915094631E+02 0.  0.
        -11    1    3    3    0    0 -0.36703764035E+02 -0.82444762488E+02  0.20783208528E+03  0.22657996564E+03  0.00000000000E+00 0. -1.
         11    1    3    3    0    0 -0.44227208927E+02  0.13058804314E+02  0.18889113605E+03  0.19443878126E+03  0.00000000000E+00 0.  1.
        -11    1    4    4    0    0 -0.55495119097E+01 -0.24964989461E+02  0.30467185697E+02  0.39778099320E+02  0.00000000000E+00 0. -1.
         11    1    4    4    0    0  0.40508828773E+02  0.60967177081E+02  0.46778409805E+02  0.86868760286E+02  0.00000000000E+00 0.  1.
         -1    1    1    2    0  502  0.45971656098E+02  0.33383770553E+02 -0.73496702248E+02  0.92895826289E+02  0.00000000000E+00 0.  1.
<scales pt_clust_5="13000.00000" pt_clust_6="13000.00000" pt_clust_7="13000.00000" pt_clust_8="13000.00000" pt_clust_9="13000.00000"></scales>
<clustering>
<clus scale="   86.915">  7  8 -1 -1</clus>
<clus scale="   56.814">  7  9 -1 -1</clus>
<clus scale="   92.213">  5  6 -1 -1</clus>
<clus scale="  140.952">  1  5  2 -1</clus>
<clus scale="  219.511">  2  5  1 -1</clus>
</clustering>
</event>
<event>
 9    1  0.3303741E-006  0.1962233E+03  0.7546771E-02  0.1179549E+00
          1   -1    0    0  502    0 -0.00000000000E+00  0.00000000000E+00  0.51927955607E+03  0.51927955607E+03  0.00000000000E+00 0. -1.
         21   -1    0    0  501  502  0.00000000000E+00 -0.00000000000E+00 -0.45620376937E+02  0.45620376937E+02  0.00000000000E+00 0.  1.
         23    2    1    2    0    0 -0.58800157846E+01 -0.54110455066E+02  0.21840738578E+03  0.24294175958E+03  0.91413327527E+02 0.  0.
         23    2    1    2    0    0 -0.39639946762E+02 -0.12524942519E+02  0.20114528267E+03  0.22479924332E+03  0.91362330827E+02 0.  0.
        -13    1    4    4    0    0 -0.30194352654E+02 -0.44918290788E+02  0.65240669485E+02  0.84768489041E+02  0.00000000000E+00 0. -1.
         13    1    4    4    0    0 -0.94455941079E+01  0.32393348268E+02  0.13590461318E+03  0.14003075428E+03  0.00000000000E+00 0.  1.
        -13    1    3    3    0    0 -0.46834151134E+02 -0.37749317882E+02  0.10141127324E+03  0.11790969024E+03  0.00000000000E+00 0.  1.
         13    1    3    3    0    0  0.40954135349E+02 -0.16361137184E+02  0.11699611254E+03  0.12503206934E+03  0.00000000000E+00 0. -1.
          1    1    1    2  501    0  0.45519962547E+02  0.66635397586E+02  0.54106510690E+02  0.97158930113E+02  0.00000000000E+00 0. -1.
<scales pt_clust_5="13000.00000" pt_clust_6="13000.00000" pt_clust_7="13000.00000" pt_clust_8="13000.00000" pt_clust_9="13000.00000"></scales>
<clustering>
<clus scale="   91.362">  5  6 -1 -1</clus>
<clus scale="   80.699">  5  9 -1 -1</clus>
<clus scale="   91.413">  7  8 -1 -1</clus>
<clus scale="  106.390">  1  7  2 -1</clus>
<clus scale="  196.223">  2  5  1 -1</clus>
</clustering>
</event>
<event>
 9    1  0.3303741E-006  0.1589652E+03  0.7546771E-02  0.1212229E+00
         21   -1    0    0  501  502  0.00000000000E+00  0.00000000000E+00  0.47699257532E+02  0.47699257532E+02  0.00000000000E+00 0.  1.
         -1   -1    0    0    0  501 -0.00000000000E+00 -0.00000000000E+00 -0.41779615666E+03  0.41779615666E+03  0.00000000000E+00 0.  1.
         23    2    1    2    0    0 -0.44779540362E+01 -0.29181055208E+02 -0.24296707747E+03  0.26194703924E+03  0.93336298281E+02 0.  0.
         23    2    1    2    0    0  0.39859036831E+02  0.22058459921E+02 -0.13436346720E+03  0.16673970734E+03  0.87597204383E+02 0.  0.
        -11    1    4    4    0    0  0.33804970403E+02  0.51036061217E+02 -0.11795262761E+03  0.13289197842E+03  0.00000000000E+00 0.  1.
         11    1    4    4    0    0  0.60540664281E+01 -0.28977601297E+02 -0.16410839593E+02  0.33847728925E+02  0.00000000000E+00 0. -1.
        -13    1    3    3    0    0  0.22476206590E+02 -0.55666293634E+02 -0.14415438167E+03  0.15615505712E+03  0.00000000000E+00 0.  1.
         13    1    3    3    0    0 -0.26954160626E+02  0.26485238426E+02 -0.98812695803E+02  0.10579198212E+03  0.00000000000E+00 0. -1.
         -1    1    1    2    0  502 -0.35381082795E+02  0.71225952877E+01  0.72336455417E+01  0.36808667609E+02  0.00000000000E+00 0.  1.
<scales pt_clust_5="13000.00000" pt_clust_6="13000.00000" pt_clust_7="13000.00000" pt_clust_8="13000.00000" pt_clust_9="13000.00000"></scales>
<clustering>
<clus scale="   87.597">  5  6 -1 -1</clus>
<clus scale="   36.091">  5  9 -1 -1</clus>
<clus scale="   93.336">  7  8 -1 -1</clus>
<clus scale="   97.894">  2  7  1 -1</clus>
<clus scale="  158.965">  1  5  2 -1</clus>
</clustering>
</event>
<event>
 9    1  0.3303741E-006  0.4945563E+03  0.7546771E-02  0.1069014E+00
         21   -1    0    0  501  502  0.00000000000E+00  0.00000000000E+00  0.31286341486E+03  0.31286341486E+03  0.00000000000E+00 0. -1.
          1   -1    0    0  502    0 -0.00000000000E+00 -0.00000000000E+00 -0.31153313658E+03  0.31153313658E+03  0.00000000000E+00 0. -1.
         23    2    1    2    0    0  0.82480984776E+01  0.51377841702E+02 -0.69171053315E+02  0.12484037252E+03  0.89959825742E+02 0.  0.
         23    2    1    2    0    0 -0.24034000826E+03 -0.52098833185E+02  0.38899235790E+02  0.26532153829E+03  0.91677478952E+02 0.  0.
        -11    1    3    3    0    0  0.26213182796E+02 -0.18299762467E+02 -0.21367456657E+02  0.38452314139E+02  0.00000000000E+00 0.  1.
         11    1    3    3    0    0 -0.17965084318E+02  0.69677604169E+02 -0.47803596658E+02  0.86388058380E+02  0.00000000000E+00 0. -1.
        -11    1    4    4    0    0 -0.42001517039E+02  0.24204511328E+02  0.18300180222E+02  0.51815850841E+02  0.00000000000E+00 0.  1.
         11    1    4    4    0    0 -0.19833849122E+03 -0.76303344513E+02  0.20599055568E+02  0.21350568745E+03  0.00000000000E+00 0. -1.
          1    1    1    2  501    0  0.23209190978E+03  0.72099148253E+00  0.31602095802E+02  0.23423464064E+03  0.00000000000E+00 0. -1.
<scales pt_clust_5="13000.00000" pt_clust_6="13000.00000" pt_clust_7="13000.00000" pt_clust_8="13000.00000" pt_clust_9="13000.00000"></scales>
<clustering>
<clus scale="   89.960">  5  6 -1 -1</clus>
<clus scale="   91.677">  7  8 -1 -1</clus>
<clus scale="  103.925">  2  5  1 -1</clus>
<clus scale="  237.306">  7  9 -1 -1</clus>
<clus scale="  494.556">  1  5  2 -1</clus>
</clustering>
</event>
<event>
 9    1  0.3303741E-006  0.2256884E+03  0.7546771E-02  0.1157354E+00
         21   -1    0    0  501  502  0.00000000000E+00  0.00000000000E+00  0.46766441158E+02  0.46766441158E+02  0.00000000000E+00 0. -1.
          1   -1    0    0  502    0 -0.00000000000E+00 -0.00000000000E+00 -0.66689937231E+03  0.66689937231E+03  0.00000000000E+00 0. -1.
         23    2    1    2    0    0 -0.42034277252E+02 -0.59164004877E+02 -0.30179450371E+03  0.32344200863E+03  0.90926071843E+02 0.  0.
         23    2    1    2    0    0  0.63583169850E+01 -0.83439670252E+01 -0.29709483719E+03  0.31096858080E+03  0.91247279280E+02 0.  0.
        -11    1    4    4    0    0 -0.26772491943E+02  0.30638999272E+02 -0.13107934134E+03  0.13724907405E+03  0.00000000000E+00 0. -1.
         11    1    4    4    0    0  0.33130808928E+02 -0.38982966298E+02 -0.16601549585E+03  0.17371950674E+03  0.00000000000E+00 0.  1.
        -11    1    3    3    0    0 -0.32068498192E+02 -0.80905428598E+02 -0.18807668345E+03  0.20723637666E+03  0.00000000000E+00 0. -1.
         11    1    3    3    0    0 -0.99657790592E+01  0.21741423721E+02 -0.11371782025E+03  0.11620563197E+03  0.00000000000E+00 0.  1.
          1    1    1    2  501    0  0.35675960267E+02  0.67507971902E+02 -0.21243590255E+02  0.79255224044E+02  0.00000000000E+00 0. -1.
<scales pt_clust_5="13000.00000" pt_clust_6="13000.00000" pt_clust_7="13000.00000" pt_clust_8="13000.00000" pt_clust_9="13000.00000"></scales>
<clustering>
<clus scale="   90.926">  7  8 -1 -1</clus>
<clus scale="   91.247">  5  6 -1 -1</clus>
<clus scale="   76.355">  5  9 -1 -1</clus>
<clus scale="  116.339">  2  7  1 -1</clus>
<clus scale="  225.688">  1  5  2 -1</clus>
</clustering>
</event>
<event>
 9    1  0.3303741E-006  0.5355773E+03  0.7546771E-02  0.1056969E+00
          4   -1    0    0  502    0 -0.00000000000E+00  0.00000000000E+00  0.68984486833E+03  0.68984486833E+03  0.00000000000E+00 0. -1.
         21   -1    0    0  501  502  0.00000000000E+00 -0.00000000000E+00 -0.15327317664E+03  0.15327317664E+03  0.00000000000E+00 0. -1.
         23    2    1    2    0    0 -0.55869024035E+02  0.40424505764E+02  0.10519799583E+03  0.15542168053E+03  0.91289604768E+02 0.  0.
         23    2    1    2    0    0 -0.19484735906E+03  0.80192233721E+02  0.88172691194E+02  0.24588867754E+03  0.91052350808E+02 0.  0.
        -11    1    4    4    0    0 -0.16757766024E+02 -0.14643325301E+02  0.27131545365E+02  0.35090888445E+02  0.00000000000E+00 0.  1.
         11    1    4    4    0    0 -0.17808959304E+03  0.94835559022E+02  0.61041145829E+02  0.21079778910E+03  0.00000000000E+00 0. -1.
        -11    1    3    3    0    0 -0.26396182603E+02  0.54250547187E+02  0.18955147895E+02  0.63239054056E+02  0.00000000000E+00 0.  1.
         11    1    3    3    0    0 -0.29472841432E+02 -0.13826041423E+02  0.86242847934E+02  0.92182626472E+02  0.00000000000E+00 0. -1.
          4    1    1    2  501    0  0.25071638310E+03 -0.12061673949E+03  0.34320100467E+03  0.44180768690E+03  0.00000000000E+00 0. -1.
<scales pt_clust_5="13000.00000" pt_clust_6="13000.00000" pt_clust_7="13000.00000" pt_clust_8="13000.00000" pt_clust_9="13000.00000"></scales>
<clustering>
<clus scale="   91.052">  5  6 -1 -1</clus>
<clus scale="   91.290">  7  8 -1 -1</clus>
<clus scale="  114.408">  1  7  2 -1</clus>
<clus scale="  230.770">  5  9 -1 -1</clus>
<clus scale="  535.577">  2  5  1 -1</clus>
</clustering>
</event>
<event>
 9    1  0.3303741E-006  0.2279411E+03  0.7546771E-02  0.1164605E+00
         21   -1    0    0  501  502  0.00000000000E+00  0.00000000000E+00  0.56847800962E+02  0.56847800962E+02  0.00000000000E+00 0. -1.
          1   -1    0    0  502    0 -0.00000000000E+00 -0.00000000000E+00 -0.53365278573E+03  0.53365278573E+03  0.00000000000E+00 0. -1.
         23    2    1    2    0    0  0.65748640780E+01 -0.12319639678E+02 -0.25577881832E+03  0.27299514891E+03  0.94385089230E+02 0.  0.
         23    2    1    2    0    0 -0.86510608052E+02  0.11982102515E+02 -0.19907652569E+03  0.23461017961E+03  0.88220276654E+02 0.  0.
        -11    1    4    4    0    0 -0.49912137407E+02 -0.25107128382E+02 -0.44314155879E+02  0.71311526189E+02  0.00000000000E+00 0. -1.
         11    1    4    4    0    0 -0.36598470645E+02  0.37089230897E+02 -0.15476236981E+03  0.16329865342E+03  0.00000000000E+00 0.  1.
        -13    1    3    3    0    0 -0.17525575629E+02  0.33988679101E+02 -0.67148136430E+02  0.77273852850E+02  0.00000000000E+00 0. -1.
         13    1    3    3    0    0  0.24100439707E+02 -0.46308318779E+02 -0.18863068189E+03  0.19572129607E+03  0.00000000000E+00 0.  1.
          1    1    1    2  501    0  0.79935743974E+02  0.33753716265E+00 -0.21949640757E+02  0.82895258160E+02  0.00000000000E+00 0. -1.
<scales pt_clust_5="13000.00000" pt_clust_6="13000.00000" pt_clust_7="13000.00000" pt_clust_8="13000.00000" pt_clust_9="13000.00000"></scales>
<clustering>
<clus scale="   88.220">  5  6 -1 -1</clus>
<clus scale="   79.936">  5  9 -1 -1</clus>
<clus scale="   94.385">  7  8 -1 -1</clus>
<clus scale="   95.413">  2  7  1 -1</clus>
<clus scale="  227.941">  1  5  2 -1</clus>
</clustering>
</event>
<event>
 9    1  0.3303741E-006  0.1747803E+03  0.7546771E-02  0.1197321E+00
         -2   -1    0    0    0  501 -0.00000000000E+00  0.00000000000E+00  0.14320949996E+03  0.14320949996E+03  0.00000000000E+00 0.  1.
         21   -1    0    0  501  502  0.00000000000E+00 -0.00000000000E+00 -0.22519350560E+03  0.22519350560E+03  0.00000000000E+00 0. -1.
         23    2    1    2    0    0  0.33663194160E+02  0.28716859296E+02  0.80635813588E+02  0.12967016498E+03  0.91402125822E+02 0.  0.
         23    2    1    2    0    0  0.47549064314E+01 -0.47425070771E+02 -0.16654623422E+03  0.19582171889E+03  0.91305810240E+02 0.  0.
        -11    1    4    4    0    0  0.28858570915E+02 -0.24089726388E+02 -0.14781971757E+02  0.40393548021E+02  0.00000000000E+00 0.  1.
         11    1    4    4    0    0 -0.24103664484E+02 -0.23335344384E+02 -0.15176426246E+03  0.15542817087E+03  0.00000000000E+00 0. -1.
        -13    1    3    3    0    0  0.12537484384E+02  0.50772233271E+02  0.10733599123E+02  0.53387436127E+02  0.00000000000E+00 0.  1.
         13    1    3    3    0    0  0.21125709776E+02 -0.22055373975E+02  0.69902214465E+02  0.76282728857E+02  0.00000000000E+00 0. -1.
         -2    1    1    2    0  502 -0.38418100591E+02  0.18708211475E+02  0.39264149950E+01  0.42911121686E+02  0.00000000000E+00 0.  1.
<scales pt_clust_5="13000.00000" pt_clust_6="13000.00000" pt_clust_7="13000.00000" pt_clust_8="13000.00000" pt_clust_9="13000.00000"></scales>
<clustering>
<clus scale="   91.306">  5  6 -1 -1</clus>
<clus scale="   42.731">  5  9 -1 -1</clus>
<clus scale="   91.402">  7  8 -1 -1</clus>
<clus scale="  101.549">  1  7  2 -1</clus>
<clus scale="  174.780">  2  5  1 -1</clus>
</clustering>
</event>
<event>
 9    1  0.3303741E-006  0.1616297E+03  0.7546771E-02  0.1196306E+00
         21   -1    0    0  501  502  0.00000000000E+00  0.00000000000E+00  0.41123060672E+03  0.41123060672E+03  0.00000000000E+00 0. -1.
          1   -1    0    0  502    0 -0.00000000000E+00 -0.00000000000E+00 -0.60292146564E+02  0.60292146564E+02  0.00000000000E+00 0. -1.
         23    2    1    2    0    0  0.91911721777E+02 -0.16194058826E+02  0.73556905625E+02  0.15048586166E+03  0.92332897998E+02 0.  0.
         23    2    1    2    0    0 -0.41483585627E+02  0.51117700237E+01  0.12482308343E+03  0.15997820311E+03  0.90913174210E+02 0.  0.
        -11    1    4    4    0    0 -0.10743353573E+02  0.39074794226E+02  0.19187410593E+02  0.44837661793E+02  0.00000000000E+00 0.  1.
         11    1    4    4    0    0 -0.30740232054E+02 -0.33963024202E+02  0.10563567284E+03  0.11514054132E+03  0.00000000000E+00 0. -1.
        -13    1    3    3    0    0  0.30700852105E+02 -0.39465211522E+02 -0.25726690469E+01  0.50066594316E+02  0.00000000000E+00 0. -1.
         13    1    3    3    0    0  0.61210869673E+02  0.23271152695E+02  0.76129574672E+02  0.10041926734E+03  0.00000000000E+00 0.  1.
          1    1    1    2  501    0 -0.50428136150E+02  0.11082288803E+02  0.15255847110E+03  0.16105868852E+03  0.00000000000E+00 0. -1.
<scales pt_clust_5="13000.00000" pt_clust_6="13000.00000" pt_clust_7="13000.00000" pt_clust_8="13000.00000" pt_clust_9="13000.00000"></scales>
<clustering>
<clus scale="   90.913">  5  6 -1 -1</clus>
<clus scale="   51.632">  5  9 -1 -1</clus>
<clus scale="   92.333">  7  8 -1 -1</clus>
<clus scale="  131.284">  2  7  1 -1</clus>
<clus scale="  161.630">  1  5  2 -1</clus>
</clustering>
</event>
<event>
 9    1  0.3303741E-006  0.1647190E+03  0.7546771E-02  0.1205428E+00
         21   -1    0    0  501  502  0.00000000000E+00  0.00000000000E+00  0.18446425526E+03  0.18446425526E+03  0.00000000000E+00 0. -1.
         -3   -1    0    0    0  501 -0.00000000000E+00 -0.00000000000E+00 -0.96956818282E+02  0.96956818282E+02  0.00000000000E+00 0.  1.
         23    2    1    2    0    0  0.33386905791E+02  0.35163549635E+02  0.45185667362E+02  0.11135203275E+03  0.89478321186E+02 0.  0.
         23    2    1    2    0    0  0.32370829284E+01 -0.68347311721E+02  0.14405843203E+02  0.11330833639E+03  0.89159503431E+02 0.  0.
        -13    1    4    4    0    0  0.29129730487E+02  0.36118071204E+01 -0.12956194247E+02  0.32085032621E+02  0.00000000000E+00 0.  1.
         13    1    4    4    0    0 -0.25892647559E+02 -0.71959118841E+02  0.27362037450E+02  0.81223303771E+02  0.00000000000E+00 0. -1.
        -13    1    3    3    0    0  0.60193630230E+02  0.41783538579E+02  0.26091894969E+02  0.77781258665E+02  0.00000000000E+00 0.  1.
         13    1    3    3    0    0 -0.26806724438E+02 -0.66199889445E+01  0.19093772392E+02  0.33570774089E+02  0.00000000000E+00 0. -1.
         -3    1    1    2    0  502 -0.36623988720E+02  0.33183762086E+02  0.27915926409E+02  0.56760704393E+02  0.00000000000E+00 0.  1.
<scales pt_clust_5="13000.00000" pt_clust_6="13000.00000" pt_clust_7="13000.00000" pt_clust_8="13000.00000" pt_clust_9="13000.00000"></scales>
<clustering>
<clus scale="   89.160">  5  6 -1 -1</clus>
<clus scale="   49.421">  5  9 -1 -1</clus>
<clus scale="   89.478">  7  8 -1 -1</clus>
<clus scale="  101.772">  2  7  1 -1</clus>
<clus scale="  164.719">  1  5  2 -1</clus>
</clustering>
</event>
<event>
 9    1  0.3303741E-006  0.2778520E+03  0.7546771E-02  0.1136684E+00
          1   -1    0    0  502    0 -0.00000000000E+00  0.00000000000E+00  0.40918098399E+03  0.40918098399E+03  0.00000000000E+00 0. -1.
         21   -1    0    0  501  502  0.00000000000E+00 -0.00000000000E+00 -0.11715391776E+03  0.11715391776E+03  0.00000000000E+00 0. -1.
         23    2    1    2    0    0 -0.45686805176E+02 -0.23073001001E+01  0.21504582850E+03  0.23801586525E+03  0.91182432283E+02 0.  0.
         23    2    1    2    0    0  0.30168816801E+02  0.17439831321E+02  0.16191816994E+03  0.20066012983E+03  0.11328145799E+03 0.  0.
        -13    1    3    3    0    0 -0.66219168317E+02 -0.23581843741E+02  0.12723543518E+03  0.14536140331E+03  0.00000000000E+00 0. -1.
         13    1    3    3    0    0  0.20532363142E+02  0.21274543641E+02  0.87810393322E+02  0.92654461947E+02  0.00000000000E+00 0.  1.
        -13    1    4    4    0    0  0.59430372420E+02  0.33159949656E+02  0.51475492173E+02  0.85330403266E+02  0.00000000000E+00 0.  1.
         13    1    4    4    0    0 -0.29261555619E+02 -0.15720118335E+02  0.11044267777E+03  0.11532972657E+03  0.00000000000E+00 0. -1.
          1    1    1    2  501    0  0.15517988375E+02 -0.15132531221E+02 -0.84936932205E+02  0.87658906659E+02  0.00000000000E+00 0. -1.
<scales pt_clust_5="13000.00000" pt_clust_6="13000.00000" pt_clust_7="13000.00000" pt_clust_8="13000.00000" pt_clust_9="13000.00000"></scales>
<clustering>
<clus scale="   91.182">  5  6 -1 -1</clus>
<clus scale="  102.014">  1  5  2 -1</clus>
<clus scale="  113.281">  7  8 -1 -1</clus>
<clus scale="   21.445">  7  9 -1 -1</clus>
<clus scale="  277.852">  2  5  1 -1</clus>
</clustering>
</event>
<event>
 9    1  0.3303741E-006  0.3793553E+03  0.7546771E-02  0.1073218E+00
         21   -1    0    0  501  502  0.00000000000E+00  0.00000000000E+00  0.10410959074E+03  0.10410959074E+03  0.00000000000E+00 0.  1.
         -4   -1    0    0    0  501 -0.00000000000E+00 -0.00000000000E+00 -0.10503247260E+04  0.10503247260E+04  0.00000000000E+00 0.  1.
         23    2    1    2    0    0  0.15516571556E+03 -0.97795033197E+02 -0.62343287918E+03  0.65633911926E+03  0.92044645846E+02 0.  0.
         23    2    1    2    0    0 -0.65819729834E+01  0.12549028055E+03 -0.30722379985E+03  0.34615369284E+03  0.98207856067E+02 0.  0.
        -13    1    3    3    0    0  0.15691663703E+03 -0.61369012230E+02 -0.49948977144E+03  0.52714231324E+03  0.00000000000E+00 0.  1.
         13    1    3    3    0    0 -0.17509214668E+01 -0.36426020967E+02 -0.12394310774E+03  0.12919680602E+03  0.00000000000E+00 0. -1.
        -13    1    4    4    0    0 -0.48113389150E+02  0.98681538593E+02 -0.20235996805E+03  0.23022272030E+03  0.00000000000E+00 0. -1.
         13    1    4    4    0    0  0.41531416167E+02  0.26808741957E+02 -0.10486383180E+03  0.11593097254E+03  0.00000000000E+00 0.  1.
         -4    1    1    2    0  502 -0.14858374258E+03 -0.27695247352E+02 -0.15558456277E+02  0.15194150469E+03  0.00000000000E+00 0.  1.
<scales pt_clust_5="13000.00000" pt_clust_6="13000.00000" pt_clust_7="13000.00000" pt_clust_8="13000.00000" pt_clust_9="13000.00000"></scales>
<clustering>
<clus scale="   92.045">  5  6 -1 -1</clus>
<clus scale="   98.208">  7  8 -1 -1</clus>
<clus scale="  151.143">  7  9 -1 -1</clus>
<clus scale="  205.213">  2  5  1 -1</clus>
<clus scale="  379.355">  1  5  2 -1</clus>
</clustering>
</event>
<event>
 9    1  0.3303741E-006  0.4073527E+03  0.7546771E-02  0.1050016E+00
          2   -1    0    0  502    0 -0.00000000000E+00  0.00000000000E+00  0.61403476249E+03  0.61403476249E+03  0.00000000000E+00 0. -1.
         21   -1    0    0  501  502  0.00000000000E+00 -0.00000000000E+00 -0.22378764929E+03  0.22378764929E+03  0.00000000000E+00 0. -1.
         23    2    1    2    0    0 -0.22620172650E+03 -0.19456196500E+03  0.26130763671E+03  0.41055012568E+03  0.10605727414E+03 0.  0.
         23    2    1    2    0    0  0.49944984355E+01 -0.24948800108E+02  0.25666178086E+02  0.98969091002E+02  0.92134361856E+02 0.  0.
        -13    1    3    3    0    0 -0.18770300266E+03 -0.12064016419E+03  0.23280133707E+03  0.32246384133E+03  0.00000000000E+00 0. -1.
         13    1    3    3    0    0 -0.38498723840E+02 -0.73921800802E+02  0.28506299637E+02  0.88086284348E+02  0.00000000000E+00 0.  1.
        -13    1    4    4    0    0  0.46561721095E+02 -0.27193587987E+02  0.15795719004E+02  0.56187096720E+02  0.00000000000E+00 0.  1.
         13    1    4    4    0    0 -0.41567222660E+02  0.22447878785E+01  0.98704590826E+01  0.42781994282E+02  0.00000000000E+00 0. -1.
          2    1    1    2  501    0  0.22120722806E+03  0.21951076511E+03  0.10327329841E+03  0.32830319509E+03  0.00000000000E+00 0. -1.
<scales pt_clust_5="13000.00000" pt_clust_6="13000.00000" pt_clust_7="13000.00000" pt_clust_8="13000.00000" pt_clust_9="13000.00000"></scales>
<clustering>
<clus scale="   92.134">  7  8 -1 -1</clus>
<clus scale="  106.057">  5  6 -1 -1</clus>
<clus scale="  311.637">  7  9 -1 -1</clus>
<clus scale="  316.654">  1  5  2 -1</clus>
<clus scale="  407.353">  2  5  1 -1</clus>
</clustering>
</event>
<event>
 9    1  0.3303741E-006  0.2204465E+03  0.7546771E-02  0.1144003E+00
         21   -1    0    0  501  502  0.00000000000E+00  0.00000000000E+00  0.30598020623E+03  0.30598020623E+03  0.00000000000E+00 0. -1.
          2   -1    0    0  502    0 -0.00000000000E+00 -0.00000000000E+00 -0.36796123267E+03  0.36796123267E+03  0.00000000000E+00 0. -1.
         23    2    1    2    0    0 -0.76148651360E+02 -0.12383695780E+03 -0.30255120457E+03  0.34764298117E+03  0.90466578052E+02 0.  0.
         23    2    1    2    0    0  0.30166689068E+02  0.58347733807E+02  0.57861848724E+02  0.12683539611E+03  0.91786366082E+02 0.  0.
        -11    1    3    3    0    0 -0.11745693262E+02 -0.71737171463E+02 -0.70560973913E+02  0.10130663413E+03  0.00000000000E+00 0.  1.
         11    1    3    3    0    0 -0.64402958099E+02 -0.52099786336E+02 -0.23199023066E+03  0.24633634703E+03  0.00000000000E+00 0. -1.
        -11    1    4    4    0    0  0.50218523616E+02  0.49768780033E+02  0.64588080447E+01  0.70996815291E+02  0.00000000000E+00 0.  1.
         11    1    4    4    0    0 -0.20051834548E+02  0.85789537741E+01  0.51403040679E+02  0.55838580817E+02  0.00000000000E+00 0. -1.
          2    1    1    2  501    0  0.45981962293E+02  0.65489223991E+02  0.18270832941E+03  0.19946306163E+03  0.00000000000E+00 0. -1.
<scales pt_clust_5="13000.00000" pt_clust_6="13000.00000" pt_clust_7="13000.00000" pt_clust_8="13000.00000" pt_clust_9="13000.00000"></scales>
<clustering>
<clus scale="   90.467">  5  6 -1 -1</clus>
<clus scale="   91.786">  7  8 -1 -1</clus>
<clus scale="   80.020">  7  9 -1 -1</clus>
<clus scale="  171.226">  2  5  1 -1</clus>
<clus scale="  220.447">  1  5  2 -1</clus>
</clustering>
</event>
<event>
 9    1  0.3303741E-006  0.1737947E+03  0.7546771E-02  0.1191407E+00
         -2   -1    0    0    0  501 -0.00000000000E+00  0.00000000000E+00  0.19782557589E+03  0.19782557589E+03  0.00000000000E+00 0.  1.
         21   -1    0    0  501  502  0.00000000000E+00 -0.00000000000E+00 -0.12108423917E+03  0.12108423917E+03  0.00000000000E+00 0. -1.
         23    2    1    2    0    0  0.55788668861E+02 -0.45549918323E+02  0.84725187240E+02  0.14493183772E+03  0.92950038192E+02 0.  0.
         23    2    1    2    0    0 -0.29330288719E+01  0.62500991112E+02 -0.29597744828E+02  0.11441105721E+03  0.91098227012E+02 0.  0.
        -11    1    4    4    0    0 -0.35925580737E+02  0.38212561918E+02 -0.46499182823E+02  0.70092947169E+02  0.00000000000E+00 0. -1.
         11    1    4    4    0    0  0.32992551865E+02  0.24288429195E+02  0.16901437995E+02  0.44318110041E+02  0.00000000000E+00 0.  1.
        -11    1    3    3    0    0  0.50690486695E+01 -0.45210604801E+02 -0.79629897175E+00  0.45500858595E+02  0.00000000000E+00 0.  1.
         11    1    3    3    0    0  0.50719620191E+02 -0.33931352198E+00  0.85521486212E+02  0.99430979126E+02  0.00000000000E+00 0. -1.
         -2    1    1    2    0  502 -0.52855639989E+02 -0.16951072790E+02  0.21613894308E+02  0.59566920136E+02  0.00000000000E+00 0.  1.
<scales pt_clust_5="13000.00000" pt_clust_6="13000.00000" pt_clust_7="13000.00000" pt_clust_8="13000.00000" pt_clust_9="13000.00000"></scales>
<clustering>
<clus scale="   91.098">  5  6 -1 -1</clus>
<clus scale="   55.507">  5  9 -1 -1</clus>
<clus scale="   92.950">  7  8 -1 -1</clus>
<clus scale="  117.588">  1  7  2 -1</clus>
<clus scale="  173.795">  2  5  1 -1</clus>
</clustering>
</event>
<event>
 9    1  0.3586304E-006  0.3079830E+03  0.7546771E-02  0.1104227E+00
         -1   -1    0    0    0  501 -0.00000000000E+00  0.00000000000E+00  0.34912438874E+03  0.34912438874E+03  0.00000000000E+00 0.  1.
         21   -1    0    0  501  502  0.00000000000E+00 -0.00000000000E+00 -0.31428095915E+03  0.31428095915E+03  0.00000000000E+00 0.  1.
         23    2    1    2    0    0  0.13392652429E+03 -0.57313548441E+02  0.24003757014E+03  0.29332677663E+03  0.84861098669E+02 0.  0.
         23    2    1    2    0    0 -0.23130622402E+02 -0.69576006684E+02 -0.20137477262E+02  0.11983337211E+03  0.92621124380E+02 0.  0.
        -11    1    4    4    0    0 -0.43298643804E+02 -0.74501020477E+02 -0.36319727339E+02  0.93510946960E+02  0.00000000000E+00 0.  1.
         11    1    4    4    0    0  0.20168021402E+02  0.49250137925E+01  0.16182250077E+02  0.26322425148E+02  0.00000000000E+00 0. -1.
        -11    1    3    3    0    0  0.12089633440E+03 -0.29606217710E+02  0.22925644082E+03  0.26086580354E+03  0.00000000000E+00 0.  1.
         11    1    3    3    0    0  0.13030189891E+02 -0.27707330731E+02  0.10781129322E+02  0.32460973095E+02  0.00000000000E+00 0. -1.
         -1    1    1    2    0  502 -0.11079590189E+03  0.12688955512E+03 -0.18505666329E+03  0.25024519916E+03  0.00000000000E+00 0.  1.
<scales pt_clust_5="13000.00000" pt_clust_6="13000.00000" pt_clust_7="13000.00000" pt_clust_8="13000.00000" pt_clust_9="13000.00000"></scales>
<clustering>
<clus scale="   84.861">  7  8 -1 -1</clus>
<clus scale="   92.621">  5  6 -1 -1</clus>
<clus scale="  168.454">  5  9 -1 -1</clus>
<clus scale="  168.590">  1  7  2 -1</clus>
<clus scale="  307.983">  2  5  1 -1</clus>
</clustering>
</event>
<event>
 9    1  0.3303741E-006  0.1874991E+03  0.7546771E-02  0.1188383E+00
          1   -1    0    0  502    0 -0.00000000000E+00  0.00000000000E+00  0.53714447226E+03  0.53714447226E+03  0.00000000000E+00 0. -1.
         21   -1    0    0  501  502  0.00000000000E+00 -0.00000000000E+00 -0.38820351969E+02  0.38820351969E+02  0.00000000000E+00 0.  1.
         23    2    1    2    0    0  0.39287299023E+02  0.10008296660E+02  0.19899533339E+03  0.22276002997E+03  0.91538136190E+02 0.  0.
         23    2    1    2    0    0 -0.82704210554E+02  0.18801769859E+02  0.25828431230E+03  0.28687458217E+03  0.91611936567E+02 0.  0.
        -13    1    3    3    0    0  0.22835095482E+01  0.31999652371E+02  0.18143769650E+02  0.36856322997E+02  0.00000000000E+00 0.  1.
         13    1    3    3    0    0  0.37003789475E+02 -0.21991355710E+02  0.18085156374E+03  0.18590370698E+03  0.00000000000E+00 0. -1.
        -13    1    4    4    0    0 -0.28718247227E+02  0.52657842879E+02  0.10596348198E+03  0.12176142925E+03  0.00000000000E+00 0.  1.
         13    1    4    4    0    0 -0.53985963327E+02 -0.33856073019E+02  0.15232083032E+03  0.16511315292E+03  0.00000000000E+00 0. -1.
          1    1    1    2  501    0  0.43416911532E+02 -0.28810066520E+02  0.41044474602E+02  0.66330212084E+02  0.00000000000E+00 0. -1.
<scales pt_clust_5="13000.00000" pt_clust_6="13000.00000" pt_clust_7="13000.00000" pt_clust_8="13000.00000" pt_clust_9="13000.00000"></scales>
<clustering>
<clus scale="   91.538">  5  6 -1 -1</clus>
<clus scale="   91.612">  7  8 -1 -1</clus>
<clus scale="   52.106">  7  9 -1 -1</clus>
<clus scale="  100.114">  1  5  2 -1</clus>
<clus scale="  187.499">  2  5  1 -1</clus>
</clustering>
</event>
<event>
 9    1  0.3303741E-006  0.1823335E+03  0.7546771E-02  0.1189874E+00
         21   -1    0    0  501  502  0.00000000000E+00  0.00000000000E+00  0.36233436978E+03  0.36233436978E+03  0.00000000000E+00 0.  1.
         -3   -1    0    0    0  501 -0.00000000000E+00 -0.00000000000E+00 -0.58960364175E+02  0.58960364175E+02  0.00000000000E+00 0.  1.
         23    2    1    2    0    0  0.33085838289E+02  0.40221051875E+02  0.76246577778E+02  0.13003477409E+03  0.91559249346E+02 0.  0.
         23    2    1    2    0    0  0.23802722502E+02 -0.45671276659E+02  0.73116556204E+02  0.12698774104E+03  0.90152207258E+02 0.  0.
        -11    1    4    4    0    0 -0.28570145820E+02 -0.36450683684E+02  0.52356795304E+02  0.69900926945E+02  0.00000000000E+00 0. -1.
         11    1    4    4    0    0  0.52372868322E+02 -0.92205929749E+01  0.20759760900E+02  0.57086814096E+02  0.00000000000E+00 0.  1.
        -13    1    3    3    0    0  0.24814926778E+02 -0.23122412037E+02  0.49022094051E+01  0.34270368928E+02  0.00000000000E+00 0. -1.
         13    1    3    3    0    0  0.82709115108E+01  0.63343463912E+02  0.71344368373E+02  0.95764405162E+02  0.00000000000E+00 0.  1.
         -3    1    1    2    0  502 -0.56888560790E+02  0.54502247841E+01  0.15401087162E+03  0.16427221882E+03  0.00000000000E+00 0.  1.
<scales pt_clust_5="13000.00000" pt_clust_6="13000.00000" pt_clust_7="13000.00000" pt_clust_8="13000.00000" pt_clust_9="13000.00000"></scales>
<clustering>
<clus scale="   90.152">  5  6 -1 -1</clus>
<clus scale="   57.149">  5  9 -1 -1</clus>
<clus scale="   91.559">  7  8 -1 -1</clus>
<clus scale="  105.335">  2  7  1 -1</clus>
<clus scale="  182.333">  1  5  2 -1</clus>
</clustering>
</event>
<event>
 9    1  0.3303741E-006  0.5170166E+03  0.7546771E-02  0.1044024E+00
         21   -1    0    0  501  502  0.00000000000E+00  0.00000000000E+00  0.25411250125E+03  0.25411250125E+03  0.00000000000E+00 0. -1.
          1   -1    0    0  502    0 -0.00000000000E+00 -0.00000000000E+00 -0.54153758208E+03  0.54153758208E+03  0.00000000000E+00 0. -1.
         23    2    1    2    0    0  0.95774472953E+02  0.13031411302E+03 -0.19924655640E+03  0.27116786421E+03  0.87625924349E+02 0.  0.
         23    2    1    2    0    0  0.14836061269E+03 -0.61415532155E+02  0.98825279718E+02  0.20933244957E+03  0.90944486068E+02 0.  0.
        -11    1    3    3    0    0  0.17873280814E+01  0.62269048324E+02 -0.10318293345E+03  0.12052944319E+03  0.00000000000E+00 0.  1.
         11    1    3    3    0    0  0.93987144872E+02  0.68045064696E+02 -0.96063622951E+02  0.15063842101E+03  0.00000000000E+00 0. -1.
        -11    1    4    4    0    0  0.41259647914E+02 -0.48687743786E+02  0.11600076568E+01  0.63829464659E+02  0.00000000000E+00 0.  1.
         11    1    4    4    0    0  0.10710096477E+03 -0.12727788370E+02  0.97665272061E+02  0.14550298491E+03  0.00000000000E+00 0. -1.
          1    1    1    2  501    0 -0.24413508564E+03 -0.68898580865E+02 -0.18700380414E+03  0.31514976955E+03  0.00000000000E+00 0. -1.
<scales pt_clust_5="13000.00000" pt_clust_6="13000.00000" pt_clust_7="13000.00000" pt_clust_8="13000.00000" pt_clust_9="13000.00000"></scales>
<clustering>
<clus scale="   87.626">  5  6 -1 -1</clus>
<clus scale="   90.944">  7  8 -1 -1</clus>
<clus scale="  183.937">  2  5  1 -1</clus>
<clus scale="  169.919">  7  9 -1 -1</clus>
<clus scale="  517.017">  1  5  2 -1</clus>
</clustering>
</event>
<event>
 9    1  0.3303741E-006  0.4763729E+03  0.7546771E-02  0.1067986E+00
         -3   -1    0    0    0  501 -0.00000000000E+00  0.00000000000E+00  0.83268188305E+03  0.83268188305E+03  0.00000000000E+00 0.  1.
         21   -1    0    0  501  502  0.00000000000E+00 -0.00000000000E+00 -0.10720278230E+03  0.10720278230E+03  0.00000000000E+00 0.  1.
         23    2    1    2    0    0  0.72790131641E+02  0.34759309129E+02  0.11958741474E+03  0.16914744502E+03  0.88335132065E+02 0.  0.
         23    2    1    2    0    0 -0.15701043707E+03  0.12499173066E+03  0.53174359848E+03  0.57551582435E+03  0.90509665097E+02 0.  0.
        -11    1    4    4    0    0 -0.37400141462E+02  0.86415591152E+02  0.21266372710E+03  0.23257748343E+03  0.00000000000E+00 0. -1.
         11    1    4    4    0    0 -0.11961029561E+03  0.38576139511E+02  0.31907987138E+03  0.34293834092E+03  0.00000000000E+00 0.  1.
        -11    1    3    3    0    0  0.79493628193E+02 -0.43486125888E+01  0.73760139328E+02  0.10852974481E+03  0.00000000000E+00 0. -1.
         11    1    3    3    0    0 -0.67034965515E+01  0.39107921718E+02  0.45827275412E+02  0.60617700211E+02  0.00000000000E+00 0.  1.
         -3    1    1    2    0  502  0.84220305434E+02 -0.15975103979E+03  0.74148087542E+02  0.19522139598E+03  0.00000000000E+00 0.  1.
<scales pt_clust_5="13000.00000" pt_clust_6="13000.00000" pt_clust_7="13000.00000" pt_clust_8="13000.00000" pt_clust_9="13000.00000"></scales>
<clustering>
<clus scale="   88.335">  7  8 -1 -1</clus>
<clus scale="   90.510">  5  6 -1 -1</clus>
<clus scale="  119.623">  1  7  2 -1</clus>
<clus scale="  181.903">  5  9 -1 -1</clus>
<clus scale="  476.373">  2  5  1 -1</clus>
</clustering>
</event>
<event>
 9    1  0.3303741E-006  0.3919303E+03  0.7546771E-02  0.1092683E+00
         21   -1    0    0  501  502  0.00000000000E+00  0.00000000000E+00  0.14529623640E+03  0.14529623640E+03  0.00000000000E+00 0.  1.
         -2   -1    0    0    0  501 -0.00000000000E+00 -0.00000000000E+00 -0.49183621532E+03  0.49183621532E+03  0.00000000000E+00 0.  1.
         23    2    1    2    0    0  0.48966343574E+02 -0.18952948950E+02 -0.18019505032E+03  0.21136255529E+03  0.97195455361E+02 0.  0.
         23    2    1    2    0    0 -0.17819558211E+03  0.63848706995E+02 -0.19338980263E+03  0.28631649778E+03  0.93526457599E+02 0.  0.
        -11    1    4    4    0    0 -0.11179919291E+03  0.47245346319E+02 -0.17917725655E+03  0.21641550672E+03  0.00000000000E+00 0.  1.
         11    1    4    4    0    0 -0.66396389200E+02  0.16603360676E+02 -0.14212546075E+02  0.69900991054E+02  0.00000000000E+00 0. -1.
        -13    1    3    3    0    0 -0.32511872170E+01  0.34732121191E+02 -0.68710386433E+02  0.77058469129E+02  0.00000000000E+00 0.  1.
         13    1    3    3    0    0  0.52217530791E+02 -0.53685070141E+02 -0.11148466389E+03  0.13430408617E+03  0.00000000000E+00 0. -1.
         -2    1    1    2    0  502  0.12922923853E+03 -0.44895758045E+02  0.27044874031E+02  0.13945339865E+03  0.00000000000E+00 0.  1.
<scales pt_clust_5="13000.00000" pt_clust_6="13000.00000" pt_clust_7="13000.00000" pt_clust_8="13000.00000" pt_clust_9="13000.00000"></scales>
<clustering>
<clus scale="   93.526">  5  6 -1 -1</clus>
<clus scale="   97.195">  7  8 -1 -1</clus>
<clus scale="  110.471">  2  7  1 -1</clus>
<clus scale="  146.768">  5  9 -1 -1</clus>
<clus scale="  391.930">  1  5  2 -1</clus>
</clustering>
</event>
<event>
 9    1  0.3303741E-006  0.2321281E+03  0.7546771E-02  0.1147920E+00
         21   -1    0    0  501  502  0.00000000000E+00  0.00000000000E+00  0.50180240130E+02  0.50180240130E+02  0.00000000000E+00 0. -1.
          2   -1    0    0  502    0 -0.00000000000E+00 -0.00000000000E+00 -0.71646036638E+03  0.71646036638E+03  0.00000000000E+00 0. -1.
         23    2    1    2    0    0 -0.71923742110E+02 -0.54040331765E+02 -0.15165719110E+03  0.20208749004E+03  0.98722175236E+02 0.  0.
         23    2    1    2    0    0 -0.15770693331E+02 -0.53224996003E+01 -0.39057234349E+03  0.40144944071E+03  0.91311851228E+02 0.  0.
        -13    1    4    4    0    0  0.36223747299E+02  0.10744588868E+02 -0.13786532177E+03  0.14294912733E+03  0.00000000000E+00 0.  1.
         13    1    4    4    0    0 -0.51994440630E+02 -0.16067088469E+02 -0.25270702173E+03  0.25850031338E+03  0.00000000000E+00 0. -1.
        -13    1    3    3    0    0 -0.27064635663E+02  0.28315474394E+02 -0.36134647149E+02  0.53291400041E+02  0.00000000000E+00 0.  1.
         13    1    3    3    0    0 -0.44859106447E+02 -0.82355806158E+02 -0.11552254395E+03  0.14879609000E+03  0.00000000000E+00 0. -1.
          2    1    1    2  501    0  0.87694435441E+02  0.59362831365E+02 -0.12405059166E+03  0.16310367576E+03  0.00000000000E+00 0. -1.
<scales pt_clust_5="13000.00000" pt_clust_6="13000.00000" pt_clust_7="13000.00000" pt_clust_8="13000.00000" pt_clust_9="13000.00000"></scales>
<clustering>
<clus scale="   91.312">  5  6 -1 -1</clus>
<clus scale="   98.722">  7  8 -1 -1</clus>
<clus scale="  105.897">  5  9 -1 -1</clus>
<clus scale="  133.564">  2  7  1 -1</clus>
<clus scale="  232.128">  1  5  2 -1</clus>
</clustering>
</event>
<event>
 9    1  0.3303741E-006  0.2974296E+03  0.7546771E-02  0.1096854E+00
         21   -1    0    0  501  502  0.00000000000E+00  0.00000000000E+00  0.92189025829E+02  0.92189025829E+02  0.00000000000E+00 0.  1.
         -1   -1    0    0    0  501 -0.00000000000E+00 -0.00000000000E+00 -0.10797687146E+04  0.10797687146E+04  0.00000000000E+00 0.  1.
         23    2    1    2    0    0  0.17651241330E+03  0.10976087859E+03 -0.77212770923E+03  0.80469230245E+03  0.90246438927E+02 0.  0.
         23    2    1    2    0    0  0.21340980239E+01 -0.59766047624E+02 -0.10310057363E+03  0.15038552298E+03  0.91703557267E+02 0.  0.
        -11    1    4    4    0    0 -0.14330931173E+02  0.15012883061E+02 -0.57811915664E+02  0.61424586599E+02  0.00000000000E+00 0. -1.
         11    1    4    4    0    0  0.16465029197E+02 -0.74778930685E+02 -0.45288657963E+02  0.88960936376E+02  0.00000000000E+00 0.  1.
        -13    1    3    3    0    0  0.21277580217E+02  0.32141907265E+02 -0.57036336961E+02  0.68840259707E+02  0.00000000000E+00 0. -1.
         13    1    3    3    0    0  0.15523483308E+03  0.77618971327E+02 -0.71509137227E+03  0.73585204274E+03  0.00000000000E+00 0.  1.
         -1    1    1    2    0  502 -0.17864651132E+03 -0.49994830968E+02 -0.11235140596E+03  0.21687991505E+03  0.00000000000E+00 0.  1.
<scales pt_clust_5="13000.00000" pt_clust_6="13000.00000" pt_clust_7="13000.00000" pt_clust_8="13000.00000" pt_clust_9="13000.00000"></scales>
<clustering>
<clus scale="   90.246">  7  8 -1 -1</clus>
<clus scale="   91.704">  5  6 -1 -1</clus>
<clus scale="  185.510">  5  9 -1 -1</clus>
<clus scale="  226.602">  2  7  1 -1</clus>
<clus scale="  297.430">  1  5  2 -1</clus>
</clustering>
</event>
<event>
 9    1  0.3303741E-006  0.1496655E+03  0.7546771E-02  0.1213225E+00
         21   -1    0    0  501  502  0.00000000000E+00  0.00000000000E+00  0.51871053185E+02  0.51871053185E+02  0.00000000000E+00 0.  1.
          1   -1    0    0  502    0 -0.00000000000E+00 -0.00000000000E+00 -0.33776260165E+03  0.33776260165E+03  0.00000000000E+00 0. -1.
         23    2    1    2    0    0 -0.57297136687E+02 -0.38594537423E+02 -0.13200543059E+03  0.17496950156E+03  0.91740899162E+02 0.  0.
         23    2    1    2    0    0  0.36303852229E+02  0.14253085423E+02 -0.15338442638E+03  0.18251643217E+03  0.90908446404E+02 0.  0.
        -11    1    4    4    0    0 -0.27470626839E+01 -0.23355189469E+02 -0.43343874545E+01  0.23912301084E+02  0.00000000000E+00 0.  1.
         11    1    4    4    0    0  0.39050914913E+02  0.37608274892E+02 -0.14905003892E+03  0.15860413109E+03  0.00000000000E+00 0. -1.
        -11    1    3    3    0    0  0.24814529422E+02 -0.16375565872E+02 -0.36416089580E+02  0.47011185992E+02  0.00000000000E+00 0. -1.
         11    1    3    3    0    0 -0.82111666109E+02 -0.22218971551E+02 -0.95589341007E+02  0.12795831556E+03  0.00000000000E+00 0.  1.
          1    1    1    2  501    0  0.20993284458E+02  0.24341452000E+02 -0.50169150057E+00  0.32147721104E+02  0.00000000000E+00 0. -1.
<scales pt_clust_5="13000.00000" pt_clust_6="13000.00000" pt_clust_7="13000.00000" pt_clust_8="13000.00000" pt_clust_9="13000.00000"></scales>
<clustering>
<clus scale="   90.908">  5  6 -1 -1</clus>
<clus scale="   32.144">  5  9 -1 -1</clus>
<clus scale="   91.741">  7  8 -1 -1</clus>
<clus scale="  114.843">  2  7  1 -1</clus>
<clus scale="  149.665">  1  5  2 -1</clus>
</clustering>
</event>
<event>
 9    1  0.3303741E-006  0.1846627E+03  0.7546771E-02  0.1181870E+00
         21   -1    0    0  501  502  0.00000000000E+00  0.00000000000E+00  0.43592276454E+03  0.43592276454E+03  0.00000000000E+00 0. -1.
          1   -1    0    0  502    0 -0.00000000000E+00 -0.00000000000E+00 -0.87768681955E+02  0.87768681955E+02  0.00000000000E+00 0. -1.
         23    2    1    2    0    0  0.65626026292E+02 -0.47759812442E+02  0.31310497002E+03  0.33573195506E+03  0.89963594760E+02 0.  0.
         23    2    1    2    0    0 -0.77411474681E+02  0.72139347783E+02  0.38877114154E+01  0.14667642640E+03  0.10149994016E+03 0.  0.
        -11    1    4    4    0    0 -0.10085392643E+03  0.67277030576E+02 -0.44744990195E+01  0.12131667017E+03  0.00000000000E+00 0. -1.
         11    1    4    4    0    0  0.23442451752E+02  0.48623172066E+01  0.83622104350E+01  0.25359756231E+02  0.00000000000E+00 0.  1.
        -13    1    3    3    0    0  0.33825808869E+02 -0.64585299152E+02  0.26956939081E+03  0.27925454817E+03  0.00000000000E+00 0. -1.
         13    1    3    3    0    0  0.31800217423E+02  0.16825486711E+02  0.43535579211E+02  0.56477406885E+02  0.00000000000E+00 0.  1.
          1    1    1    2  501    0  0.11785448389E+02 -0.24379535341E+02  0.31161401144E+02  0.41283065032E+02  0.00000000000E+00 0. -1.
<scales pt_clust_5="13000.00000" pt_clust_6="13000.00000" pt_clust_7="13000.00000" pt_clust_8="13000.00000" pt_clust_9="13000.00000"></scales>
<clustering>
<clus scale="   89.964">  7  8 -1 -1</clus>
<clus scale="  101.500">  5  6 -1 -1</clus>
<clus scale="   27.079">  5  9 -1 -1</clus>
<clus scale="  121.166">  2  7  1 -1</clus>
<clus scale="  184.663">  1  5  2 -1</clus>
</clustering>
</event>
<event>
 9    1  0.3303741E-006  0.2541290E+03  0.7546771E-02  0.1145854E+00
          2   -1    0    0  502    0 -0.00000000000E+00  0.00000000000E+00  0.16251687934E+03  0.16251687934E+03  0.00000000000E+00 0. -1.
         21   -1    0    0  501  502  0.00000000000E+00 -0.00000000000E+00 -0.31089081273E+03  0.31089081273E+03  0.00000000000E+00 0. -1.
         23    2    1    2    0    0  0.35827175512E+02  0.56651986698E+02  0.78573171110E+02  0.13269294505E+03  0.83310505613E+02 0.  0.
         23    2    1    2    0    0  0.38911707932E+02 -0.86891809153E+02 -0.44740336896E+02  0.14146702753E+03  0.94588131494E+02 0.  0.
        -11    1    3    3    0    0 -0.23759428218E+02  0.36711691143E+02  0.26906054509E+02  0.51343884398E+02  0.00000000000E+00 0.  1.
         11    1    3    3    0    0  0.59586603731E+02  0.19940295555E+02  0.51667116601E+02  0.81349060651E+02  0.00000000000E+00 0. -1.
        -13    1    4    4    0    0 -0.31582130264E+02 -0.26502800227E+02 -0.10659333042E+02  0.42584630477E+02  0.00000000000E+00 0.  1.
         13    1    4    4    0    0  0.70493838196E+02 -0.60389008925E+02 -0.34081003854E+02  0.98882397050E+02  0.00000000000E+00 0. -1.
          2    1    1    2  501    0 -0.74738883445E+02  0.30239822455E+02 -0.18220676761E+03  0.19924771949E+03  0.00000000000E+00 0. -1.
<scales pt_clust_5="13000.00000" pt_clust_6="13000.00000" pt_clust_7="13000.00000" pt_clust_8="13000.00000" pt_clust_9="13000.00000"></scales>
<clustering>
<clus scale="   83.311">  5  6 -1 -1</clus>
<clus scale="   94.588">  7  8 -1 -1</clus>
<clus scale="   80.625">  7  9 -1 -1</clus>
<clus scale="  106.928">  1  5  2 -1</clus>
<clus scale="  254.129">  2  5  1 -1</clus>
</clustering>
</event>
<event>
 9    1  0.3303741E-006  0.1854787E+03  0.7546771E-02  0.1175290E+00
          1   -1    0    0  502    0 -0.00000000000E+00  0.00000000000E+00  0.78733470576E+03  0.78733470576E+03  0.00000000000E+00 0. -1.
         21   -1    0    0  501  502  0.00000000000E+00 -0.00000000000E+00 -0.68911423951E+02  0.68911423951E+02  0.00000000000E+00 0. -1.
         23    2    1    2    0    0  0.88116497667E+02  0.53542765474E+02  0.64002604277E+03  0.65487962928E+03  0.92750463786E+02 0.  0.
         23    2    1    2    0    0 -0.63721026428E+02 -0.85031990323E+02  0.80502736928E+02  0.16147736130E+03  0.91123207654E+02 0.  0.
        -13    1    3    3    0    0 -0.10673234811E+02  0.36913892737E+02  0.16756963574E+03  0.17191898162E+03  0.00000000000E+00 0.  1.
         13    1    3    3    0    0  0.98789732478E+02  0.16628872737E+02  0.47245640703E+03  0.48296064767E+03  0.00000000000E+00 0. -1.
        -13    1    4    4    0    0  0.19540478835E+02 -0.73417605440E+01  0.30842052818E+02  0.37241965349E+02  0.00000000000E+00 0.  1.
         13    1    4    4    0    0 -0.83261505263E+02 -0.77690229779E+02  0.49660684110E+02  0.12423539596E+03  0.00000000000E+00 0. -1.
          1    1    1    2  501    0 -0.24395471239E+02  0.31489224849E+02 -0.21054978896E+01  0.39889139123E+02  0.00000000000E+00 0. -1.
<scales pt_clust_5="13000.00000" pt_clust_6="13000.00000" pt_clust_7="13000.00000" pt_clust_8="13000.00000" pt_clust_9="13000.00000"></scales>
<clustering>
<clus scale="   91.123">  7  8 -1 -1</clus>
<clus scale="   39.834">  7  9 -1 -1</clus>
<clus scale="   92.750">  5  6 -1 -1</clus>
<clus scale="  138.687">  1  5  2 -1</clus>
<clus scale="  185.479">  2  5  1 -1</clus>
</clustering>
</event>
<event>
 9    1  0.3303741E-006  0.2445068E+03  0.7546771E-02  0.1127810E+00
         21   -1    0    0  501  502  0.00000000000E+00  0.00000000000E+00  0.55771046959E+02  0.55771046959E+02  0.00000000000E+00 0. -1.
          1   -1    0    0  502    0 -0.00000000000E+00 -0.00000000000E+00 -0.95006688081E+03  0.95006688081E+03  0.00000000000E+00 0. -1.
         23    2    1    2    0    0 -0.95946344578E+02  0.13087052074E+03 -0.57077985009E+03  0.60031831151E+03  0.90882581546E+02 0.  0.
         23    2    1    2    0    0  0.39868737867E+01 -0.17433206021E+02 -0.17375064096E+03  0.19634450649E+03  0.89677578932E+02 0.  0.
        -13    1    4    4    0    0 -0.21785319513E+01 -0.48055696180E+02 -0.14874895627E+03  0.15633409074E+03  0.00000000000E+00 0.  1.
         13    1    4    4    0    0  0.61654057380E+01  0.30622490159E+02 -0.25001684684E+02  0.40010415750E+02  0.00000000000E+00 0. -1.
        -13    1    3    3    0    0  0.14139467788E+02  0.39508906415E+02 -0.15675430879E+03  0.16227381662E+03  0.00000000000E+00 0.  1.
         13    1    3    3    0    0 -0.11008581237E+03  0.91361614324E+02 -0.41402554130E+03  0.43804449489E+03  0.00000000000E+00 0. -1.
          1    1    1    2  501    0  0.91959470791E+02 -0.11343731472E+03 -0.14976534280E+03  0.20917510976E+03  0.00000000000E+00 0. -1.
<scales pt_clust_5="13000.00000" pt_clust_6="13000.00000" pt_clust_7="13000.00000" pt_clust_8="13000.00000" pt_clust_9="13000.00000"></scales>
<clustering>
<clus scale="   89.678">  5  6 -1 -1</clus>
<clus scale="   90.883">  7  8 -1 -1</clus>
<clus scale="  146.029">  5  9 -1 -1</clus>
<clus scale="  185.990">  2  7  1 -1</clus>
<clus scale="  244.507">  1  5  2 -1</clus>
</clustering>
</event>
<event>
 9    1  0.3303741E-006  0.2141280E+03  0.7546771E-02  0.1167404E+00
         21   -1    0    0  501  502  0.00000000000E+00  0.00000000000E+00  0.86539222055E+03  0.86539222055E+03  0.00000000000E+00 0. -1.
          3   -1    0    0  502    0 -0.00000000000E+00 -0.00000000000E+00 -0.39120278918E+02  0.39120278918E+02  0.00000000000E+00 0. -1.
         23    2    1    2    0    0  0.57526309106E+02  0.21862186655E+02  0.99241503864E+02  0.14660480617E+03  0.88638939853E+02 0.  0.
         23    2    1    2    0    0  0.31135919256E+02 -0.21933689019E+02  0.18641270072E+03  0.21006781390E+03  0.89040773042E+02 0.  0.
        -11    1    4    4    0    0  0.20684342275E+01 -0.30315840954E+02  0.11391579075E+02  0.32451451535E+02  0.00000000000E+00 0.  1.
         11    1    4    4    0    0  0.29067485028E+02  0.83821519346E+01  0.17502112165E+03  0.17761636236E+03  0.00000000000E+00 0. -1.
        -13    1    3    3    0    0  0.67778806591E+01  0.29969065932E+02  0.89063716491E+02  0.94214808678E+02  0.00000000000E+00 0.  1.
         13    1    3    3    0    0  0.50748428447E+02 -0.81068792769E+01  0.10177787373E+02  0.52389997492E+02  0.00000000000E+00 0. -1.
          3    1    1    2  501    0 -0.88662228361E+02  0.71502363987E-01  0.54061773704E+03  0.54783987940E+03  0.00000000000E+00 0. -1.
<scales pt_clust_5="13000.00000" pt_clust_6="13000.00000" pt_clust_7="13000.00000" pt_clust_8="13000.00000" pt_clust_9="13000.00000"></scales>
<clustering>
<clus scale="   88.639">  7  8 -1 -1</clus>
<clus scale="   89.041">  5  6 -1 -1</clus>
<clus scale="   88.662">  5  9 -1 -1</clus>
<clus scale="  107.908">  2  7  1 -1</clus>
<clus scale="  214.128">  1  5  2 -1</clus>
</clustering>
</event>
<event>
 9    1  0.3303741E-006  0.1262098E+03  0.7546771E-02  0.1244846E+00
         21   -1    0    0  501  502  0.00000000000E+00  0.00000000000E+00  0.12796010214E+03  0.12796010214E+03  0.00000000000E+00 0.  1.
          1   -1    0    0  502    0 -0.00000000000E+00 -0.00000000000E+00 -0.14371386874E+03  0.14371386874E+03  0.00000000000E+00 0. -1.
         23    2    1    2    0    0  0.37031202015E+02  0.21168178447E+02 -0.82133067736E+02  0.12907271198E+03  0.89969564083E+02 0.  0.
         23    2    1    2    0    0 -0.11569804589E+02 -0.37544281958E+02  0.53894710339E+02  0.10985489220E+03  0.87292749134E+02 0.  0.
        -13    1    4    4    0    0  0.11723242057E+02  0.22110506948E+02  0.35108673634E+02  0.43115285992E+02  0.00000000000E+00 0. -1.
         13    1    4    4    0    0 -0.23293046645E+02 -0.59654788906E+02  0.18786036705E+02  0.66739606206E+02  0.00000000000E+00 0.  1.
        -13    1    3    3    0    0  0.79255424851E+01 -0.35197364312E+02 -0.31820031028E+02  0.48105956521E+02  0.00000000000E+00 0.  1.
         13    1    3    3    0    0  0.29105659530E+02  0.56365542758E+02 -0.50313036708E+02  0.80966755461E+02  0.00000000000E+00 0. -1.
          1    1    1    2  501    0 -0.25461397426E+02  0.16376103511E+02  0.12484590799E+02  0.32746366707E+02  0.00000000000E+00 0. -1.
<scales pt_clust_5="13000.00000" pt_clust_6="13000.00000" pt_clust_7="13000.00000" pt_clust_8="13000.00000" pt_clust_9="13000.00000"></scales>
<clustering>
<clus scale="   87.293">  5  6 -1 -1</clus>
<clus scale="   30.273">  5  9 -1 -1</clus>
<clus scale="   89.970">  7  8 -1 -1</clus>
<clus scale="   99.569">  2  7  1 -1</clus>
<clus scale="  126.210">  1  5  2 -1</clus>
</clustering>
</event>
<event>
 9    1  0.3303741E-006  0.3702166E+03  0.7546771E-02  0.1085983E+00
          2   -1    0    0  502    0 -0.00000000000E+00  0.00000000000E+00  0.71977103458E+03  0.71977103458E+03  0.00000000000E+00 0. -1.
         21   -1    0    0  501  502  0.00000000000E+00 -0.00000000000E+00 -0.24724462883E+03  0.24724462883E+03  0.00000000000E+00 0.  1.
         23    2    1    2    0    0 -0.13542635904E+02  0.12788314367E+03  0.56429445481E+03  0.58559501837E+03  0.89195248662E+02 0.  0.
         23    2    1    2    0    0 -0.12217922988E+03 -0.63152010766E+02  0.53070595403E+02  0.17264138997E+03  0.89847764340E+02 0.  0.
        -11    1    4    4    0    0 -0.38081018424E+02  0.46721098738E+01  0.51967607485E+02  0.64595857472E+02  0.00000000000E+00 0. -1.
         11    1    4    4    0    0 -0.84098211456E+02 -0.67824120639E+02  0.11029879186E+01  0.10804553250E+03  0.00000000000E+00 0.  1.
        -13    1    3    3    0    0  0.66494881117E+01  0.10256480314E+03  0.52357612550E+03  0.53356884628E+03  0.00000000000E+00 0. -1.
         13    1    3    3    0    0 -0.20192124015E+02  0.25318340531E+02  0.40718329317E+02  0.52026172086E+02  0.00000000000E+00 0.  1.
          2    1    1    2  501    0  0.13572186578E+03 -0.64731132906E+02 -0.14483864446E+03  0.20877925507E+03  0.00000000000E+00 0. -1.
<scales pt_clust_5="13000.00000" pt_clust_6="13000.00000" pt_clust_7="13000.00000" pt_clust_8="13000.00000" pt_clust_9="13000.00000"></scales>
<clustering>
<clus scale="   89.195">  7  8 -1 -1</clus>
<clus scale="   89.848">  5  6 -1 -1</clus>
<clus scale="  150.368">  5  9 -1 -1</clus>
<clus scale="  156.503">  1  7  2 -1</clus>
<clus scale="  370.217">  2  5  1 -1</clus>
</clustering>
</event>
<event>
 9    1  0.3303741E-006  0.1563938E+03  0.7546771E-02  0.1216629E+00
         21   -1    0    0  501  502  0.00000000000E+00  0.00000000000E+00  0.51265075366E+02  0.51265075366E+02  0.00000000000E+00 0.  1.
          2   -1    0    0  502    0 -0.00000000000E+00 -0.00000000000E+00 -0.45127196511E+03  0.45127196511E+03  0.00000000000E+00 0. -1.
         23    2    1    2    0    0 -0.15332623598E+02 -0.41322124541E+01 -0.30612405476E+03  0.32012811570E+03  0.92292518826E+02 0.  0.
         23    2    1    2    0    0 -0.15750966662E+01 -0.35537448469E+02 -0.27948895478E+02  0.10362544059E+03  0.93229287273E+02 0.  0.
        -11    1    4    4    0    0  0.38577547139E+02  0.87087432980E+01 -0.16170020336E+02  0.42726325734E+02  0.00000000000E+00 0. -1.
         11    1    4    4    0    0 -0.40152643805E+02 -0.44246191767E+02 -0.11778875143E+02  0.60899114854E+02  0.00000000000E+00 0.  1.
        -13    1    3    3    0    0 -0.41379188958E+01  0.42849151614E+02 -0.10946772283E+03  0.11762803454E+03  0.00000000000E+00 0.  1.
         13    1    3    3    0    0 -0.11194704702E+02 -0.46981364068E+02 -0.19665633193E+03  0.20250008116E+03  0.00000000000E+00 0. -1.
          2    1    1    2  501    0  0.16907720264E+02  0.39669660923E+02 -0.65933939501E+02  0.78783484185E+02  0.00000000000E+00 0. -1.
<scales pt_clust_5="13000.00000" pt_clust_6="13000.00000" pt_clust_7="13000.00000" pt_clust_8="13000.00000" pt_clust_9="13000.00000"></scales>
<clustering>
<clus scale="   92.293">  7  8 -1 -1</clus>
<clus scale="   93.229">  5  6 -1 -1</clus>
<clus scale="   43.123">  5  9 -1 -1</clus>
<clus scale="   93.649">  2  7  1 -1</clus>
<clus scale="  156.394">  1  5  2 -1</clus>
</clustering>
</event>
<event>
 9    1  0.3303741E-006  0.2620460E+03  0.7546771E-02  0.1144620E+00
          1   -1    0    0  502    0 -0.00000000000E+00  0.00000000000E+00  0.39409386651E+03  0.39409386651E+03  0.00000000000E+00 0. -1.
         21   -1    0    0  501  502  0.00000000000E+00 -0.00000000000E+00 -0.12091433852E+03  0.12091433852E+03  0.00000000000E+00 0. -1.
         23    2    1    2    0    0  0.32880979550E+02  0.45246723418E+02  0.22793373975E+03  0.24908473284E+03  0.83432545327E+02 0.  0.
         23    2    1    2    0    0 -0.11530845592E+03  0.26011037032E+02  0.49158666086E+02  0.15689472416E+03  0.90701521291E+02 0.  0.
        -11    1    3    3    0    0  0.61061010184E+02  0.30177822184E+02  0.16491566803E+03  0.17842736752E+03  0.00000000000E+00 0.  1.
         11    1    3    3    0    0 -0.28180030634E+02  0.15068901234E+02  0.63018071718E+02  0.70657365321E+02  0.00000000000E+00 0. -1.
        -11    1    4    4    0    0 -0.37560515435E+02 -0.20389016418E+02  0.50739106289E+02  0.66339740859E+02  0.00000000000E+00 0.  1.
         11    1    4    4    0    0 -0.77747940480E+02  0.46400053450E+02 -0.15804402039E+01  0.90554983299E+02  0.00000000000E+00 0. -1.
          1    1    1    2  501    0  0.82427476366E+02 -0.71257760450E+02 -0.39128778473E+01  0.10902874803E+03  0.00000000000E+00 0. -1.
<scales pt_clust_5="13000.00000" pt_clust_6="13000.00000" pt_clust_7="13000.00000" pt_clust_8="13000.00000" pt_clust_9="13000.00000"></scales>
<clustering>
<clus scale="   83.433">  5  6 -1 -1</clus>
<clus scale="   90.702">  7  8 -1 -1</clus>
<clus scale="  100.446">  1  5  2 -1</clus>
<clus scale="  109.004">  7  9 -1 -1</clus>
<clus scale="  262.046">  2  5  1 -1</clus>
</clustering>
</event>
<event>
 9    1  0.3303741E-006  0.5545478E+03  0.7546771E-02  0.1010447E+00
         21   -1    0    0  501  502  0.00000000000E+00  0.00000000000E+00  0.83464109598E+03  0.83464109598E+03  0.00000000000E+00 0. -1.
          2   -1    0    0  502    0 -0.00000000000E+00 -0.00000000000E+00 -0.27765437680E+03  0.27765437680E+03  0.00000000000E+00 0. -1.
         23    2    1    2    0    0  0.36724991493E+03 -0.14270325197E+03  0.19842622011E+03  0.45192520706E+03  0.98115797984E+02 0.  0.
         23    2    1    2    0    0 -0.73542545131E+02  0.14774498643E+03 -0.87316055466E+01  0.19005874313E+03  0.93856262146E+02 0.  0.
        -13    1    3    3    0    0  0.12978192196E+03 -0.23615429253E+01  0.72826081669E+02  0.14883736871E+03  0.00000000000E+00 0.  1.
         13    1    3    3    0    0  0.23746799296E+03 -0.14034170905E+03  0.12560013844E+03  0.30308783835E+03  0.00000000000E+00 0. -1.
        -13    1    4    4    0    0 -0.87853480445E+02  0.98509007113E+02  0.16309139213E+02  0.13299716738E+03  0.00000000000E+00 0. -1.
         13    1    4    4    0    0  0.14310935314E+02  0.49235979321E+02 -0.25040744759E+02  0.57061575753E+02  0.00000000000E+00 0.  1.
          2    1    1    2  501    0 -0.29370736979E+03 -0.50417344642E+01  0.36729210462E+03  0.47031152258E+03  0.00000000000E+00 0. -1.
<scales pt_clust_5="13000.00000" pt_clust_6="13000.00000" pt_clust_7="13000.00000" pt_clust_8="13000.00000" pt_clust_9="13000.00000"></scales>
<clustering>
<clus scale="   93.856">  7  8 -1 -1</clus>
<clus scale="   98.116">  5  6 -1 -1</clus>
<clus scale="  293.751">  7  9 -1 -1</clus>
<clus scale="  406.034">  2  5  1 -1</clus>
<clus scale="  554.548">  1  5  2 -1</clus>
</clustering>
</event>
<event>
 9    1  0.3303741E-006  0.2382949E+03  0.7546771E-02  0.1130415E+00
         -3   -1    0    0    0  501 -0.00000000000E+00  0.00000000000E+00  0.76527969352E+02  0.76527969352E+02  0.00000000000E+00 0.  1.
         21   -1    0    0  501  502  0.00000000000E+00 -0.00000000000E+00 -0.59843258233E+03  0.59843258233E+03  0.00000000000E+00 0.  1.
         23    2    1    2    0    0  0.15879724488E+02 -0.16431166051E+03 -0.20495756936E+03  0.27842568952E+03  0.90899790526E+02 0.  0.
         23    2    1    2    0    0 -0.20860736946E+02  0.43104431103E+02 -0.79123942543E+02  0.12955952556E+03  0.90729874096E+02 0.  0.
        -11    1    4    4    0    0  0.30071798963E+02  0.34864829307E+02 -0.57383975107E+02  0.73571665841E+02  0.00000000000E+00 0. -1.
         11    1    4    4    0    0 -0.50932535910E+02  0.82396017953E+01 -0.21739967437E+02  0.55987859721E+02  0.00000000000E+00 0.  1.
        -13    1    3    3    0    0  0.39164741675E+02 -0.15672919156E+03 -0.16081814431E+03  0.22794822223E+03  0.00000000000E+00 0.  1.
         13    1    3    3    0    0 -0.23285017187E+02 -0.75824689545E+01 -0.44139425048E+02  0.50477467294E+02  0.00000000000E+00 0. -1.
         -3    1    1    2    0  502  0.49810124587E+01  0.12120722941E+03 -0.23782310108E+03  0.26697533660E+03  0.00000000000E+00 0.  1.
<scales pt_clust_5="13000.00000" pt_clust_6="13000.00000" pt_clust_7="13000.00000" pt_clust_8="13000.00000" pt_clust_9="13000.00000"></scales>
<clustering>
<clus scale="   90.730">  5  6 -1 -1</clus>
<clus scale="   90.900">  7  8 -1 -1</clus>
<clus scale="  121.310">  5  9 -1 -1</clus>
<clus scale="  188.450">  1  7  2 -1</clus>
<clus scale="  238.295">  2  5  1 -1</clus>
</clustering>
</event>
<event>
 9    1  0.3303741E-006  0.2336178E+03  0.7546771E-02  0.1130298E+00
          4   -1    0    0  502    0 -0.00000000000E+00  0.00000000000E+00  0.78318772807E+02  0.78318772807E+02  0.00000000000E+00 0. -1.
         21   -1    0    0  501  502  0.00000000000E+00 -0.00000000000E+00 -0.71634340996E+03  0.71634340996E+03  0.00000000000E+00 0. -1.
         23    2    1    2    0    0  0.15980886287E+03 -0.83388898588E+02 -0.14009635179E+03  0.24465324001E+03  0.87952481517E+02 0.  0.
         23    2    1    2    0    0 -0.14770910773E+03  0.49771914073E+02 -0.30552835506E+03  0.35431980432E+03  0.88880391815E+02 0.  0.
        -11    1    4    4    0    0 -0.13964499840E+03  0.16874738576E+02 -0.27423745161E+03  0.30820717423E+03  0.00000000000E+00 0. -1.
         11    1    4    4    0    0 -0.80641093305E+01  0.32897175497E+02 -0.31290903446E+02  0.46112630086E+02  0.00000000000E+00 0.  1.
        -13    1    3    3    0    0  0.68992119651E+02 -0.61026835885E+01 -0.94093893957E+02  0.11683670742E+03  0.00000000000E+00 0.  1.
         13    1    3    3    0    0  0.90816743214E+02 -0.77286214999E+02 -0.46002457837E+02  0.12781653259E+03  0.00000000000E+00 0. -1.
          4    1    1    2  501    0 -0.12099755131E+02  0.33616984514E+02 -0.19239993030E+03  0.19568913843E+03  0.00000000000E+00 0. -1.
<scales pt_clust_5="13000.00000" pt_clust_6="13000.00000" pt_clust_7="13000.00000" pt_clust_8="13000.00000" pt_clust_9="13000.00000"></scales>
<clustering>
<clus scale="   87.952">  7  8 -1 -1</clus>
<clus scale="   88.880">  5  6 -1 -1</clus>
<clus scale="   35.728">  5  9 -1 -1</clus>
<clus scale="  200.570">  1  7  2 -1</clus>
<clus scale="  233.618">  2  5  1 -1</clus>
</clustering>
</event>
<event>
 9    1  0.3303741E-006  0.2183349E+03  0.7546771E-02  0.1152523E+00
         21   -1    0    0  501  502  0.00000000000E+00  0.00000000000E+00  0.19803901733E+03  0.19803901733E+03  0.00000000000E+00 0. -1.
          1   -1    0    0  502    0 -0.00000000000E+00 -0.00000000000E+00 -0.18630116389E+03  0.18630116389E+03  0.00000000000E+00 0. -1.
         23    2    1    2    0    0 -0.10657152780E+03  0.45109786699E+02 -0.57939307355E+02  0.15515675707E+03  0.85581963850E+02 0.  0.
         23    2    1    2    0    0  0.63305744059E+02  0.24981523302E+02 -0.10159960973E+02  0.11447210914E+03  0.91481939341E+02 0.  0.
        -11    1    3    3    0    0 -0.59487317513E+01  0.42866060629E+02 -0.18180249142E+02  0.46940473178E+02  0.00000000000E+00 0.  1.
         11    1    3    3    0    0 -0.10062279604E+03  0.22437260700E+01 -0.39759058213E+02  0.10821628390E+03  0.00000000000E+00 0. -1.
        -11    1    4    4    0    0  0.48798320616E+02  0.58512282712E+02 -0.14892877025E+02  0.77632216954E+02  0.00000000000E+00 0.  1.
         11    1    4    4    0    0  0.14507423443E+02 -0.33530759410E+02  0.47329160529E+01  0.36839892181E+02  0.00000000000E+00 0. -1.
          1    1    1    2  501    0  0.43265783737E+02 -0.70091310001E+02  0.79837121763E+02  0.11471131501E+03  0.00000000000E+00 0. -1.
<scales pt_clust_5="13000.00000" pt_clust_6="13000.00000" pt_clust_7="13000.00000" pt_clust_8="13000.00000" pt_clust_9="13000.00000"></scales>
<clustering>
<clus scale="   85.582">  5  6 -1 -1</clus>
<clus scale="   91.482">  7  8 -1 -1</clus>
<clus scale="   82.369">  7  9 -1 -1</clus>
<clus scale="  143.933">  2  5  1 -1</clus>
<clus scale="  218.335">  1  5  2 -1</clus>
</clustering>
</event>
<event>
 9    1  0.3303741E-006  0.4111939E+03  0.7546771E-02  0.1068112E+00
          1   -1    0    0  502    0 -0.00000000000E+00  0.00000000000E+00  0.67334891724E+03  0.67334891724E+03  0.00000000000E+00 0. -1.
         21   -1    0    0  501  502  0.00000000000E+00 -0.00000000000E+00 -0.26736289768E+03  0.26736289768E+03  0.00000000000E+00 0. -1.
         23    2    1    2    0    0 -0.63071031682E+02 -0.14881667907E+03  0.48747080512E+03  0.52152184225E+03  0.90735258266E+02 0.  0.
         23    2    1    2    0    0 -0.46801598134E+01  0.93938992832E+02  0.13387594126E+03  0.18684964674E+03  0.90241811640E+02 0.  0.
        -13    1    3    3    0    0  0.20577563503E+02 -0.47554762537E+02  0.10423634832E+03  0.11640493061E+03  0.00000000000E+00 0.  1.
         13    1    3    3    0    0 -0.83648595185E+02 -0.10126191654E+03  0.38323445680E+03  0.40511691164E+03  0.00000000000E+00 0. -1.
        -13    1    4    4    0    0  0.41621753309E+02  0.57508947054E+02  0.80754772164E+02  0.10752200969E+03  0.00000000000E+00 0.  1.
         13    1    4    4    0    0 -0.46301913123E+02  0.36430045778E+02  0.53121169093E+02  0.79327637050E+02  0.00000000000E+00 0. -1.
          1    1    1    2  501    0  0.67751191495E+02  0.54877686241E+02 -0.21536072682E+03  0.23234032593E+03  0.00000000000E+00 0. -1.
<scales pt_clust_5="13000.00000" pt_clust_6="13000.00000" pt_clust_7="13000.00000" pt_clust_8="13000.00000" pt_clust_9="13000.00000"></scales>
<clustering>
<clus scale="   90.242">  7  8 -1 -1</clus>
<clus scale="   87.188">  7  9 -1 -1</clus>
<clus scale="   90.735">  5  6 -1 -1</clus>
<clus scale="  185.357">  1  5  2 -1</clus>
<clus scale="  411.194">  2  5  1 -1</clus>
</clustering>
</event>
<event>
 9    1  0.3303741E-006  0.1828569E+03  0.7546771E-02  0.1178297E+00
          1   -1    0    0  502    0 -0.00000000000E+00  0.00000000000E+00  0.50887775088E+03  0.50887775088E+03  0.00000000000E+00 0. -1.
         21   -1    0    0  501  502  0.00000000000E+00 -0.00000000000E+00 -0.53406632494E+02  0.53406632494E+02  0.00000000000E+00 0.  1.
         23    2    1    2    0    0 -0.45154960761E+02 -0.87794858536E+02  0.12276825544E+03  0.18264267275E+03  0.92408839946E+02 0.  0.
         23    2    1    2    0    0  0.74707631334E+02  0.46101271607E+02  0.27308152020E+03  0.30111515435E+03  0.91598373786E+02 0.  0.
        -11    1    3    3    0    0 -0.16488091081E+02 -0.49625973733E+02  0.14970383054E+01  0.52314773632E+02  0.00000000000E+00 0.  1.
         11    1    3    3    0    0 -0.28666869679E+02 -0.38168884803E+02  0.12127121713E+03  0.13032789912E+03  0.00000000000E+00 0. -1.
        -13    1    4    4    0    0  0.64378120070E+02  0.68079144780E+02  0.25235541316E+03  0.26918871976E+03  0.00000000000E+00 0.  1.
         13    1    4    4    0    0  0.10329511264E+02 -0.21977873173E+02  0.20726107041E+02  0.31926434584E+02  0.00000000000E+00 0. -1.
          1    1    1    2  501    0 -0.29552670573E+02  0.41693586929E+02  0.59621342747E+02  0.78526556272E+02  0.00000000000E+00 0. -1.
<scales pt_clust_5="13000.00000" pt_clust_6="13000.00000" pt_clust_7="13000.00000" pt_clust_8="13000.00000" pt_clust_9="13000.00000"></scales>
<clustering>
<clus scale="   91.598">  7  8 -1 -1</clus>
<clus scale="   51.105">  7  9 -1 -1</clus>
<clus scale="   92.409">  5  6 -1 -1</clus>
<clus scale="  135.227">  1  5  2 -1</clus>
<clus scale="  182.857">  2  5  1 -1</clus>
</clustering>
</event>
<event>
 9    1  0.5400258E-006  0.2751521E+03  0.7546771E-02  0.1132721E+00
          2   -1    0    0  502    0 -0.00000000000E+00  0.00000000000E+00  0.40757079533E+03  0.40757079533E+03  0.00000000000E+00 0. -1.
         21   -1    0    0  501  502  0.00000000000E+00 -0.00000000000E+00 -0.12999179169E+03  0.12999179169E+03  0.00000000000E+00 0. -1.
         23    2    1    2    0    0  0.65068491477E+02  0.27912610407E+02 -0.35253474534E+02  0.12094182901E+03  0.91493694511E+02 0.  0.
         23    2    1    2    0    0 -0.22839089863E+01 -0.86520354262E+01  0.33457922782E+03  0.34744131982E+03  0.93231631302E+02 0.  0.
        -11    1    3    3    0    0 -0.93298378589E+01  0.37060615252E+02 -0.24039526958E+02  0.45149019189E+02  0.00000000000E+00 0.  1.
         11    1    3    3    0    0  0.74398329336E+02 -0.91480048457E+01 -0.11213947575E+02  0.75792809823E+02  0.00000000000E+00 0. -1.
        -13    1    4    4    0    0 -0.35626225283E+02  0.26916737142E+02  0.17280316658E+03  0.17847877477E+03  0.00000000000E+00 0. -1.
         13    1    4    4    0    0  0.33342316296E+02 -0.35568772569E+02  0.16177606124E+03  0.16896254505E+03  0.00000000000E+00 0.  1.
          2    1    1    2  501    0 -0.62784582491E+02 -0.19260574980E+02 -0.21746749651E+02  0.69179438185E+02  0.00000000000E+00 0. -1.
<scales pt_clust_5="13000.00000" pt_clust_6="13000.00000" pt_clust_7="13000.00000" pt_clust_8="13000.00000" pt_clust_9="13000.00000"></scales>
<clustering>
<clus scale="   91.494">  5  6 -1 -1</clus>
<clus scale="   93.232">  7  8 -1 -1</clus>
<clus scale="   65.673">  7  9 -1 -1</clus>
<clus scale="  115.690">  1  5  2 -1</clus>
<clus scale="  275.152">  2  5  1 -1</clus>
</clustering>
</event>
<event>
 9    1  0.3303741E-006  0.4274424E+03  0.7546771E-02  0.1075603E+00
         21   -1    0    0  501  502  0.00000000000E+00  0.00000000000E+00  0.12172186144E+03  0.12172186144E+03  0.00000000000E+00 0. -1.
          2   -1    0    0  502    0 -0.00000000000E+00 -0.00000000000E+00 -0.74242423162E+03  0.74242423162E+03  0.00000000000E+00 0. -1.
         23    2    1    2    0    0 -0.25328962402E+02  0.95854372776E+02 -0.30325490962E+03  0.33171782232E+03  0.90794032391E+02 0.  0.
         23    2    1    2    0    0 -0.31265109397E+02  0.13706614934E+03 -0.55540358392E+02  0.17739279541E+03  0.92837686805E+02 0.  0.
        -11    1    3    3    0    0 -0.38667427989E+02  0.50713518028E+02 -0.74035344234E+02  0.97715214240E+02  0.00000000000E+00 0.  1.
         11    1    3    3    0    0  0.13338465587E+02  0.45140854748E+02 -0.22921956538E+03  0.23400260808E+03  0.00000000000E+00 0. -1.
        -11    1    4    4    0    0 -0.52787754268E+02  0.52990055465E+02 -0.83140043079E+00  0.74800963935E+02  0.00000000000E+00 0.  1.
         11    1    4    4    0    0  0.21522644871E+02  0.84076093874E+02 -0.54708957961E+02  0.10259183147E+03  0.00000000000E+00 0. -1.
          2    1    1    2  501    0  0.56594071799E+02 -0.23292052212E+03 -0.26190710217E+03  0.35503547534E+03  0.00000000000E+00 0. -1.
<scales pt_clust_5="13000.00000" pt_clust_6="13000.00000" pt_clust_7="13000.00000" pt_clust_8="13000.00000" pt_clust_9="13000.00000"></scales>
<clustering>
<clus scale="   90.794">  5  6 -1 -1</clus>
<clus scale="   92.838">  7  8 -1 -1</clus>
<clus scale="  134.437">  2  5  1 -1</clus>
<clus scale="  167.747">  7  9 -1 -1</clus>
<clus scale="  427.442">  1  5  2 -1</clus>
</clustering>
</event>
<event>
 9    1  0.3303741E-006  0.1582635E+03  0.7546771E-02  0.1217723E+00
         21   -1    0    0  501  502  0.00000000000E+00  0.00000000000E+00  0.67011093476E+02  0.67011093476E+02  0.00000000000E+00 0.  1.
          1   -1    0    0  502    0 -0.00000000000E+00 -0.00000000000E+00 -0.22743720278E+03  0.22743720278E+03  0.00000000000E+00 0. -1.
         23    2    1    2    0    0 -0.13824753166E+02 -0.11222814431E+01 -0.64883649734E+02  0.10958155802E+03  0.87211504630E+02 0.  0.
         23    2    1    2    0    0 -0.11697686804E+02 -0.39474287464E+02 -0.30057776132E+02  0.10370196685E+03  0.90308209898E+02 0.  0.
        -11    1    4    4    0    0  0.15988913170E+02 -0.61487736935E+02 -0.15128428958E+02  0.65308931246E+02  0.00000000000E+00 0.  1.
         11    1    4    4    0    0 -0.27686599974E+02  0.22013449472E+02 -0.14929347175E+02  0.38393035603E+02  0.00000000000E+00 0. -1.
        -11    1    3    3    0    0 -0.46801368230E+02  0.10768179599E+02 -0.55296258603E+02  0.73239319873E+02  0.00000000000E+00 0. -1.
         11    1    3    3    0    0  0.32976615064E+02 -0.11890461042E+02 -0.95873911311E+01  0.36342238148E+02  0.00000000000E+00 0.  1.
          1    1    1    2  501    0  0.25522439969E+02  0.40596568907E+02 -0.65484683435E+02  0.81164771383E+02  0.00000000000E+00 0. -1.
<scales pt_clust_5="13000.00000" pt_clust_6="13000.00000" pt_clust_7="13000.00000" pt_clust_8="13000.00000" pt_clust_9="13000.00000"></scales>
<clustering>
<clus scale="   87.212">  7  8 -1 -1</clus>
<clus scale="   88.308">  2  7  1 -1</clus>
<clus scale="   90.308">  5  6 -1 -1</clus>
<clus scale="   43.993">  5  9 -1 -1</clus>
<clus scale="  158.264">  1  5  2 -1</clus>
</clustering>
</event>
<event>
 9    1  0.3303741E-006  0.1803571E+03  0.7546771E-02  0.1192824E+00
          1   -1    0    0  502    0 -0.00000000000E+00  0.00000000000E+00  0.38043332425E+03  0.38043332425E+03  0.00000000000E+00 0. -1.
         21   -1    0    0  501  502  0.00000000000E+00 -0.00000000000E+00 -0.52814125544E+02  0.52814125544E+02  0.00000000000E+00 0. -1.
         23    2    1    2    0    0  0.30485632497E+02 -0.28954880065E+02  0.13746780100E+03  0.17116684498E+03  0.92913581569E+02 0.  0.
         23    2    1    2    0    0  0.34488053684E+02  0.38382215549E+02  0.15597739924E+03  0.18806495294E+03  0.91525172137E+02 0.  0.
        -11    1    4    4    0    0 -0.10564494432E+01 -0.28681011397E+02  0.35189982132E+02  0.45409815488E+02  0.00000000000E+00 0. -1.
         11    1    4    4    0    0  0.35544503128E+02  0.67063226946E+02  0.12078741711E+03  0.14265513746E+03  0.00000000000E+00 0.  1.
        -11    1    3    3    0    0 -0.28237490574E+02  0.94452886933E+01  0.26402111005E+02  0.39794984834E+02  0.00000000000E+00 0.  1.
         11    1    3    3    0    0  0.58723123071E+02 -0.38400168758E+02  0.11106569000E+03  0.13137186015E+03  0.00000000000E+00 0. -1.
          1    1    1    2  501    0 -0.64973686182E+02 -0.94273354840E+01  0.34173998461E+02  0.74015651866E+02  0.00000000000E+00 0. -1.
<scales pt_clust_5="13000.00000" pt_clust_6="13000.00000" pt_clust_7="13000.00000" pt_clust_8="13000.00000" pt_clust_9="13000.00000"></scales>
<clustering>
<clus scale="   91.525">  5  6 -1 -1</clus>
<clus scale="   65.654">  5  9 -1 -1</clus>
<clus scale="   92.914">  7  8 -1 -1</clus>
<clus scale="  101.984">  1  7  2 -1</clus>
<clus scale="  180.357">  2  5  1 -1</clus>
</clustering>
</event>
<event>
 9    1  0.3303741E-006  0.1559273E+03  0.7546771E-02  0.1205778E+00
         21   -1    0    0  501  502  0.00000000000E+00  0.00000000000E+00  0.45664738660E+03  0.45664738660E+03  0.00000000000E+00 0.  1.
         -1   -1    0    0    0  501 -0.00000000000E+00 -0.00000000000E+00 -0.42439325527E+02  0.42439325527E+02  0.00000000000E+00 0.  1.
         23    2    1    2    0    0  0.68549275882E+02  0.32920174425E+02  0.14138656298E+03  0.18484972090E+03  0.91632516144E+02 0.  0.
         23    2    1    2    0    0 -0.36995124437E+02 -0.13938891522E+02  0.11237464519E+03  0.14961880822E+03  0.90525106801E+02 0.  0.
        -11    1    3    3    0    0  0.84956314121E+02  0.81555921709E+01  0.81547994291E+02  0.11804306149E+03  0.00000000000E+00 0.  1.
         11    1    3    3    0    0 -0.16407038239E+02  0.24764582254E+02  0.59838568692E+02  0.66806659407E+02  0.00000000000E+00 0. -1.
        -13    1    4    4    0    0  0.20959201114E+02  0.17918447229E+02  0.57170598191E+02  0.63473113678E+02  0.00000000000E+00 0.  1.
         13    1    4    4    0    0 -0.57954325551E+02 -0.31857338751E+02  0.55204046999E+02  0.86145694538E+02  0.00000000000E+00 0. -1.
         -1    1    1    2    0  502 -0.31554151445E+02 -0.18981282903E+02  0.16044685290E+03  0.16461818302E+03  0.00000000000E+00 0.  1.
<scales pt_clust_5="13000.00000" pt_clust_6="13000.00000" pt_clust_7="13000.00000" pt_clust_8="13000.00000" pt_clust_9="13000.00000"></scales>
<clustering>
<clus scale="   90.525">  7  8 -1 -1</clus>
<clus scale="   36.823">  7  9 -1 -1</clus>
<clus scale="   91.633">  5  6 -1 -1</clus>
<clus scale="  119.077">  2  5  1 -1</clus>
<clus scale="  155.927">  1  5  2 -1</clus>
</clustering>
</event>
<event>
 9    1  0.3303741E-006  0.6084150E+03  0.7546771E-02  0.1035498E+00
         21   -1    0    0  501  502  0.00000000000E+00  0.00000000000E+00  0.15366904329E+04  0.15366904329E+04  0.00000000000E+00 0. -1.
          3   -1    0    0  502    0 -0.00000000000E+00 -0.00000000000E+00 -0.14450211050E+03  0.14450211050E+03  0.00000000000E+00 0. -1.
         23    2    1    2    0    0  0.68827272156E+02 -0.87985369813E+02 -0.17589526560E+02  0.14573093940E+03  0.91921143160E+02 0.  0.
         23    2    1    2    0    0  0.44638230560E+01 -0.12764720502E+03  0.62985266763E+02  0.16954826435E+03  0.92009431311E+02 0.  0.
        -13    1    3    3    0    0 -0.12780439890E+02 -0.26857469338E+02  0.21321113752E+02  0.36595808430E+02  0.00000000000E+00 0.  1.
         13    1    3    3    0    0  0.81607712046E+02 -0.61127900475E+02 -0.38910640313E+02  0.10913513097E+03  0.00000000000E+00 0. -1.
        -13    1    4    4    0    0 -0.29116568829E+02 -0.64011245771E+01  0.23951575880E+01  0.29907954729E+02  0.00000000000E+00 0.  1.
         13    1    4    4    0    0  0.33580391885E+02 -0.12124608045E+03  0.60590109175E+02  0.13964030963E+03  0.00000000000E+00 0. -1.
          3    1    1    2  501    0 -0.73291095212E+02  0.21563257484E+03  0.13467925822E+04  0.13659133397E+04  0.00000000000E+00 0. -1.
<scales pt_clust_5="13000.00000" pt_clust_6="13000.00000" pt_clust_7="13000.00000" pt_clust_8="13000.00000" pt_clust_9="13000.00000"></scales>
<clustering>
<clus scale="   91.921">  5  6 -1 -1</clus>
<clus scale="   92.009">  7  8 -1 -1</clus>
<clus scale="  144.666">  2  5  1 -1</clus>
<clus scale="  211.779">  7  9 -1 -1</clus>
<clus scale="  608.415">  1  5  2 -1</clus>
</clustering>
</event>
<event>
 9    1  0.3303741E-006  0.1877561E+03  0.7546771E-02  0.1182033E+00
         21   -1    0    0  501  502  0.00000000000E+00  0.00000000000E+00  0.31518087355E+03  0.31518087355E+03  0.00000000000E+00 0.  1.
         -3   -1    0    0    0  501 -0.00000000000E+00 -0.00000000000E+00 -0.95268884099E+02  0.95268884099E+02  0.00000000000E+00 0.  1.
         23    2    1    2    0    0 -0.32365207775E+02 -0.57621089603E+02 -0.80293233472E+01  0.11513703015E+03  0.93938112801E+02 0.  0.
         23    2    1    2    0    0  0.32587558864E+02  0.30083311691E+02  0.52543971430E+02  0.11776666021E+03  0.95609427817E+02 0.  0.
        -11    1    3    3    0    0 -0.34414568860E+02 -0.37148928949E+02 -0.48258410250E+02  0.69951980899E+02  0.00000000000E+00 0.  1.
         11    1    3    3    0    0  0.20493610848E+01 -0.20472160654E+02  0.40229086902E+02  0.45185049250E+02  0.00000000000E+00 0. -1.
        -11    1    4    4    0    0 -0.14751014586E+02  0.51303118879E+02  0.29641141614E+02  0.61058985532E+02  0.00000000000E+00 0.  1.
         11    1    4    4    0    0  0.47338573450E+02 -0.21219807188E+02  0.22902829816E+02  0.56707674674E+02  0.00000000000E+00 0. -1.
         -3    1    1    2    0  502 -0.22235108947E+00  0.27537777912E+02  0.17539734137E+03  0.17754606729E+03  0.00000000000E+00 0.  1.
<scales pt_clust_5="13000.00000" pt_clust_6="13000.00000" pt_clust_7="13000.00000" pt_clust_8="13000.00000" pt_clust_9="13000.00000"></scales>
<clustering>
<clus scale="   93.938">  5  6 -1 -1</clus>
<clus scale="   95.609">  7  8 -1 -1</clus>
<clus scale="   27.539">  7  9 -1 -1</clus>
<clus scale="  114.857">  2  5  1 -1</clus>
<clus scale="  187.756">  1  5  2 -1</clus>
</clustering>
</event>
<event>
 9    1  0.3303741E-006  0.4931477E+03  0.7546771E-02  0.1061277E+00
          1   -1    0    0  502    0 -0.00000000000E+00  0.00000000000E+00  0.12347197040E+03  0.12347197040E+03  0.00000000000E+00 0. -1.
         21   -1    0    0  501  502  0.00000000000E+00 -0.00000000000E+00 -0.85740144409E+03  0.85740144409E+03  0.00000000000E+00 0. -1.
         23    2    1    2    0    0  0.60223634967E+02 -0.65509104578E+02 -0.53358886102E+02  0.14041460031E+03  0.94608457664E+02 0.  0.
         23    2    1    2    0    0 -0.12240472320E+03 -0.17473514059E+03 -0.23241791379E+03  0.32818486004E+03  0.90398728367E+02 0.  0.
        -13    1    3    3    0    0 -0.22313841713E+02  0.53960491844E+00 -0.18844652978E+02  0.29211635547E+02  0.00000000000E+00 0.  1.
         13    1    3    3    0    0  0.82537476680E+02 -0.66048709496E+02 -0.34514233124E+02  0.11120296476E+03  0.00000000000E+00 0. -1.
        -13    1    4    4    0    0 -0.90758461596E+02 -0.65043826864E+02 -0.15171646536E+03  0.18837644127E+03  0.00000000000E+00 0.  1.
         13    1    4    4    0    0 -0.31646261606E+02 -0.10969131373E+03 -0.80701448433E+02  0.13980841877E+03  0.00000000000E+00 0. -1.
          1    1    1    2  501    0  0.62181088236E+02  0.24024424517E+03 -0.44815267380E+03  0.51227395415E+03  0.00000000000E+00 0. -1.
<scales pt_clust_5="13000.00000" pt_clust_6="13000.00000" pt_clust_7="13000.00000" pt_clust_8="13000.00000" pt_clust_9="13000.00000"></scales>
<clustering>
<clus scale="   90.399">  7  8 -1 -1</clus>
<clus scale="   94.608">  5  6 -1 -1</clus>
<clus scale="  129.881">  1  5  2 -1</clus>
<clus scale="  230.733">  7  9 -1 -1</clus>
<clus scale="  493.148">  2  5  1 -1</clus>
</clustering>
</event>
<event>
 9    1  0.3303741E-006  0.2113045E+03  0.7546771E-02  0.1160584E+00
         21   -1    0    0  501  502  0.00000000000E+00  0.00000000000E+00  0.83252165325E+02  0.83252165325E+02  0.00000000000E+00 0. -1.
          3   -1    0    0  502    0 -0.00000000000E+00 -0.00000000000E+00 -0.42405213865E+03  0.42405213865E+03  0.00000000000E+00 0. -1.
         23    2    1    2    0    0  0.81055956143E+02 -0.44634048709E+02 -0.23896695262E+03  0.27274187083E+03  0.93384459796E+02 0.  0.
         23    2    1    2    0    0  0.60715911164E+01 -0.10385825572E+01 -0.10047693995E+03  0.13618033267E+03  0.91714364592E+02 0.  0.
        -11    1    4    4    0    0 -0.28253666316E+02  0.18896902608E+02 -0.88368380622E+02  0.94680163087E+02  0.00000000000E+00 0.  1.
         11    1    4    4    0    0  0.34325257433E+02 -0.19935485165E+02 -0.12108559330E+02  0.41500169586E+02  0.00000000000E+00 0. -1.
        -13    1    3    3    0    0  0.90845328473E+02 -0.87312124658E+01 -0.14114274062E+03  0.16807849656E+03  0.00000000000E+00 0. -1.
         13    1    3    3    0    0 -0.97893723303E+01 -0.35902836243E+02 -0.97824211996E+02  0.10466337427E+03  0.00000000000E+00 0.  1.
          3    1    1    2  501    0 -0.87127547259E+02  0.45672631266E+02 -0.13560807578E+01  0.98382100472E+02  0.00000000000E+00 0. -1.
<scales pt_clust_5="13000.00000" pt_clust_6="13000.00000" pt_clust_7="13000.00000" pt_clust_8="13000.00000" pt_clust_9="13000.00000"></scales>
<clustering>
<clus scale="   91.714">  5  6 -1 -1</clus>
<clus scale="   93.384">  7  8 -1 -1</clus>
<clus scale="   98.373">  5  9 -1 -1</clus>
<clus scale="  131.465">  2  7  1 -1</clus>
<clus scale="  211.304">  1  5  2 -1</clus>
</clustering>
</event>
<event>
 9    1  0.3303741E-006  0.2783814E+03  0.7546771E-02  0.1125095E+00
         21   -1    0    0  501  502  0.00000000000E+00  0.00000000000E+00  0.38867859853E+02  0.38867859853E+02  0.00000000000E+00 0. -1.
          2   -1    0    0  502    0 -0.00000000000E+00 -0.00000000000E+00 -0.12110518021E+04  0.12110518021E+04  0.00000000000E+00 0. -1.
         23    2    1    2    0    0 -0.75429879829E+02 -0.63841958430E+02 -0.58165740500E+03  0.59706608617E+03  0.91635757394E+02 0.  0.
         23    2    1    2    0    0 -0.70022176349E+02 -0.97954492297E+01 -0.28933414387E+03  0.31036908522E+03  0.87267784672E+02 0.  0.
        -11    1    4    4    0    0 -0.84502807110E+02 -0.24772482963E+02 -0.19815859511E+03  0.21684378971E+03  0.00000000000E+00 0. -1.
         11    1    4    4    0    0  0.14480630761E+02  0.14977033733E+02 -0.91175548762E+02  0.93525295502E+02  0.00000000000E+00 0.  1.
        -11    1    3    3    0    0  0.19027903306E+02 -0.19584368681E+02 -0.75868924794E+02  0.80633134319E+02  0.00000000000E+00 0.  1.
         11    1    3    3    0    0 -0.94457783136E+02 -0.44257589750E+02 -0.50578848020E+03  0.51643295185E+03  0.00000000000E+00 0. -1.
          2    1    1    2  501    0  0.14545205618E+03  0.73637407660E+02 -0.30119239337E+03  0.34248449057E+03  0.00000000000E+00 0. -1.
<scales pt_clust_5="13000.00000" pt_clust_6="13000.00000" pt_clust_7="13000.00000" pt_clust_8="13000.00000" pt_clust_9="13000.00000"></scales>
<clustering>
<clus scale="   87.268">  5  6 -1 -1</clus>
<clus scale="   91.636">  7  8 -1 -1</clus>
<clus scale="  134.769">  2  7  1 -1</clus>
<clus scale="  113.882">  5  9 -1 -1</clus>
<clus scale="  278.381">  1  5  2 -1</clus>
</clustering>
</event>
<event>
 9    1  0.3303741E-006  0.4932507E+03  0.7546771E-02  0.1063575E+00
          1   -1    0    0  502    0 -0.00000000000E+00  0.00000000000E+00  0.18848470396E+03  0.18848470396E+03  0.00000000000E+00 0. -1.
         21   -1    0    0  501  502  0.00000000000E+00 -0.00000000000E+00 -0.84782458148E+03  0.84782458148E+03  0.00000000000E+00 0. -1.
         23    2    1    2    0    0 -0.34884814291E+02 -0.72606209004E+02  0.81339444161E+02  0.14642049184E+03  0.91292077424E+02 0.  0.
         23    2    1    2    0    0 -0.69022361612E+02  0.21573053066E+03 -0.18452516030E+03  0.30628899589E+03  0.91976442415E+02 0.  0.
        -13    1    3    3    0    0  0.20676425513E+02 -0.18790012586E+02  0.59990042363E+02  0.66176916880E+02  0.00000000000E+00 0.  1.
         13    1    3    3    0    0 -0.55561239804E+02 -0.53816196418E+02  0.21349401798E+02  0.80243574961E+02  0.00000000000E+00 0. -1.
        -13    1    4    4    0    0 -0.28092456195E+02  0.38526222715E+01 -0.26603212259E+02  0.38881354091E+02  0.00000000000E+00 0.  1.
         13    1    4    4    0    0 -0.40929905417E+02  0.21187790839E+03 -0.15792194804E+03  0.26740764180E+03  0.00000000000E+00 0. -1.
          1    1    1    2  501    0  0.10390717590E+03 -0.14312432165E+03 -0.55615416139E+03  0.58359979770E+03  0.00000000000E+00 0. -1.
<scales pt_clust_5="13000.00000" pt_clust_6="13000.00000" pt_clust_7="13000.00000" pt_clust_8="13000.00000" pt_clust_9="13000.00000"></scales>
<clustering>
<clus scale="   91.292">  5  6 -1 -1</clus>
<clus scale="   91.976">  7  8 -1 -1</clus>
<clus scale="  121.749">  1  5  2 -1</clus>
<clus scale="  184.364">  7  9 -1 -1</clus>
<clus scale="  493.251">  2  5  1 -1</clus>
</clustering>
</event>
<event>
 9    1  0.3303741E-006  0.1938540E+03  0.7546771E-02  0.1161326E+00
         21   -1    0    0  501  502  0.00000000000E+00  0.00000000000E+00  0.17958276307E+03  0.17958276307E+03  0.00000000000E+00 0.  1.
         -2   -1    0    0    0  501 -0.00000000000E+00 -0.00000000000E+00 -0.20853714852E+03  0.20853714852E+03  0.00000000000E+00 0.  1.
         23    2    1    2    0    0 -0.73918217570E+02  0.11945752613E+03 -0.83101147833E+02  0.18684581606E+03  0.90948088327E+02 0.  0.
         23    2    1    2    0    0  0.29157935123E+02 -0.10672001976E+03  0.20494085483E+02  0.14384388034E+03  0.89619788966E+02 0.  0.
        -11    1    4    4    0    0 -0.16660104642E+02 -0.68179791475E+02  0.40112536063E+02  0.80839709312E+02  0.00000000000E+00 0. -1.
         11    1    4    4    0    0  0.45818039765E+02 -0.38540228281E+02 -0.19618450580E+02  0.63004171028E+02  0.00000000000E+00 0.  1.
        -11    1    3    3    0    0 -0.23831511370E+02  0.83185257003E+02 -0.42489510811E+01  0.86635913466E+02  0.00000000000E+00 0. -1.
         11    1    3    3    0    0 -0.50086706200E+02  0.36272269131E+02 -0.78852196752E+02  0.10020990260E+03  0.00000000000E+00 0.  1.
         -2    1    1    2    0  502  0.44760282447E+02 -0.12737506378E+02  0.33652676901E+02  0.57430215184E+02  0.00000000000E+00 0.  1.
<scales pt_clust_5="13000.00000" pt_clust_6="13000.00000" pt_clust_7="13000.00000" pt_clust_8="13000.00000" pt_clust_9="13000.00000"></scales>
<clustering>
<clus scale="   89.620">  5  6 -1 -1</clus>
<clus scale="   46.537">  5  9 -1 -1</clus>
<clus scale="   90.948">  7  8 -1 -1</clus>
<clus scale="  167.349">  2  7  1 -1</clus>
<clus scale="  193.854">  1  5  2 -1</clus>
</clustering>
</event>
<event>
 9    1  0.3303741E-006  0.1587562E+03  0.7546771E-02  0.1209247E+00
         21   -1    0    0  501  502  0.00000000000E+00  0.00000000000E+00  0.10769033176E+03  0.10769033176E+03  0.00000000000E+00 0. -1.
         -4   -1    0    0    0  501 -0.00000000000E+00 -0.00000000000E+00 -0.16706803235E+03  0.16706803235E+03  0.00000000000E+00 0.  1.
         23    2    1    2    0    0 -0.55957407601E+02 -0.81848112145E+01 -0.49093166075E+02  0.11566942072E+03  0.88153578119E+02 0.  0.
         23    2    1    2    0    0  0.86344125062E+00 -0.21891519198E+02  0.69360327660E+01  0.94000705464E+02  0.91148449979E+02 0.  0.
        -11    1    4    4    0    0 -0.58914800225E+01  0.21885566988E+02 -0.29109584641E+02  0.36892485647E+02  0.00000000000E+00 0.  1.
         11    1    4    4    0    0  0.67549212731E+01 -0.43777086186E+02  0.36045617407E+02  0.57108219817E+02  0.00000000000E+00 0. -1.
        -13    1    3    3    0    0 -0.34017220532E+02  0.12892684145E+02  0.19034265266E+02  0.41057226543E+02  0.00000000000E+00 0.  1.
         13    1    3    3    0    0 -0.21940187068E+02 -0.21077495359E+02 -0.68127431341E+02  0.74612194180E+02  0.00000000000E+00 0. -1.
         -4    1    1    2    0  502  0.55093966350E+02  0.30076330413E+02 -0.17220567282E+02  0.65088237930E+02  0.00000000000E+00 0.  1.
<scales pt_clust_5="13000.00000" pt_clust_6="13000.00000" pt_clust_7="13000.00000" pt_clust_8="13000.00000" pt_clust_9="13000.00000"></scales>
<clustering>
<clus scale="   88.154">  7  8 -1 -1</clus>
<clus scale="   91.148">  5  6 -1 -1</clus>
<clus scale="   62.769">  5  9 -1 -1</clus>
<clus scale="  104.734">  2  7  1 -1</clus>
<clus scale="  158.756">  1  5  2 -1</clus>
</clustering>
</event>
<event>
 9    1  0.3303741E-006  0.4206678E+03  0.7546771E-02  0.1085191E+00
          1   -1    0    0  502    0 -0.00000000000E+00  0.00000000000E+00  0.13308075440E+03  0.13308075440E+03  0.00000000000E+00 0. -1.
         21   -1    0    0  501  502  0.00000000000E+00 -0.00000000000E+00 -0.53171210872E+03  0.53171210872E+03  0.00000000000E+00 0. -1.
         23    2    1    2    0    0  0.96273836463E+01  0.59054984128E+02 -0.10859791598E+03  0.15383224181E+03  0.91053136132E+02 0.  0.
         23    2    1    2    0    0  0.10338110621E+03 -0.12054427741E+03  0.10726259549E+02  0.18383946969E+03  0.91996315326E+02 0.  0.
        -11    1    3    3    0    0 -0.30591029691E+02  0.49207332660E+02 -0.30600169571E+02  0.65525133063E+02  0.00000000000E+00 0.  1.
         11    1    3    3    0    0  0.40218413338E+02  0.98476514680E+01 -0.77997746408E+02  0.88307108749E+02  0.00000000000E+00 0. -1.
        -13    1    4    4    0    0  0.10179426966E+03 -0.69237319986E+02 -0.18931305906E+02  0.12455630919E+03  0.00000000000E+00 0. -1.
         13    1    4    4    0    0  0.15868365485E+01 -0.51306957421E+02  0.29657565455E+02  0.59283160499E+02  0.00000000000E+00 0.  1.
          1    1    1    2  501    0 -0.11300848986E+03  0.61489293279E+02 -0.30075969789E+03  0.32712115163E+03  0.00000000000E+00 0. -1.
<scales pt_clust_5="13000.00000" pt_clust_6="13000.00000" pt_clust_7="13000.00000" pt_clust_8="13000.00000" pt_clust_9="13000.00000"></scales>
<clustering>
<clus scale="   91.053">  5  6 -1 -1</clus>
<clus scale="   91.996">  7  8 -1 -1</clus>
<clus scale="  108.953">  1  5  2 -1</clus>
<clus scale="  131.186">  7  9 -1 -1</clus>
<clus scale="  420.668">  2  5  1 -1</clus>
</clustering>
</event>
<event>
 9    1  0.3303741E-006  0.3226396E+03  0.7546771E-02  0.1120698E+00
          1   -1    0    0  502    0 -0.00000000000E+00  0.00000000000E+00  0.16496487988E+03  0.16496487988E+03  0.00000000000E+00 0. -1.
         21   -1    0    0  501  502  0.00000000000E+00 -0.00000000000E+00 -0.26924596412E+03  0.26924596412E+03  0.00000000000E+00 0. -1.
         23    2    1    2    0    0  0.30089414751E+01 -0.30456752460E+02 -0.52585719723E+01  0.96717527329E+02  0.91596724911E+02 0.  0.
         23    2    1    2    0    0 -0.55864783483E+02  0.14189034035E+03  0.31401474892E+01  0.17734215810E+03  0.90480040877E+02 0.  0.
        -11    1    4    4    0    0 -0.11115932163E+02  0.12305674552E+03 -0.17111588786E+02  0.12473705559E+03  0.00000000000E+00 0. -1.
         11    1    4    4    0    0 -0.44748851319E+02  0.18833594827E+02  0.20251736275E+02  0.52605102515E+02  0.00000000000E+00 0.  1.
        -13    1    3    3    0    0 -0.34001744251E+02 -0.37978978427E+02  0.15937163756E+02  0.53408937483E+02  0.00000000000E+00 0.  1.
         13    1    3    3    0    0  0.37010685726E+02  0.75222259678E+01 -0.21195735729E+02  0.43308589846E+02  0.00000000000E+00 0. -1.
          1    1    1    2  501    0  0.52855842007E+02 -0.11143358789E+03 -0.10216265976E+03  0.16015115857E+03  0.00000000000E+00 0. -1.
<scales pt_clust_5="13000.00000" pt_clust_6="13000.00000" pt_clust_7="13000.00000" pt_clust_8="13000.00000" pt_clust_9="13000.00000"></scales>
<clustering>
<clus scale="   90.480">  5  6 -1 -1</clus>
<clus scale="   91.597">  7  8 -1 -1</clus>
<clus scale="   96.574">  1  7  2 -1</clus>
<clus scale="  130.363">  5  9 -1 -1</clus>
<clus scale="  322.640">  2  5  1 -1</clus>
</clustering>
</event>
<event>
 9    1  0.3303741E-006  0.1687146E+03  0.7546771E-02  0.1199851E+00
         -4   -1    0    0    0  501 -0.00000000000E+00  0.00000000000E+00  0.76460019449E+02  0.76460019449E+02  0.00000000000E+00 0.  1.
         21   -1    0    0  501  502  0.00000000000E+00 -0.00000000000E+00 -0.43333162784E+03  0.43333162784E+03  0.00000000000E+00 0. -1.
         23    2    1    2    0    0 -0.54914701777E+02 -0.35156451728E+02  0.86626154330E+01  0.10720017543E+03  0.84647717852E+02 0.  0.
         23    2    1    2    0    0  0.85946497896E+02  0.32903998883E+02 -0.33689991471E+03  0.36030708263E+03  0.88601171631E+02 0.  0.
        -13    1    3    3    0    0  0.17868604661E+01 -0.42697441748E+02  0.22575967759E+02  0.48331549968E+02  0.00000000000E+00 0.  1.
         13    1    3    3    0    0 -0.56701562243E+02  0.75409900196E+01 -0.13913352326E+02  0.58868625465E+02  0.00000000000E+00 0. -1.
        -13    1    4    4    0    0  0.74989231335E+02  0.52165515010E+02 -0.31899702967E+03  0.33181882212E+03  0.00000000000E+00 0. -1.
         13    1    4    4    0    0  0.10957266560E+02 -0.19261516127E+02 -0.17902885040E+02  0.28488260507E+02  0.00000000000E+00 0.  1.
         -4    1    1    2    0  502 -0.31031796119E+02  0.22524528452E+01 -0.28634309113E+02  0.42284389230E+02  0.00000000000E+00 0.  1.
<scales pt_clust_5="13000.00000" pt_clust_6="13000.00000" pt_clust_7="13000.00000" pt_clust_8="13000.00000" pt_clust_9="13000.00000"></scales>
<clustering>
<clus scale="   84.648">  5  6 -1 -1</clus>
<clus scale="   88.601">  7  8 -1 -1</clus>
<clus scale="   31.113">  7  9 -1 -1</clus>
<clus scale="  106.850">  1  5  2 -1</clus>
<clus scale="  168.715">  2  5  1 -1</clus>
</clustering>
</event>
<event>
 9    1  0.3303741E-006  0.2350181E+03  0.7546771E-02  0.1160941E+00
         21   -1    0    0  501  502  0.00000000000E+00  0.00000000000E+00  0.15632998654E+03  0.15632998654E+03  0.00000000000E+00 0.  1.
         -3   -1    0    0    0  501 -0.00000000000E+00 -0.00000000000E+00 -0.20980181495E+03  0.20980181495E+03  0.00000000000E+00 0.  1.
         23    2    1    2    0    0  0.19806500119E+02  0.13507756517E+02 -0.87114409376E+02  0.12871794319E+03  0.91676778106E+02 0.  0.
         23    2    1    2    0    0 -0.12277458313E+02  0.65570388145E+02 -0.48751109640E+02  0.12296404535E+03  0.91067414448E+02 0.  0.
        -11    1    3    3    0    0 -0.16664361300E+02  0.11949521188E+02 -0.89803466456E+02  0.92114898804E+02  0.00000000000E+00 0.  1.
         11    1    3    3    0    0  0.36470861420E+02  0.15582353286E+01  0.26890570797E+01  0.36603044382E+02  0.00000000000E+00 0. -1.
        -11    1    4    4    0    0  0.36525417478E+02  0.49069513783E+02 -0.30090376674E+02  0.68171504848E+02  0.00000000000E+00 0.  1.
         11    1    4    4    0    0 -0.48802875791E+02  0.16500874362E+02 -0.18660732966E+02  0.54792540505E+02  0.00000000000E+00 0. -1.
         -3    1    1    2    0  502 -0.75290418067E+01 -0.79078144662E+02  0.82393690604E+02  0.11444981295E+03  0.00000000000E+00 0.  1.
<scales pt_clust_5="13000.00000" pt_clust_6="13000.00000" pt_clust_7="13000.00000" pt_clust_8="13000.00000" pt_clust_9="13000.00000"></scales>
<clustering>
<clus scale="   91.067">  7  8 -1 -1</clus>
<clus scale="   79.436">  7  9 -1 -1</clus>
<clus scale="   91.677">  5  6 -1 -1</clus>
<clus scale="   94.760">  2  5  1 -1</clus>
<clus scale="  235.018">  1  5  2 -1</clus>
</clustering>
</event>
<event>
 9    1  0.3303741E-006  0.3217477E+03  0.7546771E-02  0.1122676E+00
          2   -1    0    0  502    0 -0.00000000000E+00  0.00000000000E+00  0.12533499969E+03  0.12533499969E+03  0.00000000000E+00 0. -1.
         21   -1    0    0  501  502  0.00000000000E+00 -0.00000000000E+00 -0.34575788342E+03  0.34575788342E+03  0.00000000000E+00 0.  1.
         23    2    1    2    0    0 -0.13903344459E+02  0.59033845159E+01 -0.31071576725E+02  0.97762619648E+02  0.91454546002E+02 0.  0.
         23    2    1    2    0    0  0.13440408172E+03 -0.79406606908E+02 -0.96639789040E+02  0.20445582210E+03  0.89961480427E+02 0.  0.
        -11    1    4    4    0    0  0.12977669922E+03 -0.47824663822E+02 -0.10231070573E+03  0.17203682930E+03  0.00000000000E+00 0.  1.
         11    1    4    4    0    0  0.46273825043E+01 -0.31581943086E+02  0.56709166889E+01  0.32418992798E+02  0.00000000000E+00 0. -1.
        -13    1    3    3    0    0  0.10687622456E+02  0.27634953620E+02  0.20926617880E+02  0.36274498911E+02  0.00000000000E+00 0. -1.
         13    1    3    3    0    0 -0.24590966915E+02 -0.21731569105E+02 -0.51998194605E+02  0.61488120737E+02  0.00000000000E+00 0.  1.
          2    1    1    2  501    0 -0.12050073726E+03  0.73503222392E+02 -0.92711517959E+02  0.16887444136E+03  0.00000000000E+00 0. -1.
<scales pt_clust_5="13000.00000" pt_clust_6="13000.00000" pt_clust_7="13000.00000" pt_clust_8="13000.00000" pt_clust_9="13000.00000"></scales>
<clustering>
<clus scale="   89.961">  5  6 -1 -1</clus>
<clus scale="   91.455">  7  8 -1 -1</clus>
<clus scale="   92.694">  1  7  2 -1</clus>
<clus scale="  147.339">  5  9 -1 -1</clus>
<clus scale="  321.748">  2  5  1 -1</clus>
</clustering>
</event>
<event>
 9    1  0.3303741E-006  0.2780739E+03  0.7546771E-02  0.1136822E+00
         21   -1    0    0  501  502  0.00000000000E+00  0.00000000000E+00  0.70431032237E+02  0.70431032237E+02  0.00000000000E+00 0.  1.
          1   -1    0    0  502    0 -0.00000000000E+00 -0.00000000000E+00 -0.62039261717E+03  0.62039261717E+03  0.00000000000E+00 0. -1.
         23    2    1    2    0    0 -0.37523023208E+02  0.13877040738E+02 -0.30083949768E+03  0.31747807106E+03  0.93206076570E+02 0.  0.
         23    2    1    2    0    0 -0.78773924679E+02  0.52592851113E+02 -0.17962904283E+03  0.22243994613E+03  0.90783244103E+02 0.  0.
        -13    1    3    3    0    0 -0.61667659874E+02  0.23033314248E+02 -0.26651776230E+03  0.27452714157E+03  0.00000000000E+00 0.  1.
         13    1    3    3    0    0  0.24144636666E+02 -0.91562735095E+01 -0.34321735386E+02  0.42950929491E+02  0.00000000000E+00 0. -1.
        -13    1    4    4    0    0 -0.82485935522E+02  0.14398908182E+02 -0.15688607898E+03  0.17783278633E+03  0.00000000000E+00 0. -1.
         13    1    4    4    0    0  0.37120108428E+01  0.38193942931E+02 -0.22742963851E+02  0.44607159804E+02  0.00000000000E+00 0.  1.
          1    1    1    2  501    0  0.11629694789E+03 -0.66469891851E+02 -0.69493044419E+02  0.15090563221E+03  0.00000000000E+00 0. -1.
<scales pt_clust_5="13000.00000" pt_clust_6="13000.00000" pt_clust_7="13000.00000" pt_clust_8="13000.00000" pt_clust_9="13000.00000"></scales>
<clustering>
<clus scale="   90.783">  7  8 -1 -1</clus>
<clus scale="   93.206">  5  6 -1 -1</clus>
<clus scale="  101.429">  2  5  1 -1</clus>
<clus scale="  120.002">  7  9 -1 -1</clus>
<clus scale="  278.074">  1  5  2 -1</clus>
</clustering>
</event>
<event>
 9    1  0.3303741E-006  0.1588578E+03  0.7546771E-02  0.1204779E+00
         21   -1    0    0  501  502  0.00000000000E+00  0.00000000000E+00  0.35190140967E+03  0.35190140967E+03  0.00000000000E+00 0.  1.
          3   -1    0    0  502    0 -0.00000000000E+00 -0.00000000000E+00 -0.98603858384E+02  0.98603858384E+02  0.00000000000E+00 0. -1.
         23    2    1    2    0    0 -0.33554840569E+02  0.57821049875E+02 -0.35921073167E+02  0.12053069950E+03  0.93638266168E+02 0.  0.
         23    2    1    2    0    0  0.24476657968E+02 -0.86599080910E+02  0.22699502727E+03  0.26081992651E+03  0.91661246222E+02 0.  0.
        -11    1    4    4    0    0  0.57466907349E+02 -0.38579213005E+02  0.13910308218E+03  0.15537203284E+03  0.00000000000E+00 0.  1.
         11    1    4    4    0    0 -0.32990249381E+02 -0.48019867905E+02  0.87891945095E+02  0.10544789367E+03  0.00000000000E+00 0. -1.
        -13    1    3    3    0    0 -0.45949180686E+02  0.45751841945E+01  0.12132990928E+02  0.47743784779E+02  0.00000000000E+00 0.  1.
         13    1    3    3    0    0  0.12394340118E+02  0.53245865681E+02 -0.48054064095E+02  0.72786914724E+02  0.00000000000E+00 0. -1.
          3    1    1    2  501    0  0.90781826003E+01  0.28778031034E+02  0.62223597184E+02  0.69154642042E+02  0.00000000000E+00 0. -1.
<scales pt_clust_5="13000.00000" pt_clust_6="13000.00000" pt_clust_7="13000.00000" pt_clust_8="13000.00000" pt_clust_9="13000.00000"></scales>
<clustering>
<clus scale="   91.661">  5  6 -1 -1</clus>
<clus scale="   30.176">  5  9 -1 -1</clus>
<clus scale="   93.638">  7  8 -1 -1</clus>
<clus scale="  115.054">  2  7  1 -1</clus>
<clus scale="  158.858">  1  5  2 -1</clus>
</clustering>
</event>
<event>
 9    1  0.3303741E-006  0.2031152E+03  0.7546771E-02  0.1168546E+00
         21   -1    0    0  501  502  0.00000000000E+00  0.00000000000E+00  0.30861712519E+02  0.30861712519E+02  0.00000000000E+00 0.  1.
          1   -1    0    0  502    0 -0.00000000000E+00 -0.00000000000E+00 -0.89112720380E+03  0.89112720380E+03  0.00000000000E+00 0. -1.
         23    2    1    2    0    0  0.49411798681E+02 -0.65987484393E+02 -0.40853861412E+03  0.42669815272E+03  0.91496668588E+02 0.  0.
         23    2    1    2    0    0 -0.10088491856E+03  0.64955373939E+02 -0.31570147575E+03  0.34984848243E+03  0.91266486027E+02 0.  0.
        -11    1    4    4    0    0 -0.55146196599E+02  0.74620245361E+02 -0.13941588092E+03  0.16746961477E+03  0.00000000000E+00 0.  1.
         11    1    4    4    0    0 -0.45738721962E+02 -0.96648714216E+01 -0.17628559483E+03  0.18237886767E+03  0.00000000000E+00 0. -1.
        -11    1    3    3    0    0 -0.80018970504E+01 -0.53975276472E+02 -0.11412891062E+03  0.12650205163E+03  0.00000000000E+00 0.  1.
         11    1    3    3    0    0  0.57413695731E+02 -0.12012207921E+02 -0.29440970350E+03  0.30019610109E+03  0.00000000000E+00 0. -1.
          1    1    1    2  501    0  0.51473119880E+02  0.10321104542E+01 -0.13602540141E+03  0.14544228116E+03  0.00000000000E+00 0. -1.
<scales pt_clust_5="13000.00000" pt_clust_6="13000.00000" pt_clust_7="13000.00000" pt_clust_8="13000.00000" pt_clust_9="13000.00000"></scales>
<clustering>
<clus scale="   91.266">  5  6 -1 -1</clus>
<clus scale="   51.483">  5  9 -1 -1</clus>
<clus scale="   91.497">  7  8 -1 -1</clus>
<clus scale="  123.156">  2  7  1 -1</clus>
<clus scale="  203.115">  1  5  2 -1</clus>
</clustering>
</event>
<event>
 9    1  0.3303741E-006  0.4960231E+03  0.7546771E-02  0.1061820E+00
         21   -1    0    0  501  502  0.00000000000E+00  0.00000000000E+00  0.50696773908E+03  0.50696773908E+03  0.00000000000E+00 0.  1.
         -2   -1    0    0    0  501 -0.00000000000E+00 -0.00000000000E+00 -0.19081346743E+03  0.19081346743E+03  0.00000000000E+00 0.  1.
         23    2    1    2    0    0  0.74893248678E+02  0.42361270144E+02  0.72868371910E+02  0.14530770970E+03  0.91657269042E+02 0.  0.
         23    2    1    2    0    0 -0.15521491099E+03 -0.47508172494E+02 -0.91407813251E+02  0.20823819711E+03  0.93054088386E+02 0.  0.
        -11    1    3    3    0    0  0.56735033791E+02 -0.20447013192E+02  0.36511339292E+02  0.70498385121E+02  0.00000000000E+00 0.  1.
         11    1    3    3    0    0  0.18158214887E+02  0.62808283335E+02  0.36357032618E+02  0.74809324581E+02  0.00000000000E+00 0. -1.
        -13    1    4    4    0    0 -0.10872096284E+03 -0.75532739375E+02 -0.71170073450E+02  0.15030176923E+03  0.00000000000E+00 0.  1.
         13    1    4    4    0    0 -0.46493948154E+02  0.28024566882E+02 -0.20237739801E+02  0.57936427886E+02  0.00000000000E+00 0. -1.
         -2    1    1    2    0  502  0.80321662314E+02  0.51469023499E+01  0.33469371299E+03  0.34423529970E+03  0.00000000000E+00 0.  1.
<scales pt_clust_5="13000.00000" pt_clust_6="13000.00000" pt_clust_7="13000.00000" pt_clust_8="13000.00000" pt_clust_9="13000.00000"></scales>
<clustering>
<clus scale="   91.657">  5  6 -1 -1</clus>
<clus scale="   93.054">  7  8 -1 -1</clus>
<clus scale="   80.486">  7  9 -1 -1</clus>
<clus scale="  125.716">  2  5  1 -1</clus>
<clus scale="  496.023">  1  5  2 -1</clus>
</clustering>
</event>
<event>
 9    1  0.3303741E-006  0.1486478E+03  0.7546771E-02  0.1222389E+00
         -1   -1    0    0    0  501 -0.00000000000E+00  0.00000000000E+00  0.47040833217E+02  0.47040833217E+02  0.00000000000E+00 0.  1.
         21   -1    0    0  501  502  0.00000000000E+00 -0.00000000000E+00 -0.72092443782E+03  0.72092443782E+03  0.00000000000E+00 0. -1.
         23    2    1    2    0    0 -0.42998664714E+02 -0.19216342311E+02 -0.21676065154E+02  0.99032661644E+02  0.84376912083E+02 0.  0.
         23    2    1    2    0    0  0.54959644366E+02  0.46144178602E+02 -0.46217513305E+03  0.47662949219E+03  0.91760402649E+02 0.  0.
        -13    1    4    4    0    0  0.29895998891E+02  0.67510336365E+02 -0.39469044526E+03  0.40153700184E+03  0.00000000000E+00 0. -1.
         13    1    4    4    0    0  0.25063645475E+02 -0.21366157763E+02 -0.67484687784E+02  0.75092490353E+02  0.00000000000E+00 0.  1.
        -13    1    3    3    0    0 -0.13083322295E+02 -0.37572448093E+02  0.20013928618E+02  0.44535598308E+02  0.00000000000E+00 0.  1.
         13    1    3    3    0    0 -0.29915342419E+02  0.18356105782E+02 -0.41689993772E+02  0.54497063336E+02  0.00000000000E+00 0. -1.
         -1    1    1    2    0  502 -0.11960979652E+02 -0.26927836292E+02 -0.19003240640E+03  0.19230311720E+03  0.00000000000E+00 0.  1.
<scales pt_clust_5="13000.00000" pt_clust_6="13000.00000" pt_clust_7="13000.00000" pt_clust_8="13000.00000" pt_clust_9="13000.00000"></scales>
<clustering>
<clus scale="   84.377">  7  8 -1 -1</clus>
<clus scale="   91.760">  5  6 -1 -1</clus>
<clus scale="   29.465">  5  9 -1 -1</clus>
<clus scale="   96.631">  1  7  2 -1</clus>
<clus scale="  148.648">  2  5  1 -1</clus>
</clustering>
</event>
<event>
 9    1  0.3303741E-006  0.1772528E+03  0.7546771E-02  0.1197091E+00
         21   -1    0    0  501  502  0.00000000000E+00  0.00000000000E+00  0.18992761249E+03  0.18992761249E+03  0.00000000000E+00 0.  1.
          1   -1    0    0  502    0 -0.00000000000E+00 -0.00000000000E+00 -0.15669371106E+03  0.15669371106E+03  0.00000000000E+00 0. -1.
         23    2    1    2    0    0 -0.32027070431E+02 -0.13454660144E+02  0.11535907598E+03  0.15126750360E+03  0.91473384736E+02 0.  0.
         23    2    1    2    0    0  0.51222992256E+02 -0.84043284460E+01 -0.11293726663E+03  0.15297831034E+03  0.89180208391E+02 0.  0.
        -11    1    4    4    0    0 -0.21924919382E+02 -0.17223639694E+02 -0.43930195828E+02  0.52030932720E+02  0.00000000000E+00 0.  1.
         11    1    4    4    0    0  0.73147911638E+02  0.88193112485E+01 -0.69007070798E+02  0.10094737762E+03  0.00000000000E+00 0. -1.
        -13    1    3    3    0    0 -0.60275987861E+02 -0.70399873942E+01  0.10347261570E+03  0.11995556817E+03  0.00000000000E+00 0.  1.
         13    1    3    3    0    0  0.28248917430E+02 -0.64146727497E+01  0.11886460277E+02  0.31311935430E+02  0.00000000000E+00 0. -1.
          1    1    1    2  501    0 -0.19195921825E+02  0.21858988590E+02  0.30812092076E+02  0.42375509614E+02  0.00000000000E+00 0. -1.
<scales pt_clust_5="13000.00000" pt_clust_6="13000.00000" pt_clust_7="13000.00000" pt_clust_8="13000.00000" pt_clust_9="13000.00000"></scales>
<clustering>
<clus scale="   89.180">  5  6 -1 -1</clus>
<clus scale="   29.091">  5  9 -1 -1</clus>
<clus scale="   91.473">  7  8 -1 -1</clus>
<clus scale="   97.848">  2  7  1 -1</clus>
<clus scale="  177.253">  1  5  2 -1</clus>
</clustering>
</event>
<event>
 9    1  0.3303741E-006  0.3549528E+03  0.7546771E-02  0.1115026E+00
         21   -1    0    0  501  502  0.00000000000E+00  0.00000000000E+00  0.12216891992E+03  0.12216891992E+03  0.00000000000E+00 0. -1.
          2   -1    0    0  502    0 -0.00000000000E+00 -0.00000000000E+00 -0.39772964228E+03  0.39772964228E+03  0.00000000000E+00 0. -1.
         23    2    1    2    0    0 -0.36430960823E+02  0.12493838707E+02 -0.32597007497E+02  0.89755733389E+02  0.74230828275E+02 0.  0.
         23    2    1    2    0    0 -0.11301370561E+03  0.20857111707E+02 -0.23498478066E+03  0.27681423523E+03  0.90560239176E+02 0.  0.
        -13    1    3    3    0    0  0.18673527058E+02 -0.12971133725E+02 -0.62442250428E+01  0.23578406844E+02  0.00000000000E+00 0.  1.
         13    1    3    3    0    0 -0.55104487881E+02  0.25464972432E+02 -0.26352782454E+02  0.66177326545E+02  0.00000000000E+00 0. -1.
        -13    1    4    4    0    0 -0.15121761715E+02 -0.26369436590E+02 -0.94030768728E+02  0.98822063989E+02  0.00000000000E+00 0.  1.
         13    1    4    4    0    0 -0.97891943892E+02  0.47226548297E+02 -0.14095401193E+03  0.17799217124E+03  0.00000000000E+00 0. -1.
          2    1    1    2  501    0  0.14944466643E+03 -0.33350950414E+02 -0.79789342011E+01  0.15332859358E+03  0.00000000000E+00 0. -1.
<scales pt_clust_5="13000.00000" pt_clust_6="13000.00000" pt_clust_7="13000.00000" pt_clust_8="13000.00000" pt_clust_9="13000.00000"></scales>
<clustering>
<clus scale="   74.231">  5  6 -1 -1</clus>
<clus scale="   83.627">  2  5  1 -1</clus>
<clus scale="   90.560">  7  8 -1 -1</clus>
<clus scale="  143.951">  7  9 -1 -1</clus>
<clus scale="  354.953">  1  5  2 -1</clus>
</clustering>
</event>
<event>
 9    1  0.3303741E-006  0.6339267E+03  0.7546771E-02  0.1009904E+00
         21   -1    0    0  501  502  0.00000000000E+00  0.00000000000E+00  0.76187843661E+03  0.76187843661E+03  0.00000000000E+00 0. -1.
          2   -1    0    0  502    0 -0.00000000000E+00 -0.00000000000E+00 -0.44093214133E+03  0.44093214133E+03  0.00000000000E+00 0. -1.
         23    2    1    2    0    0  0.16375214585E+03  0.20338482290E+03 -0.23257670764E+03  0.36123419487E+03  0.90653555632E+02 0.  0.
         23    2    1    2    0    0  0.21680124489E+02  0.50197035149E+02 -0.77650322857E+02  0.13654542433E+03  0.98108664905E+02 0.  0.
        -11    1    3    3    0    0  0.15392446344E+03  0.13135414656E+03 -0.15481542049E+03  0.25478317583E+03  0.00000000000E+00 0.  1.
         11    1    3    3    0    0  0.98276824109E+01  0.72030676340E+02 -0.77761287145E+02  0.10645101904E+03  0.00000000000E+00 0. -1.
        -13    1    4    4    0    0  0.10155969334E+02 -0.24137446006E+02 -0.49925050753E+02  0.56376153695E+02  0.00000000000E+00 0.  1.
         13    1    4    4    0    0  0.11524155155E+02  0.74334481154E+02 -0.27725272105E+02  0.80169270633E+02  0.00000000000E+00 0. -1.
          2    1    1    2  501    0 -0.18543227034E+03 -0.25358185805E+03  0.63117332577E+03  0.70503095874E+03  0.00000000000E+00 0. -1.
<scales pt_clust_5="13000.00000" pt_clust_6="13000.00000" pt_clust_7="13000.00000" pt_clust_8="13000.00000" pt_clust_9="13000.00000"></scales>
<clustering>
<clus scale="   90.654">  5  6 -1 -1</clus>
<clus scale="   98.109">  7  8 -1 -1</clus>
<clus scale="  276.402">  2  5  1 -1</clus>
<clus scale="  247.290">  7  9 -1 -1</clus>
<clus scale="  633.927">  1  5  2 -1</clus>
</clustering>
</event>
<event>
 9    1  0.3303741E-006  0.2590692E+03  0.7546771E-02  0.1123507E+00
         21   -1    0    0  501  502  0.00000000000E+00  0.00000000000E+00  0.39187698564E+03  0.39187698564E+03  0.00000000000E+00 0. -1.
          3   -1    0    0  502    0 -0.00000000000E+00 -0.00000000000E+00 -0.12953763442E+03  0.12953763442E+03  0.00000000000E+00 0. -1.
         23    2    1    2    0    0  0.31919234835E+02  0.14610989969E+03  0.36476435849E+02  0.17771286390E+03  0.88794094872E+02 0.  0.
         23    2    1    2    0    0 -0.22744283099E+02 -0.35865672320E+02  0.10371235776E+02  0.10147328265E+03  0.91573007457E+02 0.  0.
        -11    1    3    3    0    0 -0.28916904869E+01  0.36176671121E+02 -0.27781298369E+02  0.45704638127E+02  0.00000000000E+00 0.  1.
         11    1    3    3    0    0  0.34810925322E+02  0.10993322857E+03  0.64257734218E+02  0.13200822578E+03  0.00000000000E+00 0. -1.
        -13    1    4    4    0    0  0.79556208262E+01 -0.22825801055E+02  0.46434895683E+02  0.52349867561E+02  0.00000000000E+00 0.  1.
         13    1    4    4    0    0 -0.30699903926E+02 -0.13039871266E+02 -0.36063659908E+02  0.49123415085E+02  0.00000000000E+00 0. -1.
          3    1    1    2  501    0 -0.91749517358E+01 -0.11024422737E+03  0.21549167959E+03  0.24222847352E+03  0.00000000000E+00 0. -1.
<scales pt_clust_5="13000.00000" pt_clust_6="13000.00000" pt_clust_7="13000.00000" pt_clust_8="13000.00000" pt_clust_9="13000.00000"></scales>
<clustering>
<clus scale="   88.794">  5  6 -1 -1</clus>
<clus scale="   91.573">  7  8 -1 -1</clus>
<clus scale="  110.625">  7  9 -1 -1</clus>
<clus scale="  173.929">  2  5  1 -1</clus>
<clus scale="  259.069">  1  5  2 -1</clus>
</clustering>
</event>
<event>
 9    1  0.3303741E-006  0.3089041E+03  0.7546771E-02  0.1125068E+00
         -1   -1    0    0    0  501 -0.00000000000E+00  0.00000000000E+00  0.11332338043E+04  0.11332338043E+04  0.00000000000E+00 0.  1.
         21   -1    0    0  501  502  0.00000000000E+00 -0.00000000000E+00 -0.44264563145E+02  0.44264563145E+02  0.00000000000E+00 0. -1.
         23    2    1    2    0    0 -0.22702003198E+02  0.33909723965E+02  0.96384239089E+02  0.13795678165E+03  0.89871584667E+02 0.  0.
         23    2    1    2    0    0  0.12404602329E+03 -0.10339179805E+03  0.61333682291E+03  0.64088440171E+03  0.92051497655E+02 0.  0.
        -13    1    3    3    0    0 -0.57310631874E+02  0.24939411257E+02  0.67514022456E+02  0.92003402045E+02  0.00000000000E+00 0. -1.
         13    1    3    3    0    0  0.34608628676E+02  0.89703127079E+01  0.28870216633E+02  0.45953379608E+02  0.00000000000E+00 0.  1.
        -13    1    4    4    0    0  0.36850229067E+01 -0.56379524475E+02  0.17449508979E+03  0.18341419393E+03  0.00000000000E+00 0.  1.
         13    1    4    4    0    0  0.12036100038E+03 -0.47012273578E+02  0.43884173312E+03  0.45747020778E+03  0.00000000000E+00 0. -1.
         -1    1    1    2    0  502 -0.10134402009E+03  0.69482074088E+02  0.37924817919E+03  0.39865718412E+03  0.00000000000E+00 0.  1.
<scales pt_clust_5="13000.00000" pt_clust_6="13000.00000" pt_clust_7="13000.00000" pt_clust_8="13000.00000" pt_clust_9="13000.00000"></scales>
<clustering>
<clus scale="   89.872">  5  6 -1 -1</clus>
<clus scale="   92.051">  7  8 -1 -1</clus>
<clus scale="   98.702">  1  5  2 -1</clus>
<clus scale="  137.505">  7  9 -1 -1</clus>
<clus scale="  308.904">  2  5  1 -1</clus>
</clustering>
</event>
<event>
 9    1  0.3303741E-006  0.3000863E+03  0.7546771E-02  0.1120985E+00
          4   -1    0    0  502    0 -0.00000000000E+00  0.00000000000E+00  0.63832943070E+02  0.63832943070E+02  0.00000000000E+00 0. -1.
         21   -1    0    0  501  502  0.00000000000E+00 -0.00000000000E+00 -0.68920161057E+03  0.68920161057E+03  0.00000000000E+00 0.  1.
         23    2    1    2    0    0 -0.67724344407E+02  0.26537169292E+01 -0.16647998003E+03  0.20473660750E+03  0.98019720780E+02 0.  0.
         23    2    1    2    0    0 -0.29926208697E+02  0.21520938290E+02 -0.23801814213E+02  0.10173257382E+03  0.91783775601E+02 0.  0.
        -11    1    3    3    0    0  0.32601754496E+01 -0.37481167125E+02 -0.51983935130E+02  0.64170056449E+02  0.00000000000E+00 0. -1.
         11    1    3    3    0    0 -0.70984519856E+02  0.40134884054E+02 -0.11449604490E+03  0.14056655105E+03  0.00000000000E+00 0.  1.
        -13    1    4    4    0    0 -0.31164647587E+01  0.54447233933E+02 -0.23204619732E+02  0.59267765374E+02  0.00000000000E+00 0. -1.
         13    1    4    4    0    0 -0.26809743938E+02 -0.32926295643E+02 -0.59719448090E+00  0.42464808442E+02  0.00000000000E+00 0.  1.
          4    1    1    2  501    0  0.97650553104E+02 -0.24174655219E+02 -0.43508687326E+03  0.44656537232E+03  0.00000000000E+00 0. -1.
<scales pt_clust_5="13000.00000" pt_clust_6="13000.00000" pt_clust_7="13000.00000" pt_clust_8="13000.00000" pt_clust_9="13000.00000"></scales>
<clustering>
<clus scale="   91.784">  7  8 -1 -1</clus>
<clus scale="   98.020">  5  6 -1 -1</clus>
<clus scale="  100.598">  7  9 -1 -1</clus>
<clus scale="  119.170">  1  5  2 -1</clus>
<clus scale="  300.086">  2  5  1 -1</clus>
</clustering>
</event>
<event>
 9    1  0.3303741E-006  0.6146592E+03  0.7546771E-02  0.9939401E-01
         21   -1    0    0  501  502  0.00000000000E+00  0.00000000000E+00  0.94102771379E+03  0.94102771379E+03  0.00000000000E+00 0.  1.
         -3   -1    0    0    0  501 -0.00000000000E+00 -0.00000000000E+00 -0.37575925580E+03  0.37575925580E+03  0.00000000000E+00 0.  1.
         23    2    1    2    0    0 -0.49178166096E+03  0.52536327105E+00  0.29487529567E+02  0.50139309901E+03  0.93145301924E+02 0.  0.
         23    2    1    2    0    0  0.34323194891E+03  0.53707575583E+01  0.12253577574E+03  0.37622039983E+03  0.93218866795E+02 0.  0.
        -11    1    3    3    0    0 -0.39496988753E+02 -0.21483638913E+02  0.17990135142E+02  0.48427304529E+02  0.00000000000E+00 0. -1.
         11    1    3    3    0    0 -0.45228467220E+03  0.22009002184E+02  0.11497394425E+02  0.45296579448E+03  0.00000000000E+00 0.  1.
        -13    1    4    4    0    0  0.97171734232E+02  0.34896533693E+02  0.90408840100E+01  0.10364290415E+03  0.00000000000E+00 0.  1.
         13    1    4    4    0    0  0.24606021467E+03 -0.29525776135E+02  0.11349489173E+03  0.27257749568E+03  0.00000000000E+00 0. -1.
         -3    1    1    2    0  502  0.14854971205E+03 -0.58961208293E+01  0.41324515268E+03  0.43917347075E+03  0.00000000000E+00 0.  1.
<scales pt_clust_5="13000.00000" pt_clust_6="13000.00000" pt_clust_7="13000.00000" pt_clust_8="13000.00000" pt_clust_9="13000.00000"></scales>
<clustering>
<clus scale="   93.145">  5  6 -1 -1</clus>
<clus scale="   93.219">  7  8 -1 -1</clus>
<clus scale="  148.667">  7  9 -1 -1</clus>
<clus scale="  500.525">  2  5  1 -1</clus>
<clus scale="  614.659">  1  5  2 -1</clus>
</clustering>
</event>
<event>
 9    1  0.3303741E-006  0.5346924E+03  0.7546771E-02  0.1058317E+00
         21   -1    0    0  501  502  0.00000000000E+00  0.00000000000E+00  0.20641696881E+03  0.20641696881E+03  0.00000000000E+00 0.  1.
          1   -1    0    0  502    0 -0.00000000000E+00 -0.00000000000E+00 -0.55294872958E+03  0.55294872958E+03  0.00000000000E+00 0. -1.
         23    2    1    2    0    0  0.85804181358E+01 -0.71772319207E+02 -0.15694073741E+03  0.19205563703E+03  0.83845591891E+02 0.  0.
         23    2    1    2    0    0  0.16679791845E+03 -0.15188720177E+03 -0.39856361963E+02  0.24605998573E+03  0.89809349876E+02 0.  0.
        -11    1    3    3    0    0  0.40941989910E+02 -0.43486552719E+02 -0.12490037356E+03  0.13844648829E+03  0.00000000000E+00 0.  1.
         11    1    3    3    0    0 -0.32361571774E+02 -0.28285766487E+02 -0.32040363847E+02  0.53609148742E+02  0.00000000000E+00 0. -1.
        -13    1    4    4    0    0  0.20440313348E+02 -0.20507378443E+02  0.25732255066E+02  0.38736390270E+02  0.00000000000E+00 0. -1.
         13    1    4    4    0    0  0.14635760510E+03 -0.13137982333E+03 -0.65588617029E+02  0.20732359546E+03  0.00000000000E+00 0.  1.
          1    1    1    2  501    0 -0.17537833659E+03  0.22365952098E+03 -0.14973466140E+03  0.32125007563E+03  0.00000000000E+00 0. -1.
<scales pt_clust_5="13000.00000" pt_clust_6="13000.00000" pt_clust_7="13000.00000" pt_clust_8="13000.00000" pt_clust_9="13000.00000"></scales>
<clustering>
<clus scale="   83.846">  5  6 -1 -1</clus>
<clus scale="   89.809">  7  8 -1 -1</clus>
<clus scale="  110.702">  2  5  1 -1</clus>
<clus scale="  246.889">  7  9 -1 -1</clus>
<clus scale="  534.692">  1  5  2 -1</clus>
</clustering>
</event>
<event>
 9    1  0.3303741E-006  0.1288091E+03  0.7546771E-02  0.1245294E+00
         -1   -1    0    0    0  501 -0.00000000000E+00  0.00000000000E+00  0.23487624241E+03  0.23487624241E+03  0.00000000000E+00 0.  1.
         21   -1    0    0  501  502  0.00000000000E+00 -0.00000000000E+00 -0.53451724045E+02  0.53451724045E+02  0.00000000000E+00 0. -1.
         23    2    1    2    0    0 -0.27850213906E+02 -0.95537967826E+01  0.97353315209E+02  0.13451067225E+03  0.88025811659E+02 0.  0.
         23    2    1    2    0    0  0.27362445740E+02  0.37994184371E+02  0.55112666433E+02  0.11322554119E+03  0.87122647422E+02 0.  0.
        -13    1    3    3    0    0  0.11866673779E+02  0.21643747598E+02  0.75587219880E+02  0.79515392006E+02  0.00000000000E+00 0.  1.
         13    1    3    3    0    0 -0.39716887685E+02 -0.31197544380E+02  0.21766095329E+02  0.54995280240E+02  0.00000000000E+00 0. -1.
        -13    1    4    4    0    0 -0.18651358161E+02  0.44749764223E+02  0.12309504035E+02  0.50019380733E+02  0.00000000000E+00 0. -1.
         13    1    4    4    0    0  0.46013803901E+02 -0.67555798527E+01  0.42803162398E+02  0.63206160458E+02  0.00000000000E+00 0.  1.
         -1    1    1    2    0  502  0.48776816673E+00 -0.28440387588E+02  0.28958536723E+02  0.40591753018E+02  0.00000000000E+00 0.  1.
<scales pt_clust_5="13000.00000" pt_clust_6="13000.00000" pt_clust_7="13000.00000" pt_clust_8="13000.00000" pt_clust_9="13000.00000"></scales>
<clustering>
<clus scale="   87.123">  7  8 -1 -1</clus>
<clus scale="   28.445">  7  9 -1 -1</clus>
<clus scale="   88.026">  5  6 -1 -1</clus>
<clus scale="   92.819">  1  5  2 -1</clus>
<clus scale="  128.809">  2  5  1 -1</clus>
</clustering>
</event>
<event>
 9    1  0.3303741E-006  0.1400203E+03  0.7546771E-02  0.1219333E+00
          3   -1    0    0  502    0 -0.00000000000E+00  0.00000000000E+00  0.47809594873E+02  0.47809594873E+02  0.00000000000E+00 0. -1.
         21   -1    0    0  501  502  0.00000000000E+00 -0.00000000000E+00 -0.40787173769E+03  0.40787173769E+03  0.00000000000E+00 0.  1.
         23    2    1    2    0    0 -0.27475247265E+02  0.42385321372E+02 -0.93979557583E+02  0.15500605832E+03  0.11244250172E+03 0.  0.
         23    2    1    2    0    0  0.50957259569E+02 -0.49414784083E+02 -0.20148411015E+03  0.23158271870E+03  0.89421729845E+02 0.  0.
        -11    1    4    4    0    0 -0.30732728660E+01 -0.53263330723E+02 -0.13900539709E+03  0.14889233635E+03  0.00000000000E+00 0.  1.
         11    1    4    4    0    0  0.54030532435E+02  0.38485466399E+01 -0.62478713069E+02  0.82690382350E+02  0.00000000000E+00 0. -1.
        -13    1    3    3    0    0 -0.36242681112E+02 -0.29648722933E+02 -0.56343823908E+02  0.73261212100E+02  0.00000000000E+00 0.  1.
         13    1    3    3    0    0  0.87674338471E+01  0.72034044305E+02 -0.37635733675E+02  0.81744846225E+02  0.00000000000E+00 0. -1.
          3    1    1    2  501    0 -0.23482012304E+02  0.70294627108E+01 -0.64598475080E+02  0.69092555536E+02  0.00000000000E+00 0. -1.
<scales pt_clust_5="13000.00000" pt_clust_6="13000.00000" pt_clust_7="13000.00000" pt_clust_8="13000.00000" pt_clust_9="13000.00000"></scales>
<clustering>
<clus scale="   89.422">  5  6 -1 -1</clus>
<clus scale="   24.512">  5  9 -1 -1</clus>
<clus scale="  112.443">  7  8 -1 -1</clus>
<clus scale="  123.267">  1  7  2 -1</clus>
<clus scale="  140.020">  2  5  1 -1</clus>
</clustering>
</event>
<event>
 9    1  0.3303741E-006  0.1337897E+03  0.7546771E-02  0.1238317E+00
          2   -1    0    0  502    0 -0.00000000000E+00  0.00000000000E+00  0.48383097610E+03  0.48383097610E+03  0.00000000000E+00 0. -1.
         21   -1    0    0  501  502  0.00000000000E+00 -0.00000000000E+00 -0.51109732239E+02  0.51109732239E+02  0.00000000000E+00 0. -1.
         23    2    1    2    0    0 -0.25800063345E+02  0.25550632959E+01  0.15326971430E+02  0.96628407680E+02  0.91814821791E+02 0.  0.
         23    2    1    2    0    0  0.12811685133E+02  0.31470965580E+02  0.31402190464E+03  0.32871159340E+03  0.91032928595E+02 0.  0.
        -11    1    3    3    0    0  0.34592395253E+02  0.32155598548E+01  0.21262433126E+01  0.34806530209E+02  0.00000000000E+00 0.  1.
         11    1    3    3    0    0 -0.60392458599E+02 -0.66049655888E+00  0.13200728117E+02  0.61821877472E+02  0.00000000000E+00 0. -1.
        -11    1    4    4    0    0  0.33631668562E+02  0.45294674272E+02  0.28446532089E+03  0.29000554381E+03  0.00000000000E+00 0. -1.
         11    1    4    4    0    0 -0.20819983429E+02 -0.13823708692E+02  0.29556583746E+02  0.38706049588E+02  0.00000000000E+00 0.  1.
          2    1    1    2  501    0  0.12988378212E+02 -0.34026028876E+02  0.10337236779E+03  0.10960070726E+03  0.00000000000E+00 0. -1.
<scales pt_clust_5="13000.00000" pt_clust_6="13000.00000" pt_clust_7="13000.00000" pt_clust_8="13000.00000" pt_clust_9="13000.00000"></scales>
<clustering>
<clus scale="   91.033">  7  8 -1 -1</clus>
<clus scale="   36.421">  7  9 -1 -1</clus>
<clus scale="   91.815">  5  6 -1 -1</clus>
<clus scale="   95.405">  1  5  2 -1</clus>
<clus scale="  133.790">  2  5  1 -1</clus>
</clustering>
</event>
<event>
 9    1  0.3303741E-006  0.3738495E+03  0.7546771E-02  0.1092586E+00
          2   -1    0    0  502    0 -0.00000000000E+00  0.00000000000E+00  0.43231969548E+03  0.43231969548E+03  0.00000000000E+00 0.  1.
         21   -1    0    0  501  502  0.00000000000E+00 -0.00000000000E+00 -0.43562923643E+03  0.43562923643E+03  0.00000000000E+00 0.  1.
         23    2    1    2    0    0  0.35727859128E+02  0.83108842027E+02  0.33827583624E+03  0.36154589650E+03  0.90007412763E+02 0.  0.
         23    2    1    2    0    0 -0.17396242730E+03 -0.10893276729E+03 -0.17861924266E+03  0.29115055121E+03  0.10360760452E+03 0.  0.
        -11    1    3    3    0    0  0.65007772825E+02  0.44585690654E+02  0.22318809995E+03  0.23669985699E+03  0.00000000000E+00 0.  1.
         11    1    3    3    0    0 -0.29279913698E+02  0.38523151373E+02  0.11508773629E+03  0.12484603952E+03  0.00000000000E+00 0. -1.
        -13    1    4    4    0    0 -0.82602092441E+02 -0.17793924377E+02 -0.20300843636E+02  0.86901402018E+02  0.00000000000E+00 0.  1.
         13    1    4    4    0    0 -0.91360334863E+02 -0.91138842911E+02 -0.15831839903E+03  0.20424914919E+03  0.00000000000E+00 0. -1.
          2    1    1    2  501    0  0.13823456818E+03  0.25823925261E+02 -0.16296613453E+03  0.21525248421E+03  0.00000000000E+00 0.  1.
<scales pt_clust_5="13000.00000" pt_clust_6="13000.00000" pt_clust_7="13000.00000" pt_clust_8="13000.00000" pt_clust_9="13000.00000"></scales>
<clustering>
<clus scale="   90.007">  5  6 -1 -1</clus>
<clus scale="  103.608">  7  8 -1 -1</clus>
<clus scale="  127.612">  1  5  2 -1</clus>
<clus scale="  158.413">  7  9 -1 -1</clus>
<clus scale="  373.850">  2  5  1 -1</clus>
</clustering>
</event>
<event>
 9    1  0.3303741E-006  0.1586041E+03  0.7546771E-02  0.1214475E+00
         21   -1    0    0  501  502  0.00000000000E+00  0.00000000000E+00  0.29207348539E+02  0.29207348539E+02  0.00000000000E+00 0.  1.
          1   -1    0    0  502    0 -0.00000000000E+00 -0.00000000000E+00 -0.70851127603E+03  0.70851127603E+03  0.00000000000E+00 0. -1.
         23    2    1    2    0    0  0.40664366048E+02 -0.17661583778E+02 -0.44477773723E+03  0.45459712958E+03  0.82860077670E+02 0.  0.
         23    2    1    2    0    0 -0.10949703888E+01 -0.23243500171E+01 -0.22382615975E+03  0.23751814780E+03  0.79436258603E+02 0.  0.
        -11    1    3    3    0    0 -0.17508304928E+02  0.17664968621E+02 -0.91307294266E+02  0.94634105079E+02  0.00000000000E+00 0. -1.
         11    1    3    3    0    0  0.58172670975E+02 -0.35326552399E+02 -0.35347044297E+03  0.35996302450E+03  0.00000000000E+00 0.  1.
        -11    1    4    4    0    0 -0.18122092069E+02 -0.35924193143E+02 -0.13896076466E+03  0.14466876646E+03  0.00000000000E+00 0. -1.
         11    1    4    4    0    0  0.17027121680E+02  0.33599843126E+02 -0.84865395091E+02  0.92849381338E+02  0.00000000000E+00 0.  1.
          1    1    1    2  501    0 -0.39569395659E+02  0.19985933795E+02 -0.10700030503E+02  0.45603347193E+02  0.00000000000E+00 0. -1.
<scales pt_clust_5="13000.00000" pt_clust_6="13000.00000" pt_clust_7="13000.00000" pt_clust_8="13000.00000" pt_clust_9="13000.00000"></scales>
<clustering>
<clus scale="   79.436">  7  8 -1 -1</clus>
<clus scale="   44.330">  7  9 -1 -1</clus>
<clus scale="   82.860">  5  6 -1 -1</clus>
<clus scale="   93.975">  2  5  1 -1</clus>
<clus scale="  158.604">  1  5  2 -1</clus>
</clustering>
</event>
<event>
 9    1  0.3303741E-006  0.2469738E+03  0.7546771E-02  0.1151742E+00
         21   -1    0    0  501  502  0.00000000000E+00  0.00000000000E+00  0.91529094295E+02  0.91529094295E+02  0.00000000000E+00 0. -1.
          2   -1    0    0  502    0 -0.00000000000E+00 -0.00000000000E+00 -0.55937906897E+03  0.55937906897E+03  0.00000000000E+00 0. -1.
         23    2    1    2    0    0  0.24129090856E+02 -0.37335053956E+02 -0.37273245463E+03  0.38625104361E+03  0.91017946998E+02 0.  0.
         23    2    1    2    0    0 -0.63936587344E+02 -0.42206186468E+02  0.20035746677E+02  0.11915206634E+03  0.89031086649E+02 0.  0.
        -13    1    4    4    0    0 -0.25694960552E+02  0.92195719130E+01  0.43120176295E+02  0.51035096823E+02  0.00000000000E+00 0.  1.
         13    1    4    4    0    0 -0.38241626792E+02 -0.51425758381E+02 -0.23084429619E+02  0.68116969513E+02  0.00000000000E+00 0. -1.
        -13    1    3    3    0    0 -0.21791066859E+02  0.10974886887E+02 -0.39574977171E+02  0.46491693400E+02  0.00000000000E+00 0.  1.
         13    1    3    3    0    0  0.45920157715E+02 -0.48309940843E+02 -0.33315747745E+03  0.33975935021E+03  0.00000000000E+00 0. -1.
          2    1    1    2  501    0  0.39807496488E+02  0.79541240424E+02 -0.11515326672E+03  0.14550505332E+03  0.00000000000E+00 0. -1.
<scales pt_clust_5="13000.00000" pt_clust_6="13000.00000" pt_clust_7="13000.00000" pt_clust_8="13000.00000" pt_clust_9="13000.00000"></scales>
<clustering>
<clus scale="   89.031">  5  6 -1 -1</clus>
<clus scale="   88.946">  5  9 -1 -1</clus>
<clus scale="   91.018">  7  8 -1 -1</clus>
<clus scale="  101.294">  2  7  1 -1</clus>
<clus scale="  246.974">  1  5  2 -1</clus>
</clustering>
</event>
<event>
 9    1  0.3303741E-006  0.2223619E+03  0.7546771E-02  0.1155303E+00
         21   -1    0    0  501  502  0.00000000000E+00  0.00000000000E+00  0.79438149741E+02  0.79438149741E+02  0.00000000000E+00 0. -1.
          1   -1    0    0  502    0 -0.00000000000E+00 -0.00000000000E+00 -0.46640035907E+03  0.46640035907E+03  0.00000000000E+00 0. -1.
         23    2    1    2    0    0  0.84155175789E+02 -0.24719383469E+02 -0.26036801924E+03  0.28996565103E+03  0.92711551627E+02 0.  0.
         23    2    1    2    0    0 -0.26955595637E+00 -0.37242750719E+01 -0.14239527294E+03  0.16589778821E+03  0.85039517242E+02 0.  0.
        -11    1    4    4    0    0  0.13986444471E+02 -0.41885348332E+02 -0.68021328382E+02  0.81098114335E+02  0.00000000000E+00 0. -1.
         11    1    4    4    0    0 -0.14256000427E+02  0.38161073260E+02 -0.74373944556E+02  0.84799673875E+02  0.00000000000E+00 0.  1.
        -13    1    3    3    0    0  0.17337364933E+02  0.27137982828E+02 -0.13462597424E+03  0.13842401263E+03  0.00000000000E+00 0.  1.
         13    1    3    3    0    0  0.66817810856E+02 -0.51857366297E+02 -0.12574204500E+03  0.15154163840E+03  0.00000000000E+00 0. -1.
          1    1    1    2  501    0 -0.83885619833E+02  0.28443658540E+02  0.15801082842E+02  0.89975069574E+02  0.00000000000E+00 0. -1.
<scales pt_clust_5="13000.00000" pt_clust_6="13000.00000" pt_clust_7="13000.00000" pt_clust_8="13000.00000" pt_clust_9="13000.00000"></scales>
<clustering>
<clus scale="   85.040">  5  6 -1 -1</clus>
<clus scale="   88.577">  5  9 -1 -1</clus>
<clus scale="   92.712">  7  8 -1 -1</clus>
<clus scale="  127.627">  2  7  1 -1</clus>
<clus scale="  222.362">  1  5  2 -1</clus>
</clustering>
</event>
<event>
 9    1  0.3303741E-006  0.3070028E+03  0.7546771E-02  0.1098947E+00
         21   -1    0    0  501  502  0.00000000000E+00  0.00000000000E+00  0.48935012691E+02  0.48935012691E+02  0.00000000000E+00 0.  1.
          1   -1    0    0  502    0 -0.00000000000E+00 -0.00000000000E+00 -0.13185091100E+04  0.13185091100E+04  0.00000000000E+00 0. -1.
         23    2    1    2    0    0  0.14650093138E+03  0.85863942482E+02 -0.59792972145E+03  0.62896131316E+03  0.96110572499E+02 0.  0.
         23    2    1    2    0    0 -0.53180446005E+02  0.66646206835E+02 -0.32650787659E+03  0.34978336040E+03  0.92038736455E+02 0.  0.
        -13    1    3    3    0    0  0.41007177615E+02  0.74900254066E+02 -0.32824093647E+03  0.33916625576E+03  0.00000000000E+00 0. -1.
         13    1    3    3    0    0  0.10549375376E+03  0.10963688416E+02 -0.26968878498E+03  0.28979505740E+03  0.00000000000E+00 0.  1.
        -13    1    4    4    0    0  0.16108400213E+02  0.31245040297E+02 -0.41709598557E+02  0.54547444599E+02  0.00000000000E+00 0.  1.
         13    1    4    4    0    0 -0.69288846217E+02  0.35401166538E+02 -0.28479827804E+03  0.29523591580E+03  0.00000000000E+00 0. -1.
          1    1    1    2  501    0 -0.93320485374E+02 -0.15251014932E+03 -0.34513649929E+03  0.38869944916E+03  0.00000000000E+00 0. -1.
<scales pt_clust_5="13000.00000" pt_clust_6="13000.00000" pt_clust_7="13000.00000" pt_clust_8="13000.00000" pt_clust_9="13000.00000"></scales>
<clustering>
<clus scale="   92.039">  7  8 -1 -1</clus>
<clus scale="   96.111">  5  6 -1 -1</clus>
<clus scale="  178.796">  7  9 -1 -1</clus>
<clus scale="  195.121">  2  5  1 -1</clus>
<clus scale="  307.003">  1  5  2 -1</clus>
</clustering>
</event>
<event>
 9    1  0.3303741E-006  0.7606819E+03  0.7546771E-02  0.1005880E+00
         -3   -1    0    0    0  501 -0.00000000000E+00  0.00000000000E+00  0.56123478547E+03  0.56123478547E+03  0.00000000000E+00 0.  1.
         21   -1    0    0  501  502  0.00000000000E+00 -0.00000000000E+00 -0.40598891842E+03  0.40598891842E+03  0.00000000000E+00 0.  1.
         23    2    1    2    0    0 -0.15129876290E+03 -0.40530173145E+02  0.93776930626E+02  0.20406228830E+03  0.91177267997E+02 0.  0.
         23    2    1    2    0    0  0.12615477890E+03 -0.13708529848E+03  0.35973011084E+03  0.41511083901E+03  0.90575099887E+02 0.  0.
        -11    1    3    3    0    0 -0.20438256298E+02  0.27064515456E+02  0.15969960880E+02  0.37486663867E+02  0.00000000000E+00 0. -1.
         11    1    3    3    0    0 -0.13086050660E+03 -0.67594688600E+02  0.77806969746E+02  0.16657562444E+03  0.00000000000E+00 0.  1.
        -13    1    4    4    0    0  0.46836087987E+02 -0.23053224568E+02  0.37676973734E+02  0.64378759313E+02  0.00000000000E+00 0. -1.
         13    1    4    4    0    0  0.79318690917E+02 -0.11403207391E+03  0.32205313710E+03  0.35073207970E+03  0.00000000000E+00 0.  1.
         -3    1    1    2    0  502  0.25143983998E+02  0.17761547163E+03 -0.29826117441E+03  0.34805057657E+03  0.00000000000E+00 0.  1.
<scales pt_clust_5="13000.00000" pt_clust_6="13000.00000" pt_clust_7="13000.00000" pt_clust_8="13000.00000" pt_clust_9="13000.00000"></scales>
<clustering>
<clus scale="   90.575">  7  8 -1 -1</clus>
<clus scale="   91.177">  5  6 -1 -1</clus>
<clus scale="  179.386">  7  9 -1 -1</clus>
<clus scale="  181.238">  1  5  2 -1</clus>
<clus scale="  760.682">  2  5  1 -1</clus>
</clustering>
</event>
<event>
 9    1  0.3303741E-006  0.3013493E+03  0.7546771E-02  0.1109066E+00
         -4   -1    0    0    0  501 -0.00000000000E+00  0.00000000000E+00  0.11889902058E+03  0.11889902058E+03  0.00000000000E+00 0.  1.
         21   -1    0    0  501  502  0.00000000000E+00 -0.00000000000E+00 -0.56636398462E+03  0.56636398462E+03  0.00000000000E+00 0. -1.
         23    2    1    2    0    0 -0.47418686506E+02  0.12214216222E+03 -0.32147539787E+03  0.35863665183E+03  0.90036531390E+02 0.  0.
         23    2    1    2    0    0  0.41643474439E+02 -0.17832138330E+03 -0.20995306228E+02  0.20740700688E+03  0.95100835510E+02 0.  0.
        -13    1    4    4    0    0  0.18817761984E+02 -0.11872766704E+03 -0.58179354716E+02  0.13354850954E+03  0.00000000000E+00 0. -1.
         13    1    4    4    0    0  0.22825712455E+02 -0.59593716261E+02  0.37184048487E+02  0.73858497337E+02  0.00000000000E+00 0.  1.
        -13    1    3    3    0    0  0.12609610025E+02  0.59217887411E+02 -0.70013659699E+02  0.92561725345E+02  0.00000000000E+00 0. -1.
         13    1    3    3    0    0 -0.60028296531E+02  0.62924274806E+02 -0.25146173817E+03  0.26607492649E+03  0.00000000000E+00 0.  1.
         -4    1    1    2    0  502  0.57752120663E+01  0.56179221082E+02 -0.10499425994E+03  0.11921934648E+03  0.00000000000E+00 0.  1.
<scales pt_clust_5="13000.00000" pt_clust_6="13000.00000" pt_clust_7="13000.00000" pt_clust_8="13000.00000" pt_clust_9="13000.00000"></scales>
<clustering>
<clus scale="   90.037">  7  8 -1 -1</clus>
<clus scale="   95.101">  5  6 -1 -1</clus>
<clus scale="   56.475">  5  9 -1 -1</clus>
<clus scale="  158.977">  1  7  2 -1</clus>
<clus scale="  301.349">  2  5  1 -1</clus>
</clustering>
</event>
<event>
 9    1  0.3303741E-006  0.2407425E+03  0.7546771E-02  0.1122616E+00
          1   -1    0    0  502    0 -0.00000000000E+00  0.00000000000E+00  0.98983705020E+03  0.98983705020E+03  0.00000000000E+00 0. -1.
         21   -1    0    0  501  502  0.00000000000E+00 -0.00000000000E+00 -0.75898128963E+02  0.75898128963E+02  0.00000000000E+00 0. -1.
         23    2    1    2    0    0 -0.12126717036E+03 -0.16220338202E+03  0.15741467674E+03  0.27182971932E+03  0.89979731630E+02 0.  0.
         23    2    1    2    0    0  0.98298001634E+02  0.81607361229E+02  0.47659161360E+03  0.50169735059E+03  0.90765670269E+02 0.  0.
        -11    1    4    4    0    0  0.10344575864E+03  0.42543441401E+02  0.28639423745E+03  0.30746158887E+03  0.00000000000E+00 0.  1.
         11    1    4    4    0    0 -0.51477570058E+01  0.39063919828E+02  0.19019737615E+03  0.19423576172E+03  0.00000000000E+00 0. -1.
        -13    1    3    3    0    0 -0.58101997451E+02 -0.13750701191E+03  0.81670468966E+02  0.17015900191E+03  0.00000000000E+00 0. -1.
         13    1    3    3    0    0 -0.63165172907E+02 -0.24696370112E+02  0.75744207778E+02  0.10167071740E+03  0.00000000000E+00 0.  1.
          1    1    1    2  501    0  0.22969168724E+02  0.80596020789E+02  0.27993263089E+03  0.29220810926E+03  0.00000000000E+00 0. -1.
<scales pt_clust_5="13000.00000" pt_clust_6="13000.00000" pt_clust_7="13000.00000" pt_clust_8="13000.00000" pt_clust_9="13000.00000"></scales>
<clustering>
<clus scale="   89.980">  7  8 -1 -1</clus>
<clus scale="   90.766">  5  6 -1 -1</clus>
<clus scale="   83.805">  5  9 -1 -1</clus>
<clus scale="  221.612">  1  7  2 -1</clus>
<clus scale="  240.742">  2  5  1 -1</clus>
</clustering>
</event>
<event>
 9    1  0.3303741E-006  0.2625263E+03  0.7546771E-02  0.1132802E+00
          1   -1    0    0  502    0 -0.00000000000E+00  0.00000000000E+00  0.57120349126E+03  0.57120349126E+03  0.00000000000E+00 0. -1.
         21   -1    0    0  501  502  0.00000000000E+00 -0.00000000000E+00 -0.16921033870E+03  0.16921033870E+03  0.00000000000E+00 0. -1.
         23    2    1    2    0    0 -0.83362951982E+02  0.47777108629E+02  0.45376085033E+03  0.47283214057E+03  0.91865608314E+02 0.  0.
         23    2    1    2    0    0 -0.44270695329E+02  0.10009250734E+02 -0.70976005355E+02  0.12616538788E+03  0.93915026477E+02 0.  0.
        -11    1    3    3    0    0 -0.14136816180E+02  0.54029591122E+02  0.12663534191E+03  0.13840359861E+03  0.00000000000E+00 0.  1.
         11    1    3    3    0    0 -0.69226135803E+02 -0.62524824926E+01  0.32712550842E+03  0.33442854196E+03  0.00000000000E+00 0. -1.
        -13    1    4    4    0    0 -0.67126490535E+02 -0.23852760440E+01 -0.74060240823E+02  0.99982871254E+02  0.00000000000E+00 0. -1.
         13    1    4    4    0    0  0.22855795207E+02  0.12394526778E+02  0.30842354682E+01  0.26182516628E+02  0.00000000000E+00 0.  1.
          1    1    1    2  501    0  0.12763364731E+03 -0.57786359363E+02  0.19208307585E+02  0.14141630152E+03  0.00000000000E+00 0. -1.
<scales pt_clust_5="13000.00000" pt_clust_6="13000.00000" pt_clust_7="13000.00000" pt_clust_8="13000.00000" pt_clust_9="13000.00000"></scales>
<clustering>
<clus scale="   91.866">  5  6 -1 -1</clus>
<clus scale="   93.915">  7  8 -1 -1</clus>
<clus scale="  132.934">  1  5  2 -1</clus>
<clus scale="   69.253">  7  9 -1 -1</clus>
<clus scale="  262.526">  2  5  1 -1</clus>
</clustering>
</event>
<event>
 9    1  0.3303741E-006  0.1697571E+03  0.7546771E-02  0.1201515E+00
         21   -1    0    0  501  502  0.00000000000E+00  0.00000000000E+00  0.11498736136E+03  0.11498736136E+03  0.00000000000E+00 0.  1.
         -1   -1    0    0    0  501 -0.00000000000E+00 -0.00000000000E+00 -0.51387204743E+03  0.51387204743E+03  0.00000000000E+00 0.  1.
         23    2    1    2    0    0 -0.16341756471E+02  0.52478966087E+02 -0.44222996738E+03  0.45365587308E+03  0.84942405435E+02 0.  0.
         23    2    1    2    0    0  0.16233976704E+02  0.92062718740E+01 -0.97921967340E+01  0.93786880343E+02  0.91388152220E+02 0.  0.
        -11    1    3    3    0    0 -0.32001505941E+02  0.70074437454E+02 -0.35798014076E+03  0.36617523721E+03  0.00000000000E+00 0.  1.
         11    1    3    3    0    0  0.15659749469E+02 -0.17595471367E+02 -0.84249826629E+02  0.87480635874E+02  0.00000000000E+00 0. -1.
        -11    1    4    4    0    0  0.53904622041E+02  0.62375505131E+00  0.85262285097E-01  0.53908298224E+02  0.00000000000E+00 0. -1.
         11    1    4    4    0    0 -0.37670645337E+02  0.85825168227E+01 -0.98774590191E+01  0.39878582119E+02  0.00000000000E+00 0.  1.
         -1    1    1    2    0  502  0.10777976751E+00 -0.61685237961E+02  0.53137478040E+02  0.81416655368E+02  0.00000000000E+00 0.  1.
<scales pt_clust_5="13000.00000" pt_clust_6="13000.00000" pt_clust_7="13000.00000" pt_clust_8="13000.00000" pt_clust_9="13000.00000"></scales>
<clustering>
<clus scale="   84.942">  5  6 -1 -1</clus>
<clus scale="   91.388">  7  8 -1 -1</clus>
<clus scale="   61.685">  7  9 -1 -1</clus>
<clus scale="  101.175">  2  5  1 -1</clus>
<clus scale="  169.757">  1  5  2 -1</clus>
</clustering>
</event>
<event>
 9    1  0.3303741E-006  0.2225947E+03  0.7546771E-02  0.1163723E+00
          1   -1    0    0  502    0 -0.00000000000E+00  0.00000000000E+00  0.41007909860E+03  0.41007909860E+03  0.00000000000E+00 0. -1.
         21   -1    0    0  501  502  0.00000000000E+00 -0.00000000000E+00 -0.80362336879E+02  0.80362336879E+02  0.00000000000E+00 0. -1.
         23    2    1    2    0    0  0.41135647637E+02 -0.49254508984E+02  0.16005910991E+02  0.10578198972E+03  0.82555993121E+02 0.  0.
         23    2    1    2    0    0 -0.80125040767E+02  0.75041019089E+02  0.30420729776E+03  0.33695793216E+03  0.94590651411E+02 0.  0.
        -13    1    4    4    0    0 -0.22975189048E+02  0.30063401677E+02  0.18458763191E+02  0.42099802502E+02  0.00000000000E+00 0.  1.
         13    1    4    4    0    0 -0.57149851720E+02  0.44977617412E+02  0.28574853457E+03  0.29485812966E+03  0.00000000000E+00 0. -1.
        -13    1    3    3    0    0 -0.92101067382E+01 -0.50662508310E+02 -0.38664939501E+01  0.51637830995E+02  0.00000000000E+00 0. -1.
         13    1    3    3    0    0  0.50345754375E+02  0.14079993262E+01  0.19872404941E+02  0.54144158723E+02  0.00000000000E+00 0.  1.
          1    1    1    2  501    0  0.38989393131E+02 -0.25786510106E+02  0.95035529671E+01  0.47701513594E+02  0.00000000000E+00 0. -1.
<scales pt_clust_5="13000.00000" pt_clust_6="13000.00000" pt_clust_7="13000.00000" pt_clust_8="13000.00000" pt_clust_9="13000.00000"></scales>
<clustering>
<clus scale="   82.556">  7  8 -1 -1</clus>
<clus scale="   94.591">  5  6 -1 -1</clus>
<clus scale="   46.745">  5  9 -1 -1</clus>
<clus scale="  104.564">  1  7  2 -1</clus>
<clus scale="  222.595">  2  5  1 -1</clus>
</clustering>
</event>
<event>
 9    1  0.3303741E-006  0.2166651E+03  0.7546771E-02  0.1140525E+00
          2   -1    0    0  502    0 -0.00000000000E+00  0.00000000000E+00  0.81038714629E+03  0.81038714629E+03  0.00000000000E+00 0. -1.
         21   -1    0    0  501  502  0.00000000000E+00 -0.00000000000E+00 -0.54358582526E+02  0.54358582526E+02  0.00000000000E+00 0. -1.
         23    2    1    2    0    0  0.76270324518E+02  0.15576608047E+03  0.43852823491E+03  0.48036282374E+03  0.91439572334E+02 0.  0.
         23    2    1    2    0    0 -0.44469449825E+02 -0.70827978437E+02  0.21082812833E+03  0.24436599476E+03  0.90951114369E+02 0.  0.
        -11    1    4    4    0    0  0.26759569526E+02 -0.19877293159E+02  0.82727078073E+02  0.89190530838E+02  0.00000000000E+00 0. -1.
         11    1    4    4    0    0 -0.71229019351E+02 -0.50950685278E+02  0.12810105025E+03  0.15517546392E+03  0.00000000000E+00 0.  1.
        -13    1    3    3    0    0 -0.13805321022E+02  0.68222236117E+02  0.13548185928E+03  0.15231610086E+03  0.00000000000E+00 0.  1.
         13    1    3    3    0    0  0.90075645540E+02  0.87543844356E+02  0.30304637564E+03  0.32804672288E+03  0.00000000000E+00 0. -1.
          2    1    1    2  501    0 -0.31800874694E+02 -0.84938102036E+02  0.10667220052E+03  0.14001691031E+03  0.00000000000E+00 0. -1.
<scales pt_clust_5="13000.00000" pt_clust_6="13000.00000" pt_clust_7="13000.00000" pt_clust_8="13000.00000" pt_clust_9="13000.00000"></scales>
<clustering>
<clus scale="   90.951">  5  6 -1 -1</clus>
<clus scale="   90.696">  5  9 -1 -1</clus>
<clus scale="   91.440">  7  8 -1 -1</clus>
<clus scale="  196.065">  1  7  2 -1</clus>
<clus scale="  216.665">  2  5  1 -1</clus>
</clustering>
</event>
<event>
 9    1  0.3303741E-006  0.1379950E+03  0.7546771E-02  0.1224172E+00
          1   -1    0    0  502    0 -0.00000000000E+00  0.00000000000E+00  0.66462792841E+03  0.66462792841E+03  0.00000000000E+00 0. -1.
         21   -1    0    0  501  502  0.00000000000E+00 -0.00000000000E+00 -0.24640305961E+02  0.24640305961E+02  0.00000000000E+00 0. -1.
         23    2    1    2    0    0  0.74328187025E+02  0.14095871214E+02  0.33119428016E+03  0.35104355272E+03  0.88422574736E+02 0.  0.
         23    2    1    2    0    0 -0.38686946419E+02  0.41942296314E+00  0.26261862556E+03  0.27811564521E+03  0.82963328525E+02 0.  0.
        -11    1    3    3    0    0  0.42713523577E+02 -0.34882454887E+02  0.20033433853E+03  0.20778613512E+03  0.00000000000E+00 0. -1.
         11    1    3    3    0    0  0.31614663448E+02  0.48978326102E+02  0.13085994164E+03  0.14325741760E+03  0.00000000000E+00 0.  1.
        -13    1    4    4    0    0  0.25970537151E+02 -0.51258452403E+01  0.84092681375E+02  0.88160774441E+02  0.00000000000E+00 0.  1.
         13    1    4    4    0    0 -0.64657483570E+02  0.55452682035E+01  0.17852594419E+03  0.18995487077E+03  0.00000000000E+00 0. -1.
          1    1    1    2  501    0 -0.35641240606E+02 -0.14515294177E+02  0.46174716716E+02  0.60109036432E+02  0.00000000000E+00 0. -1.
<scales pt_clust_5="13000.00000" pt_clust_6="13000.00000" pt_clust_7="13000.00000" pt_clust_8="13000.00000" pt_clust_9="13000.00000"></scales>
<clustering>
<clus scale="   82.963">  7  8 -1 -1</clus>
<clus scale="   38.484">  7  9 -1 -1</clus>
<clus scale="   88.423">  5  6 -1 -1</clus>
<clus scale="  116.370">  1  5  2 -1</clus>
<clus scale="  137.995">  2  5  1 -1</clus>
</clustering>
</event>
<event>
 9    1  0.3303741E-006  0.2702472E+03  0.7546771E-02  0.1115750E+00
          1   -1    0    0  502    0 -0.00000000000E+00  0.00000000000E+00  0.78809831699E+03  0.78809831699E+03  0.00000000000E+00 0. -1.
         21   -1    0    0  501  502  0.00000000000E+00 -0.00000000000E+00 -0.66283535270E+02  0.66283535270E+02  0.00000000000E+00 0. -1.
         23    2    1    2    0    0 -0.16009808254E+03 -0.20883591129E+02  0.31948562462E+03  0.36971466452E+03  0.92468094001E+02 0.  0.
         23    2    1    2    0    0  0.14097119031E+03  0.85092395450E+02  0.35862727636E+03  0.40467679495E+03  0.89644814456E+02 0.  0.
        -13    1    4    4    0    0  0.38968880707E+02 -0.77204828577E-01  0.26978363142E+02  0.47396325828E+02  0.00000000000E+00 0.  1.
         13    1    4    4    0    0  0.10200230960E+03  0.85169600279E+02  0.33164891322E+03  0.35728046912E+03  0.00000000000E+00 0. -1.
        -13    1    3    3    0    0 -0.15188156667E+03 -0.42023707494E+02  0.24045320033E+03  0.28749216308E+03  0.00000000000E+00 0. -1.
         13    1    3    3    0    0 -0.82165158767E+01  0.21140116365E+02  0.79032424295E+02  0.82222501440E+02  0.00000000000E+00 0.  1.
          1    1    1    2  501    0  0.19126892235E+02 -0.64208804321E+02  0.43701880733E+02  0.79990392789E+02  0.00000000000E+00 0. -1.
<scales pt_clust_5="13000.00000" pt_clust_6="13000.00000" pt_clust_7="13000.00000" pt_clust_8="13000.00000" pt_clust_9="13000.00000"></scales>
<clustering>
<clus scale="   89.645">  5  6 -1 -1</clus>
<clus scale="   66.997">  5  9 -1 -1</clus>
<clus scale="   92.468">  7  8 -1 -1</clus>
<clus scale="  186.059">  1  7  2 -1</clus>
<clus scale="  270.247">  2  5  1 -1</clus>
</clustering>
</event>
<event>
 9    1  0.3303741E-006  0.1922066E+03  0.7546771E-02  0.1184435E+00
         21   -1    0    0  501  502  0.00000000000E+00  0.00000000000E+00  0.39237800969E+02  0.39237800969E+02  0.00000000000E+00 0.  1.
         -2   -1    0    0    0  501 -0.00000000000E+00 -0.00000000000E+00 -0.55759265668E+03  0.55759265668E+03  0.00000000000E+00 0.  1.
         23    2    1    2    0    0 -0.23646361058E+02  0.39602239749E+02 -0.21449992932E+03  0.23728741293E+03  0.90374824323E+02 0.  0.
         23    2    1    2    0    0 -0.45864545653E+02 -0.18053268601E+02 -0.24477899624E+03  0.26580890028E+03  0.91148984728E+02 0.  0.
        -11    1    3    3    0    0 -0.68462214164E+01 -0.27628747195E+02 -0.94733860947E+02  0.98917757906E+02  0.00000000000E+00 0. -1.
         11    1    3    3    0    0 -0.16800139642E+02  0.67230986944E+02 -0.11976606838E+03  0.13836965502E+03  0.00000000000E+00 0.  1.
        -11    1    4    4    0    0 -0.66953097465E+02 -0.96079197975E+01 -0.11002199662E+03  0.12915056764E+03  0.00000000000E+00 0.  1.
         11    1    4    4    0    0  0.21088551812E+02 -0.84453488036E+01 -0.13475699962E+03  0.13665833264E+03  0.00000000000E+00 0. -1.
         -2    1    1    2    0  502  0.69510906711E+02 -0.21548971148E+02 -0.59075930153E+02  0.93734144434E+02  0.00000000000E+00 0.  1.
<scales pt_clust_5="13000.00000" pt_clust_6="13000.00000" pt_clust_7="13000.00000" pt_clust_8="13000.00000" pt_clust_9="13000.00000"></scales>
<clustering>
<clus scale="   90.375">  5  6 -1 -1</clus>
<clus scale="   91.149">  7  8 -1 -1</clus>
<clus scale="   72.775">  7  9 -1 -1</clus>
<clus scale="  101.465">  2  5  1 -1</clus>
<clus scale="  192.207">  1  5  2 -1</clus>
</clustering>
</event>
<event>
 9    1  0.3303741E-006  0.1794154E+03  0.7546771E-02  0.1193597E+00
          2   -1    0    0  502    0 -0.00000000000E+00  0.00000000000E+00  0.43775438676E+03  0.43775438676E+03  0.00000000000E+00 0. -1.
         21   -1    0    0  501  502  0.00000000000E+00 -0.00000000000E+00 -0.48755392517E+02  0.48755392517E+02  0.00000000000E+00 0. -1.
         23    2    1    2    0    0  0.34259971590E+02  0.27326713000E+02  0.20830311972E+03  0.23187101267E+03  0.91942818834E+02 0.  0.
         23    2    1    2    0    0  0.38837394396E+02  0.18982268125E+01  0.80644427715E+02  0.12732963877E+03  0.90539310360E+02 0.  0.
        -11    1    4    4    0    0 -0.17650261529E+02 -0.29131927605E+02  0.29246762622E+02  0.44895145193E+02  0.00000000000E+00 0.  1.
         11    1    4    4    0    0  0.56487655925E+02  0.31030154418E+02  0.51397665093E+02  0.82434493581E+02  0.00000000000E+00 0. -1.
        -13    1    3    3    0    0 -0.13035850147E+02 -0.26485431184E+02  0.49098991892E+02  0.57289811126E+02  0.00000000000E+00 0.  1.
         13    1    3    3    0    0  0.47295821737E+02  0.53812144184E+02  0.15920412783E+03  0.17458120154E+03  0.00000000000E+00 0. -1.
          2    1    1    2  501    0 -0.73097365986E+02 -0.29224939813E+02  0.10005144681E+03  0.12730912783E+03  0.00000000000E+00 0. -1.
<scales pt_clust_5="13000.00000" pt_clust_6="13000.00000" pt_clust_7="13000.00000" pt_clust_8="13000.00000" pt_clust_9="13000.00000"></scales>
<clustering>
<clus scale="   90.539">  5  6 -1 -1</clus>
<clus scale="   78.723">  5  9 -1 -1</clus>
<clus scale="   91.943">  7  8 -1 -1</clus>
<clus scale="  101.853">  1  7  2 -1</clus>
<clus scale="  179.415">  2  5  1 -1</clus>
</clustering>
</event>
<event>
 9    1  0.3303741E-006  0.1763203E+03  0.7546771E-02  0.1202231E+00
         21   -1    0    0  501  502  0.00000000000E+00  0.00000000000E+00  0.29093867148E+02  0.29093867148E+02  0.00000000000E+00 0. -1.
          1   -1    0    0  502    0 -0.00000000000E+00 -0.00000000000E+00 -0.61421907510E+03  0.61421907510E+03  0.00000000000E+00 0. -1.
         23    2    1    2    0    0  0.16372198090E+02  0.28186806717E+02 -0.15933992624E+03  0.18246378989E+03  0.82712015955E+02 0.  0.
         23    2    1    2    0    0  0.46531747880E+02 -0.40180305603E+02 -0.22685708201E+03  0.25186786355E+03  0.90518641802E+02 0.  0.
        -11    1    3    3    0    0  0.38062590220E+02 -0.14566395899E+02 -0.67026912419E+02  0.78444551450E+02  0.00000000000E+00 0.  1.
         11    1    3    3    0    0 -0.21690392130E+02  0.42753202617E+02 -0.92313013819E+02  0.10401923844E+03  0.00000000000E+00 0. -1.
        -13    1    4    4    0    0  0.63272188346E+02 -0.52532880047E+02 -0.20846278815E+03  0.22409776292E+03  0.00000000000E+00 0. -1.
         13    1    4    4    0    0 -0.16740440466E+02  0.12352574444E+02 -0.18394293859E+02  0.27770100629E+02  0.00000000000E+00 0.  1.
          1    1    1    2  501    0 -0.62903945970E+02  0.11993498886E+02 -0.19892819971E+03  0.20898128882E+03  0.00000000000E+00 0. -1.
<scales pt_clust_5="13000.00000" pt_clust_6="13000.00000" pt_clust_7="13000.00000" pt_clust_8="13000.00000" pt_clust_9="13000.00000"></scales>
<clustering>
<clus scale="   82.712">  5  6 -1 -1</clus>
<clus scale="   88.903">  2  5  1 -1</clus>
<clus scale="   90.519">  7  8 -1 -1</clus>
<clus scale="   60.738">  7  9 -1 -1</clus>
<clus scale="  176.320">  1  5  2 -1</clus>
</clustering>
</event>
<event>
 9    1  0.3303741E-006  0.2435579E+03  0.7546771E-02  0.1150751E+00
         21   -1    0    0  501  502  0.00000000000E+00  0.00000000000E+00  0.35505575299E+03  0.35505575299E+03  0.00000000000E+00 0.  1.
          2   -1    0    0  502    0 -0.00000000000E+00 -0.00000000000E+00 -0.11103751704E+03  0.11103751704E+03  0.00000000000E+00 0. -1.
         23    2    1    2    0    0 -0.31138565407E+01  0.66407664154E+02 -0.16595769266E+02  0.10938592220E+03  0.85265388394E+02 0.  0.
         23    2    1    2    0    0  0.97147113853E+02 -0.56954900023E+02  0.17416614423E+03  0.22862596393E+03  0.96200640450E+02 0.  0.
        -11    1    3    3    0    0  0.30586206419E+02 -0.19157013631E+01 -0.12487677086E+02  0.33092718441E+02  0.00000000000E+00 0.  1.
         11    1    3    3    0    0 -0.33700062960E+02  0.68323365517E+02 -0.41080921798E+01  0.76293203763E+02  0.00000000000E+00 0. -1.
        -13    1    4    4    0    0  0.89115616801E+02 -0.22885219573E+02  0.17009733276E+03  0.19338673441E+03  0.00000000000E+00 0.  1.
         13    1    4    4    0    0  0.80314970527E+01 -0.34069680450E+02  0.40688114668E+01  0.35239229526E+02  0.00000000000E+00 0. -1.
          2    1    1    2  501    0 -0.94033257313E+02 -0.94527641313E+01  0.86447860993E+02  0.12808138390E+03  0.00000000000E+00 0. -1.
<scales pt_clust_5="13000.00000" pt_clust_6="13000.00000" pt_clust_7="13000.00000" pt_clust_8="13000.00000" pt_clust_9="13000.00000"></scales>
<clustering>
<clus scale="   85.265">  5  6 -1 -1</clus>
<clus scale="   96.201">  7  8 -1 -1</clus>
<clus scale="   94.507">  7  9 -1 -1</clus>
<clus scale="  108.120">  2  5  1 -1</clus>
<clus scale="  243.558">  1  5  2 -1</clus>
</clustering>
</event>
<event>
 9    1  0.3303741E-006  0.3996039E+03  0.7546771E-02  0.1091228E+00
         21   -1    0    0  501  502  0.00000000000E+00  0.00000000000E+00  0.14318518568E+03  0.14318518568E+03  0.00000000000E+00 0.  1.
          2   -1    0    0  502    0 -0.00000000000E+00 -0.00000000000E+00 -0.67791181347E+03  0.67791181347E+03  0.00000000000E+00 0. -1.
         23    2    1    2    0    0  0.49105402197E+02 -0.26591201735E+02 -0.37572520499E+03  0.39102170889E+03  0.92790703355E+02 0.  0.
         23    2    1    2    0    0 -0.51451603103E+02  0.11680726979E+03  0.78148080781E+02  0.17633461428E+03  0.93250029094E+02 0.  0.
        -13    1    3    3    0    0  0.19407365453E+02  0.31329930883E+02 -0.78055421656E+02  0.86318359882E+02  0.00000000000E+00 0.  1.
         13    1    3    3    0    0  0.29698036744E+02 -0.57921132618E+02 -0.29766978333E+03  0.30470334901E+03  0.00000000000E+00 0. -1.
        -13    1    4    4    0    0  0.23776365879E+02  0.82801460377E+01  0.19502779866E+02  0.31847053479E+02  0.00000000000E+00 0. -1.
         13    1    4    4    0    0 -0.75227968981E+02  0.10852712375E+03  0.58645300915E+02  0.14448756080E+03  0.00000000000E+00 0.  1.
          2    1    1    2  501    0  0.23462009057E+01 -0.90216068052E+02 -0.23714950359E+03  0.25374067597E+03  0.00000000000E+00 0. -1.
<scales pt_clust_5="13000.00000" pt_clust_6="13000.00000" pt_clust_7="13000.00000" pt_clust_8="13000.00000" pt_clust_9="13000.00000"></scales>
<clustering>
<clus scale="   92.791">  5  6 -1 -1</clus>
<clus scale="   93.250">  7  8 -1 -1</clus>
<clus scale="   90.247">  7  9 -1 -1</clus>
<clus scale="  108.298">  2  5  1 -1</clus>
<clus scale="  399.604">  1  5  2 -1</clus>
</clustering>
</event>
<event>
 9    1  0.3303741E-006  0.1758895E+03  0.7546771E-02  0.1191572E+00
         -2   -1    0    0    0  501 -0.00000000000E+00  0.00000000000E+00  0.10220989242E+03  0.10220989242E+03  0.00000000000E+00 0.  1.
         21   -1    0    0  501  502  0.00000000000E+00 -0.00000000000E+00 -0.29536138622E+03  0.29536138622E+03  0.00000000000E+00 0.  1.
         23    2    1    2    0    0 -0.58393158133E+02 -0.32860595927E+02  0.26583500837E+02  0.11610978699E+03  0.91023186265E+02 0.  0.
         23    2    1    2    0    0  0.57994652793E+02 -0.17843879636E+02 -0.12139853155E+03  0.17082170395E+03  0.10373363622E+03 0.  0.
        -13    1    4    4    0    0  0.68597803274E+02 -0.44038542288E+02 -0.11642806691E+03  0.14212862690E+03  0.00000000000E+00 0.  1.
         13    1    4    4    0    0 -0.10603150481E+02  0.26194662652E+02 -0.49704646405E+01  0.28693077045E+02  0.00000000000E+00 0. -1.
        -13    1    3    3    0    0 -0.42106795126E+02  0.23082066587E+02  0.31828288518E+02  0.57609061298E+02  0.00000000000E+00 0. -1.
         13    1    3    3    0    0 -0.16286363008E+02 -0.55942662514E+02 -0.52447876810E+01  0.58500725697E+02  0.00000000000E+00 0.  1.
         -2    1    1    2    0  502  0.39850534033E+00  0.50704475563E+02 -0.98336463091E+02  0.11063978770E+03  0.00000000000E+00 0.  1.
<scales pt_clust_5="13000.00000" pt_clust_6="13000.00000" pt_clust_7="13000.00000" pt_clust_8="13000.00000" pt_clust_9="13000.00000"></scales>
<clustering>
<clus scale="   91.023">  7  8 -1 -1</clus>
<clus scale="  103.734">  5  6 -1 -1</clus>
<clus scale="   50.706">  5  9 -1 -1</clus>
<clus scale="  113.026">  1  7  2 -1</clus>
<clus scale="  175.889">  2  5  1 -1</clus>
</clustering>
</event>
<event>
 9    1  0.3303741E-006  0.1810260E+03  0.7546771E-02  0.1191892E+00
         21   -1    0    0  501  502  0.00000000000E+00  0.00000000000E+00  0.30899135394E+02  0.30899135394E+02  0.00000000000E+00 0.  1.
          2   -1    0    0  502    0 -0.00000000000E+00 -0.00000000000E+00 -0.81867097436E+03  0.81867097436E+03  0.00000000000E+00 0. -1.
         23    2    1    2    0    0  0.43629498015E+02  0.17056537852E+02 -0.49312482186E+03  0.50375616830E+03  0.91671852752E+02 0.  0.
         23    2    1    2    0    0 -0.44273459049E+01 -0.54591065371E+02 -0.10582539413E+03  0.14934701093E+03  0.90031826710E+02 0.  0.
        -11    1    4    4    0    0  0.23415242157E+02 -0.56306565733E+02 -0.28827277853E+02  0.67451574172E+02  0.00000000000E+00 0.  1.
         11    1    4    4    0    0 -0.27842588062E+02  0.17155003619E+01 -0.76998116278E+02  0.81895436758E+02  0.00000000000E+00 0. -1.
        -13    1    3    3    0    0  0.70061834221E+02 -0.42121352685E+00 -0.37293008899E+03  0.37945446276E+03  0.00000000000E+00 0. -1.
         13    1    3    3    0    0 -0.26432336206E+02  0.17477751379E+02 -0.12019473287E+03  0.12430170554E+03  0.00000000000E+00 0.  1.
          2    1    1    2  501    0 -0.39202152110E+02  0.37534527519E+02 -0.18882162298E+03  0.19646693052E+03  0.00000000000E+00 0. -1.
<scales pt_clust_5="13000.00000" pt_clust_6="13000.00000" pt_clust_7="13000.00000" pt_clust_8="13000.00000" pt_clust_9="13000.00000"></scales>
<clustering>
<clus scale="   90.032">  5  6 -1 -1</clus>
<clus scale="   54.274">  5  9 -1 -1</clus>
<clus scale="   91.672">  7  8 -1 -1</clus>
<clus scale="  102.947">  2  7  1 -1</clus>
<clus scale="  181.026">  1  5  2 -1</clus>
</clustering>
</event>
<event>
 9    1  0.3303741E-006  0.3300870E+03  0.7546771E-02  0.1109615E+00
         -4   -1    0    0    0  501 -0.00000000000E+00  0.00000000000E+00  0.21749945746E+03  0.21749945746E+03  0.00000000000E+00 0.  1.
         21   -1    0    0  501  502  0.00000000000E+00 -0.00000000000E+00 -0.27881936603E+03  0.27881936603E+03  0.00000000000E+00 0. -1.
         23    2    1    2    0    0  0.70382455652E+02  0.39659252963E+02 -0.11048600980E+03  0.16259032849E+03  0.87760527278E+02 0.  0.
         23    2    1    2    0    0  0.15711496350E+02  0.15351972881E+02 -0.11079990844E+03  0.14391930715E+03  0.89183031297E+02 0.  0.
        -11    1    3    3    0    0  0.26840596909E+02 -0.24773368106E+02 -0.58779915543E+02  0.69204160864E+02  0.00000000000E+00 0. -1.
         11    1    3    3    0    0  0.43541858744E+02  0.64432621069E+02 -0.51706094260E+02  0.93386167628E+02  0.00000000000E+00 0.  1.
        -13    1    4    4    0    0 -0.20086505525E+02  0.17245800281E+02  0.10198077084E+01  0.26493873619E+02  0.00000000000E+00 0.  1.
         13    1    4    4    0    0  0.35798001875E+02 -0.18938274002E+01 -0.11181971615E+03  0.11742543353E+03  0.00000000000E+00 0. -1.
         -4    1    1    2    0  502 -0.86093952002E+02 -0.55011225844E+02  0.15996600967E+03  0.18980918785E+03  0.00000000000E+00 0.  1.
<scales pt_clust_5="13000.00000" pt_clust_6="13000.00000" pt_clust_7="13000.00000" pt_clust_8="13000.00000" pt_clust_9="13000.00000"></scales>
<clustering>
<clus scale="   87.761">  5  6 -1 -1</clus>
<clus scale="   89.183">  7  8 -1 -1</clus>
<clus scale="  102.169">  7  9 -1 -1</clus>
<clus scale="  119.283">  1  5  2 -1</clus>
<clus scale="  330.087">  2  5  1 -1</clus>
</clustering>
</event>
<event>
 9    1  0.3303741E-006  0.2547387E+03  0.7546771E-02  0.1148797E+00
         21   -1    0    0  501  502  0.00000000000E+00  0.00000000000E+00  0.11821306377E+03  0.11821306377E+03  0.00000000000E+00 0. -1.
          1   -1    0    0  502    0 -0.00000000000E+00 -0.00000000000E+00 -0.27108902683E+03  0.27108902683E+03  0.00000000000E+00 0. -1.
         23    2    1    2    0    0 -0.28306763249E+02 -0.12402778584E+02 -0.70705809057E+02  0.12163859173E+03  0.94029430508E+02 0.  0.
         23    2    1    2    0    0 -0.75103274705E+02  0.23011286307E+02  0.20498397037E+02  0.12155734650E+03  0.90476422550E+02 0.  0.
        -11    1    3    3    0    0 -0.51470085792E+02 -0.15366241706E+02 -0.80120324361E+02  0.96460134207E+02  0.00000000000E+00 0. -1.
         11    1    3    3    0    0  0.23163322543E+02  0.29634631219E+01  0.94145153040E+01  0.25178457524E+02  0.00000000000E+00 0.  1.
        -11    1    4    4    0    0 -0.41551877796E+02 -0.31729969553E+02  0.23416390369E+02  0.57285921954E+02  0.00000000000E+00 0.  1.
         11    1    4    4    0    0 -0.33551396909E+02  0.54741255860E+02 -0.29179933321E+01  0.64271424543E+02  0.00000000000E+00 0. -1.
          1    1    1    2  501    0  0.10341003795E+03 -0.10608507723E+02 -0.10266855104E+03  0.14610615236E+03  0.00000000000E+00 0. -1.
<scales pt_clust_5="13000.00000" pt_clust_6="13000.00000" pt_clust_7="13000.00000" pt_clust_8="13000.00000" pt_clust_9="13000.00000"></scales>
<clustering>
<clus scale="   90.476">  7  8 -1 -1</clus>
<clus scale="   94.029">  5  6 -1 -1</clus>
<clus scale="   98.978">  2  5  1 -1</clus>
<clus scale="   85.517">  7  9 -1 -1</clus>
<clus scale="  254.739">  1  5  2 -1</clus>
</clustering>
</event>
<event>
 9    1  0.3303741E-006  0.3376257E+03  0.7546771E-02  0.1115601E+00
         21   -1    0    0  501  502  0.00000000000E+00  0.00000000000E+00  0.14471111011E+03  0.14471111011E+03  0.00000000000E+00 0. -1.
          1   -1    0    0  502    0 -0.00000000000E+00 -0.00000000000E+00 -0.32869878642E+03  0.32869878642E+03  0.00000000000E+00 0. -1.
         23    2    1    2    0    0  0.12315781690E+02 -0.27476599848E+02 -0.19057798505E+02  0.97653342331E+02  0.90919379489E+02 0.  0.
         23    2    1    2    0    0  0.82872138934E+02  0.72957052059E+02 -0.21504615141E+03  0.25896249336E+03  0.92877353951E+02 0.  0.
        -11    1    4    4    0    0 -0.15412192974E+02  0.17060017241E+02 -0.10563487174E+02  0.25301524496E+02  0.00000000000E+00 0.  1.
         11    1    4    4    0    0  0.98284331908E+02  0.55897034818E+02 -0.20448266423E+03  0.23366096887E+03  0.00000000000E+00 0. -1.
        -13    1    3    3    0    0  0.41150218870E+02  0.15188217059E+02 -0.13310940800E+02  0.45838887372E+02  0.00000000000E+00 0.  1.
         13    1    3    3    0    0 -0.28834437180E+02 -0.42664816907E+02 -0.57468577053E+01  0.51814454959E+02  0.00000000000E+00 0. -1.
          1    1    1    2  501    0 -0.95187920624E+02 -0.45480452212E+02  0.50116273598E+02  0.11679406083E+03  0.00000000000E+00 0. -1.
<scales pt_clust_5="13000.00000" pt_clust_6="13000.00000" pt_clust_7="13000.00000" pt_clust_8="13000.00000" pt_clust_9="13000.00000"></scales>
<clustering>
<clus scale="   90.919">  7  8 -1 -1</clus>
<clus scale="   92.877">  5  6 -1 -1</clus>
<clus scale="   95.776">  2  7  1 -1</clus>
<clus scale="  105.651">  5  9 -1 -1</clus>
<clus scale="  337.626">  1  5  2 -1</clus>
</clustering>
</event>
<event>
 9    1  0.3303741E-006  0.1333361E+04  0.7546771E-02  0.9745952E-01
          2   -1    0    0  502    0 -0.00000000000E+00  0.00000000000E+00  0.57300312964E+03  0.57300312964E+03  0.00000000000E+00 0. -1.
         21   -1    0    0  501  502  0.00000000000E+00 -0.00000000000E+00 -0.10064908605E+04  0.10064908605E+04  0.00000000000E+00 0. -1.
         23    2    1    2    0    0  0.97750571764E+01 -0.81540061648E+00  0.10665529204E+03  0.14088115781E+03  0.91520121744E+02 0.  0.
         23    2    1    2    0    0  0.34032989629E+03 -0.10418083811E+03  0.33070448489E+03  0.49416957283E+03  0.90332856981E+02 0.  0.
        -11    1    4    4    0    0  0.30654244691E+03 -0.10238921464E+03  0.25646942614E+03  0.41258743264E+03  0.00000000000E+00 0. -1.
         11    1    4    4    0    0  0.33787449383E+02 -0.17916234675E+01  0.74235058748E+02  0.81582140189E+02  0.00000000000E+00 0.  1.
        -13    1    3    3    0    0  0.17145613544E+02  0.35657692683E+02  0.93306898799E+02  0.10134900332E+03  0.00000000000E+00 0. -1.
         13    1    3    3    0    0 -0.73705563673E+01 -0.36473093299E+02  0.13348393241E+02  0.39532154483E+02  0.00000000000E+00 0.  1.
          2    1    1    2  501    0 -0.35010495347E+03  0.10499623872E+03 -0.87084750781E+03  0.94444325951E+03  0.00000000000E+00 0. -1.
<scales pt_clust_5="13000.00000" pt_clust_6="13000.00000" pt_clust_7="13000.00000" pt_clust_8="13000.00000" pt_clust_9="13000.00000"></scales>
<clustering>
<clus scale="   90.333">  5  6 -1 -1</clus>
<clus scale="   91.520">  7  8 -1 -1</clus>
<clus scale="   92.044">  1  7  2 -1</clus>
<clus scale="  364.724">  5  9 -1 -1</clus>
<clus scale=" 1333.361">  2  5  1 -1</clus>
</clustering>
</event>
<event>
 9    1  0.3303741E-006  0.4854552E+03  0.7546771E-02  0.1061561E+00
         21   -1    0    0  501  502  0.00000000000E+00  0.00000000000E+00  0.14495967493E+04  0.14495967493E+04  0.00000000000E+00 0.  1.
         -3   -1    0    0    0  501 -0.00000000000E+00 -0.00000000000E+00 -0.11632126773E+03  0.11632126773E+03  0.00000000000E+00 0.  1.
         23    2    1    2    0    0 -0.88047311745E+02  0.41892854297E+02 -0.12120096362E+02  0.13561875807E+03  0.93478395680E+02 0.  0.
         23    2    1    2    0    0 -0.96014047231E+02 -0.19877605613E+03  0.76343049476E+03  0.80008161329E+03  0.92595085371E+02 0.  0.
        -11    1    4    4    0    0 -0.91278114771E+02 -0.16237119628E+03  0.71748979440E+03  0.74127437881E+03  0.00000000000E+00 0.  1.
         11    1    4    4    0    0 -0.47359324604E+01 -0.36404859850E+02  0.45940700365E+02  0.58807234478E+02  0.00000000000E+00 0. -1.
        -13    1    3    3    0    0 -0.12966051073E+02 -0.25186781677E+02  0.14006865903E+02  0.31601973737E+02  0.00000000000E+00 0. -1.
         13    1    3    3    0    0 -0.75081260673E+02  0.67079635974E+02 -0.26126962265E+02  0.10401678434E+03  0.00000000000E+00 0.  1.
         -3    1    1    2    0  502  0.18406135898E+03  0.15688320183E+03  0.58196508319E+03  0.63021764569E+03  0.00000000000E+00 0.  1.
<scales pt_clust_5="13000.00000" pt_clust_6="13000.00000" pt_clust_7="13000.00000" pt_clust_8="13000.00000" pt_clust_9="13000.00000"></scales>
<clustering>
<clus scale="   92.595">  5  6 -1 -1</clus>
<clus scale="   93.478">  7  8 -1 -1</clus>
<clus scale="  135.076">  2  7  1 -1</clus>
<clus scale="  224.970">  5  9 -1 -1</clus>
<clus scale="  485.455">  1  5  2 -1</clus>
</clustering>
</event>
<event>
 9    1  0.3303741E-006  0.4083022E+03  0.7546771E-02  0.1091466E+00
         21   -1    0    0  501  502  0.00000000000E+00  0.00000000000E+00  0.64991857713E+03  0.64991857713E+03  0.00000000000E+00 0.  1.
          2   -1    0    0  502    0 -0.00000000000E+00 -0.00000000000E+00 -0.99821899525E+02  0.99821899525E+02  0.00000000000E+00 0. -1.
         23    2    1    2    0    0 -0.18279714862E+02 -0.11697519790E+02  0.10027951576E+03  0.14224877805E+03  0.98527933254E+02 0.  0.
         23    2    1    2    0    0  0.39441546671E+02 -0.15370089260E+03  0.75570656961E+02  0.19777850091E+03  0.90696258127E+02 0.  0.
        -13    1    4    4    0    0 -0.25521076520E+02 -0.45591814738E+02  0.31592784546E+01  0.52344244748E+02  0.00000000000E+00 0.  1.
         13    1    4    4    0    0  0.64962623190E+02 -0.10810907786E+03  0.72411378506E+02  0.14543425616E+03  0.00000000000E+00 0. -1.
        -13    1    3    3    0    0  0.39708232000E+02 -0.14553183898E+02  0.49606990606E+02  0.65187363554E+02  0.00000000000E+00 0.  1.
         13    1    3    3    0    0 -0.57987946863E+02  0.28556641071E+01  0.50672525153E+02  0.77061414497E+02  0.00000000000E+00 0. -1.
          2    1    1    2  501    0 -0.21161831808E+02  0.16539841239E+03  0.37424650489E+03  0.40971319770E+03  0.00000000000E+00 0. -1.
<scales pt_clust_5="13000.00000" pt_clust_6="13000.00000" pt_clust_7="13000.00000" pt_clust_8="13000.00000" pt_clust_9="13000.00000"></scales>
<clustering>
<clus scale="   90.696">  5  6 -1 -1</clus>
<clus scale="   98.528">  7  8 -1 -1</clus>
<clus scale="  100.890">  2  7  1 -1</clus>
<clus scale="  164.718">  5  9 -1 -1</clus>
<clus scale="  408.302">  1  5  2 -1</clus>
</clustering>
</event>
<event>
 9    1  0.3303741E-006  0.1459319E+03  0.7546771E-02  0.1220761E+00
         21   -1    0    0  501  502  0.00000000000E+00  0.00000000000E+00  0.47133175300E+03  0.47133175300E+03  0.00000000000E+00 0. -1.
         -1   -1    0    0    0  501 -0.00000000000E+00 -0.00000000000E+00 -0.45089193904E+02  0.45089193904E+02  0.00000000000E+00 0.  1.
         23    2    1    2    0    0 -0.37963980066E+02 -0.45901897140E+02  0.58502121686E+02  0.12078329506E+03  0.87280342456E+02 0.  0.
         23    2    1    2    0    0  0.52269554853E+02  0.13979805054E+02  0.23142356050E+03  0.25490400142E+03  0.92150118125E+02 0.  0.
        -11    1    4    4    0    0  0.76215867669E+02  0.21027468380E+02  0.19789074158E+03  0.21310034846E+03  0.00000000000E+00 0. -1.
         11    1    4    4    0    0 -0.23946312816E+02 -0.70476633253E+01  0.33532818921E+02  0.41803652958E+02  0.00000000000E+00 0.  1.
        -11    1    3    3    0    0 -0.22703645038E+02 -0.61212525971E+02  0.79078526304E+01  0.65764450633E+02  0.00000000000E+00 0.  1.
         11    1    3    3    0    0 -0.15260335028E+02  0.15310628831E+02  0.50594269056E+02  0.55018844423E+02  0.00000000000E+00 0. -1.
         -1    1    1    2    0  502 -0.14305574787E+02  0.31922092086E+02  0.13631687691E+03  0.14073365043E+03  0.00000000000E+00 0.  1.
<scales pt_clust_5="13000.00000" pt_clust_6="13000.00000" pt_clust_7="13000.00000" pt_clust_8="13000.00000" pt_clust_9="13000.00000"></scales>
<clustering>
<clus scale="   87.280">  7  8 -1 -1</clus>
<clus scale="   92.150">  5  6 -1 -1</clus>
<clus scale="   34.981">  5  9 -1 -1</clus>
<clus scale="  105.670">  2  7  1 -1</clus>
<clus scale="  145.932">  1  5  2 -1</clus>
</clustering>
</event>
<event>
 9    1  0.3303741E-006  0.1608513E+03  0.7546771E-02  0.1203696E+00
          2   -1    0    0  502    0 -0.00000000000E+00  0.00000000000E+00  0.73640918782E+02  0.73640918782E+02  0.00000000000E+00 0. -1.
         21   -1    0    0  501  502  0.00000000000E+00 -0.00000000000E+00 -0.25679737310E+03  0.25679737310E+03  0.00000000000E+00 0. -1.
         23    2    1    2    0    0  0.59525869645E+02 -0.39904497263E+02 -0.87714820557E+02  0.14340288585E+03  0.87947710977E+02 0.  0.
         23    2    1    2    0    0 -0.60680249298E+01  0.45957300722E+02 -0.47739472944E+02  0.11513357199E+03  0.93956307434E+02 0.  0.
        -13    1    3    3    0    0 -0.19313606134E+02 -0.26451278525E+02 -0.18396165873E+02  0.37564670055E+02  0.00000000000E+00 0.  1.
         13    1    3    3    0    0  0.78839475780E+02 -0.13453218738E+02 -0.69318654684E+02  0.10583821580E+03  0.00000000000E+00 0. -1.
        -13    1    4    4    0    0  0.34503523253E+02  0.78076068248E+01 -0.47770355537E+02  0.59442902934E+02  0.00000000000E+00 0. -1.
         13    1    4    4    0    0 -0.40571548182E+02  0.38149693898E+02  0.30882592606E-01  0.55690669058E+02  0.00000000000E+00 0.  1.
          2    1    1    2  501    0 -0.53457844716E+02 -0.60528034597E+01 -0.47702160814E+02  0.71901834036E+02  0.00000000000E+00 0. -1.
<scales pt_clust_5="13000.00000" pt_clust_6="13000.00000" pt_clust_7="13000.00000" pt_clust_8="13000.00000" pt_clust_9="13000.00000"></scales>
<clustering>
<clus scale="   87.948">  5  6 -1 -1</clus>
<clus scale="   93.956">  7  8 -1 -1</clus>
<clus scale="   53.799">  7  9 -1 -1</clus>
<clus scale="  113.448">  1  5  2 -1</clus>
<clus scale="  160.851">  2  5  1 -1</clus>
</clustering>
</event>
<event>
 9    1  0.3303741E-006  0.5542223E+03  0.7546771E-02  0.1045732E+00
          1   -1    0    0  502    0 -0.00000000000E+00  0.00000000000E+00  0.10788116178E+04  0.10788116178E+04  0.00000000000E+00 0. -1.
         21   -1    0    0  501  502  0.00000000000E+00 -0.00000000000E+00 -0.15154238215E+03  0.15154238215E+03  0.00000000000E+00 0.  1.
         23    2    1    2    0    0 -0.93372561012E+02  0.54580539841E+02 -0.89042752328E+01  0.14242789529E+03  0.92243963278E+02 0.  0.
         23    2    1    2    0    0 -0.95773478043E+02  0.13745237730E+03  0.71399504786E+03  0.73861802461E+03  0.87760713188E+02 0.  0.
        -11    1    4    4    0    0 -0.71713014493E+02  0.28224328305E+02  0.27433976495E+03  0.28495907739E+03  0.00000000000E+00 0. -1.
         11    1    4    4    0    0 -0.24060463550E+02  0.10922804900E+03  0.43965528291E+03  0.45365894721E+03  0.00000000000E+00 0.  1.
        -11    1    3    3    0    0 -0.18954519959E+02  0.16473885730E+02 -0.44864829222E+02  0.51415130448E+02  0.00000000000E+00 0.  1.
         11    1    3    3    0    0 -0.74418041053E+02  0.38106654111E+02  0.35960553989E+02  0.91012764846E+02  0.00000000000E+00 0. -1.
          1    1    1    2  501    0  0.18914603906E+03 -0.19203291715E+03  0.22217846302E+03  0.34930808005E+03  0.00000000000E+00 0. -1.
<scales pt_clust_5="13000.00000" pt_clust_6="13000.00000" pt_clust_7="13000.00000" pt_clust_8="13000.00000" pt_clust_9="13000.00000"></scales>
<clustering>
<clus scale="   87.761">  5  6 -1 -1</clus>
<clus scale="   92.244">  7  8 -1 -1</clus>
<clus scale="  142.149">  1  7  2 -1</clus>
<clus scale="  240.196">  5  9 -1 -1</clus>
<clus scale="  554.222">  2  5  1 -1</clus>
</clustering>
</event>
<event>
 9    1  0.3303741E-006  0.1731207E+03  0.7546771E-02  0.1185812E+00
          1   -1    0    0  502    0 -0.00000000000E+00  0.00000000000E+00  0.75031866146E+03  0.75031866146E+03  0.00000000000E+00 0. -1.
         21   -1    0    0  501  502  0.00000000000E+00 -0.00000000000E+00 -0.36170744167E+02  0.36170744167E+02  0.00000000000E+00 0.  1.
         23    2    1    2    0    0 -0.57185711066E+02 -0.35420207545E+02  0.45753296092E+03  0.47693810581E+03  0.11665654629E+03 0.  0.
         23    2    1    2    0    0  0.12081531435E+02  0.13999170543E+02  0.76853575495E+02  0.12298388063E+03  0.94215830151E+02 0.  0.
        -13    1    3    3    0    0 -0.87448248958E+02 -0.16706588387E+01  0.33692944919E+03  0.34809688461E+03  0.00000000000E+00 0.  1.
         13    1    3    3    0    0  0.30262537891E+02 -0.33749548706E+02  0.12060351173E+03  0.12884122120E+03  0.00000000000E+00 0. -1.
        -13    1    4    4    0    0  0.77868704725E+01 -0.29035151043E+02  0.73730415209E+02  0.79623171720E+02  0.00000000000E+00 0. -1.
         13    1    4    4    0    0  0.42946609625E+01  0.43034321586E+02  0.31231602867E+01  0.43360708912E+02  0.00000000000E+00 0.  1.
          1    1    1    2  501    0  0.45104179631E+02  0.21421037002E+02  0.17976138088E+03  0.18656741919E+03  0.00000000000E+00 0. -1.
<scales pt_clust_5="13000.00000" pt_clust_6="13000.00000" pt_clust_7="13000.00000" pt_clust_8="13000.00000" pt_clust_9="13000.00000"></scales>
<clustering>
<clus scale="   94.216">  7  8 -1 -1</clus>
<clus scale="   49.932">  7  9 -1 -1</clus>
<clus scale="  116.657">  5  6 -1 -1</clus>
<clus scale="  134.661">  1  5  2 -1</clus>
<clus scale="  173.121">  2  5  1 -1</clus>
</clustering>
</event>
<event>
 9    1  0.3303741E-006  0.1747575E+03  0.7546771E-02  0.1185663E+00
         21   -1    0    0  501  502  0.00000000000E+00  0.00000000000E+00  0.14861211578E+03  0.14861211578E+03  0.00000000000E+00 0. -1.
          2   -1    0    0  502    0 -0.00000000000E+00 -0.00000000000E+00 -0.15771733708E+03  0.15771733708E+03  0.00000000000E+00 0. -1.
         23    2    1    2    0    0  0.51058905363E+02  0.88421682170E+02 -0.75495008851E+01  0.13156500218E+03  0.82625354100E+02 0.  0.
         23    2    1    2    0    0 -0.24571070892E+02 -0.67879257929E+02 -0.42364365545E+02  0.12195401530E+03  0.88694482336E+02 0.  0.
        -13    1    4    4    0    0  0.81203197992E+01  0.19163584778E+02 -0.31779167436E+01  0.21054256814E+02  0.00000000000E+00 0. -1.
         13    1    4    4    0    0 -0.32691390691E+02 -0.87042842707E+02 -0.39186448802E+02  0.10089975848E+03  0.00000000000E+00 0.  1.
        -13    1    3    3    0    0 -0.19580631566E+02  0.11722451327E+02 -0.14538179889E+02  0.27058744836E+02  0.00000000000E+00 0.  1.
         13    1    3    3    0    0  0.70639536929E+02  0.76699230843E+02  0.69886790036E+01  0.10450625734E+03  0.00000000000E+00 0. -1.
          2    1    1    2  501    0 -0.26487834471E+02 -0.20542424241E+02  0.40808645129E+02  0.52810435388E+02  0.00000000000E+00 0. -1.
<scales pt_clust_5="13000.00000" pt_clust_6="13000.00000" pt_clust_7="13000.00000" pt_clust_8="13000.00000" pt_clust_9="13000.00000"></scales>
<clustering>
<clus scale="   82.625">  7  8 -1 -1</clus>
<clus scale="   88.694">  5  6 -1 -1</clus>
<clus scale="   33.520">  5  9 -1 -1</clus>
<clus scale="  131.348">  2  7  1 -1</clus>
<clus scale="  174.758">  1  5  2 -1</clus>
</clustering>
</event>
<event>
 9    1  0.3303741E-006  0.3179659E+03  0.7546771E-02  0.1124640E+00
         21   -1    0    0  501  502  0.00000000000E+00  0.00000000000E+00  0.20942043755E+03  0.20942043755E+03  0.00000000000E+00 0.  1.
         -2   -1    0    0    0  501 -0.00000000000E+00 -0.00000000000E+00 -0.20759761358E+03  0.20759761358E+03  0.00000000000E+00 0.  1.
         23    2    1    2    0    0  0.12691352532E+02 -0.10121900465E+02 -0.32802658739E+02  0.97172403530E+02  0.90016322350E+02 0.  0.
         23    2    1    2    0    0  0.43998045922E+02  0.12653355042E+03 -0.44329653871E+02  0.16819053316E+03  0.91522509841E+02 0.  0.
        -11    1    3    3    0    0  0.24413799202E+02  0.24587443161E+02 -0.46560916195E+02  0.58038735940E+02  0.00000000000E+00 0.  1.
         11    1    3    3    0    0 -0.11722446670E+02 -0.34709343626E+02  0.13758257455E+02  0.39133667590E+02  0.00000000000E+00 0. -1.
        -13    1    4    4    0    0  0.12777077663E+02  0.11363020296E+03 -0.61992091280E+02  0.13006958184E+03  0.00000000000E+00 0.  1.
         13    1    4    4    0    0  0.31220968259E+02  0.12903347454E+02  0.17662437409E+02  0.38120951323E+02  0.00000000000E+00 0. -1.
         -2    1    1    2    0  502 -0.56689398454E+02 -0.11641164995E+03  0.78955136585E+02  0.15165511444E+03  0.00000000000E+00 0.  1.
<scales pt_clust_5="13000.00000" pt_clust_6="13000.00000" pt_clust_7="13000.00000" pt_clust_8="13000.00000" pt_clust_9="13000.00000"></scales>
<clustering>
<clus scale="   90.016">  5  6 -1 -1</clus>
<clus scale="   91.468">  2  5  1 -1</clus>
<clus scale="   91.523">  7  8 -1 -1</clus>
<clus scale="  130.447">  7  9 -1 -1</clus>
<clus scale="  317.966">  1  5  2 -1</clus>
</clustering>
</event>
<event>
 9    1  0.3303741E-006  0.1424245E+03  0.7546771E-02  0.1227074E+00
         21   -1    0    0  501  502  0.00000000000E+00  0.00000000000E+00  0.83570055338E+02  0.83570055338E+02  0.00000000000E+00 0. -1.
         -4   -1    0    0    0  501 -0.00000000000E+00 -0.00000000000E+00 -0.17912828374E+03  0.17912828374E+03  0.00000000000E+00 0.  1.
         23    2    1    2    0    0 -0.28935813239E+01  0.34595701219E+01 -0.20598246042E+02  0.10175196331E+03  0.99543120598E+02 0.  0.
         23    2    1    2    0    0  0.35541512779E+02  0.34891958153E+01 -0.77604771013E+02  0.12746253365E+03  0.94598220818E+02 0.  0.
        -13    1    3    3    0    0  0.14067253166E+02 -0.42514680007E+02 -0.27063589932E+02  0.52324215501E+02  0.00000000000E+00 0.  1.
         13    1    3    3    0    0 -0.16960834490E+02  0.45974250129E+02  0.64653438900E+01  0.49427747806E+02  0.00000000000E+00 0. -1.
        -13    1    4    4    0    0 -0.20386455883E+02 -0.19618264964E+02 -0.56828018476E+02  0.63481553128E+02  0.00000000000E+00 0.  1.
         13    1    4    4    0    0  0.55927968662E+02  0.23107460780E+02 -0.20776752537E+02  0.63980980520E+02  0.00000000000E+00 0. -1.
         -4    1    1    2    0  502 -0.32647931455E+02 -0.69487659371E+01  0.26447886518E+01  0.33483842123E+02  0.00000000000E+00 0.  1.
<scales pt_clust_5="13000.00000" pt_clust_6="13000.00000" pt_clust_7="13000.00000" pt_clust_8="13000.00000" pt_clust_9="13000.00000"></scales>
<clustering>
<clus scale="   94.598">  7  8 -1 -1</clus>
<clus scale="   33.379">  7  9 -1 -1</clus>
<clus scale="   99.543">  5  6 -1 -1</clus>
<clus scale="   99.645">  2  5  1 -1</clus>
<clus scale="  142.424">  1  5  2 -1</clus>
</clustering>
</event>
<event>
 9    1  0.3303741E-006  0.2971206E+03  0.7546771E-02  0.1122816E+00
         21   -1    0    0  501  502  0.00000000000E+00  0.00000000000E+00  0.12130950658E+03  0.12130950658E+03  0.00000000000E+00 0.  1.
          3   -1    0    0  502    0 -0.00000000000E+00 -0.00000000000E+00 -0.35739290900E+03  0.35739290900E+03  0.00000000000E+00 0. -1.
         23    2    1    2    0    0 -0.70186141356E+02  0.34899894281E+01 -0.46082766304E+02  0.12602566724E+03  0.93917905583E+02 0.  0.
         23    2    1    2    0    0  0.85830031211E+02  0.93783849555E+02 -0.19849732122E+03  0.25378729138E+03  0.94045723128E+02 0.  0.
        -11    1    3    3    0    0 -0.45804757259E+02  0.11311695338E+02 -0.74242111693E+02  0.87965455650E+02  0.00000000000E+00 0. -1.
         11    1    3    3    0    0 -0.24381384096E+02 -0.78217059095E+01  0.28159345389E+02  0.38060211593E+02  0.00000000000E+00 0.  1.
        -11    1    4    4    0    0  0.92899692455E+02  0.55423900012E+02 -0.97925591722E+02  0.14591635640E+03  0.00000000000E+00 0.  1.
         11    1    4    4    0    0 -0.70696612438E+01  0.38359949543E+02 -0.10057172950E+03  0.10787093498E+03  0.00000000000E+00 0. -1.
          3    1    1    2  501    0 -0.15643889855E+02 -0.97273838983E+02  0.84966851052E+01  0.98889456961E+02  0.00000000000E+00 0. -1.
<scales pt_clust_5="13000.00000" pt_clust_6="13000.00000" pt_clust_7="13000.00000" pt_clust_8="13000.00000" pt_clust_9="13000.00000"></scales>
<clustering>
<clus scale="   93.918">  5  6 -1 -1</clus>
<clus scale="   94.046">  7  8 -1 -1</clus>
<clus scale="   98.524">  7  9 -1 -1</clus>
<clus scale="  117.298">  2  5  1 -1</clus>
<clus scale="  297.121">  1  5  2 -1</clus>
</clustering>
</event>
<event>
 9    1  0.3303741E-006  0.4621269E+03  0.7546771E-02  0.1053950E+00
         21   -1    0    0  501  502  0.00000000000E+00  0.00000000000E+00  0.18282908765E+03  0.18282908765E+03  0.00000000000E+00 0. -1.
          2   -1    0    0  502    0 -0.00000000000E+00 -0.00000000000E+00 -0.60519359814E+03  0.60519359814E+03  0.00000000000E+00 0. -1.
         23    2    1    2    0    0  0.16990391861E+03  0.27788398250E+02 -0.67427456139E+02  0.20532075335E+03  0.89278291196E+02 0.  0.
         23    2    1    2    0    0 -0.28390179060E+03  0.50770164283E+02 -0.31993932023E+03  0.43990205863E+03  0.89301826814E+02 0.  0.
        -11    1    3    3    0    0  0.10651144254E+03  0.56254205764E+02 -0.62377263580E+02  0.13564713808E+03  0.00000000000E+00 0. -1.
         11    1    3    3    0    0  0.63392476075E+02 -0.28465807513E+02 -0.50501925584E+01  0.69673615273E+02  0.00000000000E+00 0.  1.
        -13    1    4    4    0    0 -0.26286002779E+03  0.49356900010E+02 -0.32214362934E+03  0.41869800061E+03  0.00000000000E+00 0. -1.
         13    1    4    4    0    0 -0.21041762812E+02  0.14132642733E+01  0.22043091092E+01  0.21204058026E+02  0.00000000000E+00 0.  1.
          2    1    1    2  501    0  0.11399787198E+03 -0.78558562533E+02 -0.34997734126E+02  0.14279987380E+03  0.00000000000E+00 0. -1.
<scales pt_clust_5="13000.00000" pt_clust_6="13000.00000" pt_clust_7="13000.00000" pt_clust_8="13000.00000" pt_clust_9="13000.00000"></scales>
<clustering>
<clus scale="   89.278">  5  6 -1 -1</clus>
<clus scale="   89.302">  7  8 -1 -1</clus>
<clus scale="  138.445">  7  9 -1 -1</clus>
<clus scale="  193.933">  2  5  1 -1</clus>
<clus scale="  462.127">  1  5  2 -1</clus>
</clustering>
</event>
<event>
 9    1  0.3303741E-006  0.2514173E+03  0.7546771E-02  0.1136150E+00
         21   -1    0    0  501  502  0.00000000000E+00  0.00000000000E+00  0.58962887665E+02  0.58962887665E+02  0.00000000000E+00 0. -1.
          1   -1    0    0  502    0 -0.00000000000E+00 -0.00000000000E+00 -0.85652278878E+03  0.85652278878E+03  0.00000000000E+00 0. -1.
         23    2    1    2    0    0 -0.68052417634E+02 -0.82060863451E+02 -0.53120030932E+03  0.54920969788E+03  0.89957805488E+02 0.  0.
         23    2    1    2    0    0  0.89819963519E+01 -0.49593584221E+02 -0.82951999335E+02  0.13290812895E+03  0.90792822914E+02 0.  0.
        -11    1    4    4    0    0 -0.28456919519E+02 -0.26186107620E+02 -0.79757786811E+02  0.88638665704E+02  0.00000000000E+00 0. -1.
         11    1    4    4    0    0  0.37438915871E+02 -0.23407476601E+02 -0.31942125248E+01  0.44269463245E+02  0.00000000000E+00 0.  1.
        -13    1    3    3    0    0 -0.26501848898E+02  0.16383234340E+02 -0.89490508639E+02  0.94759218544E+02  0.00000000000E+00 0.  1.
         13    1    3    3    0    0 -0.41550568736E+02 -0.98444097791E+02 -0.44170980068E+03  0.45445047933E+03  0.00000000000E+00 0. -1.
          1    1    1    2  501    0  0.59070421282E+02  0.13165444767E+03 -0.18340759246E+03  0.23336784962E+03  0.00000000000E+00 0. -1.
<scales pt_clust_5="13000.00000" pt_clust_6="13000.00000" pt_clust_7="13000.00000" pt_clust_8="13000.00000" pt_clust_9="13000.00000"></scales>
<clustering>
<clus scale="   89.958">  7  8 -1 -1</clus>
<clus scale="   90.793">  5  6 -1 -1</clus>
<clus scale="  139.490">  2  7  1 -1</clus>
<clus scale="   78.889">  5  9 -1 -1</clus>
<clus scale="  251.417">  1  5  2 -1</clus>
</clustering>
</event>
<event>
 9    1  0.3303741E-006  0.2243827E+03  0.7546771E-02  0.1139736E+00
          2   -1    0    0  502    0 -0.00000000000E+00  0.00000000000E+00  0.14324672903E+03  0.14324672903E+03  0.00000000000E+00 0. -1.
         21   -1    0    0  501  502  0.00000000000E+00 -0.00000000000E+00 -0.47331870008E+03  0.47331870008E+03  0.00000000000E+00 0. -1.
         23    2    1    2    0    0 -0.15149780832E+03  0.34156922160E+02  0.39514026790E+02  0.18419819819E+03  0.90825858898E+02 0.  0.
         23    2    1    2    0    0  0.73735026563E+02  0.52012772097E+01 -0.11827961606E+03  0.16637660025E+03  0.90703903480E+02 0.  0.
        -11    1    3    3    0    0  0.21329281664E+01  0.21880040749E+02  0.18341236140E+02  0.28630167811E+02  0.00000000000E+00 0.  1.
         11    1    3    3    0    0 -0.15363073649E+03  0.12276881410E+02  0.21172790650E+02  0.15556803038E+03  0.00000000000E+00 0. -1.
        -13    1    4    4    0    0  0.45096435586E+02 -0.41657227396E+02 -0.53323604698E+02  0.81316787411E+02  0.00000000000E+00 0. -1.
         13    1    4    4    0    0  0.28638590977E+02  0.46858504606E+02 -0.64956011364E+02  0.85059812834E+02  0.00000000000E+00 0.  1.
          2    1    1    2  501    0  0.77762781761E+02 -0.39358199369E+02 -0.25130638177E+03  0.26599063067E+03  0.00000000000E+00 0. -1.
<scales pt_clust_5="13000.00000" pt_clust_6="13000.00000" pt_clust_7="13000.00000" pt_clust_8="13000.00000" pt_clust_9="13000.00000"></scales>
<clustering>
<clus scale="   90.704">  7  8 -1 -1</clus>
<clus scale="   87.156">  7  9 -1 -1</clus>
<clus scale="   90.826">  5  6 -1 -1</clus>
<clus scale="  179.910">  1  5  2 -1</clus>
<clus scale="  224.383">  2  5  1 -1</clus>
</clustering>
</event>
<event>
 9    1  0.3303741E-006  0.1761184E+03  0.7546771E-02  0.1181145E+00
         21   -1    0    0  501  502  0.00000000000E+00  0.00000000000E+00  0.11033894569E+03  0.11033894569E+03  0.00000000000E+00 0.  1.
          4   -1    0    0  502    0 -0.00000000000E+00 -0.00000000000E+00 -0.53797587122E+03  0.53797587122E+03  0.00000000000E+00 0. -1.
         23    2    1    2    0    0  0.40162919559E+02  0.10096057596E+03  0.40930547948E+02  0.14774198141E+03  0.91358006278E+02 0.  0.
         23    2    1    2    0    0 -0.20459872072E+02 -0.29766196136E+02 -0.22578274336E+03  0.24679877265E+03  0.92882475124E+02 0.  0.
        -13    1    4    4    0    0  0.33787901989E+02  0.70406570168E+00 -0.50180996691E+02  0.60500003787E+02  0.00000000000E+00 0.  1.
         13    1    4    4    0    0 -0.54247774061E+02 -0.30470261838E+02 -0.17560174667E+03  0.18629876886E+03  0.00000000000E+00 0. -1.
        -13    1    3    3    0    0  0.25421483423E+02  0.71157135304E+02  0.70427582660E+02  0.10329392104E+03  0.00000000000E+00 0.  1.
         13    1    3    3    0    0  0.14741436136E+02  0.29803440652E+02 -0.29497034713E+02  0.44448060373E+02  0.00000000000E+00 0. -1.
          4    1    1    2  501    0 -0.19703047487E+02 -0.71194379819E+02 -0.24278473012E+03  0.25377406285E+03  0.00000000000E+00 0. -1.
<scales pt_clust_5="13000.00000" pt_clust_6="13000.00000" pt_clust_7="13000.00000" pt_clust_8="13000.00000" pt_clust_9="13000.00000"></scales>
<clustering>
<clus scale="   91.358">  7  8 -1 -1</clus>
<clus scale="   92.882">  5  6 -1 -1</clus>
<clus scale="   73.871">  5  9 -1 -1</clus>
<clus scale="  141.959">  2  7  1 -1</clus>
<clus scale="  176.118">  1  5  2 -1</clus>
</clustering>
</event>
<event>
 9    1  0.3303741E-006  0.2429371E+03  0.7546771E-02  0.1136758E+00
          2   -1    0    0  502    0 -0.00000000000E+00  0.00000000000E+00  0.66828087322E+03  0.66828087322E+03  0.00000000000E+00 0. -1.
         21   -1    0    0  501  502  0.00000000000E+00 -0.00000000000E+00 -0.62687130233E+02  0.62687130233E+02  0.00000000000E+00 0. -1.
         23    2    1    2    0    0 -0.73917132003E+02  0.97366747828E+02  0.14545420450E+03  0.21063462878E+03  0.90917518931E+02 0.  0.
         23    2    1    2    0    0  0.11260973226E+03 -0.11200356158E+03  0.43630935144E+03  0.47259207760E+03  0.88043580423E+02 0.  0.
        -11    1    4    4    0    0  0.10914527683E+03 -0.65058952730E+02  0.25012362591E+03  0.28054801198E+03  0.00000000000E+00 0. -1.
         11    1    4    4    0    0  0.34644554234E+01 -0.46944608853E+02  0.18618572553E+03  0.19204406563E+03  0.00000000000E+00 0.  1.
        -13    1    3    3    0    0  0.12429519714E+02  0.26609638681E+02  0.69945186690E+02  0.75861024065E+02  0.00000000000E+00 0.  1.
         13    1    3    3    0    0 -0.86346651716E+02  0.70757109147E+02  0.75509017813E+02  0.13477360472E+03  0.00000000000E+00 0. -1.
          2    1    1    2  501    0 -0.38692600254E+02  0.14636813756E+02  0.23830187049E+02  0.47741297072E+02  0.00000000000E+00 0. -1.
<scales pt_clust_5="13000.00000" pt_clust_6="13000.00000" pt_clust_7="13000.00000" pt_clust_8="13000.00000" pt_clust_9="13000.00000"></scales>
<clustering>
<clus scale="   88.044">  5  6 -1 -1</clus>
<clus scale="   41.369">  5  9 -1 -1</clus>
<clus scale="   90.918">  7  8 -1 -1</clus>
<clus scale="  152.348">  1  7  2 -1</clus>
<clus scale="  242.937">  2  5  1 -1</clus>
</clustering>
</event>
<event>
 9    1  0.3303741E-006  0.2092474E+03  0.7546771E-02  0.1166889E+00
         21   -1    0    0  501  502  0.00000000000E+00  0.00000000000E+00  0.22163035789E+03  0.22163035789E+03  0.00000000000E+00 0. -1.
          1   -1    0    0  502    0 -0.00000000000E+00 -0.00000000000E+00 -0.19066524654E+03  0.19066524654E+03  0.00000000000E+00 0. -1.
         23    2    1    2    0    0 -0.97054600067E+01 -0.73117872192E+02 -0.10951373738E+03  0.16026631185E+03  0.90838388643E+02 0.  0.
         23    2    1    2    0    0  0.66085154096E+02 -0.49560066788E+01  0.75717721031E+02  0.13597670051E+03  0.91458625663E+02 0.  0.
        -11    1    4    4    0    0  0.55782283864E+01  0.33217785043E+02  0.49309771208E+02  0.59715922598E+02  0.00000000000E+00 0.  1.
         11    1    4    4    0    0  0.60506925710E+02 -0.38173791721E+02  0.26407949822E+02  0.76260777908E+02  0.00000000000E+00 0. -1.
        -11    1    3    3    0    0 -0.22158388570E+02 -0.18153003962E+02  0.81671850515E+01  0.29786383610E+02  0.00000000000E+00 0.  1.
         11    1    3    3    0    0  0.12452928564E+02 -0.54964868230E+02 -0.11768092243E+03  0.13047992824E+03  0.00000000000E+00 0. -1.
          1    1    1    2  501    0 -0.56379694090E+02  0.78073878871E+02  0.64761127692E+02  0.11605259208E+03  0.00000000000E+00 0. -1.
<scales pt_clust_5="13000.00000" pt_clust_6="13000.00000" pt_clust_7="13000.00000" pt_clust_8="13000.00000" pt_clust_9="13000.00000"></scales>
<clustering>
<clus scale="   90.838">  7  8 -1 -1</clus>
<clus scale="   91.459">  5  6 -1 -1</clus>
<clus scale="   96.303">  5  9 -1 -1</clus>
<clus scale="  117.013">  2  7  1 -1</clus>
<clus scale="  209.247">  1  5  2 -1</clus>
</clustering>
</event>
<event>
 9    1  0.3303741E-006  0.3995855E+03  0.7546771E-02  0.1090270E+00
         21   -1    0    0  501  502  0.00000000000E+00  0.00000000000E+00  0.15998142845E+04  0.15998142845E+04  0.00000000000E+00 0.  1.
         -1   -1    0    0    0  501 -0.00000000000E+00 -0.00000000000E+00 -0.50951298404E+02  0.50951298404E+02  0.00000000000E+00 0.  1.
         23    2    1    2    0    0 -0.57827661259E+02 -0.29810389443E+02  0.10582942719E+03  0.15342981351E+03  0.90045223586E+02 0.  0.
         23    2    1    2    0    0  0.14267456152E+03 -0.11834843489E+03  0.53255343767E+03  0.57098589764E+03  0.89718163103E+02 0.  0.
        -11    1    4    4    0    0  0.13167757075E+03 -0.57579419675E+02  0.38966955575E+03  0.41532726239E+03  0.00000000000E+00 0. -1.
         11    1    4    4    0    0  0.10996990769E+02 -0.60769015215E+02  0.14288388192E+03  0.15565863525E+03  0.00000000000E+00 0.  1.
        -11    1    3    3    0    0 -0.53907538127E+02  0.22569302020E+02  0.52143409742E+02  0.78321971631E+02  0.00000000000E+00 0. -1.
         11    1    3    3    0    0 -0.39201231323E+01 -0.52379691464E+02  0.53686017445E+02  0.75107841883E+02  0.00000000000E+00 0.  1.
         -1    1    1    2    0  502 -0.84846900256E+02  0.14815882433E+03  0.91048012128E+03  0.92634987179E+03  0.00000000000E+00 0.  1.
<scales pt_clust_5="13000.00000" pt_clust_6="13000.00000" pt_clust_7="13000.00000" pt_clust_8="13000.00000" pt_clust_9="13000.00000"></scales>
<clustering>
<clus scale="   89.718">  5  6 -1 -1</clus>
<clus scale="   90.045">  7  8 -1 -1</clus>
<clus scale="  111.089">  2  7  1 -1</clus>
<clus scale="  172.621">  5  9 -1 -1</clus>
<clus scale="  399.585">  1  5  2 -1</clus>
</clustering>
</event>
<event>
 9    1  0.3303741E-006  0.1867044E+03  0.7546771E-02  0.1186669E+00
          2   -1    0    0  502    0 -0.00000000000E+00  0.00000000000E+00  0.63206227626E+03  0.63206227626E+03  0.00000000000E+00 0. -1.
         21   -1    0    0  501  502  0.00000000000E+00 -0.00000000000E+00 -0.39965181130E+02  0.39965181130E+02  0.00000000000E+00 0. -1.
         23    2    1    2    0    0  0.19649847026E+02 -0.48229938498E+02  0.35469606966E+03  0.37000461511E+03  0.91552552755E+02 0.  0.
         23    2    1    2    0    0 -0.57154416461E+02  0.36584711693E+02  0.23689919089E+03  0.26274873028E+03  0.91162493195E+02 0.  0.
        -11    1    4    4    0    0 -0.81893470026E+01  0.55505081440E+02  0.83348658206E+02  0.10047327154E+03  0.00000000000E+00 0.  1.
         11    1    4    4    0    0 -0.48965069459E+02 -0.18920369747E+02  0.15355053269E+03  0.16227545873E+03  0.00000000000E+00 0. -1.
        -13    1    3    3    0    0 -0.28275449059E+02  0.80899693257E+01  0.13600427675E+03  0.13914780601E+03  0.00000000000E+00 0.  1.
         13    1    3    3    0    0  0.47925296085E+02 -0.56319907824E+02  0.21869179291E+03  0.23085680910E+03  0.00000000000E+00 0. -1.
          2    1    1    2  501    0  0.37504569435E+02  0.11645226806E+02  0.50183457992E+00  0.39274112006E+02  0.00000000000E+00 0. -1.
<scales pt_clust_5="13000.00000" pt_clust_6="13000.00000" pt_clust_7="13000.00000" pt_clust_8="13000.00000" pt_clust_9="13000.00000"></scales>
<clustering>
<clus scale="   91.162">  5  6 -1 -1</clus>
<clus scale="   39.271">  5  9 -1 -1</clus>
<clus scale="   91.553">  7  8 -1 -1</clus>
<clus scale="  105.329">  1  7  2 -1</clus>
<clus scale="  186.704">  2  5  1 -1</clus>
</clustering>
</event>
<event>
 9    1  0.3303741E-006  0.1468732E+03  0.7546771E-02  0.1211404E+00
         -1   -1    0    0    0  501 -0.00000000000E+00  0.00000000000E+00  0.25637351940E+03  0.25637351940E+03  0.00000000000E+00 0.  1.
         21   -1    0    0  501  502  0.00000000000E+00 -0.00000000000E+00 -0.87710313539E+02  0.87710313539E+02  0.00000000000E+00 0.  1.
         23    2    1    2    0    0 -0.38082157985E+02  0.81657338867E+02  0.82467005531E+01  0.12658624718E+03  0.88531904736E+02 0.  0.
         23    2    1    2    0    0  0.18885869159E+02 -0.57337019502E+02  0.14776994726E+03  0.18403251638E+03  0.91584932780E+02 0.  0.
        -11    1    3    3    0    0 -0.41647386080E+02  0.58561856020E+01  0.24927632969E+02  0.48889534284E+02  0.00000000000E+00 0.  1.
         11    1    3    3    0    0  0.35652280944E+01  0.75801153265E+02 -0.16680932416E+02  0.77696712891E+02  0.00000000000E+00 0. -1.
        -13    1    4    4    0    0  0.55048109227E+02 -0.37744290201E+02  0.10706900566E+03  0.12616932172E+03  0.00000000000E+00 0.  1.
         13    1    4    4    0    0 -0.36162240067E+02 -0.19592729300E+02  0.40700941601E+02  0.57863194652E+02  0.00000000000E+00 0. -1.
         -1    1    1    2    0  502  0.19196288826E+02 -0.24320319366E+02  0.12646558056E+02  0.33465069392E+02  0.00000000000E+00 0.  1.
<scales pt_clust_5="13000.00000" pt_clust_6="13000.00000" pt_clust_7="13000.00000" pt_clust_8="13000.00000" pt_clust_9="13000.00000"></scales>
<clustering>
<clus scale="   88.532">  5  6 -1 -1</clus>
<clus scale="   91.585">  7  8 -1 -1</clus>
<clus scale="   30.983">  7  9 -1 -1</clus>
<clus scale="  126.317">  1  5  2 -1</clus>
<clus scale="  146.873">  2  5  1 -1</clus>
</clustering>
</event>
<event>
 9    1  0.3303741E-006  0.1948957E+03  0.7546771E-02  0.1179728E+00
         -2   -1    0    0    0  501 -0.00000000000E+00  0.00000000000E+00  0.94837181453E+02  0.94837181453E+02  0.00000000000E+00 0.  1.
         21   -1    0    0  501  502  0.00000000000E+00 -0.00000000000E+00 -0.38192489456E+03  0.38192489456E+03  0.00000000000E+00 0.  1.
         23    2    1    2    0    0 -0.44112132791E+02  0.34881447260E+02  0.22953873274E+02  0.11055159377E+03  0.92369794654E+02 0.  0.
         23    2    1    2    0    0  0.94492926870E+02 -0.80191255701E+01 -0.16839036839E+03  0.21348564374E+03  0.90706032394E+02 0.  0.
        -11    1    4    4    0    0  0.86588433103E+02 -0.41989679745E+02 -0.11953223558E+03  0.15345567860E+03  0.00000000000E+00 0.  1.
         11    1    4    4    0    0  0.79044937671E+01  0.33970554175E+02 -0.48858132810E+02  0.60029965137E+02  0.00000000000E+00 0. -1.
        -13    1    3    3    0    0  0.60423206974E+01 -0.23342886292E+02 -0.11041989209E+02  0.26520284794E+02  0.00000000000E+00 0. -1.
         13    1    3    3    0    0 -0.50154453488E+02  0.58224333552E+02  0.33995862482E+02  0.84031308976E+02  0.00000000000E+00 0.  1.
         -2    1    1    2    0  502 -0.50380794079E+02 -0.26862321690E+02 -0.14165121799E+03  0.15272483851E+03  0.00000000000E+00 0.  1.
<scales pt_clust_5="13000.00000" pt_clust_6="13000.00000" pt_clust_7="13000.00000" pt_clust_8="13000.00000" pt_clust_9="13000.00000"></scales>
<clustering>
<clus scale="   90.706">  5  6 -1 -1</clus>
<clus scale="   57.095">  5  9 -1 -1</clus>
<clus scale="   92.370">  7  8 -1 -1</clus>
<clus scale="  108.142">  1  7  2 -1</clus>
<clus scale="  194.896">  2  5  1 -1</clus>
</clustering>
</event>
<event>
 9    1  0.3303741E-006  0.2814765E+03  0.7546771E-02  0.1137622E+00
         21   -1    0    0  501  502  0.00000000000E+00  0.00000000000E+00  0.14655169902E+03  0.14655169902E+03  0.00000000000E+00 0.  1.
          4   -1    0    0  502    0 -0.00000000000E+00 -0.00000000000E+00 -0.32991172848E+03  0.32991172848E+03  0.00000000000E+00 0. -1.
         23    2    1    2    0    0  0.30535694535E+02  0.97182368639E+01 -0.16936413194E+03  0.19463921866E+03  0.90406545579E+02 0.  0.
         23    2    1    2    0    0  0.74270515164E+02 -0.89793976285E+02  0.22563140659E+01  0.14893101859E+03  0.92716178438E+02 0.  0.
        -11    1    4    4    0    0  0.69308600013E+02 -0.44752332263E+02  0.38369110416E+02  0.90987042554E+02  0.00000000000E+00 0.  1.
         11    1    4    4    0    0  0.49619151511E+01 -0.45041644022E+02 -0.36112796350E+02  0.57943976032E+02  0.00000000000E+00 0. -1.
        -13    1    3    3    0    0  0.12436511575E+02 -0.35116208696E+02 -0.11954664108E+03  0.12521666953E+03  0.00000000000E+00 0. -1.
         13    1    3    3    0    0  0.18099182960E+02  0.44834445560E+02 -0.49817490860E+02  0.69422549133E+02  0.00000000000E+00 0.  1.
          4    1    1    2  501    0 -0.10480620970E+03  0.80075739421E+02 -0.16252211585E+02  0.13289319026E+03  0.00000000000E+00 0. -1.
<scales pt_clust_5="13000.00000" pt_clust_6="13000.00000" pt_clust_7="13000.00000" pt_clust_8="13000.00000" pt_clust_9="13000.00000"></scales>
<clustering>
<clus scale="   90.407">  7  8 -1 -1</clus>
<clus scale="   92.716">  5  6 -1 -1</clus>
<clus scale="   95.918">  2  7  1 -1</clus>
<clus scale="  123.350">  5  9 -1 -1</clus>
<clus scale="  281.476">  1  5  2 -1</clus>
</clustering>
</event>
<event>
 9    1  0.3303741E-006  0.3381571E+03  0.7546771E-02  0.1111244E+00
         -3   -1    0    0    0  501 -0.00000000000E+00  0.00000000000E+00  0.34810168180E+03  0.34810168180E+03  0.00000000000E+00 0.  1.
         21   -1    0    0  501  502  0.00000000000E+00 -0.00000000000E+00 -0.14775647918E+03  0.14775647918E+03  0.00000000000E+00 0.  1.
         23    2    1    2    0    0 -0.52439643073E+02  0.77473792466E+01  0.77973724017E+01  0.10672463374E+03  0.92300652113E+02 0.  0.
         23    2    1    2    0    0 -0.26764249677E+02 -0.19527748443E+02  0.26469333799E+03  0.28135130229E+03  0.89433405968E+02 0.  0.
        -11    1    4    4    0    0  0.28721456153E+02 -0.24919220370E+02  0.13338772065E+03  0.13870174335E+03  0.00000000000E+00 0. -1.
         11    1    4    4    0    0 -0.55485705830E+02  0.53914719271E+01  0.13130561733E+03  0.14264955894E+03  0.00000000000E+00 0.  1.
        -13    1    3    3    0    0 -0.47320486915E+02 -0.30271141391E+02  0.28653349808E+02  0.63060169189E+02  0.00000000000E+00 0. -1.
         13    1    3    3    0    0 -0.51191561583E+01  0.38018520638E+02 -0.20855977406E+02  0.43664464554E+02  0.00000000000E+00 0.  1.
         -3    1    1    2    0  502  0.79203892750E+02  0.11780369196E+02 -0.72145507771E+02  0.10778222496E+03  0.00000000000E+00 0.  1.
<scales pt_clust_5="13000.00000" pt_clust_6="13000.00000" pt_clust_7="13000.00000" pt_clust_8="13000.00000" pt_clust_9="13000.00000"></scales>
<clustering>
<clus scale="   89.433">  5  6 -1 -1</clus>
<clus scale="   80.075">  5  9 -1 -1</clus>
<clus scale="   92.301">  7  8 -1 -1</clus>
<clus scale="  106.439">  1  7  2 -1</clus>
<clus scale="  338.157">  2  5  1 -1</clus>
</clustering>
</event>
<event>
 9    1  0.3303741E-006  0.2254793E+03  0.7546771E-02  0.1166948E+00
          2   -1    0    0  502    0 -0.00000000000E+00  0.00000000000E+00  0.15322587726E+03  0.15322587726E+03  0.00000000000E+00 0. -1.
         21   -1    0    0  501  502  0.00000000000E+00 -0.00000000000E+00 -0.19604508204E+03  0.19604508204E+03  0.00000000000E+00 0. -1.
         23    2    1    2    0    0 -0.12065590565E+02  0.19072063699E+02  0.49413566692E+02  0.10565687653E+03  0.90622033172E+02 0.  0.
         23    2    1    2    0    0  0.73224715526E+02 -0.61464793189E+02 -0.10338680142E+03  0.16836785719E+03  0.92299105429E+02 0.  0.
        -11    1    3    3    0    0  0.35322635405E+02 -0.97809965124E+01  0.11331238286E+02  0.38363438660E+02  0.00000000000E+00 0. -1.
         11    1    3    3    0    0 -0.47388225970E+02  0.28853060211E+02  0.38082328406E+02  0.67293437874E+02  0.00000000000E+00 0.  1.
        -13    1    4    4    0    0  0.31007383186E+02 -0.58592648361E+02 -0.11602666626E+02  0.67299168842E+02  0.00000000000E+00 0.  1.
         13    1    4    4    0    0  0.42217332340E+02 -0.28721448283E+01 -0.91784134791E+02  0.10106868835E+03  0.00000000000E+00 0. -1.
          2    1    1    2  501    0 -0.61159124961E+02  0.42392729490E+02  0.11154029943E+02  0.75246225577E+02  0.00000000000E+00 0. -1.
<scales pt_clust_5="13000.00000" pt_clust_6="13000.00000" pt_clust_7="13000.00000" pt_clust_8="13000.00000" pt_clust_9="13000.00000"></scales>
<clustering>
<clus scale="   90.622">  5  6 -1 -1</clus>
<clus scale="   92.299">  7  8 -1 -1</clus>
<clus scale="   74.415">  7  9 -1 -1</clus>
<clus scale="   93.390">  1  5  2 -1</clus>
<clus scale="  225.479">  2  5  1 -1</clus>
</clustering>
</event>
<event>
 9    1  0.3303741E-006  0.4197038E+03  0.7546771E-02  0.1049031E+00
          1   -1    0    0  502    0 -0.00000000000E+00  0.00000000000E+00  0.15233358221E+04  0.15233358221E+04  0.00000000000E+00 0. -1.
         21   -1    0    0  501  502  0.00000000000E+00 -0.00000000000E+00 -0.85290328105E+02  0.85290328105E+02  0.00000000000E+00 0.  1.
         23    2    1    2    0    0 -0.26742655466E+03  0.92498306509E+02  0.67517957248E+03  0.73792776131E+03  0.92720154077E+02 0.  0.
         23    2    1    2    0    0  0.11040971500E+03 -0.22680788079E+02  0.64823767035E+03  0.66413505773E+03  0.90324826770E+02 0.  0.
        -11    1    4    4    0    0  0.98044375118E+02 -0.53129120059E+02  0.50880636966E+03  0.52088321598E+03  0.00000000000E+00 0. -1.
         11    1    4    4    0    0  0.12365339887E+02  0.30448331980E+02  0.13943130069E+03  0.14325184174E+03  0.00000000000E+00 0.  1.
        -13    1    3    3    0    0 -0.19207934937E+03  0.24091339120E+02  0.48551747251E+03  0.52268736850E+03  0.00000000000E+00 0.  1.
         13    1    3    3    0    0 -0.75347205287E+02  0.68406967389E+02  0.18966209997E+03  0.21524039281E+03  0.00000000000E+00 0. -1.
          1    1    1    2  501    0  0.15701683965E+03 -0.69817518430E+02  0.11462825115E+03  0.20656333115E+03  0.00000000000E+00 0. -1.
<scales pt_clust_5="13000.00000" pt_clust_6="13000.00000" pt_clust_7="13000.00000" pt_clust_8="13000.00000" pt_clust_9="13000.00000"></scales>
<clustering>
<clus scale="   90.325">  5  6 -1 -1</clus>
<clus scale="   92.720">  7  8 -1 -1</clus>
<clus scale="  171.839">  5  9 -1 -1</clus>
<clus scale="  297.775">  1  7  2 -1</clus>
<clus scale="  419.704">  2  5  1 -1</clus>
</clustering>
</event>
<event>
 9    1  0.3303741E-006  0.1743118E+03  0.7546771E-02  0.1199844E+00
         -1   -1    0    0    0  501 -0.00000000000E+00  0.00000000000E+00  0.60877624400E+03  0.60877624400E+03  0.00000000000E+00 0.  1.
         21   -1    0    0  501  502  0.00000000000E+00 -0.00000000000E+00 -0.31221087801E+02  0.31221087801E+02  0.00000000000E+00 0. -1.
         23    2    1    2    0    0 -0.25709743551E+02 -0.13345225182E+02  0.26440778604E+03  0.28160386383E+03  0.92467144750E+02 0.  0.
         23    2    1    2    0    0  0.43277612254E+02 -0.41995184268E+02  0.15726601249E+03  0.19204988199E+03  0.92271400022E+02 0.  0.
        -13    1    3    3    0    0 -0.43297042647E+02  0.22809096133E+02  0.19813533560E+03  0.20408944113E+03  0.00000000000E+00 0.  1.
         13    1    3    3    0    0  0.17587299096E+02 -0.36154321315E+02  0.66272450443E+02  0.77514422703E+02  0.00000000000E+00 0. -1.
        -13    1    4    4    0    0 -0.16871466213E+02 -0.24592845087E+02  0.10895541087E+03  0.11296342753E+03  0.00000000000E+00 0.  1.
         13    1    4    4    0    0  0.60149078467E+02 -0.17402339181E+02  0.48310601621E+02  0.79086454456E+02  0.00000000000E+00 0. -1.
         -1    1    1    2    0  502 -0.17567868703E+02  0.55340409451E+02  0.15588135767E+03  0.16634358599E+03  0.00000000000E+00 0.  1.
<scales pt_clust_5="13000.00000" pt_clust_6="13000.00000" pt_clust_7="13000.00000" pt_clust_8="13000.00000" pt_clust_9="13000.00000"></scales>
<clustering>
<clus scale="   92.271">  7  8 -1 -1</clus>
<clus scale="   58.062">  7  9 -1 -1</clus>
<clus scale="   92.467">  5  6 -1 -1</clus>
<clus scale="   96.898">  1  5  2 -1</clus>
<clus scale="  174.312">  2  5  1 -1</clus>
</clustering>
</event>
<event>
 9    1  0.3303741E-006  0.7132148E+03  0.7546771E-02  0.9851461E-01
          1   -1    0    0  502    0 -0.00000000000E+00  0.00000000000E+00  0.70540499067E+03  0.70540499067E+03  0.00000000000E+00 0. -1.
         21   -1    0    0  501  502  0.00000000000E+00 -0.00000000000E+00 -0.47214393873E+03  0.47214393873E+03  0.00000000000E+00 0. -1.
         23    2    1    2    0    0  0.36461947611E+03  0.19923795166E+03  0.18179130647E+03  0.46247936033E+03  0.90531518728E+02 0.  0.
         23    2    1    2    0    0  0.10350716128E+02 -0.65513734153E+02  0.24779228414E+03  0.27119193886E+03  0.88004914276E+02 0.  0.
        -11    1    4    4    0    0 -0.45846014197E+01 -0.83445142550E+02  0.21714154453E+03  0.23266834925E+03  0.00000000000E+00 0.  1.
         11    1    4    4    0    0  0.14935317547E+02  0.17931408396E+02  0.30650739611E+02  0.38523589604E+02  0.00000000000E+00 0. -1.
        -13    1    3    3    0    0  0.27795227115E+03  0.12294055133E+03  0.96335089512E+02  0.31882956837E+03  0.00000000000E+00 0. -1.
         13    1    3    3    0    0  0.86667204966E+02  0.76297400325E+02  0.85456216959E+02  0.14364979196E+03  0.00000000000E+00 0.  1.
          1    1    1    2  501    0 -0.37497019224E+03 -0.13372421750E+03 -0.19632253867E+03  0.44387763022E+03  0.00000000000E+00 0. -1.
<scales pt_clust_5="13000.00000" pt_clust_6="13000.00000" pt_clust_7="13000.00000" pt_clust_8="13000.00000" pt_clust_9="13000.00000"></scales>
<clustering>
<clus scale="   88.005">  5  6 -1 -1</clus>
<clus scale="   90.532">  7  8 -1 -1</clus>
<clus scale="  398.102">  5  9 -1 -1</clus>
<clus scale="  425.252">  1  7  2 -1</clus>
<clus scale="  713.215">  2  5  1 -1</clus>
</clustering>
</event>
<event>
 9    1  0.3303741E-006  0.2551898E+03  0.7546771E-02  0.1141800E+00
         -1   -1    0    0    0  501 -0.00000000000E+00  0.00000000000E+00  0.26332248837E+03  0.26332248837E+03  0.00000000000E+00 0.  1.
         21   -1    0    0  501  502  0.00000000000E+00 -0.00000000000E+00 -0.13166990348E+03  0.13166990348E+03  0.00000000000E+00 0. -1.
         23    2    1    2    0    0  0.80755505795E+01 -0.71573681672E+02  0.28992074121E+02  0.11992689492E+03  0.91399744740E+02 0.  0.
         23    2    1    2    0    0  0.12635861873E+02  0.53856342862E+02  0.17120223026E+03  0.20130348766E+03  0.90292412888E+02 0.  0.
        -11    1    3    3    0    0  0.23735352230E+00 -0.41822600452E+02 -0.31300002637E+02  0.52238648626E+02  0.00000000000E+00 0. -1.
         11    1    3    3    0    0  0.78381970572E+01 -0.29751081221E+02  0.60292076757E+02  0.67688246296E+02  0.00000000000E+00 0.  1.
        -11    1    4    4    0    0  0.22155109666E+02 -0.38778079286E+01  0.23670283914E+01  0.22616124824E+02  0.00000000000E+00 0. -1.
         11    1    4    4    0    0 -0.95192477929E+01  0.57734150791E+02  0.16883520187E+03  0.17868736284E+03  0.00000000000E+00 0.  1.
         -1    1    1    2    0  502 -0.20711412453E+02  0.17717338810E+02 -0.68541719492E+02  0.73762009268E+02  0.00000000000E+00 0.  1.
<scales pt_clust_5="13000.00000" pt_clust_6="13000.00000" pt_clust_7="13000.00000" pt_clust_8="13000.00000" pt_clust_9="13000.00000"></scales>
<clustering>
<clus scale="   90.292">  7  8 -1 -1</clus>
<clus scale="   27.256">  7  9 -1 -1</clus>
<clus scale="   91.400">  5  6 -1 -1</clus>
<clus scale="  116.370">  1  5  2 -1</clus>
<clus scale="  255.190">  2  5  1 -1</clus>
</clustering>
</event>
<event>
 9    1  0.3303741E-006  0.2525076E+03  0.7546771E-02  0.1152601E+00
         -1   -1    0    0    0  501 -0.00000000000E+00  0.00000000000E+00  0.16467710003E+03  0.16467710003E+03  0.00000000000E+00 0.  1.
         21   -1    0    0  501  502  0.00000000000E+00 -0.00000000000E+00 -0.19540802881E+03  0.19540802881E+03  0.00000000000E+00 0.  1.
         23    2    1    2    0    0  0.63206133022E+01  0.25600258146E+02  0.34850858678E+02  0.99200023762E+02  0.89054696643E+02 0.  0.
         23    2    1    2    0    0  0.70307472672E+02 -0.53151518268E+02 -0.10985014282E+03  0.16819949250E+03  0.91955373905E+02 0.  0.
        -11    1    4    4    0    0  0.50675524190E+02 -0.26497072625E+02 -0.40350385135E+01  0.57327001887E+02  0.00000000000E+00 0.  1.
         11    1    4    4    0    0  0.19631948482E+02 -0.26654445643E+02 -0.10581510431E+03  0.11087249061E+03  0.00000000000E+00 0. -1.
        -11    1    3    3    0    0 -0.54324853057E+01  0.47828446699E+02  0.50354043123E+02  0.69660619212E+02  0.00000000000E+00 0. -1.
         11    1    3    3    0    0  0.11753098608E+02 -0.22228188552E+02 -0.15503184445E+02  0.29539404550E+02  0.00000000000E+00 0.  1.
         -1    1    1    2    0  502 -0.76628085974E+02  0.27551260122E+02  0.44268355365E+02  0.92685612589E+02  0.00000000000E+00 0.  1.
<scales pt_clust_5="13000.00000" pt_clust_6="13000.00000" pt_clust_7="13000.00000" pt_clust_8="13000.00000" pt_clust_9="13000.00000"></scales>
<clustering>
<clus scale="   89.055">  7  8 -1 -1</clus>
<clus scale="   91.955">  5  6 -1 -1</clus>
<clus scale="   81.431">  5  9 -1 -1</clus>
<clus scale="   92.877">  1  7  2 -1</clus>
<clus scale="  252.508">  2  5  1 -1</clus>
</clustering>
</event>
<event>
 9    1  0.3303741E-006  0.1514042E+03  0.7546771E-02  0.1217953E+00
         21   -1    0    0  501  502  0.00000000000E+00  0.00000000000E+00  0.30011207936E+02  0.30011207936E+02  0.00000000000E+00 0.  1.
          1   -1    0    0  502    0 -0.00000000000E+00 -0.00000000000E+00 -0.56133467827E+03  0.56133467827E+03  0.00000000000E+00 0. -1.
         23    2    1    2    0    0  0.40102679572E+02 -0.15561275383E+02 -0.28557678385E+03  0.30270310963E+03  0.90690103676E+02 0.  0.
         23    2    1    2    0    0 -0.69800671565E+02  0.28114009497E+02 -0.20433746999E+03  0.23616168405E+03  0.91411203314E+02 0.  0.
        -11    1    4    4    0    0  0.98412801581E+01 -0.20812226717E+02 -0.59328455380E+02  0.63638551161E+02  0.00000000000E+00 0.  1.
         11    1    4    4    0    0 -0.79641951723E+02  0.48926236214E+02 -0.14500901461E+03  0.17252313289E+03  0.00000000000E+00 0. -1.
        -13    1    3    3    0    0  0.47923491836E+02 -0.36237216577E+02 -0.26745063013E+03  0.27411610038E+03  0.00000000000E+00 0.  1.
         13    1    3    3    0    0 -0.78208122638E+01  0.20675941194E+02 -0.18126153720E+02  0.28587009242E+02  0.00000000000E+00 0. -1.
          1    1    1    2  501    0  0.29697991992E+02 -0.12552734114E+02 -0.41409216499E+02  0.52481092531E+02  0.00000000000E+00 0. -1.
<scales pt_clust_5="13000.00000" pt_clust_6="13000.00000" pt_clust_7="13000.00000" pt_clust_8="13000.00000" pt_clust_9="13000.00000"></scales>
<clustering>
<clus scale="   90.690">  7  8 -1 -1</clus>
<clus scale="   91.411">  5  6 -1 -1</clus>
<clus scale="   32.242">  5  9 -1 -1</clus>
<clus scale="  100.375">  2  7  1 -1</clus>
<clus scale="  151.404">  1  5  2 -1</clus>
</clustering>
</event>
<event>
 9    1  0.3303741E-006  0.8936793E+03  0.7546771E-02  0.9845099E-01
          1   -1    0    0  502    0 -0.00000000000E+00  0.00000000000E+00  0.12578696760E+04  0.12578696760E+04  0.00000000000E+00 0. -1.
         21   -1    0    0  501  502  0.00000000000E+00 -0.00000000000E+00 -0.26942077120E+03  0.26942077120E+03  0.00000000000E+00 0. -1.
         23    2    1    2    0    0  0.15391655313E+03 -0.12616223518E+03  0.40135302657E+03  0.45801768391E+03  0.95334841099E+02 0.  0.
         23    2    1    2    0    0 -0.11495786631E+03 -0.20550815605E+03  0.67773433155E+03  0.72324045715E+03  0.91126403804E+02 0.  0.
        -13    1    3    3    0    0  0.81018776565E+02 -0.12903117252E+02  0.11181021196E+03  0.13867968881E+03  0.00000000000E+00 0.  1.
         13    1    3    3    0    0  0.72897776561E+02 -0.11325911792E+03  0.28954281461E+03  0.31933799510E+03  0.00000000000E+00 0. -1.
        -13    1    4    4    0    0  0.13149530058E+01 -0.43679084208E+02  0.21545401072E+03  0.21984090209E+03  0.00000000000E+00 0.  1.
         13    1    4    4    0    0 -0.11627281931E+03 -0.16182907184E+03  0.46228032083E+03  0.50339955505E+03  0.00000000000E+00 0. -1.
          1    1    1    2  501    0 -0.38958686819E+02  0.33167039123E+03 -0.90638453284E+02  0.34603230616E+03  0.00000000000E+00 0. -1.
<scales pt_clust_5="13000.00000" pt_clust_6="13000.00000" pt_clust_7="13000.00000" pt_clust_8="13000.00000" pt_clust_9="13000.00000"></scales>
<clustering>
<clus scale="   91.126">  7  8 -1 -1</clus>
<clus scale="   95.335">  5  6 -1 -1</clus>
<clus scale="  220.672">  1  5  2 -1</clus>
<clus scale="  312.589">  7  9 -1 -1</clus>
<clus scale="  893.679">  2  5  1 -1</clus>
</clustering>
</event>
<event>
 9    1  0.3303741E-006  0.1513089E+03  0.7546771E-02  0.1217898E+00
          2   -1    0    0  502    0 -0.00000000000E+00  0.00000000000E+00  0.59219351711E+03  0.59219351711E+03  0.00000000000E+00 0. -1.
         21   -1    0    0  501  502  0.00000000000E+00 -0.00000000000E+00 -0.34335983461E+02  0.34335983461E+02  0.00000000000E+00 0.  1.
         23    2    1    2    0    0  0.15565336349E+01  0.51199720436E+02  0.37954361355E+03  0.39267009249E+03  0.86675329723E+02 0.  0.
         23    2    1    2    0    0 -0.33647521541E+02 -0.41548842855E+02  0.87508693368E+02  0.13706808541E+03  0.90947383545E+02 0.  0.
        -11    1    3    3    0    0 -0.16735843781E+02  0.69215745911E+02  0.22474377038E+03  0.23575553074E+03  0.00000000000E+00 0. -1.
         11    1    3    3    0    0  0.18292377416E+02 -0.18016025475E+02  0.15479984317E+03  0.15691456175E+03  0.00000000000E+00 0.  1.
        -13    1    4    4    0    0  0.11275228517E+02 -0.33468732319E+02 -0.32623227081E+01  0.35467302838E+02  0.00000000000E+00 0.  1.
         13    1    4    4    0    0 -0.44922750058E+02 -0.80801105357E+01  0.90771016076E+02  0.10160078257E+03  0.00000000000E+00 0. -1.
          2    1    1    2  501    0  0.32090987906E+02 -0.96508775813E+01  0.90805226737E+02  0.96791322677E+02  0.00000000000E+00 0. -1.
<scales pt_clust_5="13000.00000" pt_clust_6="13000.00000" pt_clust_7="13000.00000" pt_clust_8="13000.00000" pt_clust_9="13000.00000"></scales>
<clustering>
<clus scale="   86.675">  5  6 -1 -1</clus>
<clus scale="   90.947">  7  8 -1 -1</clus>
<clus scale="   33.511">  7  9 -1 -1</clus>
<clus scale="  100.680">  1  5  2 -1</clus>
<clus scale="  151.309">  2  5  1 -1</clus>
</clustering>
</event>
<event>
 9    1  0.3303741E-006  0.8412718E+03  0.7546771E-02  0.9941805E-01
         21   -1    0    0  501  502  0.00000000000E+00  0.00000000000E+00  0.23605747362E+03  0.23605747362E+03  0.00000000000E+00 0. -1.
          1   -1    0    0  502    0 -0.00000000000E+00 -0.00000000000E+00 -0.12053837628E+04  0.12053837628E+04  0.00000000000E+00 0. -1.
         23    2    1    2    0    0 -0.14269964122E+03  0.96947274123E+02 -0.33817230453E+03  0.38973143298E+03  0.88136943059E+02 0.  0.
         23    2    1    2    0    0  0.34415884472E+03  0.12012060193E+03 -0.65463325222E+03  0.75463144769E+03  0.89719883626E+02 0.  0.
        -11    1    3    3    0    0 -0.10796645077E+03  0.28181317416E+02 -0.24216178899E+03  0.26663321846E+03  0.00000000000E+00 0. -1.
         11    1    3    3    0    0 -0.34733190454E+02  0.68765956707E+02 -0.96010515548E+02  0.12309821452E+03  0.00000000000E+00 0.  1.
        -13    1    4    4    0    0  0.24949564251E+03  0.73214790745E+02 -0.53624247158E+03  0.59595676818E+03  0.00000000000E+00 0. -1.
         13    1    4    4    0    0  0.94663202210E+02  0.46905811183E+02 -0.11839078064E+03  0.15867467951E+03  0.00000000000E+00 0.  1.
          1    1    1    2  501    0 -0.20145920350E+03 -0.21706787605E+03  0.23479267530E+02  0.29707835581E+03  0.00000000000E+00 0. -1.
<scales pt_clust_5="13000.00000" pt_clust_6="13000.00000" pt_clust_7="13000.00000" pt_clust_8="13000.00000" pt_clust_9="13000.00000"></scales>
<clustering>
<clus scale="   88.137">  5  6 -1 -1</clus>
<clus scale="   89.720">  7  8 -1 -1</clus>
<clus scale="  193.727">  2  5  1 -1</clus>
<clus scale="  301.656">  7  9 -1 -1</clus>
<clus scale="  841.272">  1  5  2 -1</clus>
</clustering>
</event>
<event>
 9    1  0.3303741E-006  0.3029184E+03  0.7546771E-02  0.1130838E+00
          1   -1    0    0  502    0 -0.00000000000E+00  0.00000000000E+00  0.15576071880E+03  0.15576071880E+03  0.00000000000E+00 0. -1.
         21   -1    0    0  501  502  0.00000000000E+00 -0.00000000000E+00 -0.39793037458E+03  0.39793037458E+03  0.00000000000E+00 0.  1.
         23    2    1    2    0    0  0.39017711800E+01 -0.11233920257E+02  0.73037842638E+02  0.11652369726E+03  0.90010114897E+02 0.  0.
         23    2    1    2    0    0  0.13494440138E+03  0.57958193892E+01 -0.18847388300E+03  0.24910027551E+03  0.91021753991E+02 0.  0.
        -11    1    4    4    0    0 -0.28419260128E+01 -0.20941099308E+02 -0.14795536189E+02  0.25797559474E+02  0.00000000000E+00 0. -1.
         11    1    4    4    0    0  0.13778632739E+03  0.26736918697E+02 -0.17367834681E+03  0.22330271604E+03  0.00000000000E+00 0.  1.
        -13    1    3    3    0    0  0.29523668467E+02 -0.36062880863E+02  0.16058273141E+02  0.49295501946E+02  0.00000000000E+00 0. -1.
         13    1    3    3    0    0 -0.25621897287E+02  0.24828960606E+02  0.56979569497E+02  0.67228195316E+02  0.00000000000E+00 0.  1.
          1    1    1    2  501    0 -0.13884617256E+03  0.54381008678E+01 -0.12673361542E+03  0.18806712061E+03  0.00000000000E+00 0. -1.
<scales pt_clust_5="13000.00000" pt_clust_6="13000.00000" pt_clust_7="13000.00000" pt_clust_8="13000.00000" pt_clust_9="13000.00000"></scales>
<clustering>
<clus scale="   90.010">  7  8 -1 -1</clus>
<clus scale="   90.792">  1  7  2 -1</clus>
<clus scale="   91.022">  5  6 -1 -1</clus>
<clus scale="  136.884">  5  9 -1 -1</clus>
<clus scale="  302.918">  2  5  1 -1</clus>
</clustering>
</event>
<event>
 9    1  0.3303741E-006  0.4048738E+03  0.7546771E-02  0.1095648E+00
          3   -1    0    0  502    0 -0.00000000000E+00  0.00000000000E+00  0.32011899718E+03  0.32011899718E+03  0.00000000000E+00 0. -1.
         21   -1    0    0  501  502  0.00000000000E+00 -0.00000000000E+00 -0.21709250951E+03  0.21709250951E+03  0.00000000000E+00 0.  1.
         23    2    1    2    0    0  0.21837254931E+02  0.13061942070E+02  0.94302157622E+02  0.13224373712E+03  0.89151719225E+02 0.  0.
         23    2    1    2    0    0 -0.10948277817E+03 -0.17172859913E+03 -0.75971620900E+00  0.22345525501E+03  0.91948264527E+02 0.  0.
        -11    1    4    4    0    0 -0.83518216256E+02 -0.50595079556E+02 -0.14852763415E+02  0.98771246337E+02  0.00000000000E+00 0.  1.
         11    1    4    4    0    0 -0.25964561910E+02 -0.12113351958E+03  0.14093047206E+02  0.12468400868E+03  0.00000000000E+00 0. -1.
        -13    1    3    3    0    0  0.21401926944E+01  0.39415795520E+02  0.85400281644E+01  0.40387094997E+02  0.00000000000E+00 0.  1.
         13    1    3    3    0    0  0.19697062237E+02 -0.26353853449E+02  0.85762129458E+02  0.91856642120E+02  0.00000000000E+00 0. -1.
          3    1    1    2  501    0  0.87645523235E+02  0.15866665706E+03  0.94840462571E+01  0.18151251455E+03  0.00000000000E+00 0. -1.
<scales pt_clust_5="13000.00000" pt_clust_6="13000.00000" pt_clust_7="13000.00000" pt_clust_8="13000.00000" pt_clust_9="13000.00000"></scales>
<clustering>
<clus scale="   89.152">  7  8 -1 -1</clus>
<clus scale="   91.948">  5  6 -1 -1</clus>
<clus scale="   92.712">  1  7  2 -1</clus>
<clus scale="  191.509">  5  9 -1 -1</clus>
<clus scale="  404.874">  2  5  1 -1</clus>
</clustering>
</event>
<event>
 9    1  0.3303741E-006  0.3258436E+03  0.7546771E-02  0.1118937E+00
         21   -1    0    0  501  502  0.00000000000E+00  0.00000000000E+00  0.10026358787E+03  0.10026358787E+03  0.00000000000E+00 0. -1.
          1   -1    0    0  502    0 -0.00000000000E+00 -0.00000000000E+00 -0.44789380047E+03  0.44789380047E+03  0.00000000000E+00 0. -1.
         23    2    1    2    0    0  0.34743827550E+02 -0.25082500375E+02 -0.81729830489E+02  0.12758981125E+03  0.88108622540E+02 0.  0.
         23    2    1    2    0    0 -0.44001855975E+02  0.64493332102E+02 -0.32668860805E+03  0.34753242692E+03  0.89206434280E+02 0.  0.
        -11    1    3    3    0    0  0.60522954163E+01  0.30701880382E+02 -0.45272154146E+02  0.55034568044E+02  0.00000000000E+00 0.  1.
         11    1    3    3    0    0  0.28691532134E+02 -0.55784380757E+02 -0.36457676343E+02  0.72555243208E+02  0.00000000000E+00 0. -1.
        -11    1    4    4    0    0 -0.15665128206E+02  0.80442460333E+02 -0.18806001286E+03  0.20514130277E+03  0.00000000000E+00 0. -1.
         11    1    4    4    0    0 -0.28336727769E+02 -0.15949128231E+02 -0.13862859519E+03  0.14239112415E+03  0.00000000000E+00 0.  1.
          1    1    1    2  501    0  0.92580284250E+01 -0.39410831727E+02  0.60788225934E+02  0.73035150167E+02  0.00000000000E+00 0. -1.
<scales pt_clust_5="13000.00000" pt_clust_6="13000.00000" pt_clust_7="13000.00000" pt_clust_8="13000.00000" pt_clust_9="13000.00000"></scales>
<clustering>
<clus scale="   88.109">  5  6 -1 -1</clus>
<clus scale="   89.206">  7  8 -1 -1</clus>
<clus scale="   40.484">  7  9 -1 -1</clus>
<clus scale="   97.977">  2  5  1 -1</clus>
<clus scale="  325.844">  1  5  2 -1</clus>
</clustering>
</event>
<event>
 9    1  0.5074831E-006  0.4120215E+03  0.7546771E-02  0.1068446E+00
          2   -1    0    0  502    0 -0.00000000000E+00  0.00000000000E+00  0.54229563310E+03  0.54229563310E+03  0.00000000000E+00 0. -1.
         21   -1    0    0  501  502  0.00000000000E+00 -0.00000000000E+00 -0.16347610003E+03  0.16347610003E+03  0.00000000000E+00 0. -1.
         23    2    1    2    0    0 -0.42054746117E+02 -0.15331834332E+03  0.98468310126E+02  0.20741591132E+03  0.89723107948E+02 0.  0.
         23    2    1    2    0    0  0.27367081473E+01 -0.22703789263E+02  0.30373094675E+03  0.31648688342E+03  0.85956429338E+02 0.  0.
        -11    1    4    4    0    0 -0.36763660254E+02 -0.30021186129E+02  0.13716525338E+03  0.14514525506E+03  0.00000000000E+00 0.  1.
         11    1    4    4    0    0  0.39500368401E+02  0.73173968658E+01  0.16656569337E+03  0.17134162836E+03  0.00000000000E+00 0. -1.
        -13    1    3    3    0    0 -0.10692623991E+02 -0.15070108956E+03  0.81780878352E+02  0.17179424515E+03  0.00000000000E+00 0. -1.
         13    1    3    3    0    0 -0.31362122126E+02 -0.26172537594E+01  0.16687431773E+02  0.35621666169E+02  0.00000000000E+00 0.  1.
          2    1    1    2  501    0  0.39318037970E+02  0.17602213258E+03 -0.23379723814E+02  0.18186893839E+03  0.00000000000E+00 0. -1.
<scales pt_clust_5="13000.00000" pt_clust_6="13000.00000" pt_clust_7="13000.00000" pt_clust_8="13000.00000" pt_clust_9="13000.00000"></scales>
<clustering>
<clus scale="   85.956">  5  6 -1 -1</clus>
<clus scale="   89.723">  7  8 -1 -1</clus>
<clus scale="  180.360">  5  9 -1 -1</clus>
<clus scale="  182.552">  1  7  2 -1</clus>
<clus scale="  412.022">  2  5  1 -1</clus>
</clustering>
</event>
<event>
 9    1  0.3303741E-006  0.4345897E+03  0.7546771E-02  0.1067585E+00
         -1   -1    0    0    0  501 -0.00000000000E+00  0.00000000000E+00  0.29603167427E+03  0.29603167427E+03  0.00000000000E+00 0.  1.
         21   -1    0    0  501  502  0.00000000000E+00 -0.00000000000E+00 -0.32521026432E+03  0.32521026432E+03  0.00000000000E+00 0. -1.
         23    2    1    2    0    0  0.50039099078E+02  0.12136449945E+03  0.72331820166E+02  0.17495437767E+03  0.90243497784E+02 0.  0.
         23    2    1    2    0    0 -0.21449382737E+03 -0.12846421967E+03 -0.91043088592E+02  0.28134718229E+03  0.91415180835E+02 0.  0.
        -13    1    4    4    0    0 -0.66252238808E+02 -0.52374179372E+02  0.12193274401E+02  0.85329301840E+02  0.00000000000E+00 0.  1.
         13    1    4    4    0    0 -0.14824158856E+03 -0.76090040297E+02 -0.10323636299E+03  0.19601788045E+03  0.00000000000E+00 0. -1.
        -13    1    3    3    0    0 -0.11168301718E+02  0.43608956951E+02 -0.10131774725E+02  0.46142441946E+02  0.00000000000E+00 0.  1.
         13    1    3    3    0    0  0.61207400796E+02  0.77755542499E+02  0.82463594891E+02  0.12881193572E+03  0.00000000000E+00 0. -1.
         -1    1    1    2    0  502  0.16445472829E+03  0.70997202186E+01 -0.10467321624E+02  0.16494037864E+03  0.00000000000E+00 0.  1.
<scales pt_clust_5="13000.00000" pt_clust_6="13000.00000" pt_clust_7="13000.00000" pt_clust_8="13000.00000" pt_clust_9="13000.00000"></scales>
<clustering>
<clus scale="   90.243">  7  8 -1 -1</clus>
<clus scale="   91.415">  5  6 -1 -1</clus>
<clus scale="  159.302">  1  7  2 -1</clus>
<clus scale="  196.726">  5  9 -1 -1</clus>
<clus scale="  434.590">  2  5  1 -1</clus>
</clustering>
</event>
<event>
 9    1  0.3303741E-006  0.1389292E+03  0.7546771E-02  0.1224847E+00
         21   -1    0    0  501  502  0.00000000000E+00  0.00000000000E+00  0.28175196127E+02  0.28175196127E+02  0.00000000000E+00 0.  1.
          1   -1    0    0  502    0 -0.00000000000E+00 -0.00000000000E+00 -0.62293505455E+03  0.62293505455E+03  0.00000000000E+00 0. -1.
         23    2    1    2    0    0 -0.36553444085E+01 -0.65020812699E+02 -0.37158656691E+03  0.38822694352E+03  0.91665235176E+02 0.  0.
         23    2    1    2    0    0  0.15439780417E+02  0.26669423914E+02 -0.17781084100E+03  0.20232380030E+03  0.91479943163E+02 0.  0.
        -13    1    3    3    0    0  0.29384532238E+02 -0.37036458381E+01 -0.42195606296E+02  0.51552273646E+02  0.00000000000E+00 0.  1.
         13    1    3    3    0    0 -0.33039876646E+02 -0.61317166861E+02 -0.32939096062E+03  0.33667466988E+03  0.00000000000E+00 0. -1.
        -13    1    4    4    0    0  0.73499364749E+01  0.55841612763E+02 -0.67387479257E+02  0.87825848375E+02  0.00000000000E+00 0.  1.
         13    1    4    4    0    0  0.80898439422E+01 -0.29172188849E+02 -0.11042336174E+03  0.11449795193E+03  0.00000000000E+00 0. -1.
          1    1    1    2  501    0 -0.11784436009E+02  0.38351388785E+02 -0.45362450515E+02  0.60559506855E+02  0.00000000000E+00 0. -1.
<scales pt_clust_5="13000.00000" pt_clust_6="13000.00000" pt_clust_7="13000.00000" pt_clust_8="13000.00000" pt_clust_9="13000.00000"></scales>
<clustering>
<clus scale="   91.480">  7  8 -1 -1</clus>
<clus scale="   40.121">  7  9 -1 -1</clus>
<clus scale="   91.665">  5  6 -1 -1</clus>
<clus scale="  112.444">  2  5  1 -1</clus>
<clus scale="  138.929">  1  5  2 -1</clus>
</clustering>
</event>
<event>
 9    1  0.3303741E-006  0.4872625E+03  0.7546771E-02  0.1047863E+00
         -3   -1    0    0    0  501 -0.00000000000E+00  0.00000000000E+00  0.11072137700E+03  0.11072137700E+03  0.00000000000E+00 0.  1.
         21   -1    0    0  501  502  0.00000000000E+00 -0.00000000000E+00 -0.11924913433E+04  0.11924913433E+04  0.00000000000E+00 0. -1.
         23    2    1    2    0    0  0.37119099361E+02 -0.17112923164E+03 -0.53911380945E+03  0.57389766331E+03  0.89731749996E+02 0.  0.
         23    2    1    2    0    0  0.13596734787E+03 -0.59079409443E+02 -0.16350850700E+03  0.25317655084E+03  0.12403966192E+03 0.  0.
        -11    1    3    3    0    0  0.32185725528E+02 -0.11538262673E+02 -0.62370993242E+02  0.71128005956E+02  0.00000000000E+00 0.  1.
         11    1    3    3    0    0  0.49333738333E+01 -0.15959096896E+03 -0.47674281621E+03  0.50276965736E+03  0.00000000000E+00 0. -1.
        -13    1    4    4    0    0  0.15906688803E+03 -0.60423861563E+02 -0.14413954636E+03  0.22300118103E+03  0.00000000000E+00 0. -1.
         13    1    4    4    0    0 -0.23099540164E+02  0.13444521196E+01 -0.19368960635E+02  0.30175369813E+02  0.00000000000E+00 0.  1.
         -3    1    1    2    0  502 -0.17308644723E+03  0.23020864108E+03 -0.37914764981E+03  0.47613850611E+03  0.00000000000E+00 0.  1.
<scales pt_clust_5="13000.00000" pt_clust_6="13000.00000" pt_clust_7="13000.00000" pt_clust_8="13000.00000" pt_clust_9="13000.00000"></scales>
<clustering>
<clus scale="   89.732">  5  6 -1 -1</clus>
<clus scale="  124.040">  7  8 -1 -1</clus>
<clus scale="  196.761">  1  5  2 -1</clus>
<clus scale="  208.845">  7  9 -1 -1</clus>
<clus scale="  487.263">  2  5  1 -1</clus>
</clustering>
</event>
<event>
 9    1  0.3303741E-006  0.1633761E+03  0.7546771E-02  0.1200940E+00
         21   -1    0    0  501  502  0.00000000000E+00  0.00000000000E+00  0.12358272787E+02  0.12358272787E+02  0.00000000000E+00 0.  1.
          1   -1    0    0  502    0 -0.00000000000E+00 -0.00000000000E+00 -0.15672869650E+04  0.15672869650E+04  0.00000000000E+00 0. -1.
         23    2    1    2    0    0 -0.58557620778E+02  0.25711804542E+02 -0.62758673908E+03  0.63802171670E+03  0.95480385805E+02 0.  0.
         23    2    1    2    0    0  0.36189405736E+02 -0.65119410350E+02 -0.65346590060E+03  0.66402419004E+03  0.91434298972E+02 0.  0.
        -13    1    3    3    0    0 -0.71384522306E+02 -0.14376061547E+02 -0.40217569577E+03  0.40871470666E+03  0.00000000000E+00 0. -1.
         13    1    3    3    0    0  0.12826901528E+02  0.40087866088E+02 -0.22541104331E+03  0.22930701005E+03  0.00000000000E+00 0.  1.
        -13    1    4    4    0    0  0.43593143015E+02 -0.85166643006E+02 -0.56274615291E+03  0.57082129586E+03  0.00000000000E+00 0.  1.
         13    1    4    4    0    0 -0.74037372787E+01  0.20047232655E+02 -0.90719747690E+02  0.93202894181E+02  0.00000000000E+00 0. -1.
          1    1    1    2  501    0  0.22368215042E+02  0.39407605809E+02 -0.27387605250E+03  0.27759933101E+03  0.00000000000E+00 0. -1.
<scales pt_clust_5="13000.00000" pt_clust_6="13000.00000" pt_clust_7="13000.00000" pt_clust_8="13000.00000" pt_clust_9="13000.00000"></scales>
<clustering>
<clus scale="   91.434">  7  8 -1 -1</clus>
<clus scale="   45.313">  7  9 -1 -1</clus>
<clus scale="   95.480">  5  6 -1 -1</clus>
<clus scale="  114.920">  2  5  1 -1</clus>
<clus scale="  163.376">  1  5  2 -1</clus>
</clustering>
</event>
<event>
 9    1  0.3303741E-006  0.1887014E+03  0.7546771E-02  0.1166938E+00
          2   -1    0    0  502    0 -0.00000000000E+00  0.00000000000E+00  0.21714747652E+03  0.21714747652E+03  0.00000000000E+00 0. -1.
         21   -1    0    0  501  502  0.00000000000E+00 -0.00000000000E+00 -0.14130562742E+03  0.14130562742E+03  0.00000000000E+00 0. -1.
         23    2    1    2    0    0 -0.86768089803E+02 -0.97252527771E+02  0.55070096991E+02  0.16861191834E+03  0.91708821042E+02 0.  0.
         23    2    1    2    0    0  0.40361617665E+02  0.10274470191E+03  0.59085602763E+01  0.14080406594E+03  0.87208600204E+02 0.  0.
        -11    1    3    3    0    0 -0.23813369808E+02 -0.78409939446E+01 -0.23181763774E+02  0.34146038413E+02  0.00000000000E+00 0.  1.
         11    1    3    3    0    0 -0.62954719995E+02 -0.89411533826E+02  0.78251860764E+02  0.13446587992E+03  0.00000000000E+00 0. -1.
        -11    1    4    4    0    0  0.16036145720E+02 -0.14008506384E+02 -0.12437846006E+01  0.21329398041E+02  0.00000000000E+00 0.  1.
         11    1    4    4    0    0  0.24325471946E+02  0.11675320829E+03  0.71523448769E+01  0.11947466790E+03  0.00000000000E+00 0. -1.
          2    1    1    2  501    0  0.46406472137E+02 -0.54921741376E+01  0.14863191839E+02  0.49037119661E+02  0.00000000000E+00 0. -1.
<scales pt_clust_5="13000.00000" pt_clust_6="13000.00000" pt_clust_7="13000.00000" pt_clust_8="13000.00000" pt_clust_9="13000.00000"></scales>
<clustering>
<clus scale="   87.209">  7  8 -1 -1</clus>
<clus scale="   46.730">  7  9 -1 -1</clus>
<clus scale="   91.709">  5  6 -1 -1</clus>
<clus scale="  159.365">  1  5  2 -1</clus>
<clus scale="  188.701">  2  5  1 -1</clus>
</clustering>
</event>
<event>
 9    1  0.3303741E-006  0.2580622E+03  0.7546771E-02  0.1113651E+00
          3   -1    0    0  502    0 -0.00000000000E+00  0.00000000000E+00  0.17475975651E+03  0.17475975651E+03  0.00000000000E+00 0. -1.
         21   -1    0    0  501  502  0.00000000000E+00 -0.00000000000E+00 -0.43787458318E+03  0.43787458318E+03  0.00000000000E+00 0.  1.
         23    2    1    2    0    0  0.17139133243E+03 -0.11410691450E+03 -0.27351010069E+03  0.35436286849E+03  0.91487106291E+02 0.  0.
         23    2    1    2    0    0 -0.10513350349E+03  0.18458280790E+02  0.14908981452E+02  0.14182777415E+03  0.92190444770E+02 0.  0.
        -13    1    3    3    0    0  0.13034857384E+03 -0.34272110739E+02 -0.14968157200E+03  0.20141971421E+03  0.00000000000E+00 0.  1.
         13    1    3    3    0    0  0.41042758595E+02 -0.79834803762E+02 -0.12382852868E+03  0.15294315428E+03  0.00000000000E+00 0. -1.
        -13    1    4    4    0    0 -0.66583489554E+02 -0.28567679491E+02 -0.15113270065E+02  0.74012730829E+02  0.00000000000E+00 0.  1.
         13    1    4    4    0    0 -0.38550013940E+02  0.47025960280E+02  0.30022251517E+02  0.67815043325E+02  0.00000000000E+00 0. -1.
          3    1    1    2  501    0 -0.66257828937E+02  0.95648633712E+02 -0.45137074294E+01  0.11644369704E+03  0.00000000000E+00 0. -1.
<scales pt_clust_5="13000.00000" pt_clust_6="13000.00000" pt_clust_7="13000.00000" pt_clust_8="13000.00000" pt_clust_9="13000.00000"></scales>
<clustering>
<clus scale="   91.487">  5  6 -1 -1</clus>
<clus scale="   92.190">  7  8 -1 -1</clus>
<clus scale="  116.356">  7  9 -1 -1</clus>
<clus scale="  225.312">  1  5  2 -1</clus>
<clus scale="  258.062">  2  5  1 -1</clus>
</clustering>
</event>
<event>
 9    1  0.3303741E-006  0.5488427E+03  0.7546771E-02  0.1047623E+00
          1   -1    0    0  502    0 -0.00000000000E+00  0.00000000000E+00  0.52732050833E+03  0.52732050833E+03  0.00000000000E+00 0. -1.
         21   -1    0    0  501  502  0.00000000000E+00 -0.00000000000E+00 -0.12380658178E+04  0.12380658178E+04  0.00000000000E+00 0. -1.
         23    2    1    2    0    0  0.74823383159E+02  0.71937186336E+02  0.45567219450E+03  0.47629436648E+03  0.91900365907E+02 0.  0.
         23    2    1    2    0    0  0.14249653442E+03  0.12402323165E+03 -0.24615002786E+03  0.32342086678E+03  0.91237034929E+02 0.  0.
        -11    1    4    4    0    0  0.14292854603E+03  0.78000369585E+02 -0.20397170479E+03  0.26099249659E+03  0.00000000000E+00 0. -1.
         11    1    4    4    0    0 -0.43201161013E+00  0.46022862065E+02 -0.42178323076E+02  0.62428370186E+02  0.00000000000E+00 0.  1.
        -13    1    3    3    0    0  0.78035743814E+01  0.27258429346E+02  0.23927588995E+02  0.37100502135E+02  0.00000000000E+00 0.  1.
         13    1    3    3    0    0  0.67019808778E+02  0.44678756990E+02  0.43174460551E+03  0.43919386435E+03  0.00000000000E+00 0. -1.
          1    1    1    2  501    0 -0.21731991758E+03 -0.19596041799E+03 -0.92026747612E+03  0.96567109286E+03  0.00000000000E+00 0. -1.
<scales pt_clust_5="13000.00000" pt_clust_6="13000.00000" pt_clust_7="13000.00000" pt_clust_8="13000.00000" pt_clust_9="13000.00000"></scales>
<clustering>
<clus scale="   91.237">  5  6 -1 -1</clus>
<clus scale="   91.900">  7  8 -1 -1</clus>
<clus scale="  138.633">  1  7  2 -1</clus>
<clus scale="  254.230">  5  9 -1 -1</clus>
<clus scale="  548.843">  2  5  1 -1</clus>
</clustering>
</event>
<event>
 9    1  0.3303741E-006  0.2376099E+03  0.7546771E-02  0.1159817E+00
          1   -1    0    0  502    0 -0.00000000000E+00  0.00000000000E+00  0.10916252380E+03  0.10916252380E+03  0.00000000000E+00 0. -1.
         21   -1    0    0  501  502  0.00000000000E+00 -0.00000000000E+00 -0.25696861359E+03  0.25696861359E+03  0.00000000000E+00 0.  1.
         23    2    1    2    0    0  0.24239768235E+01 -0.19990332848E+02 -0.19604612826E+02  0.96142051410E+02  0.91942722030E+02 0.  0.
         23    2    1    2    0    0 -0.21548681817E+02  0.51342562236E+02  0.27800098522E+02  0.10972303162E+03  0.90365335192E+02 0.  0.
        -11    1    3    3    0    0 -0.29900685567E+02  0.24222679690E+02 -0.14550445271E+02  0.41140061574E+02  0.00000000000E+00 0.  1.
         11    1    3    3    0    0  0.32324662391E+02 -0.44213012537E+02 -0.50541675555E+01  0.55001989836E+02  0.00000000000E+00 0. -1.
        -13    1    4    4    0    0 -0.10749332748E+02 -0.24033370826E+02  0.20229140127E+02  0.33201945396E+02  0.00000000000E+00 0.  1.
         13    1    4    4    0    0 -0.10799349069E+02  0.75375933063E+02  0.75709583952E+01  0.76521086221E+02  0.00000000000E+00 0. -1.
          1    1    1    2  501    0  0.19124704994E+02 -0.31352229389E+02 -0.15600157549E+03  0.16026605437E+03  0.00000000000E+00 0. -1.
<scales pt_clust_5="13000.00000" pt_clust_6="13000.00000" pt_clust_7="13000.00000" pt_clust_8="13000.00000" pt_clust_9="13000.00000"></scales>
<clustering>
<clus scale="   90.365">  7  8 -1 -1</clus>
<clus scale="   36.725">  7  9 -1 -1</clus>
<clus scale="   91.943">  5  6 -1 -1</clus>
<clus scale="   94.122">  1  5  2 -1</clus>
<clus scale="  237.610">  2  5  1 -1</clus>
</clustering>
</event>
<event>
 9    1  0.3303741E-006  0.2007871E+03  0.7546771E-02  0.1176484E+00
         -1   -1    0    0    0  501 -0.00000000000E+00  0.00000000000E+00  0.31755564394E+03  0.31755564394E+03  0.00000000000E+00 0.  1.
         21   -1    0    0  501  502  0.00000000000E+00 -0.00000000000E+00 -0.74315646413E+02  0.74315646413E+02  0.00000000000E+00 0.  1.
         23    2    1    2    0    0 -0.33980532195E+02 -0.27938798975E+02  0.87549924864E+02  0.13779477580E+03  0.96887346115E+02 0.  0.
         23    2    1    2    0    0 -0.10655391180E+02  0.41641542697E+02  0.17597748080E+03  0.20316767672E+03  0.91986279824E+02 0.  0.
        -11    1    4    4    0    0 -0.25733876483E+01  0.66753947115E+02  0.83133332933E+02  0.10664831374E+03  0.00000000000E+00 0.  1.
         11    1    4    4    0    0 -0.80820035320E+01 -0.25112404418E+02  0.92844147865E+02  0.96519362977E+02  0.00000000000E+00 0. -1.
        -11    1    3    3    0    0 -0.61616763533E+02  0.12708450976E+01  0.71764463287E+02  0.94595870874E+02  0.00000000000E+00 0.  1.
         11    1    3    3    0    0  0.27636231338E+02 -0.29209644073E+02  0.15785461577E+02  0.43198904924E+02  0.00000000000E+00 0. -1.
         -1    1    1    2    0  502  0.44635923375E+02 -0.13702743722E+02 -0.20287408134E+02  0.50908837836E+02  0.00000000000E+00 0.  1.
<scales pt_clust_5="13000.00000" pt_clust_6="13000.00000" pt_clust_7="13000.00000" pt_clust_8="13000.00000" pt_clust_9="13000.00000"></scales>
<clustering>
<clus scale="   91.986">  5  6 -1 -1</clus>
<clus scale="   46.692">  5  9 -1 -1</clus>
<clus scale="   96.887">  7  8 -1 -1</clus>
<clus scale="  106.407">  1  7  2 -1</clus>
<clus scale="  200.787">  2  5  1 -1</clus>
</clustering>
</event>
<event>
 9    1  0.3303741E-006  0.2276069E+03  0.7546771E-02  0.1162620E+00
         21   -1    0    0  501  502  0.00000000000E+00  0.00000000000E+00  0.28011192991E+02  0.28011192991E+02  0.00000000000E+00 0. -1.
          1   -1    0    0  502    0 -0.00000000000E+00 -0.00000000000E+00 -0.10101486681E+04  0.10101486681E+04  0.00000000000E+00 0. -1.
         23    2    1    2    0    0 -0.86263711349E+01 -0.44546497591E+02 -0.41719675729E+03  0.42909260550E+03  0.89490363022E+02 0.  0.
         23    2    1    2    0    0 -0.77297140753E+02 -0.10635430910E+02 -0.38318194830E+03  0.40058669193E+03  0.86909906740E+02 0.  0.
        -13    1    3    3    0    0 -0.70531934436E+00 -0.71694389888E+02 -0.28220931159E+03  0.29117465303E+03  0.00000000000E+00 0. -1.
         13    1    3    3    0    0 -0.79210517905E+01  0.27147892297E+02 -0.13498744570E+03  0.13791795247E+03  0.00000000000E+00 0.  1.
        -13    1    4    4    0    0 -0.56916998646E+02 -0.36182954281E+02 -0.33892953215E+03  0.34557485250E+03  0.00000000000E+00 0. -1.
         13    1    4    4    0    0 -0.20380142106E+02  0.25547523371E+02 -0.44252416151E+02  0.55011839434E+02  0.00000000000E+00 0.  1.
          1    1    1    2  501    0  0.85923511887E+02  0.55181928501E+02 -0.18175876953E+03  0.20848056367E+03  0.00000000000E+00 0. -1.
<scales pt_clust_5="13000.00000" pt_clust_6="13000.00000" pt_clust_7="13000.00000" pt_clust_8="13000.00000" pt_clust_9="13000.00000"></scales>
<clustering>
<clus scale="   86.910">  7  8 -1 -1</clus>
<clus scale="   89.490">  5  6 -1 -1</clus>
<clus scale="  100.336">  2  5  1 -1</clus>
<clus scale="   92.350">  7  9 -1 -1</clus>
<clus scale="  227.607">  1  5  2 -1</clus>
</clustering>
</event>
<event>
 9    1  0.3303741E-006  0.2250135E+03  0.7546771E-02  0.1164818E+00
          4   -1    0    0  502    0 -0.00000000000E+00  0.00000000000E+00  0.65154167337E+02  0.65154167337E+02  0.00000000000E+00 0. -1.
         21   -1    0    0  501  502  0.00000000000E+00 -0.00000000000E+00 -0.41462226495E+03  0.41462226495E+03  0.00000000000E+00 0.  1.
         23    2    1    2    0    0 -0.36756647446E+02 -0.86338737772E+01 -0.70096601410E+02  0.12105714080E+03  0.91190475941E+02 0.  0.
         23    2    1    2    0    0 -0.71259639890E+02  0.99746704466E+01 -0.11638738390E+03  0.16318633536E+03  0.88917526904E+02 0.  0.
        -11    1    4    4    0    0 -0.21871760456E+02 -0.38890605643E+02 -0.51235354399E+02  0.67940522908E+02  0.00000000000E+00 0.  1.
         11    1    4    4    0    0 -0.49387879434E+02  0.48865276089E+02 -0.65152029499E+02  0.95245812454E+02  0.00000000000E+00 0. -1.
        -11    1    3    3    0    0 -0.55959372647E+02  0.21413619352E+02 -0.28749503489E+02  0.66456966765E+02  0.00000000000E+00 0.  1.
         11    1    3    3    0    0  0.19202725201E+02 -0.30047493129E+02 -0.41347097921E+02  0.54600174038E+02  0.00000000000E+00 0. -1.
          4    1    1    2  501    0  0.10801628734E+03 -0.13407966695E+01 -0.16298411230E+03  0.19553295612E+03  0.00000000000E+00 0. -1.
<scales pt_clust_5="13000.00000" pt_clust_6="13000.00000" pt_clust_7="13000.00000" pt_clust_8="13000.00000" pt_clust_9="13000.00000"></scales>
<clustering>
<clus scale="   88.918">  5  6 -1 -1</clus>
<clus scale="   91.190">  7  8 -1 -1</clus>
<clus scale="   98.698">  1  7  2 -1</clus>
<clus scale="   93.067">  5  9 -1 -1</clus>
<clus scale="  225.014">  2  5  1 -1</clus>
</clustering>
</event>
<event>
 9    1  0.3303741E-006  0.3870906E+03  0.7546771E-02  0.1090397E+00
         21   -1    0    0  501  502  0.00000000000E+00  0.00000000000E+00  0.12201294473E+03  0.12201294473E+03  0.00000000000E+00 0. -1.
          2   -1    0    0  502    0 -0.00000000000E+00 -0.00000000000E+00 -0.57694615199E+03  0.57694615199E+03  0.00000000000E+00 0. -1.
         23    2    1    2    0    0 -0.67229029706E+02  0.44353296579E+02 -0.32613805153E+02  0.12607793300E+03  0.91351122329E+02 0.  0.
         23    2    1    2    0    0  0.41631513874E+01 -0.15528241528E+03 -0.40495983117E+03  0.44410255880E+03  0.95418329190E+02 0.  0.
        -11    1    3    3    0    0 -0.16934696168E+02 -0.22384487376E+02 -0.31923084169E+02  0.42508028797E+02  0.00000000000E+00 0.  1.
         11    1    3    3    0    0 -0.50294333538E+02  0.66737783955E+02 -0.69072098408E+00  0.83569904204E+02  0.00000000000E+00 0. -1.
        -13    1    4    4    0    0 -0.22703794251E+02 -0.14086367733E+02 -0.14137301096E+03  0.14387569725E+03  0.00000000000E+00 0.  1.
         13    1    4    4    0    0  0.26866945639E+02 -0.14119604754E+03 -0.26358682020E+03  0.30022686155E+03  0.00000000000E+00 0. -1.
          2    1    1    2  501    0  0.63065878318E+02  0.11092911870E+03 -0.17359570943E+02  0.12877860493E+03  0.00000000000E+00 0. -1.
<scales pt_clust_5="13000.00000" pt_clust_6="13000.00000" pt_clust_7="13000.00000" pt_clust_8="13000.00000" pt_clust_9="13000.00000"></scales>
<clustering>
<clus scale="   91.351">  5  6 -1 -1</clus>
<clus scale="   95.418">  7  8 -1 -1</clus>
<clus scale="  121.787">  2  5  1 -1</clus>
<clus scale="  128.927">  7  9 -1 -1</clus>
<clus scale="  387.091">  1  5  2 -1</clus>
</clustering>
</event>
<event>
 9    1  0.3303741E-006  0.1535855E+03  0.7546771E-02  0.1217979E+00
          2   -1    0    0  502    0 -0.00000000000E+00  0.00000000000E+00  0.13089162742E+03  0.13089162742E+03  0.00000000000E+00 0. -1.
         21   -1    0    0  501  502  0.00000000000E+00 -0.00000000000E+00 -0.22878445801E+03  0.22878445801E+03  0.00000000000E+00 0. -1.
         23    2    1    2    0    0  0.55450297768E+01 -0.22903558473E+02  0.79721649826E+02  0.12486677200E+03  0.93171073579E+02 0.  0.
         23    2    1    2    0    0  0.35980758925E+01  0.59120160277E+02 -0.99197760371E+02  0.14795068916E+03  0.92417916328E+02 0.  0.
        -13    1    3    3    0    0 -0.16321987966E+02  0.31424311945E+02  0.17780830976E+02  0.39623889544E+02  0.00000000000E+00 0. -1.
         13    1    3    3    0    0  0.21867017743E+02 -0.54327870417E+02  0.61940818850E+02  0.85242882453E+02  0.00000000000E+00 0.  1.
        -13    1    4    4    0    0  0.13701808302E+02  0.78699356981E+02 -0.50516822580E+02  0.94516018238E+02  0.00000000000E+00 0. -1.
         13    1    4    4    0    0 -0.10103732410E+02 -0.19579196703E+02 -0.48680937791E+02  0.53434670920E+02  0.00000000000E+00 0.  1.
          2    1    1    2  501    0 -0.91431056692E+01 -0.36216601805E+02 -0.78416720051E+02  0.86858624276E+02  0.00000000000E+00 0. -1.
<scales pt_clust_5="13000.00000" pt_clust_6="13000.00000" pt_clust_7="13000.00000" pt_clust_8="13000.00000" pt_clust_9="13000.00000"></scales>
<clustering>
<clus scale="   92.418">  7  8 -1 -1</clus>
<clus scale="   37.353">  7  9 -1 -1</clus>
<clus scale="   93.171">  5  6 -1 -1</clus>
<clus scale="   96.105">  1  5  2 -1</clus>
<clus scale="  153.586">  2  5  1 -1</clus>
</clustering>
</event>
<event>
 9    1  0.3303741E-006  0.2514026E+03  0.7546771E-02  0.1138679E+00
         -1   -1    0    0    0  501 -0.00000000000E+00  0.00000000000E+00  0.42175062099E+03  0.42175062099E+03  0.00000000000E+00 0.  1.
         21   -1    0    0  501  502  0.00000000000E+00 -0.00000000000E+00 -0.86784615437E+02  0.86784615437E+02  0.00000000000E+00 0.  1.
         23    2    1    2    0    0  0.61244209282E+02 -0.70123184951E+02  0.11333425824E+03  0.17338768946E+03  0.92469035500E+02 0.  0.
         23    2    1    2    0    0 -0.31151067256E+02  0.13805270718E+02  0.24433265951E+03  0.26737855646E+03  0.10311095705E+03 0.  0.
        -13    1    3    3    0    0  0.42966237929E+02 -0.85402019832E+02  0.11495069994E+03  0.14951008665E+03  0.00000000000E+00 0.  1.
         13    1    3    3    0    0  0.18277971353E+02  0.15278834881E+02 -0.16164416995E+01  0.23877602808E+02  0.00000000000E+00 0. -1.
        -13    1    4    4    0    0  0.19211487891E+02 -0.31959281575E+02  0.11975915383E+03  0.12543018724E+03  0.00000000000E+00 0.  1.
         13    1    4    4    0    0 -0.50362555146E+02  0.45764552293E+02  0.12457350568E+03  0.14194836922E+03  0.00000000000E+00 0. -1.
         -1    1    1    2    0  502 -0.30093142026E+02  0.56317914233E+02 -0.22700912191E+02  0.67768990511E+02  0.00000000000E+00 0.  1.
<scales pt_clust_5="13000.00000" pt_clust_6="13000.00000" pt_clust_7="13000.00000" pt_clust_8="13000.00000" pt_clust_9="13000.00000"></scales>
<clustering>
<clus scale="   92.469">  5  6 -1 -1</clus>
<clus scale="  103.111">  7  8 -1 -1</clus>
<clus scale="   63.854">  7  9 -1 -1</clus>
<clus scale="  131.220">  1  5  2 -1</clus>
<clus scale="  251.403">  2  5  1 -1</clus>
</clustering>
</event>
<event>
 9    1  0.3303741E-006  0.2378978E+03  0.7546771E-02  0.1153515E+00
          2   -1    0    0  502    0 -0.00000000000E+00  0.00000000000E+00  0.32415651741E+03  0.32415651741E+03  0.00000000000E+00 0. -1.
         21   -1    0    0  501  502  0.00000000000E+00 -0.00000000000E+00 -0.95220783969E+02  0.95220783969E+02  0.00000000000E+00 0. -1.
         23    2    1    2    0    0  0.52488229016E+02 -0.24888257378E+02  0.10502130030E+03  0.15114205075E+03  0.91869507716E+02 0.  0.
         23    2    1    2    0    0  0.47941577916E+02  0.48312559515E+02  0.97313533925E+01  0.11437616006E+03  0.91404094275E+02 0.  0.
        -11    1    4    4    0    0 -0.89335697387E+01  0.39541349148E+02 -0.24549352475E+02  0.47391957837E+02  0.00000000000E+00 0.  1.
         11    1    4    4    0    0  0.56875147655E+02  0.87712103665E+01  0.34280705867E+02  0.66984202218E+02  0.00000000000E+00 0. -1.
        -13    1    3    3    0    0  0.68785893465E+02  0.87720393145E+01  0.81297618480E+02  0.10685387491E+03  0.00000000000E+00 0.  1.
         13    1    3    3    0    0 -0.16297664448E+02 -0.33660296692E+02  0.23723681815E+02  0.44288175835E+02  0.00000000000E+00 0. -1.
          2    1    1    2  501    0 -0.10042980693E+03 -0.23424302137E+02  0.11418307975E+03  0.15385909058E+03  0.00000000000E+00 0. -1.
<scales pt_clust_5="13000.00000" pt_clust_6="13000.00000" pt_clust_7="13000.00000" pt_clust_8="13000.00000" pt_clust_9="13000.00000"></scales>
<clustering>
<clus scale="   91.404">  5  6 -1 -1</clus>
<clus scale="   91.870">  7  8 -1 -1</clus>
<clus scale="  103.125">  5  9 -1 -1</clus>
<clus scale="  108.694">  1  7  2 -1</clus>
<clus scale="  237.898">  2  5  1 -1</clus>
</clustering>
</event>
<event>
 9    1  0.3303741E-006  0.3951873E+03  0.7546771E-02  0.1079801E+00
         21   -1    0    0  501  502  0.00000000000E+00  0.00000000000E+00  0.81651148662E+02  0.81651148662E+02  0.00000000000E+00 0. -1.
          1   -1    0    0  502    0 -0.00000000000E+00 -0.00000000000E+00 -0.95181647337E+03  0.95181647337E+03  0.00000000000E+00 0. -1.
         23    2    1    2    0    0 -0.48474185709E+02  0.82409911910E+02 -0.15889651138E+03  0.21978690436E+03  0.11797051216E+03 0.  0.
         23    2    1    2    0    0 -0.58851910471E+02 -0.12606442421E+03 -0.67039975951E+03  0.69081946696E+03  0.91868993474E+02 0.  0.
        -13    1    3    3    0    0 -0.26003583148E+02  0.39927596656E+02 -0.16463020909E+03  0.17138700376E+03  0.00000000000E+00 0. -1.
         13    1    3    3    0    0 -0.22470602560E+02  0.42482315255E+02  0.57336977161E+01  0.48399900602E+02  0.00000000000E+00 0.  1.
        -13    1    4    4    0    0 -0.52701891534E+02 -0.20923582318E+02 -0.31807416533E+03  0.32308893562E+03  0.00000000000E+00 0.  1.
         13    1    4    4    0    0 -0.61500189373E+01 -0.10514084189E+03 -0.35232559418E+03  0.36773053135E+03  0.00000000000E+00 0. -1.
          1    1    1    2  501    0  0.10732609618E+03  0.43654512300E+02 -0.40869053814E+02  0.12286125071E+03  0.00000000000E+00 0. -1.
<scales pt_clust_5="13000.00000" pt_clust_6="13000.00000" pt_clust_7="13000.00000" pt_clust_8="13000.00000" pt_clust_9="13000.00000"></scales>
<clustering>
<clus scale="   91.869">  7  8 -1 -1</clus>
<clus scale="  115.865">  7  9 -1 -1</clus>
<clus scale="  117.971">  5  6 -1 -1</clus>
<clus scale="  151.849">  2  5  1 -1</clus>
<clus scale="  395.187">  1  5  2 -1</clus>
</clustering>
</event>
<event>
 9    1  0.3303741E-006  0.4081411E+03  0.7546771E-02  0.1066787E+00
         21   -1    0    0  501  502  0.00000000000E+00  0.00000000000E+00  0.28983714718E+03  0.28983714718E+03  0.00000000000E+00 0.  1.
          2   -1    0    0  502    0 -0.00000000000E+00 -0.00000000000E+00 -0.33793579772E+03  0.33793579772E+03  0.00000000000E+00 0. -1.
         23    2    1    2    0    0 -0.29936805827E+02 -0.17227643229E+03 -0.92399605048E+02  0.21723463840E+03  0.89876691325E+02 0.  0.
         23    2    1    2    0    0  0.11591007591E+02  0.25120335495E+03 -0.64198894622E+02  0.27511953124E+03  0.91278592247E+02 0.  0.
        -11    1    3    3    0    0 -0.40529323240E+02 -0.27892368044E+02 -0.85612832368E+01  0.49939020896E+02  0.00000000000E+00 0.  1.
         11    1    3    3    0    0  0.10592517413E+02 -0.14438406424E+03 -0.83838321811E+02  0.16729561750E+03  0.00000000000E+00 0. -1.
        -13    1    4    4    0    0  0.22108186537E-01  0.18356047563E+03 -0.86556234799E+02  0.20294440244E+03  0.00000000000E+00 0. -1.
         13    1    4    4    0    0  0.11568899405E+02  0.67642879321E+02  0.22357340176E+02  0.72175128791E+02  0.00000000000E+00 0.  1.
          2    1    1    2  501    0  0.18345798236E+02 -0.78926922662E+02  0.10849984913E+03  0.13541877527E+03  0.00000000000E+00 0. -1.
<scales pt_clust_5="13000.00000" pt_clust_6="13000.00000" pt_clust_7="13000.00000" pt_clust_8="13000.00000" pt_clust_9="13000.00000"></scales>
<clustering>
<clus scale="   89.877">  5  6 -1 -1</clus>
<clus scale="   91.279">  7  8 -1 -1</clus>
<clus scale="   81.031">  7  9 -1 -1</clus>
<clus scale="  196.604">  2  5  1 -1</clus>
<clus scale="  408.141">  1  5  2 -1</clus>
</clustering>
</event>
<event>
 9    1  0.3303741E-006  0.2612713E+03  0.7546771E-02  0.1122824E+00
          2   -1    0    0  502    0 -0.00000000000E+00  0.00000000000E+00  0.35797150738E+03  0.35797150738E+03  0.00000000000E+00 0. -1.
         21   -1    0    0  501  502  0.00000000000E+00 -0.00000000000E+00 -0.13391583447E+03  0.13391583447E+03  0.00000000000E+00 0. -1.
         23    2    1    2    0    0 -0.11982921219E+03  0.85984472463E+02  0.56454887857E+02  0.18147997473E+03  0.89417320843E+02 0.  0.
         23    2    1    2    0    0  0.77791857108E+01  0.95955386796E+01  0.12802574876E+03  0.15790513612E+03  0.91601580624E+02 0.  0.
        -11    1    3    3    0    0 -0.54757418660E+02  0.72359468145E+02 -0.50870356900E+01  0.90885342386E+02  0.00000000000E+00 0. -1.
         11    1    3    3    0    0 -0.65071793529E+02  0.13625004318E+02  0.61541923547E+02  0.90594632344E+02  0.00000000000E+00 0.  1.
        -13    1    4    4    0    0  0.39696767617E+02  0.18998894010E+02  0.27212640216E+02  0.51742817090E+02  0.00000000000E+00 0.  1.
         13    1    4    4    0    0 -0.31917581907E+02 -0.94033553301E+01  0.10081310855E+03  0.10616231903E+03  0.00000000000E+00 0. -1.
          2    1    1    2  501    0  0.11205002648E+03 -0.95580011142E+02  0.39575036293E+02  0.15250223100E+03  0.00000000000E+00 0. -1.
<scales pt_clust_5="13000.00000" pt_clust_6="13000.00000" pt_clust_7="13000.00000" pt_clust_8="13000.00000" pt_clust_9="13000.00000"></scales>
<clustering>
<clus scale="   89.417">  5  6 -1 -1</clus>
<clus scale="   91.602">  7  8 -1 -1</clus>
<clus scale="  147.278">  7  9 -1 -1</clus>
<clus scale="  172.476">  1  5  2 -1</clus>
<clus scale="  261.271">  2  5  1 -1</clus>
</clustering>
</event>
<event>
 9    1  0.3303741E-006  0.2003370E+03  0.7546771E-02  0.1177420E+00
         21   -1    0    0  501  502  0.00000000000E+00  0.00000000000E+00  0.22074721538E+03  0.22074721538E+03  0.00000000000E+00 0. -1.
          1   -1    0    0  502    0 -0.00000000000E+00 -0.00000000000E+00 -0.12234393327E+03  0.12234393327E+03  0.00000000000E+00 0. -1.
         23    2    1    2    0    0 -0.54066888902E+01 -0.49078197226E+02 -0.24968930214E+02  0.10781338449E+03  0.92533111216E+02 0.  0.
         23    2    1    2    0    0  0.75180296502E+02  0.86694570432E+01  0.70917068136E+02  0.13908647165E+03  0.92674589698E+02 0.  0.
        -11    1    3    3    0    0 -0.44250898284E+02 -0.29067324973E+02 -0.34364952323E+02  0.63118945874E+02  0.00000000000E+00 0.  1.
         11    1    3    3    0    0  0.38844209394E+02 -0.20010872253E+02  0.93960221096E+01  0.44694438616E+02  0.00000000000E+00 0. -1.
        -11    1    4    4    0    0 -0.16250109404E+02  0.17878064489E+02  0.20396617248E+01  0.24245648382E+02  0.00000000000E+00 0.  1.
         11    1    4    4    0    0  0.91430405905E+02 -0.92086074459E+01  0.68877406411E+02  0.11484082327E+03  0.00000000000E+00 0. -1.
          1    1    1    2  501    0 -0.69773607611E+02  0.40408740183E+02  0.52455144185E+02  0.96191292505E+02  0.00000000000E+00 0. -1.
<scales pt_clust_5="13000.00000" pt_clust_6="13000.00000" pt_clust_7="13000.00000" pt_clust_8="13000.00000" pt_clust_9="13000.00000"></scales>
<clustering>
<clus scale="   92.533">  5  6 -1 -1</clus>
<clus scale="   92.675">  7  8 -1 -1</clus>
<clus scale="   80.630">  7  9 -1 -1</clus>
<clus scale="  104.882">  2  5  1 -1</clus>
<clus scale="  200.337">  1  5  2 -1</clus>
</clustering>
</event>
<event>
 9    1  0.3303741E-006  0.2149902E+03  0.7546771E-02  0.1152909E+00
         21   -1    0    0  501  502  0.00000000000E+00  0.00000000000E+00  0.16782842534E+03  0.16782842534E+03  0.00000000000E+00 0. -1.
         -2   -1    0    0    0  501 -0.00000000000E+00 -0.00000000000E+00 -0.26684586590E+03  0.26684586590E+03  0.00000000000E+00 0.  1.
         23    2    1    2    0    0 -0.38751259779E+02 -0.11288645102E+03  0.66331397795E+02  0.16345291792E+03  0.89844260165E+02 0.  0.
         23    2    1    2    0    0  0.23020081915E+02  0.71600379098E+02 -0.18763939231E+03  0.22173522892E+03  0.91112193158E+02 0.  0.
        -11    1    4    4    0    0  0.13206325796E+02 -0.20878657542E+02 -0.47596805528E+02  0.53626311436E+02  0.00000000000E+00 0. -1.
         11    1    4    4    0    0  0.98137561182E+01  0.92479036639E+02 -0.14004258678E+03  0.16810891749E+03  0.00000000000E+00 0.  1.
        -13    1    3    3    0    0  0.17131284598E+02 -0.76710801571E+02  0.16539161749E+02  0.80321677404E+02  0.00000000000E+00 0.  1.
         13    1    3    3    0    0 -0.55882544378E+02 -0.36175649449E+02  0.49792236046E+02  0.83131240516E+02  0.00000000000E+00 0. -1.
         -2    1    1    2    0  502  0.15731177865E+02  0.41286071923E+02  0.22290553953E+02  0.49486144398E+02  0.00000000000E+00 0.  1.
<scales pt_clust_5="13000.00000" pt_clust_6="13000.00000" pt_clust_7="13000.00000" pt_clust_8="13000.00000" pt_clust_9="13000.00000"></scales>
<clustering>
<clus scale="   89.844">  7  8 -1 -1</clus>
<clus scale="   91.112">  5  6 -1 -1</clus>
<clus scale="   44.182">  5  9 -1 -1</clus>
<clus scale="  149.389">  2  7  1 -1</clus>
<clus scale="  214.990">  1  5  2 -1</clus>
</clustering>
</event>
<event>
 9    1  0.3303741E-006  0.1414257E+03  0.7546771E-02  0.1231507E+00
          2   -1    0    0  502    0 -0.00000000000E+00  0.00000000000E+00  0.10678130337E+03  0.10678130337E+03  0.00000000000E+00 0. -1.
         21   -1    0    0  501  502  0.00000000000E+00 -0.00000000000E+00 -0.13673321232E+03  0.13673321232E+03  0.00000000000E+00 0.  1.
         23    2    1    2    0    0 -0.29095843126E+02 -0.26292789855E+02 -0.41308139294E+02  0.10163355652E+03  0.84173265072E+02 0.  0.
         23    2    1    2    0    0  0.22370884271E+02  0.10776323620E+01 -0.25194032346E+02  0.96970482208E+02  0.90922590148E+02 0.  0.
        -11    1    4    4    0    0 -0.17757213004E+02 -0.27529092459E+02 -0.33657556118E+02  0.46968080960E+02  0.00000000000E+00 0.  1.
         11    1    4    4    0    0  0.40128097275E+02  0.28606724821E+02  0.84635237717E+01  0.50002401247E+02  0.00000000000E+00 0. -1.
        -11    1    3    3    0    0 -0.23004607178E+02  0.11925517706E+02  0.17475499367E+02  0.31254167756E+02  0.00000000000E+00 0. -1.
         11    1    3    3    0    0 -0.60912359472E+01 -0.38218307561E+02 -0.58783638661E+02  0.70379388762E+02  0.00000000000E+00 0.  1.
          2    1    1    2  501    0  0.67249588544E+01  0.25215157493E+02  0.36550262691E+02  0.44910476971E+02  0.00000000000E+00 0. -1.
<scales pt_clust_5="13000.00000" pt_clust_6="13000.00000" pt_clust_7="13000.00000" pt_clust_8="13000.00000" pt_clust_9="13000.00000"></scales>
<clustering>
<clus scale="   84.173">  7  8 -1 -1</clus>
<clus scale="   90.923">  5  6 -1 -1</clus>
<clus scale="   26.097">  5  9 -1 -1</clus>
<clus scale="   92.860">  1  7  2 -1</clus>
<clus scale="  141.426">  2  5  1 -1</clus>
</clustering>
</event>
<event>
 9    1  0.3303741E-006  0.2420418E+03  0.7546771E-02  0.1153025E+00
         21   -1    0    0  501  502  0.00000000000E+00  0.00000000000E+00  0.17922632090E+03  0.17922632090E+03  0.00000000000E+00 0.  1.
         -2   -1    0    0    0  501 -0.00000000000E+00 -0.00000000000E+00 -0.56884259711E+03  0.56884259711E+03  0.00000000000E+00 0.  1.
         23    2    1    2    0    0 -0.41432118546E+02 -0.13813837951E+02 -0.47885180343E+03  0.49010148328E+03  0.94831280171E+02 0.  0.
         23    2    1    2    0    0  0.39549576461E+02 -0.55743005547E+02 -0.29950721128E+02  0.11995634735E+03  0.93920327444E+02 0.  0.
        -13    1    3    3    0    0 -0.43111026963E+02 -0.50289983369E+02 -0.34812410404E+03  0.35436991250E+03  0.00000000000E+00 0.  1.
         13    1    3    3    0    0  0.16789084167E+01  0.36476145419E+02 -0.13072769940E+03  0.13573157078E+03  0.00000000000E+00 0. -1.
        -13    1    4    4    0    0  0.39874994685E+02 -0.79611270481E+02 -0.11484249638E+02  0.89776709555E+02  0.00000000000E+00 0.  1.
         13    1    4    4    0    0 -0.32541822446E+00  0.23868264934E+02 -0.18466471490E+02  0.30179637792E+02  0.00000000000E+00 0. -1.
         -2    1    1    2    0  502  0.18825420854E+01  0.69556843497E+02  0.11918624835E+03  0.13801108738E+03  0.00000000000E+00 0.  1.
<scales pt_clust_5="13000.00000" pt_clust_6="13000.00000" pt_clust_7="13000.00000" pt_clust_8="13000.00000" pt_clust_9="13000.00000"></scales>
<clustering>
<clus scale="   93.920">  7  8 -1 -1</clus>
<clus scale="   69.582">  7  9 -1 -1</clus>
<clus scale="   94.831">  5  6 -1 -1</clus>
<clus scale="  104.405">  2  5  1 -1</clus>
<clus scale="  242.042">  1  5  2 -1</clus>
</clustering>
</event>
<event>
 9    1  0.3303741E-006  0.1293072E+04  0.7546771E-02  0.9550513E-01
          2   -1    0    0  502    0 -0.00000000000E+00  0.00000000000E+00  0.18182425025E+04  0.18182425025E+04  0.00000000000E+00 0. -1.
         21   -1    0    0  501  502  0.00000000000E+00 -0.00000000000E+00 -0.40399296895E+03  0.40399296895E+03  0.00000000000E+00 0. -1.
         23    2    1    2    0    0  0.16216772079E+03 -0.28884272940E+02  0.73696642830E+03  0.76252775303E+03  0.10581298037E+03 0.  0.
         23    2    1    2    0    0  0.18879948517E+03  0.28207570385E+03  0.90490261156E+03  0.97073479477E+03  0.90914009194E+02 0.  0.
        -13    1    3    3    0    0  0.45022004616E+02 -0.44541129953E+02  0.13563818574E+03  0.14969505866E+03  0.00000000000E+00 0.  1.
         13    1    3    3    0    0  0.11714571617E+03  0.15656857013E+02  0.60132824256E+03  0.61283269437E+03  0.00000000000E+00 0. -1.
        -13    1    4    4    0    0  0.17701123633E+03  0.21094584056E+03  0.65230408749E+03  0.70804784301E+03  0.00000000000E+00 0. -1.
         13    1    4    4    0    0  0.11788248840E+02  0.71129863286E+02  0.25259852407E+03  0.26268695176E+03  0.00000000000E+00 0.  1.
          2    1    1    2  501    0 -0.35096720596E+03 -0.25319143091E+03 -0.22761950635E+03  0.48897292360E+03  0.00000000000E+00 0. -1.
<scales pt_clust_5="13000.00000" pt_clust_6="13000.00000" pt_clust_7="13000.00000" pt_clust_8="13000.00000" pt_clust_9="13000.00000"></scales>
<clustering>
<clus scale="   90.914">  7  8 -1 -1</clus>
<clus scale="  105.813">  5  6 -1 -1</clus>
<clus scale="  195.778">  1  5  2 -1</clus>
<clus scale="  418.995">  7  9 -1 -1</clus>
<clus scale=" 1293.072">  2  5  1 -1</clus>
</clustering>
</event>
<event>
 9    1  0.3303741E-006  0.2828128E+03  0.7546771E-02  0.1116757E+00
         21   -1    0    0  501  502  0.00000000000E+00  0.00000000000E+00  0.20897774135E+03  0.20897774135E+03  0.00000000000E+00 0.  1.
         -4   -1    0    0    0  501 -0.00000000000E+00 -0.00000000000E+00 -0.37539231721E+03  0.37539231721E+03  0.00000000000E+00 0.  1.
         23    2    1    2    0    0 -0.41344401324E+02  0.12828243634E+03 -0.24424273774E+03  0.29104382785E+03  0.82983442900E+02 0.  0.
         23    2    1    2    0    0  0.16402331063E+02  0.43097005221E+02 -0.71382554566E+00  0.10316350133E+03  0.92281147246E+02 0.  0.
        -13    1    4    4    0    0  0.30158819602E+02  0.26439721190E+02  0.40269280591E+02  0.56835096689E+02  0.00000000000E+00 0. -1.
         13    1    4    4    0    0 -0.13756488539E+02  0.16657284032E+02 -0.40983106137E+02  0.46328404644E+02  0.00000000000E+00 0.  1.
        -13    1    3    3    0    0 -0.13300064143E+01  0.10423657536E+03 -0.12364326633E+03  0.16172411654E+03  0.00000000000E+00 0.  1.
         13    1    3    3    0    0 -0.40014394910E+02  0.24045860981E+02 -0.12059947140E+03  0.12931971131E+03  0.00000000000E+00 0. -1.
         -4    1    1    2    0  502  0.24942070261E+02 -0.17137944156E+03  0.78541987417E+02  0.19016272938E+03  0.00000000000E+00 0.  1.
<scales pt_clust_5="13000.00000" pt_clust_6="13000.00000" pt_clust_7="13000.00000" pt_clust_8="13000.00000" pt_clust_9="13000.00000"></scales>
<clustering>
<clus scale="   82.983">  7  8 -1 -1</clus>
<clus scale="   92.281">  5  6 -1 -1</clus>
<clus scale="  158.278">  2  7  1 -1</clus>
<clus scale="  104.993">  5  9 -1 -1</clus>
<clus scale="  282.813">  1  5  2 -1</clus>
</clustering>
</event>
<event>
 9    1  0.3303741E-006  0.3833225E+03  0.7546771E-02  0.1098150E+00
         21   -1    0    0  501  502  0.00000000000E+00  0.00000000000E+00  0.17546487020E+03  0.17546487020E+03  0.00000000000E+00 0.  1.
         -3   -1    0    0    0  501 -0.00000000000E+00 -0.00000000000E+00 -0.35292970937E+03  0.35292970937E+03  0.00000000000E+00 0.  1.
         23    2    1    2    0    0 -0.43461263072E+02  0.15091771336E+02 -0.87523159087E+02  0.13466159153E+03  0.91415523331E+02 0.  0.
         23    2    1    2    0    0  0.10726055699E+03  0.14157896840E+02 -0.21154707956E+03  0.25332726817E+03  0.87847964117E+02 0.  0.
        -11    1    4    4    0    0  0.10834313760E+03 -0.14209518762E+02 -0.18249868502E+03  0.21271087402E+03  0.00000000000E+00 0.  1.
         11    1    4    4    0    0 -0.10825806180E+01  0.28367415603E+02 -0.29048394534E+02  0.40616394150E+02  0.00000000000E+00 0. -1.
        -13    1    3    3    0    0  0.52531023462E+01  0.22639081659E+02 -0.81797052982E+02  0.85034586959E+02  0.00000000000E+00 0.  1.
         13    1    3    3    0    0 -0.48714365419E+02 -0.75473103227E+01 -0.57261061049E+01  0.49627004568E+02  0.00000000000E+00 0. -1.
         -3    1    1    2    0  502 -0.63799293913E+02 -0.29249668176E+02  0.12160539947E+03  0.14040571987E+03  0.00000000000E+00 0.  1.
<scales pt_clust_5="13000.00000" pt_clust_6="13000.00000" pt_clust_7="13000.00000" pt_clust_8="13000.00000" pt_clust_9="13000.00000"></scales>
<clustering>
<clus scale="   87.848">  5  6 -1 -1</clus>
<clus scale="   70.185">  5  9 -1 -1</clus>
<clus scale="   91.416">  7  8 -1 -1</clus>
<clus scale="  102.340">  2  7  1 -1</clus>
<clus scale="  383.323">  1  5  2 -1</clus>
</clustering>
</event>
<event>
 9    1  0.3303741E-006  0.3583450E+03  0.7546771E-02  0.1107495E+00
         -1   -1    0    0    0  501 -0.00000000000E+00  0.00000000000E+00  0.22398985271E+03  0.22398985271E+03  0.00000000000E+00 0.  1.
         21   -1    0    0  501  502  0.00000000000E+00 -0.00000000000E+00 -0.23739679023E+03  0.23739679023E+03  0.00000000000E+00 0. -1.
         23    2    1    2    0    0 -0.10905125297E+02  0.32327041980E+02  0.23384293488E+02  0.10115793161E+03  0.92315451280E+02 0.  0.
         23    2    1    2    0    0  0.15829923368E+03 -0.67231720512E+02  0.25706901501E+02  0.19637091829E+03  0.91224673952E+02 0.  0.
        -13    1    3    3    0    0  0.22107568602E+01  0.54737343486E+02  0.42149703448E+02  0.69120631642E+02  0.00000000000E+00 0.  1.
         13    1    3    3    0    0 -0.13115882157E+02 -0.22410301506E+02 -0.18765409960E+02  0.32037299970E+02  0.00000000000E+00 0. -1.
        -13    1    4    4    0    0  0.40930351224E+01 -0.32298835038E+02 -0.10417625667E+02  0.34183250370E+02  0.00000000000E+00 0.  1.
         13    1    4    4    0    0  0.15420619856E+03 -0.34932885474E+02  0.36124527168E+02  0.16218766792E+03  0.00000000000E+00 0. -1.
         -1    1    1    2    0  502 -0.14739410839E+03  0.34904678532E+02 -0.62498132513E+02  0.16385779304E+03  0.00000000000E+00 0.  1.
<scales pt_clust_5="13000.00000" pt_clust_6="13000.00000" pt_clust_7="13000.00000" pt_clust_8="13000.00000" pt_clust_9="13000.00000"></scales>
<clustering>
<clus scale="   91.225">  7  8 -1 -1</clus>
<clus scale="   92.315">  5  6 -1 -1</clus>
<clus scale="   98.418">  1  5  2 -1</clus>
<clus scale="  157.392">  7  9 -1 -1</clus>
<clus scale="  358.345">  2  5  1 -1</clus>
</clustering>
</event>
<event>
 9    1  0.3303741E-006  0.2291124E+03  0.7546771E-02  0.1132995E+00
         21   -1    0    0  501  502  0.00000000000E+00  0.00000000000E+00  0.76909040031E+03  0.76909040031E+03  0.00000000000E+00 0. -1.
          1   -1    0    0  502    0 -0.00000000000E+00 -0.00000000000E+00 -0.85113105133E+02  0.85113105133E+02  0.00000000000E+00 0. -1.
         23    2    1    2    0    0 -0.17276129368E+03  0.38431648319E+02  0.91693942376E+02  0.21915069290E+03  0.91081232663E+02 0.  0.
         23    2    1    2    0    0  0.86646061927E+02  0.30191916640E+02  0.21365224558E+03  0.24073499381E+03  0.62345515702E+02 0.  0.
        -13    1    4    4    0    0  0.63323975451E+02 -0.99739078676E+01  0.11391669199E+03  0.13071502370E+03  0.00000000000E+00 0. -1.
         13    1    4    4    0    0  0.23322086477E+02  0.40165824507E+02  0.99735553583E+02  0.11001997012E+03  0.00000000000E+00 0.  1.
        -13    1    3    3    0    0 -0.13755059504E+02 -0.24243223383E+02  0.16834122291E+02  0.32562604553E+02  0.00000000000E+00 0.  1.
         13    1    3    3    0    0 -0.15900623418E+03  0.62674871701E+02  0.74859820085E+02  0.18658808835E+03  0.00000000000E+00 0. -1.
          1    1    1    2  501    0  0.86115231756E+02 -0.68623564958E+02  0.37863110723E+03  0.39431781873E+03  0.00000000000E+00 0. -1.
<scales pt_clust_5="13000.00000" pt_clust_6="13000.00000" pt_clust_7="13000.00000" pt_clust_8="13000.00000" pt_clust_9="13000.00000"></scales>
<clustering>
<clus scale="   62.346">  5  6 -1 -1</clus>
<clus scale="   91.081">  7  8 -1 -1</clus>
<clus scale="  110.114">  5  9 -1 -1</clus>
<clus scale="  199.046">  2  7  1 -1</clus>
<clus scale="  229.112">  1  5  2 -1</clus>
</clustering>
</event>
<event>
 9    1  0.3303741E-006  0.2633167E+03  0.7546771E-02  0.1138759E+00
          3   -1    0    0  502    0 -0.00000000000E+00  0.00000000000E+00  0.51762351633E+03  0.51762351633E+03  0.00000000000E+00 0. -1.
         21   -1    0    0  501  502  0.00000000000E+00 -0.00000000000E+00 -0.77200201980E+02  0.77200201980E+02  0.00000000000E+00 0. -1.
         23    2    1    2    0    0 -0.66654532059E+02 -0.78477591532E+01  0.23384234441E+03  0.26014274125E+03  0.92128116335E+02 0.  0.
         23    2    1    2    0    0  0.91169196022E+02 -0.88879434020E+02  0.84079794124E+02  0.17668206338E+03  0.89082903210E+02 0.  0.
        -11    1    4    4    0    0  0.10596215770E+03 -0.68131688687E+02  0.53468836602E+02  0.13685328770E+03  0.00000000000E+00 0. -1.
         11    1    4    4    0    0 -0.14792961674E+02 -0.20747745333E+02  0.30610957522E+02  0.39828775677E+02  0.00000000000E+00 0.  1.
        -13    1    3    3    0    0 -0.83382997574E+02  0.15476083989E+02  0.16393173097E+03  0.18456935249E+03  0.00000000000E+00 0. -1.
         13    1    3    3    0    0  0.16728465515E+02 -0.23323843142E+02  0.69910613437E+02  0.75573388759E+02  0.00000000000E+00 0.  1.
          3    1    1    2  501    0 -0.24514663963E+02  0.96727193173E+02  0.12250117582E+03  0.15799891369E+03  0.00000000000E+00 0. -1.
<scales pt_clust_5="13000.00000" pt_clust_6="13000.00000" pt_clust_7="13000.00000" pt_clust_8="13000.00000" pt_clust_9="13000.00000"></scales>
<clustering>
<clus scale="   89.083">  5  6 -1 -1</clus>
<clus scale="   92.128">  7  8 -1 -1</clus>
<clus scale="   99.785">  5  9 -1 -1</clus>
<clus scale="  113.982">  1  7  2 -1</clus>
<clus scale="  263.317">  2  5  1 -1</clus>
</clustering>
</event>
<event>
 9    1  0.3303741E-006  0.3612516E+03  0.7546771E-02  0.1098467E+00
         21   -1    0    0  501  502  0.00000000000E+00  0.00000000000E+00  0.47899065452E+03  0.47899065452E+03  0.00000000000E+00 0.  1.
          2   -1    0    0  502    0 -0.00000000000E+00 -0.00000000000E+00 -0.12715575953E+03  0.12715575953E+03  0.00000000000E+00 0. -1.
         23    2    1    2    0    0  0.16268955831E+02  0.78086500364E+02  0.36525794901E+02  0.12664401824E+03  0.91336702372E+02 0.  0.
         23    2    1    2    0    0  0.46790775327E+02  0.10641137098E+03  0.64511159776E+02  0.16183023604E+03  0.92274476608E+02 0.  0.
        -11    1    3    3    0    0  0.36976142554E+02  0.88970958421E+02  0.21128805802E+02  0.98638192375E+02  0.00000000000E+00 0.  1.
         11    1    3    3    0    0 -0.20707186723E+02 -0.10884458056E+02  0.15396989099E+02  0.28005825866E+02  0.00000000000E+00 0. -1.
        -13    1    4    4    0    0  0.69387947025E+02  0.87028318414E+02  0.70099126500E+02  0.13153897876E+03  0.00000000000E+00 0.  1.
         13    1    4    4    0    0 -0.22597171698E+02  0.19383052564E+02 -0.55879667240E+01  0.30291257280E+02  0.00000000000E+00 0. -1.
          2    1    1    2  501    0 -0.63059731158E+02 -0.18449787134E+03  0.25079794031E+03  0.31767215976E+03  0.00000000000E+00 0. -1.
<scales pt_clust_5="13000.00000" pt_clust_6="13000.00000" pt_clust_7="13000.00000" pt_clust_8="13000.00000" pt_clust_9="13000.00000"></scales>
<clustering>
<clus scale="   91.337">  5  6 -1 -1</clus>
<clus scale="   92.274">  7  8 -1 -1</clus>
<clus scale="  121.262">  2  5  1 -1</clus>
<clus scale="  162.789">  7  9 -1 -1</clus>
<clus scale="  361.252">  1  5  2 -1</clus>
</clustering>
</event>
<event>
 9    1  0.3303741E-006  0.1830644E+03  0.7546771E-02  0.1196445E+00
         21   -1    0    0  501  502  0.00000000000E+00  0.00000000000E+00  0.80254040945E+03  0.80254040945E+03  0.00000000000E+00 0.  1.
          2   -1    0    0  502    0 -0.00000000000E+00 -0.00000000000E+00 -0.11249507271E+03  0.11249507271E+03  0.00000000000E+00 0. -1.
         23    2    1    2    0    0  0.73878508225E+01  0.30789262221E+01 -0.81858337126E+02  0.12172100134E+03  0.89728226792E+02 0.  0.
         23    2    1    2    0    0 -0.59812198578E+02  0.18335570076E+02  0.33041474417E+03  0.34820846207E+03  0.90341229029E+02 0.  0.
        -11    1    4    4    0    0 -0.56096833310E+02  0.49450027861E+02  0.18674716303E+03  0.20116327414E+03  0.00000000000E+00 0.  1.
         11    1    4    4    0    0 -0.37153652672E+01 -0.31114457784E+02  0.14366758115E+03  0.14704518794E+03  0.00000000000E+00 0. -1.
        -13    1    3    3    0    0 -0.97579723654E+01  0.22746634670E+02  0.96496401130E+01  0.26565823303E+02  0.00000000000E+00 0.  1.
         13    1    3    3    0    0  0.17145823188E+02 -0.19667708447E+02 -0.91507977239E+02  0.95155178034E+02  0.00000000000E+00 0. -1.
          2    1    1    2  501    0  0.52424347755E+02 -0.21414496298E+02  0.44148892969E+03  0.44510601875E+03  0.00000000000E+00 0. -1.
<scales pt_clust_5="13000.00000" pt_clust_6="13000.00000" pt_clust_7="13000.00000" pt_clust_8="13000.00000" pt_clust_9="13000.00000"></scales>
<clustering>
<clus scale="   89.728">  7  8 -1 -1</clus>
<clus scale="   90.084">  2  7  1 -1</clus>
<clus scale="   90.341">  5  6 -1 -1</clus>
<clus scale="   57.596">  5  9 -1 -1</clus>
<clus scale="  183.064">  1  5  2 -1</clus>
</clustering>
</event>
<event>
 9    1  0.3303741E-006  0.1174717E+03  0.7546771E-02  0.1255071E+00
          2   -1    0    0  502    0 -0.00000000000E+00  0.00000000000E+00  0.10431905482E+03  0.10431905482E+03  0.00000000000E+00 0. -1.
         21   -1    0    0  501  502  0.00000000000E+00 -0.00000000000E+00 -0.20852372233E+03  0.20852372233E+03  0.00000000000E+00 0.  1.
         23    2    1    2    0    0 -0.10807739741E+02  0.33660178773E+02  0.55217646748E+02  0.11481478988E+03  0.94253024304E+02 0.  0.
         23    2    1    2    0    0  0.17861140183E+02 -0.12890181636E+02 -0.11503039527E+03  0.14851247747E+03  0.91316959086E+02 0.  0.
        -11    1    4    4    0    0  0.13166819096E+02 -0.36403302767E+02 -0.11815285721E+03  0.12433287275E+03  0.00000000000E+00 0.  1.
         11    1    4    4    0    0  0.46943210871E+01  0.23513121132E+02  0.31224619472E+01  0.24179604720E+02  0.00000000000E+00 0. -1.
        -11    1    3    3    0    0  0.18206547521E+02 -0.24117172488E+02  0.67100070467E+00  0.30225264654E+02  0.00000000000E+00 0.  1.
         11    1    3    3    0    0 -0.29014287262E+02  0.57777351261E+02  0.54546646044E+02  0.84589525230E+02  0.00000000000E+00 0. -1.
          2    1    1    2  501    0 -0.70534004422E+01 -0.20769997137E+02 -0.44391918996E+02  0.49515509803E+02  0.00000000000E+00 0. -1.
<scales pt_clust_5="13000.00000" pt_clust_6="13000.00000" pt_clust_7="13000.00000" pt_clust_8="13000.00000" pt_clust_9="13000.00000"></scales>
<clustering>
<clus scale="   91.317">  5  6 -1 -1</clus>
<clus scale="   21.935">  5  9 -1 -1</clus>
<clus scale="   94.253">  7  8 -1 -1</clus>
<clus scale="  100.665">  1  7  2 -1</clus>
<clus scale="  117.472">  2  5  1 -1</clus>
</clustering>
</event>
<event>
 9    1  0.3303741E-006  0.2358162E+03  0.7546771E-02  0.1160107E+00
          2   -1    0    0  502    0 -0.00000000000E+00  0.00000000000E+00  0.27455621725E+03  0.27455621725E+03  0.00000000000E+00 0. -1.
         21   -1    0    0  501  502  0.00000000000E+00 -0.00000000000E+00 -0.10341294778E+03  0.10341294778E+03  0.00000000000E+00 0. -1.
         23    2    1    2    0    0 -0.12155567811E+02 -0.19804490860E+02  0.81616739076E+02  0.12573067005E+03  0.92773560930E+02 0.  0.
         23    2    1    2    0    0 -0.38431305974E+02 -0.20562283566E+02  0.13280486264E+03  0.17438271601E+03  0.10427093227E+03 0.  0.
        -11    1    4    4    0    0  0.31064298175E+02 -0.28410871477E+02  0.61288828711E+02  0.74353807999E+02  0.00000000000E+00 0. -1.
         11    1    4    4    0    0 -0.69495604149E+02  0.78485879109E+01  0.71516033932E+02  0.10002890801E+03  0.00000000000E+00 0.  1.
        -13    1    3    3    0    0 -0.30184578211E+02 -0.37206621476E+02  0.87710471769E+02  0.99942825162E+02  0.00000000000E+00 0. -1.
         13    1    3    3    0    0  0.18029010400E+02  0.17402130616E+02 -0.60937326935E+01  0.25787844891E+02  0.00000000000E+00 0.  1.
          2    1    1    2  501    0  0.50586873785E+02  0.40366774427E+02 -0.43278332242E+02  0.77855778967E+02  0.00000000000E+00 0. -1.
<scales pt_clust_5="13000.00000" pt_clust_6="13000.00000" pt_clust_7="13000.00000" pt_clust_8="13000.00000" pt_clust_9="13000.00000"></scales>
<clustering>
<clus scale="   92.774">  7  8 -1 -1</clus>
<clus scale="   95.639">  1  7  2 -1</clus>
<clus scale="  104.271">  5  6 -1 -1</clus>
<clus scale="   62.513">  5  9 -1 -1</clus>
<clus scale="  235.816">  2  5  1 -1</clus>
</clustering>
</event>
<event>
 9    1  0.3303741E-006  0.1586441E+03  0.7546771E-02  0.1195632E+00
         21   -1    0    0  501  502  0.00000000000E+00  0.00000000000E+00  0.15304405988E+03  0.15304405988E+03  0.00000000000E+00 0.  1.
          1   -1    0    0  502    0 -0.00000000000E+00 -0.00000000000E+00 -0.22822318215E+03  0.22822318215E+03  0.00000000000E+00 0. -1.
         23    2    1    2    0    0 -0.28434700598E+02  0.10379098889E+03 -0.15005829510E+03  0.20583968599E+03  0.90947143038E+02 0.  0.
         23    2    1    2    0    0  0.45315279606E+02 -0.87002067768E+02  0.54852904446E+02  0.14431689475E+03  0.90530053692E+02 0.  0.
        -13    1    4    4    0    0  0.13134301698E+02 -0.37291839954E+02  0.72453461624E+02  0.82539053239E+02  0.00000000000E+00 0. -1.
         13    1    4    4    0    0  0.32180977908E+02 -0.49710227814E+02 -0.17600557178E+02  0.61777841508E+02  0.00000000000E+00 0.  1.
        -13    1    3    3    0    0  0.26549513774E+02  0.28358862223E+02 -0.80648391706E+02  0.89516841058E+02  0.00000000000E+00 0.  1.
         13    1    3    3    0    0 -0.54984214373E+02  0.75432126668E+02 -0.69409903396E+02  0.11632284493E+03  0.00000000000E+00 0. -1.
          1    1    1    2  501    0 -0.16880579008E+02 -0.16788921122E+02  0.20026268389E+02  0.31110661286E+02  0.00000000000E+00 0. -1.
<scales pt_clust_5="13000.00000" pt_clust_6="13000.00000" pt_clust_7="13000.00000" pt_clust_8="13000.00000" pt_clust_9="13000.00000"></scales>
<clustering>
<clus scale="   90.530">  5  6 -1 -1</clus>
<clus scale="   23.808">  5  9 -1 -1</clus>
<clus scale="   90.947">  7  8 -1 -1</clus>
<clus scale="  140.899">  2  7  1 -1</clus>
<clus scale="  158.644">  1  5  2 -1</clus>
</clustering>
</event>
<event>
 9    1  0.3303741E-006  0.4390800E+03  0.7546771E-02  0.1082233E+00
          3   -1    0    0  502    0 -0.00000000000E+00  0.00000000000E+00  0.19348178708E+03  0.19348178708E+03  0.00000000000E+00 0. -1.
         21   -1    0    0  501  502  0.00000000000E+00 -0.00000000000E+00 -0.38102055258E+03  0.38102055258E+03  0.00000000000E+00 0. -1.
         23    2    1    2    0    0 -0.47754558305E+02  0.22435989939E+01 -0.29059704327E+02  0.10769742439E+03  0.92025742205E+02 0.  0.
         23    2    1    2    0    0  0.21748725414E+03 -0.25312104362E+02 -0.54105679017E+01  0.23708485171E+03  0.90766427305E+02 0.  0.
        -11    1    3    3    0    0  0.41804386781E+01  0.32955731497E+02  0.11320238424E+02  0.35095642237E+02  0.00000000000E+00 0. -1.
         11    1    3    3    0    0 -0.51934996983E+02 -0.30712132503E+02 -0.40379942752E+02  0.72601782149E+02  0.00000000000E+00 0.  1.
        -13    1    4    4    0    0  0.97863678577E+02  0.52827550357E+01  0.39542089122E+02  0.10568246731E+03  0.00000000000E+00 0.  1.
         13    1    4    4    0    0  0.11962357556E+03 -0.30594859398E+02 -0.44952657024E+02  0.13140238440E+03  0.00000000000E+00 0. -1.
          3    1    1    2  501    0 -0.16973269583E+03  0.23068505368E+02 -0.15306849327E+03  0.22972006357E+03  0.00000000000E+00 0. -1.
<scales pt_clust_5="13000.00000" pt_clust_6="13000.00000" pt_clust_7="13000.00000" pt_clust_8="13000.00000" pt_clust_9="13000.00000"></scales>
<clustering>
<clus scale="   90.766">  7  8 -1 -1</clus>
<clus scale="   92.026">  5  6 -1 -1</clus>
<clus scale="  103.703">  1  5  2 -1</clus>
<clus scale="  183.135">  7  9 -1 -1</clus>
<clus scale="  439.080">  2  5  1 -1</clus>
</clustering>
</event>
<event>
 9    1  0.3303741E-006  0.2775459E+03  0.7546771E-02  0.1130454E+00
         21   -1    0    0  501  502  0.00000000000E+00  0.00000000000E+00  0.21950166736E+03  0.21950166736E+03  0.00000000000E+00 0. -1.
          1   -1    0    0  502    0 -0.00000000000E+00 -0.00000000000E+00 -0.36175669601E+03  0.36175669601E+03  0.00000000000E+00 0. -1.
         23    2    1    2    0    0 -0.56974789664E+02  0.42979292862E+02 -0.25517167504E+03  0.28162208276E+03  0.95420477270E+02 0.  0.
         23    2    1    2    0    0 -0.24184338242E+02 -0.55690166419E+02 -0.47919053447E+02  0.11903591324E+03  0.90482241940E+02 0.  0.
        -11    1    4    4    0    0 -0.57264863371E+01  0.23520386001E+02 -0.24400118614E+02  0.34371019649E+02  0.00000000000E+00 0.  1.
         11    1    4    4    0    0 -0.18457851905E+02 -0.79210552420E+02 -0.23518934833E+02  0.84664893594E+02  0.00000000000E+00 0. -1.
        -13    1    3    3    0    0 -0.61353513422E+02 -0.12825074130E+02 -0.12184771336E+03  0.13702409053E+03  0.00000000000E+00 0. -1.
         13    1    3    3    0    0  0.43787237580E+01  0.55804366992E+02 -0.13332396169E+03  0.14459799223E+03  0.00000000000E+00 0.  1.
          1    1    1    2  501    0  0.81159127907E+02  0.12710873557E+02  0.16083569984E+03  0.18060036736E+03  0.00000000000E+00 0. -1.
<scales pt_clust_5="13000.00000" pt_clust_6="13000.00000" pt_clust_7="13000.00000" pt_clust_8="13000.00000" pt_clust_9="13000.00000"></scales>
<clustering>
<clus scale="   90.482">  5  6 -1 -1</clus>
<clus scale="   82.149">  5  9 -1 -1</clus>
<clus scale="   95.420">  7  8 -1 -1</clus>
<clus scale="  119.157">  2  7  1 -1</clus>
<clus scale="  277.546">  1  5  2 -1</clus>
</clustering>
</event>
<event>
 9    1  0.3303741E-006  0.1742744E+03  0.7546771E-02  0.1201699E+00
          1   -1    0    0  502    0 -0.00000000000E+00  0.00000000000E+00  0.69613155258E+02  0.69613155258E+02  0.00000000000E+00 0. -1.
         21   -1    0    0  501  502  0.00000000000E+00 -0.00000000000E+00 -0.29037603938E+03  0.29037603938E+03  0.00000000000E+00 0. -1.
         23    2    1    2    0    0 -0.26699659058E+02 -0.23508519154E+01 -0.22108557293E+02  0.95725894546E+02  0.89197871513E+02 0.  0.
         23    2    1    2    0    0  0.36778153865E+01  0.32743562836E+02 -0.18539852973E+03  0.22389699831E+03  0.12112631338E+03 0.  0.
        -11    1    3    3    0    0 -0.59778951765E+02 -0.26505864025E+01 -0.17368221079E+02  0.62307333323E+02  0.00000000000E+00 0. -1.
         11    1    3    3    0    0  0.33079292707E+02  0.29973448707E+00 -0.47403362139E+01  0.33418561223E+02  0.00000000000E+00 0.  1.
        -13    1    4    4    0    0  0.43856305369E+02 -0.28483102121E+02 -0.77734254749E+02  0.93687122853E+02  0.00000000000E+00 0.  1.
         13    1    4    4    0    0 -0.40178489982E+02  0.61226664957E+02 -0.10766427498E+03  0.13020987546E+03  0.00000000000E+00 0. -1.
          1    1    1    2  501    0  0.23021843672E+02 -0.30392710920E+02 -0.13255797102E+02  0.40366301786E+02  0.00000000000E+00 0. -1.
<scales pt_clust_5="13000.00000" pt_clust_6="13000.00000" pt_clust_7="13000.00000" pt_clust_8="13000.00000" pt_clust_9="13000.00000"></scales>
<clustering>
<clus scale="   89.198">  5  6 -1 -1</clus>
<clus scale="   93.138">  1  5  2 -1</clus>
<clus scale="  121.126">  7  8 -1 -1</clus>
<clus scale="   33.578">  7  9 -1 -1</clus>
<clus scale="  174.274">  2  5  1 -1</clus>
</clustering>
</event>
<event>
 9    1  0.3303741E-006  0.3356163E+03  0.7546771E-02  0.1116143E+00
          2   -1    0    0  502    0 -0.00000000000E+00  0.00000000000E+00  0.52397202443E+02  0.52397202443E+02  0.00000000000E+00 0. -1.
         21   -1    0    0  501  502  0.00000000000E+00 -0.00000000000E+00 -0.11346750780E+04  0.11346750780E+04  0.00000000000E+00 0. -1.
         23    2    1    2    0    0 -0.12201782117E+02 -0.20301984776E+02 -0.65584111373E+02  0.11641616111E+03  0.93222276472E+02 0.  0.
         23    2    1    2    0    0 -0.11063344058E+03 -0.16523034454E+02 -0.22435012066E+03  0.26800238115E+03  0.94760386350E+02 0.  0.
        -11    1    4    4    0    0 -0.41604837860E+02  0.30453846782E+02 -0.14053447834E+03  0.14969415126E+03  0.00000000000E+00 0.  1.
         11    1    4    4    0    0 -0.69028602721E+02 -0.46976881236E+02 -0.83815642315E+02  0.11830822989E+03  0.00000000000E+00 0. -1.
        -13    1    3    3    0    0  0.21062459975E+02 -0.39802700640E+02 -0.63439725503E+02  0.77797692577E+02  0.00000000000E+00 0. -1.
         13    1    3    3    0    0 -0.33264242092E+02  0.19500715864E+02 -0.21443858702E+01  0.38618468534E+02  0.00000000000E+00 0.  1.
          2    1    1    2  501    0  0.12283522270E+03  0.36825019230E+02 -0.79234364353E+03  0.80265373819E+03  0.00000000000E+00 0. -1.
<scales pt_clust_5="13000.00000" pt_clust_6="13000.00000" pt_clust_7="13000.00000" pt_clust_8="13000.00000" pt_clust_9="13000.00000"></scales>
<clustering>
<clus scale="   93.222">  7  8 -1 -1</clus>
<clus scale="   94.760">  5  6 -1 -1</clus>
<clus scale="   96.184">  1  7  2 -1</clus>
<clus scale="  124.927">  5  9 -1 -1</clus>
<clus scale="  335.616">  2  5  1 -1</clus>
</clustering>
</event>
<event>
 9    1  0.3303741E-006  0.4827879E+03  0.7546771E-02  0.1064486E+00
          3   -1    0    0  502    0 -0.00000000000E+00  0.00000000000E+00  0.32432394289E+03  0.32432394289E+03  0.00000000000E+00 0. -1.
         21   -1    0    0  501  502  0.00000000000E+00 -0.00000000000E+00 -0.53198276903E+03  0.53198276903E+03  0.00000000000E+00 0. -1.
         23    2    1    2    0    0 -0.68724696059E+02 -0.54601918025E+02  0.19171482066E+03  0.22974187687E+03  0.91226664005E+02 0.  0.
         23    2    1    2    0    0 -0.26620299889E+02  0.79820405058E+02  0.83161965647E+02  0.13405365993E+03  0.63043903601E+02 0.  0.
        -13    1    3    3    0    0  0.79176484792E+01 -0.19259817479E+02  0.61304300144E+00  0.20832799823E+02  0.00000000000E+00 0.  1.
         13    1    3    3    0    0 -0.76642344538E+02 -0.35342100546E+02  0.19110177766E+03  0.20890907704E+03  0.00000000000E+00 0. -1.
        -13    1    4    4    0    0  0.86150596722E+01  0.66628956400E+02  0.58349020954E+02  0.88984522982E+02  0.00000000000E+00 0.  1.
         13    1    4    4    0    0 -0.35235359561E+02  0.13191448658E+02  0.24812944693E+02  0.45069136950E+02  0.00000000000E+00 0. -1.
          3    1    1    2  501    0  0.95344995948E+02 -0.25218487033E+02 -0.48253561245E+03  0.49251117512E+03  0.00000000000E+00 0. -1.
<scales pt_clust_5="13000.00000" pt_clust_6="13000.00000" pt_clust_7="13000.00000" pt_clust_8="13000.00000" pt_clust_9="13000.00000"></scales>
<clustering>
<clus scale="   63.044">  7  8 -1 -1</clus>
<clus scale="   91.227">  5  6 -1 -1</clus>
<clus scale="   98.624">  7  9 -1 -1</clus>
<clus scale="  126.597">  1  5  2 -1</clus>
<clus scale="  482.788">  2  5  1 -1</clus>
</clustering>
</event>
<event>
 9    1  0.3303741E-006  0.3058179E+03  0.7546771E-02  0.1126173E+00
         -1   -1    0    0    0  501 -0.00000000000E+00  0.00000000000E+00  0.64146346413E+03  0.64146346413E+03  0.00000000000E+00 0.  1.
         21   -1    0    0  501  502  0.00000000000E+00 -0.00000000000E+00 -0.64483442605E+02  0.64483442605E+02  0.00000000000E+00 0. -1.
         23    2    1    2    0    0 -0.87486063433E+01  0.38873043879E+02  0.17235916997E+03  0.19875601478E+03  0.90601425396E+02 0.  0.
         23    2    1    2    0    0  0.36973953353E+02 -0.90429727248E+02  0.42458416106E+03  0.44511597318E+03  0.91169682275E+02 0.  0.
        -13    1    4    4    0    0  0.32323845273E+02 -0.25152678484E+02  0.48954175885E+02  0.63827890022E+02  0.00000000000E+00 0. -1.
         13    1    4    4    0    0  0.46501080802E+01 -0.65277048764E+02  0.37562998517E+03  0.38128808316E+03  0.00000000000E+00 0.  1.
        -13    1    3    3    0    0  0.26905230713E+02  0.22453926034E+02  0.17829194074E+02  0.39318575704E+02  0.00000000000E+00 0. -1.
         13    1    3    3    0    0 -0.35653837056E+02  0.16419117845E+02  0.15452997590E+03  0.15943743908E+03  0.00000000000E+00 0.  1.
         -1    1    1    2    0  502 -0.28225347010E+02  0.51556683369E+02 -0.19963309507E+02  0.62074918770E+02  0.00000000000E+00 0.  1.
<scales pt_clust_5="13000.00000" pt_clust_6="13000.00000" pt_clust_7="13000.00000" pt_clust_8="13000.00000" pt_clust_9="13000.00000"></scales>
<clustering>
<clus scale="   90.601">  7  8 -1 -1</clus>
<clus scale="   91.170">  5  6 -1 -1</clus>
<clus scale="   58.777">  5  9 -1 -1</clus>
<clus scale="   98.976">  1  7  2 -1</clus>
<clus scale="  305.818">  2  5  1 -1</clus>
</clustering>
</event>
<event>
 9    1  0.3303741E-006  0.2240163E+03  0.7546771E-02  0.1154153E+00
          4   -1    0    0  502    0 -0.00000000000E+00  0.00000000000E+00  0.23099908053E+03  0.23099908053E+03  0.00000000000E+00 0. -1.
         21   -1    0    0  501  502  0.00000000000E+00 -0.00000000000E+00 -0.31152401875E+03  0.31152401875E+03  0.00000000000E+00 0.  1.
         23    2    1    2    0    0 -0.55428106324E+02 -0.72407637158E+02  0.16577501640E+03  0.20958619280E+03  0.90165820924E+02 0.  0.
         23    2    1    2    0    0  0.82061401397E+02  0.81317703947E+02 -0.86673309553E+02  0.17085856890E+03  0.91289349892E+02 0.  0.
        -11    1    4    4    0    0  0.15489874145E+02  0.77821313465E+02 -0.36054323906E+02  0.87155076173E+02  0.00000000000E+00 0.  1.
         11    1    4    4    0    0  0.66571527252E+02  0.34963904826E+01 -0.50618985647E+02  0.83703492728E+02  0.00000000000E+00 0. -1.
        -13    1    3    3    0    0  0.10651802757E+02 -0.17260636891E+02 -0.26391658758E+01  0.20453744997E+02  0.00000000000E+00 0.  1.
         13    1    3    3    0    0 -0.66079909081E+02 -0.55147000266E+02  0.16841418227E+03  0.18913244781E+03  0.00000000000E+00 0. -1.
          4    1    1    2  501    0 -0.26633295073E+02 -0.89100667896E+01 -0.15962664506E+03  0.16207833757E+03  0.00000000000E+00 0. -1.
<scales pt_clust_5="13000.00000" pt_clust_6="13000.00000" pt_clust_7="13000.00000" pt_clust_8="13000.00000" pt_clust_9="13000.00000"></scales>
<clustering>
<clus scale="   90.166">  7  8 -1 -1</clus>
<clus scale="   91.289">  5  6 -1 -1</clus>
<clus scale="   28.084">  5  9 -1 -1</clus>
<clus scale="  128.238">  1  7  2 -1</clus>
<clus scale="  224.016">  2  5  1 -1</clus>
</clustering>
</event>
<event>
 9    1  0.3303741E-006  0.1577863E+03  0.7546771E-02  0.1216674E+00
          1   -1    0    0  502    0 -0.00000000000E+00  0.00000000000E+00  0.14952644698E+03  0.14952644698E+03  0.00000000000E+00 0. -1.
         21   -1    0    0  501  502  0.00000000000E+00 -0.00000000000E+00 -0.11278281774E+03  0.11278281774E+03  0.00000000000E+00 0.  1.
         23    2    1    2    0    0  0.81373392380E+00  0.56254224059E+01  0.50075152387E+02  0.10396076945E+03  0.90928615722E+02 0.  0.
         23    2    1    2    0    0 -0.23357933540E+02  0.27894454380E+02  0.21839983037E+02  0.10478677458E+03  0.95810174943E+02 0.  0.
        -11    1    3    3    0    0 -0.31364189553E+02 -0.27048349278E+02  0.89705815769E+01  0.42376844134E+02  0.00000000000E+00 0.  1.
         11    1    3    3    0    0  0.32177923476E+02  0.32673771684E+02  0.41104570810E+02  0.61583925312E+02  0.00000000000E+00 0. -1.
        -13    1    4    4    0    0  0.34747357497E+02 -0.27619459994E+01  0.17351912349E+02  0.38937078228E+02  0.00000000000E+00 0.  1.
         13    1    4    4    0    0 -0.58105291037E+02  0.30656400379E+02  0.44880706872E+01  0.65849696348E+02  0.00000000000E+00 0. -1.
          1    1    1    2  501    0  0.22544199616E+02 -0.33519876786E+02 -0.35171506183E+02  0.53561720690E+02  0.00000000000E+00 0. -1.
<scales pt_clust_5="13000.00000" pt_clust_6="13000.00000" pt_clust_7="13000.00000" pt_clust_8="13000.00000" pt_clust_9="13000.00000"></scales>
<clustering>
<clus scale="   90.929">  5  6 -1 -1</clus>
<clus scale="   91.106">  1  5  2 -1</clus>
<clus scale="   95.810">  7  8 -1 -1</clus>
<clus scale="   39.864">  7  9 -1 -1</clus>
<clus scale="  157.786">  2  5  1 -1</clus>
</clustering>
</event>
<event>
 9    1  0.3303741E-006  0.2706590E+03  0.7546771E-02  0.1137756E+00
         21   -1    0    0  501  502  0.00000000000E+00  0.00000000000E+00  0.28348300704E+03  0.28348300704E+03  0.00000000000E+00 0.  1.
          3   -1    0    0  502    0 -0.00000000000E+00 -0.00000000000E+00 -0.14249375446E+03  0.14249375446E+03  0.00000000000E+00 0. -1.
         23    2    1    2    0    0  0.56214028734E+02 -0.34022101651E+02 -0.22374460842E+02  0.10983753713E+03  0.85124306966E+02 0.  0.
         23    2    1    2    0    0  0.18188397373E+02 -0.62967173997E+02  0.16235659000E+03  0.19389498157E+03  0.83306174816E+02 0.  0.
        -11    1    3    3    0    0 -0.15527682936E+02 -0.31825977387E+02 -0.32660208270E+01  0.35562180277E+02  0.00000000000E+00 0.  1.
         11    1    3    3    0    0  0.71741711670E+02 -0.21961242639E+01 -0.19108440015E+02  0.74275356849E+02  0.00000000000E+00 0. -1.
        -11    1    4    4    0    0  0.19662058841E+02 -0.37026139353E+02  0.16259331855E+03  0.16791104428E+03  0.00000000000E+00 0.  1.
         11    1    4    4    0    0 -0.14736614684E+01 -0.25941034644E+02 -0.23672855877E+00  0.25983937287E+02  0.00000000000E+00 0. -1.
          3    1    1    2  501    0 -0.74402426107E+02  0.96989275648E+02  0.10071234331E+01  0.12224424280E+03  0.00000000000E+00 0. -1.
<scales pt_clust_5="13000.00000" pt_clust_6="13000.00000" pt_clust_7="13000.00000" pt_clust_8="13000.00000" pt_clust_9="13000.00000"></scales>
<clustering>
<clus scale="   83.306">  7  8 -1 -1</clus>
<clus scale="   85.124">  5  6 -1 -1</clus>
<clus scale="  107.534">  2  5  1 -1</clus>
<clus scale="   76.068">  7  9 -1 -1</clus>
<clus scale="  270.659">  1  5  2 -1</clus>
</clustering>
</event>
<event>
 9    1  0.3303741E-006  0.2523129E+03  0.7546771E-02  0.1137272E+00
         21   -1    0    0  501  502  0.00000000000E+00  0.00000000000E+00  0.20692259513E+03  0.20692259513E+03  0.00000000000E+00 0. -1.
          2   -1    0    0  502    0 -0.00000000000E+00 -0.00000000000E+00 -0.29769945732E+03  0.29769945732E+03  0.00000000000E+00 0. -1.
         23    2    1    2    0    0 -0.65248029666E+01 -0.10265873144E+03 -0.19069760603E+03  0.23324414139E+03  0.86347347098E+02 0.  0.
         23    2    1    2    0    0  0.34743289567E+02  0.47490490959E+02 -0.42918056684E+02  0.11567710605E+03  0.89870965132E+02 0.  0.
        -13    1    3    3    0    0 -0.46469931427E+02 -0.57773649977E+02 -0.10916720729E+03  0.13196487527E+03  0.00000000000E+00 0.  1.
         13    1    3    3    0    0  0.39945128460E+02 -0.44885081467E+02 -0.81530398741E+02  0.10127926612E+03  0.00000000000E+00 0. -1.
        -13    1    4    4    0    0  0.90003509966E+01  0.66768712808E+02 -0.48527846564E+02  0.83030230761E+02  0.00000000000E+00 0.  1.
         13    1    4    4    0    0  0.25742938571E+02 -0.19278221848E+02  0.56097898795E+01  0.32646875293E+02  0.00000000000E+00 0. -1.
          2    1    1    2  501    0 -0.28218486601E+02  0.55168240485E+02  0.14283880053E+03  0.15570080501E+03  0.00000000000E+00 0. -1.
<scales pt_clust_5="13000.00000" pt_clust_6="13000.00000" pt_clust_7="13000.00000" pt_clust_8="13000.00000" pt_clust_9="13000.00000"></scales>
<clustering>
<clus scale="   86.347">  5  6 -1 -1</clus>
<clus scale="   89.871">  7  8 -1 -1</clus>
<clus scale="   61.966">  7  9 -1 -1</clus>
<clus scale="  134.303">  2  5  1 -1</clus>
<clus scale="  252.313">  1  5  2 -1</clus>
</clustering>
</event>
<event>
 9    1  0.3303741E-006  0.3126926E+03  0.7546771E-02  0.1083422E+00
         21   -1    0    0  501  502  0.00000000000E+00  0.00000000000E+00  0.53349368506E+02  0.53349368506E+02  0.00000000000E+00 0. -1.
          1   -1    0    0  502    0 -0.00000000000E+00 -0.00000000000E+00 -0.16572540223E+04  0.16572540223E+04  0.00000000000E+00 0. -1.
         23    2    1    2    0    0  0.20188252954E+03  0.16867499046E+03 -0.85292905857E+03  0.89712873942E+03  0.90245154984E+02 0.  0.
         23    2    1    2    0    0 -0.14663454230E+03 -0.51948601813E+02 -0.39530339122E+03  0.43508317871E+03  0.93980077979E+02 0.  0.
        -11    1    3    3    0    0  0.59301167094E+02  0.15956840524E+02 -0.29590426339E+03  0.30220950063E+03  0.00000000000E+00 0.  1.
         11    1    3    3    0    0  0.14258136245E+03  0.15271814993E+03 -0.55702479518E+03  0.59491923879E+03  0.00000000000E+00 0. -1.
        -13    1    4    4    0    0 -0.11586843040E+02 -0.40815288766E+02 -0.13663589534E+03  0.14307169749E+03  0.00000000000E+00 0.  1.
         13    1    4    4    0    0 -0.13504769926E+03 -0.11133313048E+02 -0.25866749589E+03  0.29201148122E+03  0.00000000000E+00 0. -1.
          1    1    1    2  501    0 -0.55247987248E+02 -0.11672638864E+03 -0.35567220405E+03  0.37839147272E+03  0.00000000000E+00 0. -1.
<scales pt_clust_5="13000.00000" pt_clust_6="13000.00000" pt_clust_7="13000.00000" pt_clust_8="13000.00000" pt_clust_9="13000.00000"></scales>
<clustering>
<clus scale="   90.245">  5  6 -1 -1</clus>
<clus scale="   93.980">  7  8 -1 -1</clus>
<clus scale="  129.141">  7  9 -1 -1</clus>
<clus scale="  278.122">  2  5  1 -1</clus>
<clus scale="  312.693">  1  5  2 -1</clus>
</clustering>
</event>
<event>
 9    1  0.3303741E-006  0.2609350E+03  0.7546771E-02  0.1133395E+00
          1   -1    0    0  502    0 -0.00000000000E+00  0.00000000000E+00  0.82329409556E+03  0.82329409556E+03  0.00000000000E+00 0. -1.
         21   -1    0    0  501  502  0.00000000000E+00 -0.00000000000E+00 -0.48168647512E+02  0.48168647512E+02  0.00000000000E+00 0. -1.
         23    2    1    2    0    0  0.53420947380E+02 -0.79329514120E+02  0.32242379678E+03  0.34894396820E+03  0.93047400736E+02 0.  0.
         23    2    1    2    0    0 -0.79998992137E+02 -0.13025268573E+02  0.38739752066E+03  0.40632743344E+03  0.91954596354E+02 0.  0.
        -11    1    4    4    0    0  0.57827719300E+01 -0.28197826963E+02  0.48370004287E+02  0.56286900886E+02  0.00000000000E+00 0.  1.
         11    1    4    4    0    0 -0.85781764067E+02  0.15172558391E+02  0.33902751637E+03  0.35004053255E+03  0.00000000000E+00 0. -1.
        -13    1    3    3    0    0  0.35347588904E+02  0.13503791492E+01  0.34604851053E+02  0.49485061196E+02  0.00000000000E+00 0.  1.
         13    1    3    3    0    0  0.18073358475E+02 -0.80679893270E+02  0.28781894572E+03  0.29945890700E+03  0.00000000000E+00 0. -1.
          1    1    1    2  501    0  0.26578044758E+02  0.92354782693E+02  0.65304130620E+02  0.11619134144E+03  0.00000000000E+00 0. -1.
<scales pt_clust_5="13000.00000" pt_clust_6="13000.00000" pt_clust_7="13000.00000" pt_clust_8="13000.00000" pt_clust_9="13000.00000"></scales>
<clustering>
<clus scale="   91.955">  5  6 -1 -1</clus>
<clus scale="   93.047">  7  8 -1 -1</clus>
<clus scale="   96.103">  5  9 -1 -1</clus>
<clus scale="  133.435">  1  7  2 -1</clus>
<clus scale="  260.935">  2  5  1 -1</clus>
</clustering>
</event>
<event>
 9    1  0.3303741E-006  0.3268915E+03  0.7546771E-02  0.1108070E+00
         21   -1    0    0  501  502  0.00000000000E+00  0.00000000000E+00  0.49576939464E+03  0.49576939464E+03  0.00000000000E+00 0.  1.
         -2   -1    0    0    0  501 -0.00000000000E+00 -0.00000000000E+00 -0.10622199699E+03  0.10622199699E+03  0.00000000000E+00 0.  1.
         23    2    1    2    0    0 -0.81905378293E+02 -0.37275703434E+02  0.14816018726E+03  0.19563456920E+03  0.90683375084E+02 0.  0.
         23    2    1    2    0    0 -0.52279966642E+02  0.10923314980E+03  0.19297799950E+03  0.24658500833E+03  0.94332296260E+02 0.  0.
        -11    1    4    4    0    0  0.26538253485E+02  0.18370894855E+02  0.52696044627E+02  0.61795159965E+02  0.00000000000E+00 0. -1.
         11    1    4    4    0    0 -0.78818220128E+02  0.90862254943E+02  0.14028195487E+03  0.18478984837E+03  0.00000000000E+00 0.  1.
        -11    1    3    3    0    0 -0.99036880711E+01 -0.51488474750E+02  0.45393006196E+02  0.69351792197E+02  0.00000000000E+00 0. -1.
         11    1    3    3    0    0 -0.72001690222E+02  0.14212771315E+02  0.10276718106E+03  0.12628277700E+03  0.00000000000E+00 0.  1.
         -2    1    1    2    0  502  0.13418534494E+03 -0.71957446363E+02  0.48409210892E+02  0.15977181410E+03  0.00000000000E+00 0.  1.
<scales pt_clust_5="13000.00000" pt_clust_6="13000.00000" pt_clust_7="13000.00000" pt_clust_8="13000.00000" pt_clust_9="13000.00000"></scales>
<clustering>
<clus scale="   90.683">  7  8 -1 -1</clus>
<clus scale="   94.332">  5  6 -1 -1</clus>
<clus scale="  127.755">  2  7  1 -1</clus>
<clus scale="  125.127">  5  9 -1 -1</clus>
<clus scale="  326.892">  1  5  2 -1</clus>
</clustering>
</event>
<event>
 9    1  0.3303741E-006  0.2653366E+03  0.7546771E-02  0.1129490E+00
          3   -1    0    0  502    0 -0.00000000000E+00  0.00000000000E+00  0.69479018500E+03  0.69479018500E+03  0.00000000000E+00 0. -1.
         21   -1    0    0  501  502  0.00000000000E+00 -0.00000000000E+00 -0.62341096183E+02  0.62341096183E+02  0.00000000000E+00 0. -1.
         23    2    1    2    0    0  0.10149426380E+03  0.11484971524E+02  0.13992707001E+03  0.19768385364E+03  0.95217282643E+02 0.  0.
         23    2    1    2    0    0 -0.24226873067E+02 -0.66847310595E+02  0.43116897178E+03  0.44631284115E+03  0.90735691087E+02 0.  0.
        -13    1    3    3    0    0  0.55723169605E+02  0.25741893835E+02  0.14025222054E+02  0.62963668752E+02  0.00000000000E+00 0. -1.
         13    1    3    3    0    0  0.45771094194E+02 -0.14256922311E+02  0.12590184796E+03  0.13472018489E+03  0.00000000000E+00 0.  1.
        -13    1    4    4    0    0 -0.56496451248E+02 -0.23465476259E+02  0.23413815317E+03  0.24199824865E+03  0.00000000000E+00 0. -1.
         13    1    4    4    0    0  0.32269578182E+02 -0.43381834336E+02  0.19703081861E+03  0.20431459250E+03  0.00000000000E+00 0.  1.
          3    1    1    2  501    0 -0.77267390732E+02  0.55362339071E+02  0.61353047018E+02  0.11313458638E+03  0.00000000000E+00 0. -1.
<scales pt_clust_5="13000.00000" pt_clust_6="13000.00000" pt_clust_7="13000.00000" pt_clust_8="13000.00000" pt_clust_9="13000.00000"></scales>
<clustering>
<clus scale="   90.736">  7  8 -1 -1</clus>
<clus scale="   95.054">  7  9 -1 -1</clus>
<clus scale="   95.217">  5  6 -1 -1</clus>
<clus scale="  139.640">  1  5  2 -1</clus>
<clus scale="  265.337">  2  5  1 -1</clus>
</clustering>
</event>
<event>
 9    1  0.3303741E-006  0.1931388E+03  0.7546771E-02  0.1171497E+00
         -1   -1    0    0    0  501 -0.00000000000E+00  0.00000000000E+00  0.14861074998E+03  0.14861074998E+03  0.00000000000E+00 0.  1.
         21   -1    0    0  501  502  0.00000000000E+00 -0.00000000000E+00 -0.18603928532E+03  0.18603928532E+03  0.00000000000E+00 0. -1.
         23    2    1    2    0    0 -0.89525318358E+02  0.25422295566E+02 -0.45301770992E+02  0.14135085006E+03  0.96263890528E+02 0.  0.
         23    2    1    2    0    0  0.41766206267E+02  0.12097083091E+01  0.60802600233E+02  0.11719587354E+03  0.91060623756E+02 0.  0.
        -13    1    4    4    0    0  0.59990807516E+02 -0.26784341850E+02  0.48244196640E+02  0.81509511495E+02  0.00000000000E+00 0.  1.
         13    1    4    4    0    0 -0.18224601249E+02  0.27994050159E+02  0.12558403593E+02  0.35686362042E+02  0.00000000000E+00 0. -1.
        -13    1    3    3    0    0 -0.34250839422E+02 -0.34503498137E+02 -0.11345202259E+01  0.48630222300E+02  0.00000000000E+00 0.  1.
         13    1    3    3    0    0 -0.55274478936E+02  0.59925793703E+02 -0.44167250766E+02  0.92720627763E+02  0.00000000000E+00 0. -1.
         -1    1    1    2    0  502  0.47759112091E+02 -0.26632003875E+02 -0.52929364580E+02  0.76103311708E+02  0.00000000000E+00 0.  1.
<scales pt_clust_5="13000.00000" pt_clust_6="13000.00000" pt_clust_7="13000.00000" pt_clust_8="13000.00000" pt_clust_9="13000.00000"></scales>
<clustering>
<clus scale="   91.061">  5  6 -1 -1</clus>
<clus scale="   54.683">  5  9 -1 -1</clus>
<clus scale="   96.264">  7  8 -1 -1</clus>
<clus scale="  133.895">  1  7  2 -1</clus>
<clus scale="  193.139">  2  5  1 -1</clus>
</clustering>
</event>
<event>
 9    1  0.3303741E-006  0.1989233E+03  0.7546771E-02  0.1183485E+00
         21   -1    0    0  501  502  0.00000000000E+00  0.00000000000E+00  0.12677965318E+03  0.12677965318E+03  0.00000000000E+00 0. -1.
          1   -1    0    0  502    0 -0.00000000000E+00 -0.00000000000E+00 -0.30380979172E+03  0.30380979172E+03  0.00000000000E+00 0. -1.
         23    2    1    2    0    0 -0.19044271161E+02  0.85020050130E-01 -0.20914569044E+03  0.22909034010E+03  0.91530173212E+02 0.  0.
         23    2    1    2    0    0  0.39427478210E+02 -0.63845258844E+02  0.58960940723E+02  0.12937755405E+03  0.87357975289E+02 0.  0.
        -11    1    3    3    0    0  0.26108581945E+02 -0.24982692335E+02 -0.49413315751E+02  0.61216572437E+02  0.00000000000E+00 0.  1.
         11    1    3    3    0    0 -0.45152853106E+02  0.25067712385E+02 -0.15973237469E+03  0.16787376767E+03  0.00000000000E+00 0. -1.
        -13    1    4    4    0    0  0.60996650283E+02 -0.69792095024E+02  0.45363659798E+02  0.10319587930E+03  0.00000000000E+00 0. -1.
         13    1    4    4    0    0 -0.21569172073E+02  0.59468361793E+01  0.13597280925E+02  0.26181674755E+02  0.00000000000E+00 0.  1.
          1    1    1    2  501    0 -0.20383207049E+02  0.63760238794E+02 -0.26845388831E+02  0.72121550747E+02  0.00000000000E+00 0. -1.
<scales pt_clust_5="13000.00000" pt_clust_6="13000.00000" pt_clust_7="13000.00000" pt_clust_8="13000.00000" pt_clust_9="13000.00000"></scales>
<clustering>
<clus scale="   87.358">  7  8 -1 -1</clus>
<clus scale="   66.939">  7  9 -1 -1</clus>
<clus scale="   91.530">  5  6 -1 -1</clus>
<clus scale="   93.490">  2  5  1 -1</clus>
<clus scale="  198.923">  1  5  2 -1</clus>
</clustering>
</event>
<event>
 9    1  0.3303741E-006  0.1225577E+03  0.7546771E-02  0.1252992E+00
         21   -1    0    0  501  502  0.00000000000E+00  0.00000000000E+00  0.61065065151E+03  0.61065065151E+03  0.00000000000E+00 0.  1.
          1   -1    0    0  502    0 -0.00000000000E+00 -0.00000000000E+00 -0.18943179486E+02  0.18943179486E+02  0.00000000000E+00 0. -1.
         23    2    1    2    0    0  0.24829695840E+02  0.63423120047E+01  0.24203326455E+03  0.25906388340E+03  0.88753905933E+02 0.  0.
         23    2    1    2    0    0 -0.41441542265E+02  0.87208848590E+01  0.27601097837E+03  0.29352913809E+03  0.90464575782E+02 0.  0.
        -11    1    4    4    0    0 -0.64681403824E+02 -0.15241314192E+02  0.18817466407E+03  0.19956373883E+03  0.00000000000E+00 0. -1.
         11    1    4    4    0    0  0.23239861559E+02  0.23962199051E+02  0.87836314297E+02  0.93965399258E+02  0.00000000000E+00 0.  1.
        -13    1    3    3    0    0 -0.25471837361E+02  0.62071137192E+01  0.24819933895E+02  0.36102242006E+02  0.00000000000E+00 0. -1.
         13    1    3    3    0    0  0.50301533201E+02  0.13519828552E+00  0.21721333065E+03  0.22296164140E+03  0.00000000000E+00 0.  1.
          1    1    1    2  501    0  0.16611846425E+02 -0.15063196864E+02  0.73663229105E+02  0.77000809500E+02  0.00000000000E+00 0. -1.
<scales pt_clust_5="13000.00000" pt_clust_6="13000.00000" pt_clust_7="13000.00000" pt_clust_8="13000.00000" pt_clust_9="13000.00000"></scales>
<clustering>
<clus scale="   88.754">  7  8 -1 -1</clus>
<clus scale="   90.465">  5  6 -1 -1</clus>
<clus scale="   22.424">  5  9 -1 -1</clus>
<clus scale="   92.380">  2  7  1 -1</clus>
<clus scale="  122.558">  1  5  2 -1</clus>
</clustering>
</event>
<event>
 9    1  0.3303741E-006  0.4131793E+03  0.7546771E-02  0.1080018E+00
         21   -1    0    0  501  502  0.00000000000E+00  0.00000000000E+00  0.10850035966E+03  0.10850035966E+03  0.00000000000E+00 0.  1.
          2   -1    0    0  502    0 -0.00000000000E+00 -0.00000000000E+00 -0.85872471063E+03  0.85872471063E+03  0.00000000000E+00 0. -1.
         23    2    1    2    0    0 -0.95258356633E+02  0.79449530297E+01 -0.41390259444E+03  0.43446858515E+03  0.91160940153E+02 0.  0.
         23    2    1    2    0    0  0.22569849770E+03  0.73226425316E+02 -0.17064278799E+03  0.30680750046E+03  0.93327166569E+02 0.  0.
        -11    1    4    4    0    0  0.81480266528E+02 -0.18751941096E+02 -0.48973863466E+02  0.96897411891E+02  0.00000000000E+00 0. -1.
         11    1    4    4    0    0  0.14421823117E+03  0.91978366412E+02 -0.12166892453E+03  0.20991008857E+03  0.00000000000E+00 0.  1.
        -13    1    3    3    0    0 -0.75873622499E+02  0.30860269842E+02 -0.38193248987E+03  0.39061693468E+03  0.00000000000E+00 0. -1.
         13    1    3    3    0    0 -0.19384734134E+02 -0.22915316812E+02 -0.31970104574E+02  0.43851650465E+02  0.00000000000E+00 0.  1.
          2    1    1    2  501    0 -0.13044014106E+03 -0.81171378345E+02 -0.16567896854E+03  0.22594898468E+03  0.00000000000E+00 0. -1.
<scales pt_clust_5="13000.00000" pt_clust_6="13000.00000" pt_clust_7="13000.00000" pt_clust_8="13000.00000" pt_clust_9="13000.00000"></scales>
<clustering>
<clus scale="   91.161">  7  8 -1 -1</clus>
<clus scale="   93.327">  5  6 -1 -1</clus>
<clus scale="  132.089">  2  7  1 -1</clus>
<clus scale="  189.937">  5  9 -1 -1</clus>
<clus scale="  413.179">  1  5  2 -1</clus>
</clustering>
</event>
<event>
 9    1  0.3303741E-006  0.1401559E+03  0.7546771E-02  0.1231137E+00
         21   -1    0    0  501  502  0.00000000000E+00  0.00000000000E+00  0.66124924327E+03  0.66124924327E+03  0.00000000000E+00 0.  1.
          1   -1    0    0  502    0 -0.00000000000E+00 -0.00000000000E+00 -0.28755195580E+02  0.28755195580E+02  0.00000000000E+00 0. -1.
         23    2    1    2    0    0  0.24264156340E+01 -0.42494349611E+02  0.97375337067E+02  0.13683564218E+03  0.86199648845E+02 0.  0.
         23    2    1    2    0    0  0.26433392140E+02  0.40877698807E+02  0.48829549380E+03  0.49814229670E+03  0.85694504026E+02 0.  0.
        -11    1    3    3    0    0 -0.37160273208E+02 -0.15568608335E+02  0.72354719923E+02  0.82815898024E+02  0.00000000000E+00 0.  1.
         11    1    3    3    0    0  0.39586688842E+02 -0.26925741276E+02  0.25020617144E+02  0.54019744159E+02  0.00000000000E+00 0. -1.
        -11    1    4    4    0    0 -0.23160914029E+02 -0.11656232112E+02  0.11052255108E+03  0.11352325746E+03  0.00000000000E+00 0.  1.
         11    1    4    4    0    0  0.49594306169E+02  0.52533930920E+02  0.37777294272E+03  0.38461903925E+03  0.00000000000E+00 0. -1.
          1    1    1    2  501    0 -0.28859807774E+02  0.16166508042E+01  0.46823216825E+02  0.55026499965E+02  0.00000000000E+00 0. -1.
<scales pt_clust_5="13000.00000" pt_clust_6="13000.00000" pt_clust_7="13000.00000" pt_clust_8="13000.00000" pt_clust_9="13000.00000"></scales>
<clustering>
<clus scale="   85.695">  7  8 -1 -1</clus>
<clus scale="   28.905">  7  9 -1 -1</clus>
<clus scale="   86.200">  5  6 -1 -1</clus>
<clus scale="   96.136">  2  5  1 -1</clus>
<clus scale="  140.156">  1  5  2 -1</clus>
</clustering>
</event>
<event>
 9    1  0.3303741E-006  0.1744122E+03  0.7546771E-02  0.1194713E+00
         21   -1    0    0  501  502  0.00000000000E+00  0.00000000000E+00  0.16387091420E+03  0.16387091420E+03  0.00000000000E+00 0. -1.
         -1   -1    0    0    0  501 -0.00000000000E+00 -0.00000000000E+00 -0.12221528021E+03  0.12221528021E+03  0.00000000000E+00 0.  1.
         23    2    1    2    0    0  0.66996657602E+02 -0.27287831957E+02  0.82520501890E+01  0.10850407259E+03  0.80447868416E+02 0.  0.
         23    2    1    2    0    0 -0.41479325115E+01  0.11857221635E+01  0.11630823427E+02  0.10613049150E+03  0.10540300704E+03 0.  0.
        -11    1    4    4    0    0 -0.31545865536E+02 -0.10344161146E+02  0.48498077099E+02  0.58772500241E+02  0.00000000000E+00 0. -1.
         11    1    4    4    0    0  0.27397933025E+02  0.11529883310E+02 -0.36867253672E+02  0.47357991263E+02  0.00000000000E+00 0.  1.
        -11    1    3    3    0    0  0.27982187967E+02 -0.53711936882E+02 -0.56033613797E+00  0.60566401442E+02  0.00000000000E+00 0. -1.
         11    1    3    3    0    0  0.39014469635E+02  0.26424104925E+02  0.88123863270E+01  0.47937671144E+02  0.00000000000E+00 0.  1.
         -1    1    1    2    0  502 -0.62848725091E+02  0.26102109793E+02  0.21772760381E+02  0.71451630323E+02  0.00000000000E+00 0.  1.
<scales pt_clust_5="13000.00000" pt_clust_6="13000.00000" pt_clust_7="13000.00000" pt_clust_8="13000.00000" pt_clust_9="13000.00000"></scales>
<clustering>
<clus scale="   80.448">  7  8 -1 -1</clus>
<clus scale="  105.403">  5  6 -1 -1</clus>
<clus scale="   68.054">  5  9 -1 -1</clus>
<clus scale="  108.190">  2  7  1 -1</clus>
<clus scale="  174.412">  1  5  2 -1</clus>
</clustering>
</event>
<event>
 9    1  0.3303741E-006  0.3111715E+03  0.7546771E-02  0.1117022E+00
         21   -1    0    0  501  502  0.00000000000E+00  0.00000000000E+00  0.51765814861E+02  0.51765814861E+02  0.00000000000E+00 0. -1.
         -1   -1    0    0    0  501 -0.00000000000E+00 -0.00000000000E+00 -0.10801439082E+04  0.10801439082E+04  0.00000000000E+00 0.  1.
         23    2    1    2    0    0 -0.30042084340E+02  0.67458899216E+02 -0.54054614059E+03  0.55328403358E+03  0.92086165077E+02 0.  0.
         23    2    1    2    0    0 -0.30329821124E+02  0.32907162916E+02 -0.28996600490E+02  0.10507738795E+03  0.90541013898E+02 0.  0.
        -11    1    4    4    0    0  0.27542502682E+02  0.20231124402E+02  0.81733515165E+01  0.35138177579E+02  0.00000000000E+00 0. -1.
         11    1    4    4    0    0 -0.57872323806E+02  0.12676038514E+02 -0.37169952006E+02  0.69939210370E+02  0.00000000000E+00 0.  1.
        -13    1    3    3    0    0 -0.55338317850E+02  0.11988024757E+02 -0.28448173793E+03  0.29006189232E+03  0.00000000000E+00 0.  1.
         13    1    3    3    0    0  0.25296233510E+02  0.55470874459E+02 -0.25606440266E+03  0.26322214126E+03  0.00000000000E+00 0. -1.
         -1    1    1    2    0  502  0.60371905465E+02 -0.10036606213E+03 -0.45883535230E+03  0.47354830157E+03  0.00000000000E+00 0.  1.
<scales pt_clust_5="13000.00000" pt_clust_6="13000.00000" pt_clust_7="13000.00000" pt_clust_8="13000.00000" pt_clust_9="13000.00000"></scales>
<clustering>
<clus scale="   90.541">  5  6 -1 -1</clus>
<clus scale="   92.086">  7  8 -1 -1</clus>
<clus scale="  117.124">  5  9 -1 -1</clus>
<clus scale="  118.039">  2  7  1 -1</clus>
<clus scale="  311.171">  1  5  2 -1</clus>
</clustering>
</event>
<event>
 9    1  0.3303741E-006  0.2737410E+03  0.7546771E-02  0.1130551E+00
         21   -1    0    0  501  502  0.00000000000E+00  0.00000000000E+00  0.18082454182E+03  0.18082454182E+03  0.00000000000E+00 0. -1.
          1   -1    0    0  502    0 -0.00000000000E+00 -0.00000000000E+00 -0.31552148863E+03  0.31552148863E+03  0.00000000000E+00 0. -1.
         23    2    1    2    0    0  0.31587407404E+01 -0.39081480044E+02 -0.18036527218E+03  0.21882175219E+03  0.11753292346E+03 0.  0.
         23    2    1    2    0    0 -0.54315528887E+02  0.70208907982E+02 -0.71602957954E+02  0.14584858713E+03  0.90914021707E+02 0.  0.
        -11    1    3    3    0    0 -0.52974367097E+02 -0.17478035782E+02 -0.12579537528E+03  0.13760901768E+03  0.00000000000E+00 0. -1.
         11    1    3    3    0    0  0.56133107837E+02 -0.21603444262E+02 -0.54569896896E+02  0.81212734510E+02  0.00000000000E+00 0.  1.
        -13    1    4    4    0    0 -0.65012314185E+02  0.20868089184E+02 -0.66150141793E+02  0.95067972531E+02  0.00000000000E+00 0.  1.
         13    1    4    4    0    0  0.10696785297E+02  0.49340818799E+02 -0.54528161605E+01  0.50780614603E+02  0.00000000000E+00 0. -1.
          1    1    1    2  501    0  0.51156788147E+02 -0.31127427938E+02  0.11727128332E+03  0.13167569113E+03  0.00000000000E+00 0. -1.
<scales pt_clust_5="13000.00000" pt_clust_6="13000.00000" pt_clust_7="13000.00000" pt_clust_8="13000.00000" pt_clust_9="13000.00000"></scales>
<clustering>
<clus scale="   90.914">  7  8 -1 -1</clus>
<clus scale="   59.883">  7  9 -1 -1</clus>
<clus scale="  117.533">  5  6 -1 -1</clus>
<clus scale="  123.900">  2  5  1 -1</clus>
<clus scale="  273.741">  1  5  2 -1</clus>
</clustering>
</event>
<event>
 9    1  0.3303741E-006  0.2089500E+03  0.7546771E-02  0.1172732E+00
          2   -1    0    0  502    0 -0.00000000000E+00  0.00000000000E+00  0.75763962009E+02  0.75763962009E+02  0.00000000000E+00 0. -1.
         21   -1    0    0  501  502  0.00000000000E+00 -0.00000000000E+00 -0.34993478181E+03  0.34993478181E+03  0.00000000000E+00 0. -1.
         23    2    1    2    0    0 -0.11631270996E+02 -0.45257822111E+02 -0.15246302108E+03  0.18388703715E+03  0.91574629170E+02 0.  0.
         23    2    1    2    0    0 -0.47196111615E+02  0.76978641835E+02 -0.33670229792E+02  0.13127897445E+03  0.89147633217E+02 0.  0.
        -11    1    4    4    0    0  0.26064856481E+02  0.10990684246E+02 -0.78358517440E+01  0.29352554508E+02  0.00000000000E+00 0.  1.
         11    1    4    4    0    0 -0.73260968097E+02  0.65987957589E+02 -0.25834378048E+02  0.10192641994E+03  0.00000000000E+00 0. -1.
        -13    1    3    3    0    0 -0.73263222731E+01  0.20123798663E+02 -0.92902834092E+02  0.95339282843E+02  0.00000000000E+00 0.  1.
         13    1    3    3    0    0 -0.43049487225E+01 -0.65381620774E+02 -0.59560186984E+02  0.88547754303E+02  0.00000000000E+00 0. -1.
          2    1    1    2  501    0  0.58827382611E+02 -0.31720819724E+02 -0.88037568935E+02  0.11053273222E+03  0.00000000000E+00 0. -1.
<scales pt_clust_5="13000.00000" pt_clust_6="13000.00000" pt_clust_7="13000.00000" pt_clust_8="13000.00000" pt_clust_9="13000.00000"></scales>
<clustering>
<clus scale="   89.148">  5  6 -1 -1</clus>
<clus scale="   66.835">  5  9 -1 -1</clus>
<clus scale="   91.575">  7  8 -1 -1</clus>
<clus scale="  102.808">  1  7  2 -1</clus>
<clus scale="  208.950">  2  5  1 -1</clus>
</clustering>
</event>
<event>
 9    1  0.3303741E-006  0.5349555E+03  0.7546771E-02  0.1063117E+00
         21   -1    0    0  501  502  0.00000000000E+00  0.00000000000E+00  0.34508404827E+03  0.34508404827E+03  0.00000000000E+00 0. -1.
          4   -1    0    0  502    0 -0.00000000000E+00 -0.00000000000E+00 -0.50486224395E+03  0.50486224395E+03  0.00000000000E+00 0. -1.
         23    2    1    2    0    0  0.20090506254E+02  0.15534087772E+02 -0.28464639391E+03  0.30061081955E+03  0.93264993117E+02 0.  0.
         23    2    1    2    0    0 -0.66352135275E+02 -0.10466211005E+03 -0.17221008515E+03  0.23574425924E+03  0.10277294975E+03 0.  0.
        -11    1    3    3    0    0 -0.32092406799E+02 -0.57739537420E+01 -0.16706314218E+03  0.17021561206E+03  0.00000000000E+00 0. -1.
         11    1    3    3    0    0  0.52182913053E+02  0.21308041514E+02 -0.11758325174E+03  0.13039520749E+03  0.00000000000E+00 0.  1.
        -13    1    4    4    0    0 -0.10367630552E+01 -0.92217762428E+02 -0.80159954735E+02  0.12219168928E+03  0.00000000000E+00 0. -1.
         13    1    4    4    0    0 -0.65315372219E+02 -0.12444347625E+02 -0.92050130415E+02  0.11355256996E+03  0.00000000000E+00 0.  1.
          4    1    1    2  501    0  0.46261629021E+02  0.89128022282E+02  0.29707828338E+03  0.31359121342E+03  0.00000000000E+00 0. -1.
<scales pt_clust_5="13000.00000" pt_clust_6="13000.00000" pt_clust_7="13000.00000" pt_clust_8="13000.00000" pt_clust_9="13000.00000"></scales>
<clustering>
<clus scale="   93.265">  5  6 -1 -1</clus>
<clus scale="   96.661">  2  5  1 -1</clus>
<clus scale="  102.773">  7  8 -1 -1</clus>
<clus scale="  101.316">  7  9 -1 -1</clus>
<clus scale="  534.956">  1  5  2 -1</clus>
</clustering>
</event>
<event>
 9    1  0.3303741E-006  0.1611013E+03  0.7546771E-02  0.1213137E+00
         21   -1    0    0  501  502  0.00000000000E+00  0.00000000000E+00  0.12499740450E+03  0.12499740450E+03  0.00000000000E+00 0.  1.
          4   -1    0    0  502    0 -0.00000000000E+00 -0.00000000000E+00 -0.24372672775E+03  0.24372672775E+03  0.00000000000E+00 0. -1.
         23    2    1    2    0    0  0.13567098817E+02  0.13396458902E+02 -0.17520624503E+03  0.19801010930E+03  0.90262083987E+02 0.  0.
         23    2    1    2    0    0  0.14401366431E+02  0.39409535440E+02  0.44613175643E+02  0.10979229809E+03  0.91123555904E+02 0.  0.
        -13    1    3    3    0    0 -0.22469438643E+02  0.32287143976E+02 -0.13574521582E+03  0.14132975255E+03  0.00000000000E+00 0.  1.
         13    1    3    3    0    0  0.36036537460E+02 -0.18890685073E+02 -0.39461029219E+02  0.56680356753E+02  0.00000000000E+00 0. -1.
        -13    1    4    4    0    0  0.16470998605E+02  0.13072996061E+02  0.70038376550E+02  0.73127089446E+02  0.00000000000E+00 0.  1.
         13    1    4    4    0    0 -0.20696321741E+01  0.26336539380E+02 -0.25425200908E+02  0.36665208646E+02  0.00000000000E+00 0. -1.
          4    1    1    2  501    0 -0.27968465248E+02 -0.52805994342E+02  0.11863746138E+02  0.60921724854E+02  0.00000000000E+00 0. -1.
<scales pt_clust_5="13000.00000" pt_clust_6="13000.00000" pt_clust_7="13000.00000" pt_clust_8="13000.00000" pt_clust_9="13000.00000"></scales>
<clustering>
<clus scale="   90.262">  5  6 -1 -1</clus>
<clus scale="   91.124">  7  8 -1 -1</clus>
<clus scale="   59.755">  7  9 -1 -1</clus>
<clus scale="   92.254">  2  5  1 -1</clus>
<clus scale="  161.101">  1  5  2 -1</clus>
</clustering>
</event>
<event>
 9    1  0.3303741E-006  0.1753635E+03  0.7546771E-02  0.1201466E+00
         -3   -1    0    0    0  501 -0.00000000000E+00  0.00000000000E+00  0.48294400708E+02  0.48294400708E+02  0.00000000000E+00 0.  1.
         21   -1    0    0  501  502  0.00000000000E+00 -0.00000000000E+00 -0.49253525603E+03  0.49253525603E+03  0.00000000000E+00 0. -1.
         23    2    1    2    0    0  0.59778506018E+01  0.18313620853E+02 -0.30004127698E+03  0.31379251917E+03  0.89832364930E+02 0.  0.
         23    2    1    2    0    0  0.36167407729E+02 -0.58022699426E+02 -0.85713935701E+02  0.14473522923E+03  0.94481176837E+02 0.  0.
        -11    1    4    4    0    0  0.54538484384E+02  0.12679245961E+01 -0.40264672271E+02  0.67803375615E+02  0.00000000000E+00 0. -1.
         11    1    4    4    0    0 -0.18371076655E+02 -0.59290624022E+02 -0.45449263430E+02  0.76931853615E+02  0.00000000000E+00 0.  1.
        -13    1    3    3    0    0 -0.39553103283E+02  0.66841693671E+01 -0.89623258283E+02  0.98190908564E+02  0.00000000000E+00 0.  1.
         13    1    3    3    0    0  0.45530953885E+02  0.11629451486E+02 -0.21041801869E+03  0.21560161060E+03  0.00000000000E+00 0. -1.
         -3    1    1    2    0  502 -0.42145258331E+02  0.39709078573E+02 -0.58485642640E+02  0.82301908337E+02  0.00000000000E+00 0.  1.
<scales pt_clust_5="13000.00000" pt_clust_6="13000.00000" pt_clust_7="13000.00000" pt_clust_8="13000.00000" pt_clust_9="13000.00000"></scales>
<clustering>
<clus scale="   89.832">  7  8 -1 -1</clus>
<clus scale="   91.875">  1  7  2 -1</clus>
<clus scale="   94.481">  5  6 -1 -1</clus>
<clus scale="   60.473">  5  9 -1 -1</clus>
<clus scale="  175.363">  2  5  1 -1</clus>
</clustering>
</event>
<event>
 9    1  0.3303741E-006  0.2462595E+03  0.7546771E-02  0.1151769E+00
         21   -1    0    0  501  502  0.00000000000E+00  0.00000000000E+00  0.99392645878E+02  0.99392645878E+02  0.00000000000E+00 0. -1.
          1   -1    0    0  502    0 -0.00000000000E+00 -0.00000000000E+00 -0.30571177181E+03  0.30571177181E+03  0.00000000000E+00 0. -1.
         23    2    1    2    0    0  0.11744123044E+02  0.58906033427E+02 -0.67618502798E+02  0.12247109273E+03  0.82577608542E+02 0.  0.
         23    2    1    2    0    0 -0.85937765013E+02 -0.54694862835E+02 -0.15534135471E+03  0.20647989816E+03  0.90145351426E+02 0.  0.
        -13    1    3    3    0    0  0.12658645707E+02 -0.17233070705E+02 -0.31805278171E+02  0.38324871254E+02  0.00000000000E+00 0. -1.
         13    1    3    3    0    0 -0.91452266240E+00  0.76139104132E+02 -0.35813224627E+02  0.84146221471E+02  0.00000000000E+00 0.  1.
        -13    1    4    4    0    0 -0.71726074054E+02 -0.32597101984E+02 -0.40334769325E+02  0.88510419575E+02  0.00000000000E+00 0.  1.
         13    1    4    4    0    0 -0.14211690959E+02 -0.22097760851E+02 -0.11500658539E+03  0.11796947858E+03  0.00000000000E+00 0. -1.
          1    1    1    2  501    0  0.74193641969E+02 -0.42111705916E+01  0.16640731580E+02  0.76153426803E+02  0.00000000000E+00 0. -1.
<scales pt_clust_5="13000.00000" pt_clust_6="13000.00000" pt_clust_7="13000.00000" pt_clust_8="13000.00000" pt_clust_9="13000.00000"></scales>
<clustering>
<clus scale="   82.578">  5  6 -1 -1</clus>
<clus scale="   90.145">  7  8 -1 -1</clus>
<clus scale="   74.313">  7  9 -1 -1</clus>
<clus scale="  102.112">  2  5  1 -1</clus>
<clus scale="  246.259">  1  5  2 -1</clus>
</clustering>
</event>
<event>
 9    1  0.3303741E-006  0.4228283E+03  0.7546771E-02  0.1063707E+00
         21   -1    0    0  501  502  0.00000000000E+00  0.00000000000E+00  0.10599554050E+03  0.10599554050E+03  0.00000000000E+00 0. -1.
          1   -1    0    0  502    0 -0.00000000000E+00 -0.00000000000E+00 -0.10735844670E+04  0.10735844670E+04  0.00000000000E+00 0. -1.
         23    2    1    2    0    0 -0.11186160635E+03 -0.12407474272E+03 -0.56040522917E+03  0.59256868378E+03  0.95791770832E+02 0.  0.
         23    2    1    2    0    0  0.17805331071E+03 -0.74657593584E+02 -0.20069242325E+03  0.29287780048E+03  0.90681969148E+02 0.  0.
        -13    1    3    3    0    0 -0.48439236346E+02  0.26064414079E+01 -0.10559297138E+03  0.11620253336E+03  0.00000000000E+00 0.  1.
         13    1    3    3    0    0 -0.63422370006E+02 -0.12668118413E+03 -0.45481225779E+03  0.47636615042E+03  0.00000000000E+00 0. -1.
        -13    1    4    4    0    0  0.14257146353E+03 -0.16824112887E+02 -0.15385964918E+03  0.21043399116E+03  0.00000000000E+00 0.  1.
         13    1    4    4    0    0  0.35481847183E+02 -0.57833480697E+02 -0.46832774074E+02  0.82443809328E+02  0.00000000000E+00 0. -1.
          1    1    1    2  501    0 -0.66191704363E+02  0.19873233631E+03 -0.20649127408E+03  0.29413352324E+03  0.00000000000E+00 0. -1.
<scales pt_clust_5="13000.00000" pt_clust_6="13000.00000" pt_clust_7="13000.00000" pt_clust_8="13000.00000" pt_clust_9="13000.00000"></scales>
<clustering>
<clus scale="   90.682">  7  8 -1 -1</clus>
<clus scale="   95.792">  5  6 -1 -1</clus>
<clus scale="  192.571">  2  5  1 -1</clus>
<clus scale="  183.239">  7  9 -1 -1</clus>
<clus scale="  422.828">  1  5  2 -1</clus>
</clustering>
</event>
<event>
 9    1  0.3303741E-006  0.1695007E+03  0.7546771E-02  0.1186797E+00
         21   -1    0    0  501  502  0.00000000000E+00  0.00000000000E+00  0.53466196973E+02  0.53466196973E+02  0.00000000000E+00 0.  1.
         -1   -1    0    0    0  501 -0.00000000000E+00 -0.00000000000E+00 -0.48420800153E+03  0.48420800153E+03  0.00000000000E+00 0.  1.
         23    2    1    2    0    0 -0.20863489397E+02  0.10468644843E+03 -0.26882660905E+03  0.30326638440E+03  0.91149418524E+02 0.  0.
         23    2    1    2    0    0  0.38841232135E+02 -0.49483127740E+02 -0.12017303379E+03  0.16290247225E+03  0.90213281562E+02 0.  0.
        -13    1    4    4    0    0  0.40755574524E+02 -0.74355072990E+02 -0.88173612099E+02  0.12232857232E+03  0.00000000000E+00 0.  1.
         13    1    4    4    0    0 -0.19143423891E+01  0.24871945250E+02 -0.31999421691E+02  0.40573899934E+02  0.00000000000E+00 0. -1.
        -13    1    3    3    0    0  0.25860458578E+02  0.27498125505E+02 -0.30822765395E+02  0.48733490442E+02  0.00000000000E+00 0. -1.
         13    1    3    3    0    0 -0.46723947974E+02  0.77188322926E+02 -0.23800384365E+03  0.25453289395E+03  0.00000000000E+00 0.  1.
         -1    1    1    2    0  502 -0.17977742739E+02 -0.55203320691E+02 -0.41742161722E+02  0.71505341860E+02  0.00000000000E+00 0.  1.
<scales pt_clust_5="13000.00000" pt_clust_6="13000.00000" pt_clust_7="13000.00000" pt_clust_8="13000.00000" pt_clust_9="13000.00000"></scales>
<clustering>
<clus scale="   90.213">  5  6 -1 -1</clus>
<clus scale="   58.057">  5  9 -1 -1</clus>
<clus scale="   91.149">  7  8 -1 -1</clus>
<clus scale="  140.366">  2  7  1 -1</clus>
<clus scale="  169.501">  1  5  2 -1</clus>
</clustering>
</event>
<event>
 9    1  0.3303741E-006  0.1963474E+03  0.7546771E-02  0.1183669E+00
         -1   -1    0    0    0  501 -0.00000000000E+00  0.00000000000E+00  0.47858096085E+03  0.47858096085E+03  0.00000000000E+00 0.  1.
         21   -1    0    0  501  502  0.00000000000E+00 -0.00000000000E+00 -0.50329652302E+02  0.50329652302E+02  0.00000000000E+00 0. -1.
         23    2    1    2    0    0 -0.27021519893E+02 -0.14712927320E+02  0.23157591322E+03  0.25100143626E+03  0.91802421810E+02 0.  0.
         23    2    1    2    0    0 -0.39782695922E+02  0.44792209090E+02  0.16531663207E+03  0.19821640134E+03  0.91493978118E+02 0.  0.
        -11    1    4    4    0    0 -0.13886244457E+02  0.57527930782E+02  0.44616540932E+02  0.74114278853E+02  0.00000000000E+00 0. -1.
         11    1    4    4    0    0 -0.25896451465E+02 -0.12735721692E+02  0.12070009114E+03  0.12410212249E+03  0.00000000000E+00 0.  1.
        -13    1    3    3    0    0  0.17186713884E+02 -0.31745950959E+02  0.16731067655E+03  0.17116089222E+03  0.00000000000E+00 0.  1.
         13    1    3    3    0    0 -0.44208233778E+02  0.17033023639E+02  0.64265236670E+02  0.79840544038E+02  0.00000000000E+00 0. -1.
         -1    1    1    2    0  502  0.66804215815E+02 -0.30079281770E+02  0.31358763253E+02  0.79692775552E+02  0.00000000000E+00 0.  1.
<scales pt_clust_5="13000.00000" pt_clust_6="13000.00000" pt_clust_7="13000.00000" pt_clust_8="13000.00000" pt_clust_9="13000.00000"></scales>
<clustering>
<clus scale="   91.494">  5  6 -1 -1</clus>
<clus scale="   73.264">  5  9 -1 -1</clus>
<clus scale="   91.802">  7  8 -1 -1</clus>
<clus scale="   96.821">  1  7  2 -1</clus>
<clus scale="  196.347">  2  5  1 -1</clus>
</clustering>
</event>
<event>
 9    1  0.3303741E-006  0.2612750E+03  0.7546771E-02  0.1122788E+00
         21   -1    0    0  501  502  0.00000000000E+00  0.00000000000E+00  0.58729460993E+03  0.58729460993E+03  0.00000000000E+00 0.  1.
          1   -1    0    0  502    0 -0.00000000000E+00 -0.00000000000E+00 -0.15012939484E+03  0.15012939484E+03  0.00000000000E+00 0. -1.
         23    2    1    2    0    0 -0.14175763989E+03 -0.37255284366E+02  0.44367006024E+03  0.47606803648E+03  0.91183706460E+02 0.  0.
         23    2    1    2    0    0  0.11264666150E+03  0.79163084357E+02 -0.70404784735E+02  0.17958240874E+03  0.91306864716E+02 0.  0.
        -11    1    4    4    0    0  0.18014968730E+02  0.49147908927E+02  0.81612593705E+01  0.52977940738E+02  0.00000000000E+00 0. -1.
         11    1    4    4    0    0  0.94631692766E+02  0.30015175430E+02 -0.78566044106E+02  0.12660446800E+03  0.00000000000E+00 0.  1.
        -13    1    3    3    0    0 -0.11588845315E+03 -0.10852636159E+02  0.40953298810E+03  0.42575248869E+03  0.00000000000E+00 0.  1.
         13    1    3    3    0    0 -0.25869186744E+02 -0.26402648206E+02  0.34137072144E+02  0.50315547793E+02  0.00000000000E+00 0. -1.
          1    1    1    2  501    0  0.29110978397E+02 -0.41907799992E+02  0.63899939573E+02  0.81773559546E+02  0.00000000000E+00 0. -1.
<scales pt_clust_5="13000.00000" pt_clust_6="13000.00000" pt_clust_7="13000.00000" pt_clust_8="13000.00000" pt_clust_9="13000.00000"></scales>
<clustering>
<clus scale="   91.184">  7  8 -1 -1</clus>
<clus scale="   91.307">  5  6 -1 -1</clus>
<clus scale="   51.027">  5  9 -1 -1</clus>
<clus scale="  172.620">  2  7  1 -1</clus>
<clus scale="  261.275">  1  5  2 -1</clus>
</clustering>
</event>
<event>
 9    1  0.3303741E-006  0.1506260E+03  0.7546771E-02  0.1209693E+00
         21   -1    0    0  501  502  0.00000000000E+00  0.00000000000E+00  0.62534509172E+03  0.62534509172E+03  0.00000000000E+00 0.  1.
          1   -1    0    0  502    0 -0.00000000000E+00 -0.00000000000E+00 -0.33532094274E+02  0.33532094274E+02  0.00000000000E+00 0. -1.
         23    2    1    2    0    0  0.36663172297E+02 -0.65900513748E+02  0.38019958672E+03  0.39913033930E+03  0.95216784719E+02 0.  0.
         23    2    1    2    0    0 -0.42985912216E+02  0.18244516540E+02  0.13472593020E+03  0.16906743463E+03  0.90840905725E+02 0.  0.
        -11    1    3    3    0    0 -0.13273502638E+02 -0.70032691821E+02  0.21624877628E+03  0.22769342775E+03  0.00000000000E+00 0.  1.
         11    1    3    3    0    0  0.49936674935E+02  0.41321780730E+01  0.16395081043E+03  0.17143691155E+03  0.00000000000E+00 0. -1.
        -11    1    4    4    0    0 -0.53047691861E+02  0.43359754447E+02  0.65682612682E+02  0.94912230646E+02  0.00000000000E+00 0. -1.
         11    1    4    4    0    0  0.10061779645E+02 -0.25115237907E+02  0.69043317518E+02  0.74155203989E+02  0.00000000000E+00 0.  1.
          1    1    1    2  501    0  0.63227399192E+01  0.47655997209E+02  0.76887480533E+02  0.90679412067E+02  0.00000000000E+00 0. -1.
<scales pt_clust_5="13000.00000" pt_clust_6="13000.00000" pt_clust_7="13000.00000" pt_clust_8="13000.00000" pt_clust_9="13000.00000"></scales>
<clustering>
<clus scale="   90.841">  7  8 -1 -1</clus>
<clus scale="   48.074">  7  9 -1 -1</clus>
<clus scale="   95.217">  5  6 -1 -1</clus>
<clus scale="  121.463">  2  5  1 -1</clus>
<clus scale="  150.626">  1  5  2 -1</clus>
</clustering>
</event>
<event>
 9    1  0.3303741E-006  0.3899335E+03  0.7546771E-02  0.1073818E+00
         21   -1    0    0  501  502  0.00000000000E+00  0.00000000000E+00  0.61239921647E+02  0.61239921647E+02  0.00000000000E+00 0. -1.
          2   -1    0    0  502    0 -0.00000000000E+00 -0.00000000000E+00 -0.13536234875E+04  0.13536234875E+04  0.00000000000E+00 0. -1.
         23    2    1    2    0    0 -0.14221140612E+03 -0.81406390467E+02 -0.41995357612E+03  0.45925771151E+03  0.87781290985E+02 0.  0.
         23    2    1    2    0    0  0.17055841654E+03 -0.90273224607E+02 -0.53620346457E+03  0.57702186352E+03  0.90557423929E+02 0.  0.
        -13    1    4    4    0    0  0.88364343946E+02 -0.93748468156E+01 -0.15400335953E+03  0.17780095551E+03  0.00000000000E+00 0.  1.
         13    1    4    4    0    0  0.82194072595E+02 -0.80898377791E+02 -0.38220010504E+03  0.39922090801E+03  0.00000000000E+00 0. -1.
        -13    1    3    3    0    0 -0.41092464391E+02  0.77441320745E+01 -0.48167294668E+02  0.63785974061E+02  0.00000000000E+00 0.  1.
         13    1    3    3    0    0 -0.10111894173E+03 -0.89150522542E+02 -0.37178628145E+03  0.39547173745E+03  0.00000000000E+00 0. -1.
          2    1    1    2  501    0 -0.28347010424E+02  0.17167961507E+03 -0.33622652517E+03  0.37858383412E+03  0.00000000000E+00 0. -1.
<scales pt_clust_5="13000.00000" pt_clust_6="13000.00000" pt_clust_7="13000.00000" pt_clust_8="13000.00000" pt_clust_9="13000.00000"></scales>
<clustering>
<clus scale="   87.781">  7  8 -1 -1</clus>
<clus scale="   90.557">  5  6 -1 -1</clus>
<clus scale="  174.004">  5  9 -1 -1</clus>
<clus scale="  185.894">  2  7  1 -1</clus>
<clus scale="  389.934">  1  5  2 -1</clus>
</clustering>
</event>
<event>
 9    1  0.3303741E-006  0.3271364E+03  0.7546771E-02  0.1099288E+00
         21   -1    0    0  501  502  0.00000000000E+00  0.00000000000E+00  0.42085600328E+02  0.42085600328E+02  0.00000000000E+00 0. -1.
          2   -1    0    0  502    0 -0.00000000000E+00 -0.00000000000E+00 -0.14680242420E+04  0.14680242420E+04  0.00000000000E+00 0. -1.
         23    2    1    2    0    0  0.26163886407E+02  0.12896987118E+03 -0.62081706066E+03  0.64106497931E+03  0.90734272874E+02 0.  0.
         23    2    1    2    0    0 -0.89510039379E+02  0.47722653115E+01 -0.61530337260E+03  0.62835700206E+03  0.90550869892E+02 0.  0.
        -11    1    4    4    0    0 -0.10122909638E+03 -0.16956050743E+02 -0.48654690285E+03  0.49725519231E+03  0.00000000000E+00 0. -1.
         11    1    4    4    0    0  0.11719057005E+02  0.21728316055E+02 -0.12875646976E+03  0.13110180975E+03  0.00000000000E+00 0.  1.
        -11    1    3    3    0    0  0.35196592513E+02  0.52463996011E+01 -0.15241455976E+03  0.15651365071E+03  0.00000000000E+00 0.  1.
         11    1    3    3    0    0 -0.90327061068E+01  0.12372347157E+03 -0.46840250090E+03  0.48455132860E+03  0.00000000000E+00 0. -1.
          2    1    1    2  501    0  0.63346152973E+02 -0.13374213649E+03 -0.18981820843E+03  0.24068786098E+03  0.00000000000E+00 0. -1.
<scales pt_clust_5="13000.00000" pt_clust_6="13000.00000" pt_clust_7="13000.00000" pt_clust_8="13000.00000" pt_clust_9="13000.00000"></scales>
<clustering>
<clus scale="   90.551">  5  6 -1 -1</clus>
<clus scale="   90.734">  7  8 -1 -1</clus>
<clus scale="  147.986">  5  9 -1 -1</clus>
<clus scale="  159.845">  2  7  1 -1</clus>
<clus scale="  327.136">  1  5  2 -1</clus>
</clustering>
</event>
<event>
 9    1  0.3303741E-006  0.3398168E+03  0.7546771E-02  0.1114634E+00
         21   -1    0    0  501  502  0.00000000000E+00  0.00000000000E+00  0.25866231674E+03  0.25866231674E+03  0.00000000000E+00 0.  1.
         -1   -1    0    0    0  501 -0.00000000000E+00 -0.00000000000E+00 -0.20820160148E+03  0.20820160148E+03  0.00000000000E+00 0.  1.
         23    2    1    2    0    0  0.31147447208E+02  0.35345288834E+01 -0.55249751251E+02  0.11098451387E+03  0.91007532343E+02 0.  0.
         23    2    1    2    0    0  0.64049560093E+02 -0.12282373576E+03  0.11730122185E+03  0.20282147190E+03  0.90492853873E+02 0.  0.
        -11    1    4    4    0    0 -0.10091305178E+02 -0.73037406175E+02  0.70424454211E+02  0.10196029076E+03  0.00000000000E+00 0.  1.
         11    1    4    4    0    0  0.74140865271E+02 -0.49786329587E+02  0.46876767638E+02  0.10086118114E+03  0.00000000000E+00 0. -1.
        -13    1    3    3    0    0  0.32456346772E+02  0.27054692819E+02  0.84308780039E+01  0.43086547242E+02  0.00000000000E+00 0. -1.
         13    1    3    3    0    0 -0.13088995634E+01 -0.23520163935E+02 -0.63680629255E+02  0.67897966626E+02  0.00000000000E+00 0.  1.
         -1    1    1    2    0  502 -0.95197007302E+02  0.11928920688E+03 -0.11590755346E+02  0.15305793245E+03  0.00000000000E+00 0.  1.
<scales pt_clust_5="13000.00000" pt_clust_6="13000.00000" pt_clust_7="13000.00000" pt_clust_8="13000.00000" pt_clust_9="13000.00000"></scales>
<clustering>
<clus scale="   90.493">  5  6 -1 -1</clus>
<clus scale="   91.008">  7  8 -1 -1</clus>
<clus scale="   96.255">  2  7  1 -1</clus>
<clus scale="  142.724">  5  9 -1 -1</clus>
<clus scale="  339.817">  1  5  2 -1</clus>
</clustering>
</event>
<event>
 9    1  0.3303741E-006  0.3618568E+03  0.7546771E-02  0.1089670E+00
         21   -1    0    0  501  502  0.00000000000E+00  0.00000000000E+00  0.10961704407E+03  0.10961704407E+03  0.00000000000E+00 0. -1.
          1   -1    0    0  502    0 -0.00000000000E+00 -0.00000000000E+00 -0.71131190321E+03  0.71131190321E+03  0.00000000000E+00 0. -1.
         23    2    1    2    0    0 -0.23632006836E+02 -0.11893755170E+03 -0.47813227243E+02  0.15932091386E+03  0.91610239293E+02 0.  0.
         23    2    1    2    0    0 -0.39228074453E+02  0.54767017193E+01 -0.51681429092E+03  0.52670532008E+03  0.93555581411E+02 0.  0.
        -13    1    3    3    0    0 -0.35297470518E+02 -0.13307918652E+02 -0.36428686538E+02  0.52441027132E+02  0.00000000000E+00 0. -1.
         13    1    3    3    0    0  0.11665463682E+02 -0.10562963304E+03 -0.11384540705E+02  0.10687988673E+03  0.00000000000E+00 0.  1.
        -13    1    4    4    0    0 -0.68409446892E+02 -0.13752055805E+01 -0.41378912730E+03  0.41940813712E+03  0.00000000000E+00 0. -1.
         13    1    4    4    0    0  0.29181372439E+02  0.68519072998E+01 -0.10302516363E+03  0.10729718296E+03  0.00000000000E+00 0.  1.
          1    1    1    2  501    0  0.62860081288E+02  0.11346084998E+03 -0.37067340972E+02  0.13490271333E+03  0.00000000000E+00 0. -1.
<scales pt_clust_5="13000.00000" pt_clust_6="13000.00000" pt_clust_7="13000.00000" pt_clust_8="13000.00000" pt_clust_9="13000.00000"></scales>
<clustering>
<clus scale="   91.610">  5  6 -1 -1</clus>
<clus scale="   93.556">  7  8 -1 -1</clus>
<clus scale="  129.710">  7  9 -1 -1</clus>
<clus scale="  151.977">  2  5  1 -1</clus>
<clus scale="  361.857">  1  5  2 -1</clus>
</clustering>
</event>
<event>
 9    1  0.3303741E-006  0.2274736E+03  0.7546771E-02  0.1166013E+00
         21   -1    0    0  501  502  0.00000000000E+00  0.00000000000E+00  0.43835867316E+03  0.43835867316E+03  0.00000000000E+00 0.  1.
         -3   -1    0    0    0  501 -0.00000000000E+00 -0.00000000000E+00 -0.64029577977E+02  0.64029577977E+02  0.00000000000E+00 0.  1.
         23    2    1    2    0    0  0.15625380428E+02  0.13737526824E+02  0.47995168842E+02  0.10459675291E+03  0.90576334270E+02 0.  0.
         23    2    1    2    0    0  0.37940768982E+02 -0.86318517701E+02  0.14321986045E+03  0.19366385746E+03  0.90018735884E+02 0.  0.
        -13    1    4    4    0    0  0.35299097726E+01 -0.79491389157E+02  0.13641963336E+03  0.15792928031E+03  0.00000000000E+00 0.  1.
         13    1    4    4    0    0  0.34410859209E+02 -0.68271285438E+01  0.68002270904E+01  0.35734577151E+02  0.00000000000E+00 0. -1.
        -13    1    3    3    0    0 -0.51697252818E+01  0.46130506488E+02  0.47046343608E+02  0.66091664642E+02  0.00000000000E+00 0.  1.
         13    1    3    3    0    0  0.20795105710E+02 -0.32392979664E+02  0.94882523391E+00  0.38505088265E+02  0.00000000000E+00 0. -1.
         -3    1    1    2    0  502 -0.53566149410E+02  0.72580990877E+02  0.18311406590E+03  0.20412764077E+03  0.00000000000E+00 0.  1.
<scales pt_clust_5="13000.00000" pt_clust_6="13000.00000" pt_clust_7="13000.00000" pt_clust_8="13000.00000" pt_clust_9="13000.00000"></scales>
<clustering>
<clus scale="   90.019">  5  6 -1 -1</clus>
<clus scale="   90.207">  5  9 -1 -1</clus>
<clus scale="   90.576">  7  8 -1 -1</clus>
<clus scale="   92.935">  2  7  1 -1</clus>
<clus scale="  227.474">  1  5  2 -1</clus>
</clustering>
</event>
<event>
 9    1  0.3303741E-006  0.4351993E+03  0.7546771E-02  0.1058304E+00
         21   -1    0    0  501  502  0.00000000000E+00  0.00000000000E+00  0.61945893377E+02  0.61945893377E+02  0.00000000000E+00 0. -1.
          1   -1    0    0  502    0 -0.00000000000E+00 -0.00000000000E+00 -0.17145844825E+04  0.17145844825E+04  0.00000000000E+00 0. -1.
         23    2    1    2    0    0 -0.49748155773E+02 -0.17710106939E+03 -0.69356913936E+03  0.72333874051E+03  0.91329703129E+02 0.  0.
         23    2    1    2    0    0  0.15717197570E+03 -0.44998253208E+02 -0.45560078934E+03  0.49252357116E+03  0.90991846686E+02 0.  0.
        -11    1    4    4    0    0  0.10396807764E+03 -0.57449055917E+02 -0.38700899497E+03  0.40482800963E+03  0.00000000000E+00 0. -1.
         11    1    4    4    0    0  0.53203898062E+02  0.12450802709E+02 -0.68591794370E+02  0.87695561529E+02  0.00000000000E+00 0.  1.
        -11    1    3    3    0    0  0.48870321994E+01 -0.48582884817E+02 -0.77184936766E+02  0.91332876033E+02  0.00000000000E+00 0.  1.
         11    1    3    3    0    0 -0.54635187973E+02 -0.12851818457E+03 -0.61638420259E+03  0.63200586448E+03  0.00000000000E+00 0. -1.
          1    1    1    2  501    0 -0.10742381993E+03  0.22209932260E+03 -0.50346866039E+03  0.56066806417E+03  0.00000000000E+00 0. -1.
<scales pt_clust_5="13000.00000" pt_clust_6="13000.00000" pt_clust_7="13000.00000" pt_clust_8="13000.00000" pt_clust_9="13000.00000"></scales>
<clustering>
<clus scale="   90.992">  5  6 -1 -1</clus>
<clus scale="   91.330">  7  8 -1 -1</clus>
<clus scale="  205.380">  2  7  1 -1</clus>
<clus scale="  185.424">  5  9 -1 -1</clus>
<clus scale="  435.199">  1  5  2 -1</clus>
</clustering>
</event>
<event>
 9    1  0.3303741E-006  0.1666950E+03  0.7546771E-02  0.1207830E+00
         -1   -1    0    0    0  501 -0.00000000000E+00  0.00000000000E+00  0.14596345021E+03  0.14596345021E+03  0.00000000000E+00 0.  1.
         21   -1    0    0  501  502  0.00000000000E+00 -0.00000000000E+00 -0.11976980469E+03  0.11976980469E+03  0.00000000000E+00 0.  1.
         23    2    1    2    0    0 -0.19916412475E+01 -0.21516012077E+02  0.32929378662E+02  0.98902221882E+02  0.90721552586E+02 0.  0.
         23    2    1    2    0    0 -0.45009350649E+02 -0.17810761209E+02  0.99206591189E+01  0.10332415355E+03  0.90743574807E+02 0.  0.
        -11    1    4    4    0    0 -0.45369673831E+02 -0.49025125439E+02  0.21280286949E+02  0.70105070006E+02  0.00000000000E+00 0.  1.
         11    1    4    4    0    0  0.36032318217E+00  0.31214364230E+02 -0.11359627831E+02  0.33219083544E+02  0.00000000000E+00 0. -1.
        -13    1    3    3    0    0  0.12107722384E+02 -0.35817126004E+02 -0.19656008081E+02  0.42612464259E+02  0.00000000000E+00 0.  1.
         13    1    3    3    0    0 -0.14099363632E+02  0.14301113926E+02  0.52585386744E+02  0.56289757624E+02  0.00000000000E+00 0. -1.
         -1    1    1    2    0  502  0.47000991897E+02  0.39326773287E+02 -0.16656392270E+02  0.63506879469E+02  0.00000000000E+00 0.  1.
<scales pt_clust_5="13000.00000" pt_clust_6="13000.00000" pt_clust_7="13000.00000" pt_clust_8="13000.00000" pt_clust_9="13000.00000"></scales>
<clustering>
<clus scale="   90.722">  7  8 -1 -1</clus>
<clus scale="   90.744">  5  6 -1 -1</clus>
<clus scale="   61.284">  5  9 -1 -1</clus>
<clus scale="   93.259">  1  7  2 -1</clus>
<clus scale="  166.695">  2  5  1 -1</clus>
</clustering>
</event>
<event>
 9    1  0.3303741E-006  0.1919450E+03  0.7546771E-02  0.1164488E+00
         21   -1    0    0  501  502  0.00000000000E+00  0.00000000000E+00  0.66426995530E+03  0.66426995530E+03  0.00000000000E+00 0.  1.
          1   -1    0    0  502    0 -0.00000000000E+00 -0.00000000000E+00 -0.48271244173E+02  0.48271244173E+02  0.00000000000E+00 0. -1.
         23    2    1    2    0    0  0.85218622491E+02 -0.10305539909E+03  0.34570114902E+03  0.38102398421E+03  0.88246037925E+02 0.  0.
         23    2    1    2    0    0 -0.58326619552E+02  0.35174215183E+02  0.12371912446E+03  0.16776046476E+03  0.90542431034E+02 0.  0.
        -11    1    4    4    0    0  0.23876854831E+02  0.27198715722E+01  0.35649268693E+02  0.42992700035E+02  0.00000000000E+00 0. -1.
         11    1    4    4    0    0 -0.82203474383E+02  0.32454343611E+02  0.88069855771E+02  0.12476776473E+03  0.00000000000E+00 0.  1.
        -13    1    3    3    0    0  0.64971672352E+02 -0.87138245157E+02  0.33659058093E+03  0.35370554300E+03  0.00000000000E+00 0.  1.
         13    1    3    3    0    0  0.20246950139E+02 -0.15917153938E+02  0.91105680902E+01  0.27318441214E+02  0.00000000000E+00 0. -1.
          1    1    1    2  501    0 -0.26892002939E+02  0.67881183911E+02  0.14657843764E+03  0.16375675050E+03  0.00000000000E+00 0. -1.
<scales pt_clust_5="13000.00000" pt_clust_6="13000.00000" pt_clust_7="13000.00000" pt_clust_8="13000.00000" pt_clust_9="13000.00000"></scales>
<clustering>
<clus scale="   88.246">  7  8 -1 -1</clus>
<clus scale="   90.542">  5  6 -1 -1</clus>
<clus scale="   73.014">  5  9 -1 -1</clus>
<clus scale="  160.219">  2  7  1 -1</clus>
<clus scale="  191.945">  1  5  2 -1</clus>
</clustering>
</event>
<event>
 9    1  0.3303741E-006  0.4079501E+03  0.7546771E-02  0.1074301E+00
         21   -1    0    0  501  502  0.00000000000E+00  0.00000000000E+00  0.42367190787E+03  0.42367190787E+03  0.00000000000E+00 0.  1.
         -1   -1    0    0    0  501 -0.00000000000E+00 -0.00000000000E+00 -0.30937199075E+03  0.30937199075E+03  0.00000000000E+00 0.  1.
         23    2    1    2    0    0  0.43706144995E+02 -0.12489990617E+03 -0.17169083790E+03  0.23483309016E+03  0.90325094752E+02 0.  0.
         23    2    1    2    0    0  0.78367122514E+01 -0.63934518588E+00 -0.71370962757E+02  0.11594889943E+03  0.91041255118E+02 0.  0.
        -11    1    3    3    0    0 -0.17246204393E+02 -0.55369888832E+02 -0.10790533768E+03  0.12250231857E+03  0.00000000000E+00 0. -1.
         11    1    3    3    0    0  0.60952349388E+02 -0.69530017338E+02 -0.63785500223E+02  0.11233077159E+03  0.00000000000E+00 0.  1.
        -13    1    4    4    0    0 -0.36123815186E+02  0.21271007199E+02 -0.27898428268E+02  0.50355814667E+02  0.00000000000E+00 0. -1.
         13    1    4    4    0    0  0.43960527438E+02 -0.21910352385E+02 -0.43472534489E+02  0.65593084766E+02  0.00000000000E+00 0.  1.
         -1    1    1    2    0  502 -0.51542857246E+02  0.12553925136E+03  0.35736171777E+03  0.38226190903E+03  0.00000000000E+00 0.  1.
<scales pt_clust_5="13000.00000" pt_clust_6="13000.00000" pt_clust_7="13000.00000" pt_clust_8="13000.00000" pt_clust_9="13000.00000"></scales>
<clustering>
<clus scale="   90.325">  5  6 -1 -1</clus>
<clus scale="   91.041">  7  8 -1 -1</clus>
<clus scale="  135.708">  7  9 -1 -1</clus>
<clus scale="  160.215">  2  5  1 -1</clus>
<clus scale="  407.950">  1  5  2 -1</clus>
</clustering>
</event>
<event>
 9    1  0.3303741E-006  0.5877526E+03  0.7546771E-02  0.1054323E+00
         21   -1    0    0  501  502  0.00000000000E+00  0.00000000000E+00  0.75329820272E+03  0.75329820272E+03  0.00000000000E+00 0. -1.
          3   -1    0    0  502    0 -0.00000000000E+00 -0.00000000000E+00 -0.19102211474E+03  0.19102211474E+03  0.00000000000E+00 0. -1.
         23    2    1    2    0    0  0.25202611545E+02 -0.46752941079E+00 -0.41156854022E+02  0.10195194474E+03  0.89804911844E+02 0.  0.
         23    2    1    2    0    0  0.24015923654E+03 -0.12922381141E+03  0.24431223799E+03  0.37739048684E+03  0.91432256866E+02 0.  0.
        -11    1    3    3    0    0  0.45669932881E+02  0.31328734122E+02 -0.22395407322E+02  0.59739322227E+02  0.00000000000E+00 0.  1.
         11    1    3    3    0    0 -0.20467321336E+02 -0.31796263533E+02 -0.18761446700E+02  0.42212622515E+02  0.00000000000E+00 0. -1.
        -11    1    4    4    0    0  0.18787776173E+03 -0.54160045830E+02  0.17790703313E+03  0.26435256071E+03  0.00000000000E+00 0. -1.
         11    1    4    4    0    0  0.52281474806E+02 -0.75063765579E+02  0.66405204855E+02  0.11303792612E+03  0.00000000000E+00 0.  1.
          3    1    1    2  501    0 -0.26536184808E+03  0.12969134082E+03  0.35912070402E+03  0.46497788588E+03  0.00000000000E+00 0. -1.
<scales pt_clust_5="13000.00000" pt_clust_6="13000.00000" pt_clust_7="13000.00000" pt_clust_8="13000.00000" pt_clust_9="13000.00000"></scales>
<clustering>
<clus scale="   89.805">  5  6 -1 -1</clus>
<clus scale="   91.432">  7  8 -1 -1</clus>
<clus scale="   93.275">  2  5  1 -1</clus>
<clus scale="  285.275">  7  9 -1 -1</clus>
<clus scale="  587.753">  1  5  2 -1</clus>
</clustering>
</event>
<event>
 9    1  0.3303741E-006  0.1728176E+03  0.7546771E-02  0.1197211E+00
         21   -1    0    0  501  502  0.00000000000E+00  0.00000000000E+00  0.97924880918E+02  0.97924880918E+02  0.00000000000E+00 0.  1.
          1   -1    0    0  502    0 -0.00000000000E+00 -0.00000000000E+00 -0.26504468787E+03  0.26504468787E+03  0.00000000000E+00 0. -1.
         23    2    1    2    0    0 -0.20073755211E+02 -0.30386244637E+02 -0.15804784134E+03  0.18991405798E+03  0.98802579706E+02 0.  0.
         23    2    1    2    0    0 -0.76069540870E+01  0.43894762459E+02  0.41821598369E+02  0.11356722140E+03  0.95728009303E+02 0.  0.
        -13    1    4    4    0    0  0.26298141656E+02  0.36820919784E+02  0.59444655898E+02  0.74706355172E+02  0.00000000000E+00 0.  1.
         13    1    4    4    0    0 -0.33905095743E+02  0.70738426754E+01 -0.17623057529E+02  0.38860866230E+02  0.00000000000E+00 0. -1.
        -13    1    3    3    0    0 -0.31198850769E+02 -0.48093693298E+02 -0.15896073094E+03  0.16898190910E+03  0.00000000000E+00 0. -1.
         13    1    3    3    0    0  0.11125095558E+02  0.17707448661E+02  0.91288960031E+00  0.20932148878E+02  0.00000000000E+00 0.  1.
          1    1    1    2  501    0  0.27680709298E+02 -0.13508517822E+02 -0.50893563981E+02  0.59488289400E+02  0.00000000000E+00 0. -1.
<scales pt_clust_5="13000.00000" pt_clust_6="13000.00000" pt_clust_7="13000.00000" pt_clust_8="13000.00000" pt_clust_9="13000.00000"></scales>
<clustering>
<clus scale="   95.728">  5  6 -1 -1</clus>
<clus scale="   30.801">  5  9 -1 -1</clus>
<clus scale="   98.803">  7  8 -1 -1</clus>
<clus scale="  105.301">  2  7  1 -1</clus>
<clus scale="  172.818">  1  5  2 -1</clus>
</clustering>
</event>
<event>
 9    1  0.3303741E-006  0.2388349E+03  0.7546771E-02  0.1134453E+00
         21   -1    0    0  501  502  0.00000000000E+00  0.00000000000E+00  0.16327299183E+03  0.16327299183E+03  0.00000000000E+00 0. -1.
          1   -1    0    0  502    0 -0.00000000000E+00 -0.00000000000E+00 -0.28056949031E+03  0.28056949031E+03  0.00000000000E+00 0. -1.
         23    2    1    2    0    0 -0.85536547193E+02 -0.11357678696E+03 -0.11518601160E+03  0.20499827202E+03  0.92413672255E+02 0.  0.
         23    2    1    2    0    0 -0.19353268075E+02  0.86552972393E+02 -0.19753247434E+02  0.12910166186E+03  0.91711952851E+02 0.  0.
        -11    1    3    3    0    0  0.82752431181E+01 -0.57953141197E+02 -0.25749135910E+02  0.63953609932E+02  0.00000000000E+00 0.  1.
         11    1    3    3    0    0 -0.93811790311E+02 -0.55623645762E+02 -0.89436875689E+02  0.14104466208E+03  0.00000000000E+00 0. -1.
        -11    1    4    4    0    0  0.25848756520E+02  0.75621858986E+02 -0.20817723091E+02  0.82584510441E+02  0.00000000000E+00 0. -1.
         11    1    4    4    0    0 -0.45202024594E+02  0.10931113407E+02  0.10644756573E+01  0.46517151419E+02  0.00000000000E+00 0.  1.
          1    1    1    2  501    0  0.10488981527E+03  0.27023814567E+02  0.17642760556E+02  0.10974254827E+03  0.00000000000E+00 0. -1.
<scales pt_clust_5="13000.00000" pt_clust_6="13000.00000" pt_clust_7="13000.00000" pt_clust_8="13000.00000" pt_clust_9="13000.00000"></scales>
<clustering>
<clus scale="   91.712">  7  8 -1 -1</clus>
<clus scale="   92.414">  5  6 -1 -1</clus>
<clus scale="  108.315">  7  9 -1 -1</clus>
<clus scale="  169.577">  2  5  1 -1</clus>
<clus scale="  238.835">  1  5  2 -1</clus>
</clustering>
</event>
<event>
 9    1  0.3303741E-006  0.1706826E+03  0.7546771E-02  0.1196489E+00
          1   -1    0    0  502    0 -0.00000000000E+00  0.00000000000E+00  0.13785812233E+03  0.13785812233E+03  0.00000000000E+00 0. -1.
         21   -1    0    0  501  502  0.00000000000E+00 -0.00000000000E+00 -0.15867459717E+03  0.15867459717E+03  0.00000000000E+00 0. -1.
         23    2    1    2    0    0  0.62022424709E+02  0.16209556113E+01  0.35859227035E+02  0.11668644261E+03  0.92089266808E+02 0.  0.
         23    2    1    2    0    0 -0.30139484076E+02  0.39304584079E+02  0.96137628748E+00  0.10229981030E+03  0.89504682069E+02 0.  0.
        -11    1    4    4    0    0 -0.58773803767E+02  0.42466691771E+02  0.70584585324E+01  0.72853289260E+02  0.00000000000E+00 0. -1.
         11    1    4    4    0    0  0.28634319691E+02 -0.31621076915E+01 -0.60970822450E+01  0.29446521036E+02  0.00000000000E+00 0.  1.
        -11    1    3    3    0    0 -0.21963113448E+02 -0.86810514060E+01 -0.25656047471E+01  0.23755448503E+02  0.00000000000E+00 0. -1.
         11    1    3    3    0    0  0.83985538157E+02  0.10302007017E+02  0.38424831782E+02  0.92930994107E+02  0.00000000000E+00 0.  1.
          1    1    1    2  501    0 -0.31882940633E+02 -0.40925539690E+02 -0.57637078161E+02  0.77546466594E+02  0.00000000000E+00 0. -1.
<scales pt_clust_5="13000.00000" pt_clust_6="13000.00000" pt_clust_7="13000.00000" pt_clust_8="13000.00000" pt_clust_9="13000.00000"></scales>
<clustering>
<clus scale="   89.505">  5  6 -1 -1</clus>
<clus scale="   51.879">  5  9 -1 -1</clus>
<clus scale="   92.089">  7  8 -1 -1</clus>
<clus scale="  111.040">  1  7  2 -1</clus>
<clus scale="  170.683">  2  5  1 -1</clus>
</clustering>
</event>
<event>
 9    1  0.3303741E-006  0.1426517E+03  0.7546771E-02  0.1221609E+00
         21   -1    0    0  501  502  0.00000000000E+00  0.00000000000E+00  0.45433491414E+03  0.45433491414E+03  0.00000000000E+00 0.  1.
         -2   -1    0    0    0  501 -0.00000000000E+00 -0.00000000000E+00 -0.68088290354E+02  0.68088290354E+02  0.00000000000E+00 0.  1.
         23    2    1    2    0    0  0.38316730426E+02 -0.53564042271E+02  0.49148600977E+00  0.11113676373E+03  0.89520166661E+02 0.  0.
         23    2    1    2    0    0  0.13507272266E+01  0.40245347554E+02  0.25669814260E+03  0.27561550493E+03  0.91915492061E+02 0.  0.
        -11    1    3    3    0    0  0.59156514146E+02 -0.14633725019E+02 -0.17579904901E+02  0.63424696532E+02  0.00000000000E+00 0.  1.
         11    1    3    3    0    0 -0.20839783721E+02 -0.38930317252E+02  0.18071390910E+02  0.47712067198E+02  0.00000000000E+00 0. -1.
        -13    1    4    4    0    0  0.42034069830E+02  0.33862406758E+02  0.18726117922E+03  0.19488528641E+03  0.00000000000E+00 0.  1.
         13    1    4    4    0    0 -0.40683342604E+02  0.63829407963E+01  0.69436963387E+02  0.80730218525E+02  0.00000000000E+00 0. -1.
         -2    1    1    2    0  502 -0.39667457652E+02  0.13318694717E+02  0.12905699517E+03  0.13567093583E+03  0.00000000000E+00 0.  1.
<scales pt_clust_5="13000.00000" pt_clust_6="13000.00000" pt_clust_7="13000.00000" pt_clust_8="13000.00000" pt_clust_9="13000.00000"></scales>
<clustering>
<clus scale="   89.520">  5  6 -1 -1</clus>
<clus scale="   91.915">  7  8 -1 -1</clus>
<clus scale="   41.844">  7  9 -1 -1</clus>
<clus scale="  111.136">  2  5  1 -1</clus>
<clus scale="  142.652">  1  5  2 -1</clus>
</clustering>
</event>
<event>
 9    1  0.3303741E-006  0.2096121E+03  0.7546771E-02  0.1173542E+00
         -3   -1    0    0    0  501 -0.00000000000E+00  0.00000000000E+00  0.59537392548E+02  0.59537392548E+02  0.00000000000E+00 0.  1.
         21   -1    0    0  501  502  0.00000000000E+00 -0.00000000000E+00 -0.62669425611E+03  0.62669425611E+03  0.00000000000E+00 0.  1.
         23    2    1    2    0    0 -0.47113959891E+02 -0.13104466425E+02 -0.22283963985E+02  0.10243055804E+03  0.87200871050E+02 0.  0.
         23    2    1    2    0    0  0.41914697163E+02 -0.46937062693E+02 -0.15998214737E+03  0.19422066416E+03  0.90373941018E+02 0.  0.
        -11    1    3    3    0    0 -0.32707529380E+02 -0.42675424441E+02  0.11816516701E+02  0.55050925481E+02  0.00000000000E+00 0.  1.
         11    1    3    3    0    0 -0.14406430511E+02  0.29570958017E+02 -0.34100480685E+02  0.47379632555E+02  0.00000000000E+00 0. -1.
        -13    1    4    4    0    0 -0.12778218233E+02 -0.34872603203E+02 -0.17362831931E+02  0.40998161520E+02  0.00000000000E+00 0. -1.
         13    1    4    4    0    0  0.54692915396E+02 -0.12064459489E+02 -0.14261931544E+03  0.15322250263E+03  0.00000000000E+00 0.  1.
         -3    1    1    2    0  502  0.51992627278E+01  0.60041529117E+02 -0.38489075221E+03  0.38958042647E+03  0.00000000000E+00 0.  1.
<scales pt_clust_5="13000.00000" pt_clust_6="13000.00000" pt_clust_7="13000.00000" pt_clust_8="13000.00000" pt_clust_9="13000.00000"></scales>
<clustering>
<clus scale="   87.201">  5  6 -1 -1</clus>
<clus scale="   90.374">  7  8 -1 -1</clus>
<clus scale="   60.266">  7  9 -1 -1</clus>
<clus scale="   99.977">  1  5  2 -1</clus>
<clus scale="  209.612">  2  5  1 -1</clus>
</clustering>
</event>
<event>
 9    1  0.3303741E-006  0.3877724E+03  0.7546771E-02  0.1088306E+00
         -2   -1    0    0    0  501 -0.00000000000E+00  0.00000000000E+00  0.54240316855E+03  0.54240316855E+03  0.00000000000E+00 0.  1.
         21   -1    0    0  501  502  0.00000000000E+00 -0.00000000000E+00 -0.16314377988E+03  0.16314377988E+03  0.00000000000E+00 0.  1.
         23    2    1    2    0    0  0.92839453333E+02  0.14590985480E+01  0.27601262893E+03  0.30426481724E+03  0.88163567411E+02 0.  0.
         23    2    1    2    0    0  0.17531573146E+02 -0.12309499325E+03  0.16496299823E+03  0.22582288105E+03  0.91232940320E+02 0.  0.
        -11    1    3    3    0    0  0.49891135090E+02  0.19456351883E+02  0.49198550773E+02  0.72719821145E+02  0.00000000000E+00 0. -1.
         11    1    3    3    0    0  0.42948318243E+02 -0.17997253335E+02  0.22681407816E+03  0.23154499610E+03  0.00000000000E+00 0.  1.
        -13    1    4    4    0    0  0.19990997731E+02  0.39701983875E+01  0.51756550378E+02  0.55625021101E+02  0.00000000000E+00 0. -1.
         13    1    4    4    0    0 -0.24594245848E+01 -0.12706519164E+03  0.11320644786E+03  0.17019785995E+03  0.00000000000E+00 0.  1.
         -2    1    1    2    0  502 -0.11037102648E+03  0.12163589470E+03 -0.61716238492E+02  0.17545925014E+03  0.00000000000E+00 0.  1.
<scales pt_clust_5="13000.00000" pt_clust_6="13000.00000" pt_clust_7="13000.00000" pt_clust_8="13000.00000" pt_clust_9="13000.00000"></scales>
<clustering>
<clus scale="   88.164">  5  6 -1 -1</clus>
<clus scale="   91.233">  7  8 -1 -1</clus>
<clus scale="  128.039">  1  5  2 -1</clus>
<clus scale="  151.245">  7  9 -1 -1</clus>
<clus scale="  387.772">  2  5  1 -1</clus>
</clustering>
</event>
<event>
 9    1  0.3303741E-006  0.1144348E+03  0.7546771E-02  0.1262818E+00
         21   -1    0    0  501  502  0.00000000000E+00  0.00000000000E+00  0.24554426482E+02  0.24554426482E+02  0.00000000000E+00 0.  1.
          1   -1    0    0  502    0 -0.00000000000E+00 -0.00000000000E+00 -0.44196745707E+03  0.44196745707E+03  0.00000000000E+00 0. -1.
         23    2    1    2    0    0 -0.27665998866E+02  0.16257810654E+01 -0.17295600468E+03  0.19660602419E+03  0.89286608954E+02 0.  0.
         23    2    1    2    0    0  0.12890347148E+02 -0.17695640985E+02 -0.19545192263E+03  0.21626830183E+03  0.89951250992E+02 0.  0.
        -13    1    4    4    0    0 -0.14571756971E+02  0.29143203796E+02 -0.39907194943E+02  0.51519381178E+02  0.00000000000E+00 0.  1.
         13    1    4    4    0    0  0.27462104119E+02 -0.46838844782E+02 -0.15554472769E+03  0.16474892065E+03  0.00000000000E+00 0. -1.
        -13    1    3    3    0    0  0.18164145994E+02  0.31948177885E+02 -0.88712958925E+02  0.96024014450E+02  0.00000000000E+00 0. -1.
         13    1    3    3    0    0 -0.45830144860E+02 -0.30322396819E+02 -0.84243045750E+02  0.10058200974E+03  0.00000000000E+00 0.  1.
          1    1    1    2  501    0  0.14775651718E+02  0.16069859920E+02 -0.49005103280E+02  0.53647557531E+02  0.00000000000E+00 0. -1.
<scales pt_clust_5="13000.00000" pt_clust_6="13000.00000" pt_clust_7="13000.00000" pt_clust_8="13000.00000" pt_clust_9="13000.00000"></scales>
<clustering>
<clus scale="   89.287">  7  8 -1 -1</clus>
<clus scale="   89.951">  5  6 -1 -1</clus>
<clus scale="   21.830">  5  9 -1 -1</clus>
<clus scale="   93.489">  2  7  1 -1</clus>
<clus scale="  114.435">  1  5  2 -1</clus>
</clustering>
</event>
<event>
 9    1  0.3303741E-006  0.1275270E+03  0.7546771E-02  0.1245135E+00
         21   -1    0    0  501  502  0.00000000000E+00  0.00000000000E+00  0.62352808769E+03  0.62352808769E+03  0.00000000000E+00 0.  1.
          1   -1    0    0  502    0 -0.00000000000E+00 -0.00000000000E+00 -0.37935855660E+02  0.37935855660E+02  0.00000000000E+00 0. -1.
         23    2    1    2    0    0  0.26650527952E+02  0.11292469720E+02  0.44908233761E+02  0.10594408262E+03  0.91485674670E+02 0.  0.
         23    2    1    2    0    0 -0.49122093576E+02 -0.99321682045E+01  0.42092620866E+03  0.43366441418E+03  0.91511326891E+02 0.  0.
        -11    1    4    4    0    0 -0.40159476164E+02  0.33687756833E+02  0.30515072783E+03  0.30962011430E+03  0.00000000000E+00 0.  1.
         11    1    4    4    0    0 -0.89626174115E+01 -0.43619925038E+02  0.11577548083E+03  0.12404429988E+03  0.00000000000E+00 0. -1.
        -13    1    3    3    0    0  0.41771401834E+02 -0.29183402019E+02  0.14079622083E+02  0.52865458691E+02  0.00000000000E+00 0. -1.
         13    1    3    3    0    0 -0.15120873882E+02  0.40475871739E+02  0.30828611678E+02  0.53078623927E+02  0.00000000000E+00 0.  1.
          1    1    1    2  501    0  0.22471565624E+02 -0.13603015154E+01  0.11975778961E+03  0.12185544655E+03  0.00000000000E+00 0. -1.
<scales pt_clust_5="13000.00000" pt_clust_6="13000.00000" pt_clust_7="13000.00000" pt_clust_8="13000.00000" pt_clust_9="13000.00000"></scales>
<clustering>
<clus scale="   91.486">  7  8 -1 -1</clus>
<clus scale="   91.511">  5  6 -1 -1</clus>
<clus scale="   22.513">  5  9 -1 -1</clus>
<clus scale="   95.955">  2  7  1 -1</clus>
<clus scale="  127.527">  1  5  2 -1</clus>
</clustering>
</event>
<event>
 9    1  0.3303741E-006  0.2275367E+03  0.7546771E-02  0.1160335E+00
          2   -1    0    0  502    0 -0.00000000000E+00  0.00000000000E+00  0.13360412195E+03  0.13360412195E+03  0.00000000000E+00 0.  1.
         21   -1    0    0  501  502  0.00000000000E+00 -0.00000000000E+00 -0.21342594524E+03  0.21342594524E+03  0.00000000000E+00 0. -1.
         23    2    1    2    0    0 -0.30452566458E+02  0.44702134356E+02 -0.51430679961E+02  0.11772897620E+03  0.91045908064E+02 0.  0.
         23    2    1    2    0    0  0.76327149188E+02  0.40488894297E+02 -0.40854060988E+02  0.13174437406E+03  0.90677127940E+02 0.  0.
        -13    1    3    3    0    0 -0.42357087346E+02  0.63663719040E+02 -0.56124625955E+02  0.94853390077E+02  0.00000000000E+00 0. -1.
         13    1    3    3    0    0  0.11904520888E+02 -0.18961584684E+02  0.46939459940E+01  0.22875586119E+02  0.00000000000E+00 0.  1.
        -13    1    4    4    0    0 -0.13245650956E+02  0.19012446473E+02 -0.31577342650E+02  0.39166937064E+02  0.00000000000E+00 0.  1.
         13    1    4    4    0    0  0.89572800144E+02  0.21476447824E+02 -0.92767183376E+01  0.92577436991E+02  0.00000000000E+00 0. -1.
          2    1    1    2  501    0 -0.45874582730E+02 -0.85191028653E+02  0.12462917653E+02  0.97556716940E+02  0.00000000000E+00 0.  1.
<scales pt_clust_5="13000.00000" pt_clust_6="13000.00000" pt_clust_7="13000.00000" pt_clust_8="13000.00000" pt_clust_9="13000.00000"></scales>
<clustering>
<clus scale="   90.677">  7  8 -1 -1</clus>
<clus scale="   91.046">  5  6 -1 -1</clus>
<clus scale="   96.757">  7  9 -1 -1</clus>
<clus scale="  105.901">  1  5  2 -1</clus>
<clus scale="  227.537">  2  5  1 -1</clus>
</clustering>
</event>
<event>
 9    1  0.3303741E-006  0.4388666E+03  0.7546771E-02  0.1040592E+00
         21   -1    0    0  501  502  0.00000000000E+00  0.00000000000E+00  0.32477959043E+03  0.32477959043E+03  0.00000000000E+00 0. -1.
          2   -1    0    0  502    0 -0.00000000000E+00 -0.00000000000E+00 -0.51900807752E+03  0.51900807752E+03  0.00000000000E+00 0. -1.
         23    2    1    2    0    0  0.14777654302E+03  0.28325565116E+03  0.58624038576E+02  0.33729160582E+03  0.90869020450E+02 0.  0.
         23    2    1    2    0    0  0.37168269610E+02 -0.53611867757E+02  0.89020251685E+01  0.11221659797E+03  0.90871371609E+02 0.  0.
        -11    1    3    3    0    0  0.14415984298E+03  0.21445746514E+03  0.22190498909E+02  0.25935782796E+03  0.00000000000E+00 0. -1.
         11    1    3    3    0    0  0.36167000377E+01  0.68798186021E+02  0.36433539667E+02  0.77933777860E+02  0.00000000000E+00 0.  1.
        -13    1    4    4    0    0 -0.28140351945E+02 -0.32545043094E+01  0.90805851751E+01  0.29747743326E+02  0.00000000000E+00 0. -1.
         13    1    4    4    0    0  0.65308621555E+02 -0.50357363448E+02 -0.17856000665E+00  0.82468854645E+02  0.00000000000E+00 0.  1.
          2    1    1    2  501    0 -0.18494481263E+03 -0.22964378340E+03 -0.26175455083E+03  0.39427946415E+03  0.00000000000E+00 0. -1.
<scales pt_clust_5="13000.00000" pt_clust_6="13000.00000" pt_clust_7="13000.00000" pt_clust_8="13000.00000" pt_clust_9="13000.00000"></scales>
<clustering>
<clus scale="   90.869">  5  6 -1 -1</clus>
<clus scale="   90.871">  7  8 -1 -1</clus>
<clus scale="  294.857">  7  9 -1 -1</clus>
<clus scale="  332.158">  2  5  1 -1</clus>
<clus scale="  438.867">  1  5  2 -1</clus>
</clustering>
</event>
<event>
 9    1  0.3303741E-006  0.1456695E+03  0.7546771E-02  0.1217092E+00
          2   -1    0    0  502    0 -0.00000000000E+00  0.00000000000E+00  0.27951005243E+03  0.27951005243E+03  0.00000000000E+00 0. -1.
         21   -1    0    0  501  502  0.00000000000E+00 -0.00000000000E+00 -0.62177063140E+02  0.62177063140E+02  0.00000000000E+00 0. -1.
         23    2    1    2    0    0  0.49320885346E+02 -0.46416398926E+02  0.12253283851E+03  0.16788644016E+03  0.92652730439E+02 0.  0.
         23    2    1    2    0    0 -0.26803925645E+02  0.22400950000E+02  0.31835436826E+02  0.10274921191E+03  0.91234053506E+02 0.  0.
        -13    1    3    3    0    0  0.72720048671E+02 -0.18441398990E+02  0.10001137716E+03  0.12502226297E+03  0.00000000000E+00 0.  1.
         13    1    3    3    0    0 -0.23399163325E+02 -0.27974999935E+02  0.22521461344E+02  0.42864177197E+02  0.00000000000E+00 0. -1.
        -13    1    4    4    0    0 -0.38605182897E+02  0.52457744119E+02  0.24851197969E+02  0.69711958121E+02  0.00000000000E+00 0.  1.
         13    1    4    4    0    0  0.11801257252E+02 -0.30056794119E+02  0.69842388574E+01  0.33037253788E+02  0.00000000000E+00 0. -1.
          2    1    1    2  501    0 -0.22516959701E+02  0.24015448926E+02  0.62964713953E+02  0.71051463493E+02  0.00000000000E+00 0. -1.
<scales pt_clust_5="13000.00000" pt_clust_6="13000.00000" pt_clust_7="13000.00000" pt_clust_8="13000.00000" pt_clust_9="13000.00000"></scales>
<clustering>
<clus scale="   91.234">  7  8 -1 -1</clus>
<clus scale="   32.920">  7  9 -1 -1</clus>
<clus scale="   92.653">  5  6 -1 -1</clus>
<clus scale="  114.767">  1  5  2 -1</clus>
<clus scale="  145.670">  2  5  1 -1</clus>
</clustering>
</event>
<event>
 9    1  0.3303741E-006  0.2476845E+03  0.7546771E-02  0.1129641E+00
         21   -1    0    0  501  502  0.00000000000E+00  0.00000000000E+00  0.11089684064E+03  0.11089684064E+03  0.00000000000E+00 0. -1.
          3   -1    0    0  502    0 -0.00000000000E+00 -0.00000000000E+00 -0.62335156394E+03  0.62335156394E+03  0.00000000000E+00 0. -1.
         23    2    1    2    0    0 -0.14465539569E+03  0.18719348216E+02 -0.44619473733E+03  0.47785422923E+03  0.89327057909E+02 0.  0.
         23    2    1    2    0    0  0.86705003188E+02  0.50092749398E+02 -0.89508154721E+02  0.16347576965E+03  0.93196439742E+02 0.  0.
        -11    1    4    4    0    0  0.13598127219E+00 -0.23277669349E+02 -0.13816620036E+02  0.27069676216E+02  0.00000000000E+00 0.  1.
         11    1    4    4    0    0  0.86569021916E+02  0.73370418747E+02 -0.75691534685E+02  0.13640609343E+03  0.00000000000E+00 0. -1.
        -13    1    3    3    0    0 -0.67451428563E+01  0.24886968229E+02 -0.31059969373E+02  0.40368054662E+02  0.00000000000E+00 0.  1.
         13    1    3    3    0    0 -0.13791025283E+03 -0.61676200128E+01 -0.41513476795E+03  0.43748617457E+03  0.00000000000E+00 0. -1.
          3    1    1    2  501    0  0.57950392497E+02 -0.68812097614E+02  0.23248168740E+02  0.92918405703E+02  0.00000000000E+00 0. -1.
<scales pt_clust_5="13000.00000" pt_clust_6="13000.00000" pt_clust_7="13000.00000" pt_clust_8="13000.00000" pt_clust_9="13000.00000"></scales>
<clustering>
<clus scale="   89.327">  7  8 -1 -1</clus>
<clus scale="   93.196">  5  6 -1 -1</clus>
<clus scale="   89.963">  5  9 -1 -1</clus>
<clus scale="  171.041">  2  7  1 -1</clus>
<clus scale="  247.684">  1  5  2 -1</clus>
</clustering>
</event>
<event>
 9    1  0.3303741E-006  0.2705889E+03  0.7546771E-02  0.1135975E+00
         -1   -1    0    0    0  501 -0.00000000000E+00  0.00000000000E+00  0.43917129709E+03  0.43917129709E+03  0.00000000000E+00 0.  1.
         21   -1    0    0  501  502  0.00000000000E+00 -0.00000000000E+00 -0.43962036456E+03  0.43962036456E+03  0.00000000000E+00 0. -1.
         23    2    1    2    0    0 -0.58947268969E+02 -0.10482013177E+02  0.38881066967E+03  0.40472255942E+03  0.95089221982E+02 0.  0.
         23    2    1    2    0    0  0.10065435986E+03 -0.24521681306E+01 -0.71924487598E+02  0.15374358798E+03  0.91250455565E+02 0.  0.
        -11    1    3    3    0    0 -0.65137378035E+02  0.28952235221E+02  0.27606256081E+03  0.28511690132E+03  0.00000000000E+00 0.  1.
         11    1    3    3    0    0  0.61901090656E+01 -0.39434248398E+02  0.11274810886E+03  0.11960565810E+03  0.00000000000E+00 0. -1.
        -13    1    4    4    0    0 -0.38259732024E+00  0.25608032264E+02  0.16214744346E+01  0.25662168196E+02  0.00000000000E+00 0.  1.
         13    1    4    4    0    0  0.10103695718E+03 -0.28060200395E+02 -0.73545962033E+02  0.12808141978E+03  0.00000000000E+00 0. -1.
         -1    1    1    2    0  502 -0.41707090886E+02  0.12934181308E+02 -0.31733524955E+03  0.32032551425E+03  0.00000000000E+00 0.  1.
<scales pt_clust_5="13000.00000" pt_clust_6="13000.00000" pt_clust_7="13000.00000" pt_clust_8="13000.00000" pt_clust_9="13000.00000"></scales>
<clustering>
<clus scale="   91.250">  7  8 -1 -1</clus>
<clus scale="   43.667">  7  9 -1 -1</clus>
<clus scale="   95.089">  5  6 -1 -1</clus>
<clus scale="  112.368">  1  5  2 -1</clus>
<clus scale="  270.589">  2  5  1 -1</clus>
</clustering>
</event>
<event>
 9    1  0.3303741E-006  0.1551159E+03  0.7546771E-02  0.1213276E+00
         21   -1    0    0  501  502  0.00000000000E+00  0.00000000000E+00  0.33172124492E+02  0.33172124492E+02  0.00000000000E+00 0. -1.
         -1   -1    0    0    0  501 -0.00000000000E+00 -0.00000000000E+00 -0.50303858664E+03  0.50303858664E+03  0.00000000000E+00 0.  1.
         23    2    1    2    0    0 -0.87975954051E+01 -0.46258630050E+02 -0.19778065312E+03  0.22301487114E+03  0.91657991821E+02 0.  0.
         23    2    1    2    0    0  0.23478776630E+02  0.66131701836E+02 -0.14968865092E+03  0.18832975020E+03  0.90203922632E+02 0.  0.
        -13    1    3    3    0    0 -0.19570256864E+02  0.20181990920E+02 -0.25126750174E+02  0.37704923889E+02  0.00000000000E+00 0.  1.
         13    1    3    3    0    0  0.10772661459E+02 -0.66440620970E+02 -0.17265390294E+03  0.18530994725E+03  0.00000000000E+00 0. -1.
        -13    1    4    4    0    0  0.25830818666E+02 -0.90051979847E+00 -0.17613895321E+01  0.25906459078E+02  0.00000000000E+00 0. -1.
         13    1    4    4    0    0 -0.23520420361E+01  0.67032221634E+02 -0.14792726138E+03  0.16242329112E+03  0.00000000000E+00 0.  1.
         -1    1    1    2    0  502 -0.14681181225E+02 -0.19873071786E+02 -0.12239715811E+03  0.12486608978E+03  0.00000000000E+00 0.  1.
<scales pt_clust_5="13000.00000" pt_clust_6="13000.00000" pt_clust_7="13000.00000" pt_clust_8="13000.00000" pt_clust_9="13000.00000"></scales>
<clustering>
<clus scale="   90.204">  7  8 -1 -1</clus>
<clus scale="   24.708">  7  9 -1 -1</clus>
<clus scale="   91.658">  5  6 -1 -1</clus>
<clus scale="  103.046">  2  5  1 -1</clus>
<clus scale="  155.116">  1  5  2 -1</clus>
</clustering>
</event>
<event>
 9    1  0.3303741E-006  0.2516422E+03  0.7546771E-02  0.1132882E+00
         -1   -1    0    0    0  501 -0.00000000000E+00  0.00000000000E+00  0.84259965305E+02  0.84259965305E+02  0.00000000000E+00 0.  1.
         21   -1    0    0  501  502  0.00000000000E+00 -0.00000000000E+00 -0.69109392932E+03  0.69109392932E+03  0.00000000000E+00 0.  1.
         23    2    1    2    0    0  0.10854924244E+03 -0.51610808183E+02 -0.41055177733E+02  0.15613711741E+03  0.90811113074E+02 0.  0.
         23    2    1    2    0    0  0.12042282564E+02  0.80601758154E+02 -0.34562277054E+03  0.36652830825E+03  0.90808817015E+02 0.  0.
        -11    1    4    4    0    0 -0.38848784839E+02  0.36607061879E+02 -0.18052129631E+03  0.18824782464E+03  0.00000000000E+00 0. -1.
         11    1    4    4    0    0  0.50891067402E+02  0.43994696275E+02 -0.16510147424E+03  0.17828048361E+03  0.00000000000E+00 0.  1.
        -13    1    3    3    0    0  0.79976863845E+02 -0.50864204249E+02  0.12332249292E+02  0.95580073221E+02  0.00000000000E+00 0.  1.
         13    1    3    3    0    0  0.28572378593E+02 -0.74660393369E+00 -0.53387427026E+02  0.60557044184E+02  0.00000000000E+00 0. -1.
         -1    1    1    2    0  502 -0.12059152500E+03 -0.28990949971E+02 -0.22015601574E+03  0.25268846897E+03  0.00000000000E+00 0.  1.
<scales pt_clust_5="13000.00000" pt_clust_6="13000.00000" pt_clust_7="13000.00000" pt_clust_8="13000.00000" pt_clust_9="13000.00000"></scales>
<clustering>
<clus scale="   90.809">  5  6 -1 -1</clus>
<clus scale="   90.811">  7  8 -1 -1</clus>
<clus scale="  124.027">  5  9 -1 -1</clus>
<clus scale="  150.643">  1  7  2 -1</clus>
<clus scale="  251.642">  2  5  1 -1</clus>
</clustering>
</event>
<event>
 9    1  0.3303741E-006  0.1767295E+03  0.7546771E-02  0.1190001E+00
          4   -1    0    0  502    0 -0.00000000000E+00  0.00000000000E+00  0.15792841352E+03  0.15792841352E+03  0.00000000000E+00 0. -1.
         21   -1    0    0  501  502  0.00000000000E+00 -0.00000000000E+00 -0.13504878262E+03  0.13504878262E+03  0.00000000000E+00 0. -1.
         23    2    1    2    0    0  0.70720125253E+02  0.23206964304E+01  0.94900618589E+01  0.11574119760E+03  0.91100174532E+02 0.  0.
         23    2    1    2    0    0 -0.17173857492E+02  0.33101256139E+02  0.42938550276E+02  0.10656026149E+03  0.90115124646E+02 0.  0.
        -11    1    4    4    0    0  0.58297673507E+01  0.50397924358E+02  0.55467652568E+02  0.75170455954E+02  0.00000000000E+00 0.  1.
         11    1    4    4    0    0 -0.23003624843E+02 -0.17296668219E+02 -0.12529102292E+02  0.31389805537E+02  0.00000000000E+00 0. -1.
        -11    1    3    3    0    0  0.76469037053E+02  0.29105704475E+02  0.23284015703E+02  0.85069389607E+02  0.00000000000E+00 0. -1.
         11    1    3    3    0    0 -0.57489117999E+01 -0.26785008045E+02 -0.13793953844E+02  0.30671807992E+02  0.00000000000E+00 0.  1.
          4    1    1    2  501    0 -0.53546267761E+02 -0.35421952569E+02 -0.29548981235E+02  0.70675737046E+02  0.00000000000E+00 0. -1.
<scales pt_clust_5="13000.00000" pt_clust_6="13000.00000" pt_clust_7="13000.00000" pt_clust_8="13000.00000" pt_clust_9="13000.00000"></scales>
<clustering>
<clus scale="   90.115">  5  6 -1 -1</clus>
<clus scale="   64.202">  5  9 -1 -1</clus>
<clus scale="   91.100">  7  8 -1 -1</clus>
<clus scale="  115.351">  1  7  2 -1</clus>
<clus scale="  176.730">  2  5  1 -1</clus>
</clustering>
</event>
<event>
 9    1  0.3303741E-006  0.1409301E+03  0.7546771E-02  0.1221795E+00
         21   -1    0    0  501  502  0.00000000000E+00  0.00000000000E+00  0.23665906558E+03  0.23665906558E+03  0.00000000000E+00 0.  1.
          3   -1    0    0  502    0 -0.00000000000E+00 -0.00000000000E+00 -0.80320310354E+02  0.80320310354E+02  0.00000000000E+00 0. -1.
         23    2    1    2    0    0  0.34431817650E+02  0.67726366911E+02  0.13029719224E+03  0.17366345978E+03  0.86076873296E+02 0.  0.
         23    2    1    2    0    0 -0.82457179828E+01 -0.36510086617E+02  0.88399281413E+01  0.99088501436E+02  0.91320361900E+02 0.  0.
        -13    1    3    3    0    0  0.48380885836E+02  0.12685136640E+02  0.93394225222E+02  0.10594387245E+03  0.00000000000E+00 0.  1.
         13    1    3    3    0    0 -0.13949068186E+02  0.55041230271E+02  0.36902967013E+02  0.67719587325E+02  0.00000000000E+00 0. -1.
        -13    1    4    4    0    0 -0.45632847221E+02 -0.24528493500E+02 -0.14003107731E+02  0.53666477107E+02  0.00000000000E+00 0. -1.
         13    1    4    4    0    0  0.37387129238E+02 -0.11981593116E+02  0.22843035873E+02  0.45422024329E+02  0.00000000000E+00 0.  1.
          3    1    1    2  501    0 -0.26186099667E+02 -0.31216280294E+02  0.17201634849E+02  0.44227414718E+02  0.00000000000E+00 0. -1.
<scales pt_clust_5="13000.00000" pt_clust_6="13000.00000" pt_clust_7="13000.00000" pt_clust_8="13000.00000" pt_clust_9="13000.00000"></scales>
<clustering>
<clus scale="   86.077">  5  6 -1 -1</clus>
<clus scale="   91.320">  7  8 -1 -1</clus>
<clus scale="   40.745">  7  9 -1 -1</clus>
<clus scale="  114.811">  2  5  1 -1</clus>
<clus scale="  140.930">  1  5  2 -1</clus>
</clustering>
</event>
<event>
 9    1  0.3303741E-006  0.2805809E+03  0.7546771E-02  0.1129184E+00
         -1   -1    0    0    0  501 -0.00000000000E+00  0.00000000000E+00  0.53205262045E+03  0.53205262045E+03  0.00000000000E+00 0.  1.
         21   -1    0    0  501  502  0.00000000000E+00 -0.00000000000E+00 -0.13553353014E+03  0.13553353014E+03  0.00000000000E+00 0.  1.
         23    2    1    2    0    0  0.72470540972E+02  0.58115840966E+01  0.36658586259E+03  0.38541305271E+03  0.94192742486E+02 0.  0.
         23    2    1    2    0    0 -0.56473117131E+02 -0.87868473034E+02  0.10138016621E+03  0.17220075767E+03  0.92005876594E+02 0.  0.
        -13    1    3    3    0    0  0.52922687080E+02  0.38100680274E+02  0.31389814205E+03  0.32060024365E+03  0.00000000000E+00 0. -1.
         13    1    3    3    0    0  0.19547853893E+02 -0.32289096178E+02  0.52687720531E+02  0.64812809062E+02  0.00000000000E+00 0.  1.
        -13    1    4    4    0    0 -0.30455197831E+02 -0.98267295911E+02  0.51639476345E+02  0.11511132020E+03  0.00000000000E+00 0.  1.
         13    1    4    4    0    0 -0.26017919301E+02  0.10398822877E+02  0.49740689870E+02  0.57089437470E+02  0.00000000000E+00 0. -1.
         -1    1    1    2    0  502 -0.15997423841E+02  0.82056888937E+02 -0.71446938494E+02  0.10997234021E+03  0.00000000000E+00 0.  1.
<scales pt_clust_5="13000.00000" pt_clust_6="13000.00000" pt_clust_7="13000.00000" pt_clust_8="13000.00000" pt_clust_9="13000.00000"></scales>
<clustering>
<clus scale="   92.006">  7  8 -1 -1</clus>
<clus scale="   83.602">  7  9 -1 -1</clus>
<clus scale="   94.193">  5  6 -1 -1</clus>
<clus scale="  118.988">  1  5  2 -1</clus>
<clus scale="  280.581">  2  5  1 -1</clus>
</clustering>
</event>
<event>
 9    1  0.3303741E-006  0.1750611E+03  0.7546771E-02  0.1189968E+00
         21   -1    0    0  501  502  0.00000000000E+00  0.00000000000E+00  0.77610764445E+02  0.77610764445E+02  0.00000000000E+00 0. -1.
         -4   -1    0    0    0  501 -0.00000000000E+00 -0.00000000000E+00 -0.49646515375E+03  0.49646515375E+03  0.00000000000E+00 0.  1.
         23    2    1    2    0    0  0.14517036080E+02  0.68373706058E+02 -0.37534737675E+03  0.39368948491E+03  0.96021087685E+02 0.  0.
         23    2    1    2    0    0  0.40921377236E+02 -0.39210864629E+02 -0.20789545629E+02  0.11375331618E+03  0.96413488245E+02 0.  0.
        -13    1    4    4    0    0  0.24699374477E+02 -0.53473055911E+02  0.24330801785E+02  0.63729229742E+02  0.00000000000E+00 0. -1.
         13    1    4    4    0    0  0.16222002759E+02  0.14262191282E+02 -0.45120347413E+02  0.50024086442E+02  0.00000000000E+00 0.  1.
        -13    1    3    3    0    0 -0.19309633185E+02  0.71067972914E+01 -0.12329691826E+02  0.23987284173E+02  0.00000000000E+00 0. -1.
         13    1    3    3    0    0  0.33826669264E+02  0.61266908767E+02 -0.36301768492E+03  0.36970220074E+03  0.00000000000E+00 0.  1.
         -4    1    1    2    0  502 -0.55438413315E+02 -0.29162841429E+02 -0.22717466929E+02  0.66633117102E+02  0.00000000000E+00 0.  1.
<scales pt_clust_5="13000.00000" pt_clust_6="13000.00000" pt_clust_7="13000.00000" pt_clust_8="13000.00000" pt_clust_9="13000.00000"></scales>
<clustering>
<clus scale="   96.021">  7  8 -1 -1</clus>
<clus scale="   96.413">  5  6 -1 -1</clus>
<clus scale="   62.641">  5  9 -1 -1</clus>
<clus scale="  118.768">  2  7  1 -1</clus>
<clus scale="  175.061">  1  5  2 -1</clus>
</clustering>
</event>
<event>
 9    1  0.3303741E-006  0.1777206E+03  0.7546771E-02  0.1207898E+00
         21   -1    0    0  501  502  0.00000000000E+00  0.00000000000E+00  0.22640183723E+02  0.22640183723E+02  0.00000000000E+00 0.  1.
         -1   -1    0    0    0  501 -0.00000000000E+00 -0.00000000000E+00 -0.71706542650E+03  0.71706542650E+03  0.00000000000E+00 0.  1.
         23    2    1    2    0    0 -0.27170349534E+02  0.17544480956E+02 -0.22539399248E+03  0.23813314318E+03  0.69705848603E+02 0.  0.
         23    2    1    2    0    0  0.75475617128E+02 -0.35020759689E+02 -0.36689045297E+03  0.38724153651E+03  0.91784425335E+02 0.  0.
        -11    1    3    3    0    0  0.10162384478E+02 -0.20900862523E+02 -0.70297343663E+02  0.74039426244E+02  0.00000000000E+00 0. -1.
         11    1    3    3    0    0 -0.37332734011E+02  0.38445343479E+02 -0.15509664882E+03  0.16409371694E+03  0.00000000000E+00 0.  1.
        -11    1    4    4    0    0  0.90099025057E+02 -0.51145609010E+01 -0.25461663327E+03  0.27013630446E+03  0.00000000000E+00 0.  1.
         11    1    4    4    0    0 -0.14623407928E+02 -0.29906198788E+02 -0.11227381970E+03  0.11710523206E+03  0.00000000000E+00 0. -1.
         -1    1    1    2    0  502 -0.48305267595E+02  0.17476278733E+02 -0.10214079733E+03  0.11433093053E+03  0.00000000000E+00 0.  1.
<scales pt_clust_5="13000.00000" pt_clust_6="13000.00000" pt_clust_7="13000.00000" pt_clust_8="13000.00000" pt_clust_9="13000.00000"></scales>
<clustering>
<clus scale="   69.706">  5  6 -1 -1</clus>
<clus scale="   76.844">  2  5  1 -1</clus>
<clus scale="   91.784">  7  8 -1 -1</clus>
<clus scale="   58.421">  7  9 -1 -1</clus>
<clus scale="  177.721">  1  5  2 -1</clus>
</clustering>
</event>
<event>
 9    1  0.3303741E-006  0.3827625E+03  0.7546771E-02  0.1099275E+00
         21   -1    0    0  501  502  0.00000000000E+00  0.00000000000E+00  0.13837115389E+03  0.13837115389E+03  0.00000000000E+00 0.  1.
          1   -1    0    0  502    0 -0.00000000000E+00 -0.00000000000E+00 -0.44557650738E+03  0.44557650738E+03  0.00000000000E+00 0. -1.
         23    2    1    2    0    0 -0.40638610414E+02  0.23134550796E+02 -0.12517459482E+03  0.16010531140E+03  0.88194826669E+02 0.  0.
         23    2    1    2    0    0  0.35867097869E+02 -0.12560393681E+03 -0.25320890159E+03  0.29898615086E+03  0.90637591033E+02 0.  0.
        -11    1    3    3    0    0 -0.48409298129E+02  0.34390063617E+01 -0.12967523064E+03  0.13845920826E+03  0.00000000000E+00 0.  1.
         11    1    3    3    0    0  0.77706877151E+01  0.19695544434E+02  0.45006358203E+01  0.21646103134E+02  0.00000000000E+00 0. -1.
        -11    1    4    4    0    0  0.77744681225E+01 -0.40844057109E+02 -0.17630222954E+03  0.18113849810E+03  0.00000000000E+00 0. -1.
         11    1    4    4    0    0  0.28092629746E+02 -0.84759879703E+02 -0.76906672053E+02  0.11784765275E+03  0.00000000000E+00 0.  1.
          1    1    1    2  501    0  0.47715125451E+01  0.10246938602E+03  0.71178142928E+02  0.12485619902E+03  0.00000000000E+00 0. -1.
<scales pt_clust_5="13000.00000" pt_clust_6="13000.00000" pt_clust_7="13000.00000" pt_clust_8="13000.00000" pt_clust_9="13000.00000"></scales>
<clustering>
<clus scale="   88.195">  5  6 -1 -1</clus>
<clus scale="   90.638">  7  8 -1 -1</clus>
<clus scale="   99.825">  2  5  1 -1</clus>
<clus scale="  104.526">  7  9 -1 -1</clus>
<clus scale="  382.763">  1  5  2 -1</clus>
</clustering>
</event>
<event>
 9    1  0.3303741E-006  0.2754757E+03  0.7546771E-02  0.1132078E+00
          2   -1    0    0  502    0 -0.00000000000E+00  0.00000000000E+00  0.52531598502E+03  0.52531598502E+03  0.00000000000E+00 0. -1.
         21   -1    0    0  501  502  0.00000000000E+00 -0.00000000000E+00 -0.73373737711E+02  0.73373737711E+02  0.00000000000E+00 0.  1.
         23    2    1    2    0    0  0.23086732420E+02  0.69681271378E+02  0.14004262729E+03  0.18255487129E+03  0.91246187746E+02 0.  0.
         23    2    1    2    0    0  0.12940982377E+02 -0.71933875075E+02  0.34690025865E+03  0.36585448587E+03  0.90375682424E+02 0.  0.
        -11    1    4    4    0    0 -0.23162238123E+02  0.11082281284E+02  0.73401466378E+02  0.77762982837E+02  0.00000000000E+00 0.  1.
         11    1    4    4    0    0  0.36103220500E+02 -0.83016156359E+02  0.27349879227E+03  0.28809150303E+03  0.00000000000E+00 0. -1.
        -11    1    3    3    0    0  0.48302048609E+02  0.66736368960E+02  0.13258600079E+03  0.15609573488E+03  0.00000000000E+00 0.  1.
         11    1    3    3    0    0 -0.25215316189E+02  0.29449024184E+01  0.74566264990E+01  0.26459136409E+02  0.00000000000E+00 0. -1.
          2    1    1    2  501    0 -0.36027714797E+02  0.22526036964E+01 -0.35000638633E+02  0.50280365568E+02  0.00000000000E+00 0. -1.
<scales pt_clust_5="13000.00000" pt_clust_6="13000.00000" pt_clust_7="13000.00000" pt_clust_8="13000.00000" pt_clust_9="13000.00000"></scales>
<clustering>
<clus scale="   90.376">  5  6 -1 -1</clus>
<clus scale="   36.098">  5  9 -1 -1</clus>
<clus scale="   91.246">  7  8 -1 -1</clus>
<clus scale="  117.108">  1  7  2 -1</clus>
<clus scale="  275.476">  2  5  1 -1</clus>
</clustering>
</event>
<event>
 9    1  0.3303741E-006  0.2593723E+03  0.7546771E-02  0.1130965E+00
         -4   -1    0    0    0  501 -0.00000000000E+00  0.00000000000E+00  0.29797956229E+03  0.29797956229E+03  0.00000000000E+00 0.  1.
         21   -1    0    0  501  502  0.00000000000E+00 -0.00000000000E+00 -0.13664531462E+03  0.13664531462E+03  0.00000000000E+00 0.  1.
         23    2    1    2    0    0  0.23095722936E+02  0.10918292536E+03  0.59642175437E+02  0.15602972306E+03  0.91289439586E+02 0.  0.
         23    2    1    2    0    0  0.74323728782E+02 -0.63300431021E+02  0.10622998516E+03  0.17081600227E+03  0.91445807226E+02 0.  0.
        -11    1    3    3    0    0  0.52321638728E+02  0.48383083798E+02  0.51832544250E+02  0.88119744214E+02  0.00000000000E+00 0.  1.
         11    1    3    3    0    0 -0.29225915792E+02  0.60799841563E+02  0.78096311865E+01  0.67909978848E+02  0.00000000000E+00 0. -1.
        -11    1    4    4    0    0  0.82122388684E+02 -0.43633845970E+02  0.39898566169E+02  0.10119236542E+03  0.00000000000E+00 0.  1.
         11    1    4    4    0    0 -0.77986599012E+01 -0.19666585051E+02  0.66331418987E+02  0.69623636853E+02  0.00000000000E+00 0. -1.
         -4    1    1    2    0  502 -0.97419451718E+02 -0.45882494339E+02 -0.45379129225E+01  0.10777915157E+03  0.00000000000E+00 0.  1.
<scales pt_clust_5="13000.00000" pt_clust_6="13000.00000" pt_clust_7="13000.00000" pt_clust_8="13000.00000" pt_clust_9="13000.00000"></scales>
<clustering>
<clus scale="   91.289">  5  6 -1 -1</clus>
<clus scale="   91.446">  7  8 -1 -1</clus>
<clus scale="  107.684">  7  9 -1 -1</clus>
<clus scale="  144.181">  1  5  2 -1</clus>
<clus scale="  259.372">  2  5  1 -1</clus>
</clustering>
</event>
<event>
 9    1  0.3303741E-006  0.7468133E+03  0.7546771E-02  0.1028320E+00
          1   -1    0    0  502    0 -0.00000000000E+00  0.00000000000E+00  0.93003250692E+03  0.93003250692E+03  0.00000000000E+00 0. -1.
         21   -1    0    0  501  502  0.00000000000E+00 -0.00000000000E+00 -0.25898397237E+03  0.25898397237E+03  0.00000000000E+00 0. -1.
         23    2    1    2    0    0  0.79272980747E+01 -0.35840696057E+01  0.37231488854E+03  0.38467086556E+03  0.96320355976E+02 0.  0.
         23    2    1    2    0    0 -0.11708819161E+03  0.27042740794E+03  0.39362731141E+03  0.50082250814E+03  0.95079423579E+02 0.  0.
        -11    1    3    3    0    0  0.23393350531E+02  0.42186146271E+02  0.19713019269E+03  0.20294637877E+03  0.00000000000E+00 0.  1.
         11    1    3    3    0    0 -0.15466052456E+02 -0.45770215877E+02  0.17518469585E+03  0.18172448679E+03  0.00000000000E+00 0. -1.
        -13    1    4    4    0    0  0.36428882449E+01  0.34860836238E+02  0.97626665471E+02  0.10372807888E+03  0.00000000000E+00 0.  1.
         13    1    4    4    0    0 -0.12073107986E+03  0.23556657170E+03  0.29600064594E+03  0.39709442925E+03  0.00000000000E+00 0. -1.
          1    1    1    2  501    0  0.10916089354E+03 -0.26684333834E+03 -0.94893665394E+02  0.30352310559E+03  0.00000000000E+00 0. -1.
<scales pt_clust_5="13000.00000" pt_clust_6="13000.00000" pt_clust_7="13000.00000" pt_clust_8="13000.00000" pt_clust_9="13000.00000"></scales>
<clustering>
<clus scale="   95.079">  7  8 -1 -1</clus>
<clus scale="   96.320">  5  6 -1 -1</clus>
<clus scale="   96.712">  1  5  2 -1</clus>
<clus scale="  289.505">  7  9 -1 -1</clus>
<clus scale="  746.813">  2  5  1 -1</clus>
</clustering>
</event>
<event>
 9    1  0.3303741E-006  0.3327010E+03  0.7546771E-02  0.1085748E+00
          2   -1    0    0  502    0 -0.00000000000E+00  0.00000000000E+00  0.10002708961E+04  0.10002708961E+04  0.00000000000E+00 0. -1.
         21   -1    0    0  501  502  0.00000000000E+00 -0.00000000000E+00 -0.12169281218E+03  0.12169281218E+03  0.00000000000E+00 0. -1.
         23    2    1    2    0    0 -0.17098954458E+03 -0.97790433507E+02  0.72266903060E+03  0.75454352309E+03  0.91022014955E+02 0.  0.
         23    2    1    2    0    0  0.11864047242E+03  0.51448214591E+02  0.22114734793E+03  0.27179559792E+03  0.90797671063E+02 0.  0.
        -11    1    3    3    0    0 -0.58361085399E+02 -0.50112485615E+02  0.43814568923E+03  0.44484707765E+03  0.00000000000E+00 0. -1.
         11    1    3    3    0    0 -0.11262845918E+03 -0.47677947892E+02  0.28452334137E+03  0.30969644543E+03  0.00000000000E+00 0.  1.
        -13    1    4    4    0    0  0.52714505629E+02  0.71617610863E+02  0.13021712837E+03  0.15768450086E+03  0.00000000000E+00 0.  1.
         13    1    4    4    0    0  0.65925966793E+02 -0.20169396272E+02  0.90930219563E+02  0.11411109707E+03  0.00000000000E+00 0. -1.
          2    1    1    2  501    0  0.52349072158E+02  0.46342218916E+02 -0.65238294605E+02  0.95624587282E+02  0.00000000000E+00 0. -1.
<scales pt_clust_5="13000.00000" pt_clust_6="13000.00000" pt_clust_7="13000.00000" pt_clust_8="13000.00000" pt_clust_9="13000.00000"></scales>
<clustering>
<clus scale="   90.798">  7  8 -1 -1</clus>
<clus scale="   69.914">  7  9 -1 -1</clus>
<clus scale="   91.022">  5  6 -1 -1</clus>
<clus scale="  216.992">  1  5  2 -1</clus>
<clus scale="  332.701">  2  5  1 -1</clus>
</clustering>
</event>
<event>
 9    1  0.3303741E-006  0.1762979E+03  0.7546771E-02  0.1204100E+00
         -1   -1    0    0    0  501 -0.00000000000E+00  0.00000000000E+00  0.16123498074E+03  0.16123498074E+03  0.00000000000E+00 0.  1.
         21   -1    0    0  501  502  0.00000000000E+00 -0.00000000000E+00 -0.11045229823E+03  0.11045229823E+03  0.00000000000E+00 0. -1.
         23    2    1    2    0    0 -0.65199574872E+01  0.78230099172E+01  0.41966934048E+02  0.95169072219E+02  0.84806953865E+02 0.  0.
         23    2    1    2    0    0  0.34690381550E+02  0.54609250905E+01  0.59900506415E+02  0.11668771104E+03  0.93780098980E+02 0.  0.
        -11    1    4    4    0    0 -0.18367469653E+02  0.31221157879E+02  0.41096942901E+02  0.54782144505E+02  0.00000000000E+00 0.  1.
         11    1    4    4    0    0  0.53057851202E+02 -0.25760232788E+02  0.18803563514E+02  0.61905566538E+02  0.00000000000E+00 0. -1.
        -13    1    3    3    0    0 -0.43488773264E+02 -0.95238370144E+01  0.20099025289E+02  0.48846163504E+02  0.00000000000E+00 0.  1.
         13    1    3    3    0    0  0.36968815777E+02  0.17346846932E+02  0.21867908758E+02  0.46322908715E+02  0.00000000000E+00 0. -1.
         -1    1    1    2    0  502 -0.28170424062E+02 -0.13283935008E+02 -0.51084757957E+02  0.59830495708E+02  0.00000000000E+00 0.  1.
<scales pt_clust_5="13000.00000" pt_clust_6="13000.00000" pt_clust_7="13000.00000" pt_clust_8="13000.00000" pt_clust_9="13000.00000"></scales>
<clustering>
<clus scale="   84.807">  7  8 -1 -1</clus>
<clus scale="   85.416">  1  7  2 -1</clus>
<clus scale="   93.780">  5  6 -1 -1</clus>
<clus scale="   31.270">  5  9 -1 -1</clus>
<clus scale="  176.298">  2  5  1 -1</clus>
</clustering>
</event>
<event>
 9    1  0.3303741E-006  0.5370774E+03  0.7546771E-02  0.1033552E+00
         21   -1    0    0  501  502  0.00000000000E+00  0.00000000000E+00  0.24977518268E+03  0.24977518268E+03  0.00000000000E+00 0.  1.
         -1   -1    0    0    0  501 -0.00000000000E+00 -0.00000000000E+00 -0.70391706514E+03  0.70391706514E+03  0.00000000000E+00 0.  1.
         23    2    1    2    0    0  0.19190363975E+03 -0.65494715033E+02 -0.33709350491E+03  0.40400827404E+03  0.92054819488E+02 0.  0.
         23    2    1    2    0    0  0.84835154457E+00  0.24351535848E+03 -0.12232857927E+03  0.28724815273E+03  0.90811730655E+02 0.  0.
        -13    1    3    3    0    0  0.13112092058E+03 -0.39784915682E+02 -0.29622790391E+03  0.32638398611E+03  0.00000000000E+00 0.  1.
         13    1    3    3    0    0  0.60782719165E+02 -0.25709799351E+02 -0.40865601001E+02  0.77624287932E+02  0.00000000000E+00 0. -1.
        -13    1    4    4    0    0  0.34854533569E+02  0.62175371946E+02 -0.57866068922E+02  0.91810115561E+02  0.00000000000E+00 0. -1.
         13    1    4    4    0    0 -0.34006182024E+02  0.18133998653E+03 -0.64462510348E+02  0.19543803717E+03  0.00000000000E+00 0.  1.
         -1    1    1    2    0  502 -0.19275199129E+03 -0.17802064345E+03  0.52802017265E+01  0.26243582105E+03  0.00000000000E+00 0.  1.
<scales pt_clust_5="13000.00000" pt_clust_6="13000.00000" pt_clust_7="13000.00000" pt_clust_8="13000.00000" pt_clust_9="13000.00000"></scales>
<clustering>
<clus scale="   90.812">  7  8 -1 -1</clus>
<clus scale="   92.055">  5  6 -1 -1</clus>
<clus scale="  222.690">  2  5  1 -1</clus>
<clus scale="  235.418">  7  9 -1 -1</clus>
<clus scale="  537.077">  1  5  2 -1</clus>
</clustering>
</event>
<event>
 9    1  0.3303741E-006  0.5792290E+03  0.7546771E-02  0.1054713E+00
         21   -1    0    0  501  502  0.00000000000E+00  0.00000000000E+00  0.34964561974E+03  0.34964561974E+03  0.00000000000E+00 0. -1.
          2   -1    0    0  502    0 -0.00000000000E+00 -0.00000000000E+00 -0.34924682309E+03  0.34924682309E+03  0.00000000000E+00 0. -1.
         23    2    1    2    0    0 -0.28263244299E+02  0.12116108382E+02 -0.64596038510E+02  0.11602831763E+03  0.91347201599E+02 0.  0.
         23    2    1    2    0    0 -0.21201774094E+03 -0.15477127023E+03 -0.46796979047E+02  0.28189426493E+03  0.91480876644E+02 0.  0.
        -13    1    3    3    0    0 -0.25505446580E+02 -0.29395079101E+02 -0.63420041696E+02  0.74409005969E+02  0.00000000000E+00 0. -1.
         13    1    3    3    0    0 -0.27577977189E+01  0.41511187483E+02 -0.11759968136E+01  0.41619311659E+02  0.00000000000E+00 0.  1.
        -13    1    4    4    0    0 -0.19794980691E+02  0.71372055374E+01 -0.20195954837E+02  0.29166034273E+02  0.00000000000E+00 0.  1.
         13    1    4    4    0    0 -0.19222276025E+03 -0.16190847577E+03 -0.26601024210E+02  0.25272823066E+03  0.00000000000E+00 0. -1.
          2    1    1    2  501    0  0.24028098524E+03  0.14265516185E+03  0.11179181420E+03  0.30096986027E+03  0.00000000000E+00 0. -1.
<scales pt_clust_5="13000.00000" pt_clust_6="13000.00000" pt_clust_7="13000.00000" pt_clust_8="13000.00000" pt_clust_9="13000.00000"></scales>
<clustering>
<clus scale="   91.347">  5  6 -1 -1</clus>
<clus scale="   91.481">  7  8 -1 -1</clus>
<clus scale="   96.384">  2  5  1 -1</clus>
<clus scale="  272.971">  7  9 -1 -1</clus>
<clus scale="  579.229">  1  5  2 -1</clus>
</clustering>
</event>
<event>
 9    1  0.3303741E-006  0.3348220E+03  0.7546771E-02  0.1094940E+00
         21   -1    0    0  501  502  0.00000000000E+00  0.00000000000E+00  0.86726884616E+02  0.86726884616E+02  0.00000000000E+00 0. -1.
          2   -1    0    0  502    0 -0.00000000000E+00 -0.00000000000E+00 -0.74550736348E+03  0.74550736348E+03  0.00000000000E+00 0. -1.
         23    2    1    2    0    0 -0.58968610196E+02  0.12486699627E+03 -0.28582108445E+03  0.33103121569E+03  0.93909050150E+02 0.  0.
         23    2    1    2    0    0  0.17018312821E+02 -0.17429926832E+03 -0.38708222043E+03  0.43484919917E+03  0.92689388507E+02 0.  0.
        -11    1    4    4    0    0  0.34325278848E+02 -0.17517831456E+02 -0.54386267916E+02  0.66655572346E+02  0.00000000000E+00 0.  1.
         11    1    4    4    0    0 -0.17306966027E+02 -0.15678143687E+03 -0.33269595251E+03  0.36819362683E+03  0.00000000000E+00 0. -1.
        -13    1    3    3    0    0 -0.81678778308E+02  0.11752816058E+03 -0.24389586773E+03  0.28278876507E+03  0.00000000000E+00 0.  1.
         13    1    3    3    0    0  0.22710168111E+02  0.73388356971E+01 -0.41925216718E+02  0.48242450621E+02  0.00000000000E+00 0. -1.
          2    1    1    2  501    0  0.41950297375E+02  0.49432272050E+02  0.14122826013E+02  0.66353833231E+02  0.00000000000E+00 0. -1.
<scales pt_clust_5="13000.00000" pt_clust_6="13000.00000" pt_clust_7="13000.00000" pt_clust_8="13000.00000" pt_clust_9="13000.00000"></scales>
<clustering>
<clus scale="   92.689">  5  6 -1 -1</clus>
<clus scale="   64.833">  5  9 -1 -1</clus>
<clus scale="   93.909">  7  8 -1 -1</clus>
<clus scale="  166.997">  2  7  1 -1</clus>
<clus scale="  334.822">  1  5  2 -1</clus>
</clustering>
</event>
<event>
 9    1  0.3303741E-006  0.5105048E+03  0.7546771E-02  0.1047421E+00
         -1   -1    0    0    0  501 -0.00000000000E+00  0.00000000000E+00  0.35897928397E+03  0.35897928397E+03  0.00000000000E+00 0.  1.
         21   -1    0    0  501  502  0.00000000000E+00 -0.00000000000E+00 -0.33838490314E+03  0.33838490314E+03  0.00000000000E+00 0. -1.
         23    2    1    2    0    0 -0.13516760945E+03 -0.58999815530E+02  0.64697547708E+02  0.18495782555E+03  0.90952535290E+02 0.  0.
         23    2    1    2    0    0 -0.13471477489E+03  0.29939201547E+02  0.11121216103E+03  0.19967025596E+03  0.91954553957E+02 0.  0.
        -11    1    3    3    0    0 -0.50698521914E+02  0.22031325944E+02  0.29881586193E+02  0.62838114552E+02  0.00000000000E+00 0. -1.
         11    1    3    3    0    0 -0.84469087537E+02 -0.81031141474E+02  0.34815961515E+02  0.12211971100E+03  0.00000000000E+00 0.  1.
        -13    1    4    4    0    0 -0.64961216695E+02  0.15606645917E+02  0.10970039799E+03  0.12844338983E+03  0.00000000000E+00 0.  1.
         13    1    4    4    0    0 -0.69753558193E+02  0.14332555630E+02  0.15117630339E+01  0.71226866132E+02  0.00000000000E+00 0. -1.
         -1    1    1    2    0  502  0.26988238434E+03  0.29060613984E+02 -0.15531532791E+03  0.31273610560E+03  0.00000000000E+00 0.  1.
<scales pt_clust_5="13000.00000" pt_clust_6="13000.00000" pt_clust_7="13000.00000" pt_clust_8="13000.00000" pt_clust_9="13000.00000"></scales>
<clustering>
<clus scale="   90.953">  5  6 -1 -1</clus>
<clus scale="   91.955">  7  8 -1 -1</clus>
<clus scale="  173.273">  1  5  2 -1</clus>
<clus scale="  224.635">  7  9 -1 -1</clus>
<clus scale="  510.505">  2  5  1 -1</clus>
</clustering>
</event>
<event>
 9    1  0.3303741E-006  0.3899326E+03  0.7546771E-02  0.1093807E+00
         -3   -1    0    0    0  501 -0.00000000000E+00  0.00000000000E+00  0.23990993668E+03  0.23990993668E+03  0.00000000000E+00 0.  1.
         21   -1    0    0  501  502  0.00000000000E+00 -0.00000000000E+00 -0.33171813706E+03  0.33171813706E+03  0.00000000000E+00 0.  1.
         23    2    1    2    0    0  0.59717397509E+02 -0.79027329325E+01  0.90100093147E+02  0.14135132121E+03  0.90738902732E+02 0.  0.
         23    2    1    2    0    0 -0.51109157628E+02 -0.75642167210E+02  0.81734445030E+02  0.15357954307E+03  0.92586570798E+02 0.  0.
        -11    1    3    3    0    0  0.38179224107E+02  0.38463414738E+02  0.64277622542E+02  0.84075562361E+02  0.00000000000E+00 0.  1.
         11    1    3    3    0    0  0.21538173402E+02 -0.46366147670E+02  0.25822470605E+02  0.57275758846E+02  0.00000000000E+00 0. -1.
        -11    1    4    4    0    0 -0.34084612458E+02 -0.91227164198E+02  0.38793979555E+02  0.10482904723E+03  0.00000000000E+00 0.  1.
         11    1    4    4    0    0 -0.17024545171E+02  0.15584996988E+02  0.42940465475E+02  0.48750495840E+02  0.00000000000E+00 0. -1.
         -3    1    1    2    0  502 -0.86082398809E+01  0.83544900142E+02 -0.26364273855E+03  0.27669720946E+03  0.00000000000E+00 0.  1.
<scales pt_clust_5="13000.00000" pt_clust_6="13000.00000" pt_clust_7="13000.00000" pt_clust_8="13000.00000" pt_clust_9="13000.00000"></scales>
<clustering>
<clus scale="   90.739">  5  6 -1 -1</clus>
<clus scale="   92.587">  7  8 -1 -1</clus>
<clus scale="   83.987">  7  9 -1 -1</clus>
<clus scale="  108.914">  1  5  2 -1</clus>
<clus scale="  389.933">  2  5  1 -1</clus>
</clustering>
</event>
<event>
 9    1  0.3303741E-006  0.2049728E+03  0.7546771E-02  0.1169487E+00
         21   -1    0    0  501  502  0.00000000000E+00  0.00000000000E+00  0.50855347307E+03  0.50855347307E+03  0.00000000000E+00 0. -1.
          1   -1    0    0  502    0 -0.00000000000E+00 -0.00000000000E+00 -0.52780927281E+02  0.52780927281E+02  0.00000000000E+00 0. -1.
         23    2    1    2    0    0  0.56907466541E+02 -0.46734193208E+02  0.11895108300E+03  0.16704700781E+03  0.91284161317E+02 0.  0.
         23    2    1    2    0    0 -0.17241154873E+02  0.23257463730E+02  0.58782106928E+02  0.11245329859E+03  0.91390597043E+02 0.  0.
        -11    1    3    3    0    0  0.51971134689E+02 -0.18675723512E+02  0.12195506954E+02  0.56555387713E+02  0.00000000000E+00 0. -1.
         11    1    3    3    0    0  0.49363318522E+01 -0.28058469697E+02  0.10675557605E+03  0.11049162009E+03  0.00000000000E+00 0.  1.
        -13    1    4    4    0    0 -0.44881668050E+02  0.28914374224E+02  0.74876465994E+01  0.53911687187E+02  0.00000000000E+00 0.  1.
         13    1    4    4    0    0  0.27640513177E+02 -0.56569104937E+01  0.51294460329E+02  0.58541611401E+02  0.00000000000E+00 0. -1.
          1    1    1    2  501    0 -0.39666311668E+02  0.23476729478E+02  0.27803935586E+03  0.28183409396E+03  0.00000000000E+00 0. -1.
<scales pt_clust_5="13000.00000" pt_clust_6="13000.00000" pt_clust_7="13000.00000" pt_clust_8="13000.00000" pt_clust_9="13000.00000"></scales>
<clustering>
<clus scale="   91.284">  5  6 -1 -1</clus>
<clus scale="   91.391">  7  8 -1 -1</clus>
<clus scale="   46.093">  7  9 -1 -1</clus>
<clus scale="  117.283">  2  5  1 -1</clus>
<clus scale="  204.973">  1  5  2 -1</clus>
</clustering>
</event>
<event>
 9    1  0.3303741E-006  0.2196042E+03  0.7546771E-02  0.1170592E+00
         21   -1    0    0  501  502  0.00000000000E+00  0.00000000000E+00  0.26681150930E+03  0.26681150930E+03  0.00000000000E+00 0. -1.
          3   -1    0    0  502    0 -0.00000000000E+00 -0.00000000000E+00 -0.17112550323E+03  0.17112550323E+03  0.00000000000E+00 0. -1.
         23    2    1    2    0    0  0.13444726108E+02 -0.47603071832E+01 -0.10513362623E+03  0.14035585659E+03  0.91887245749E+02 0.  0.
         23    2    1    2    0    0  0.19760792158E+02 -0.34230779808E+02  0.10636866179E+02  0.10062330300E+03  0.91922091963E+02 0.  0.
        -13    1    3    3    0    0 -0.16852187160E+02 -0.41082555876E+02 -0.39337739416E+02  0.59323101333E+02  0.00000000000E+00 0.  1.
         13    1    3    3    0    0  0.30296913268E+02  0.36322248693E+02 -0.65795886810E+02  0.81032755259E+02  0.00000000000E+00 0. -1.
        -13    1    4    4    0    0  0.25396323600E+02 -0.59159558361E+02 -0.13149183269E+02  0.65709418035E+02  0.00000000000E+00 0. -1.
         13    1    4    4    0    0 -0.56355314417E+01  0.24928778553E+02  0.23786049448E+02  0.34913884962E+02  0.00000000000E+00 0.  1.
          3    1    1    2  501    0 -0.33205518266E+02  0.38991086992E+02  0.19018276612E+03  0.19695785295E+03  0.00000000000E+00 0. -1.
<scales pt_clust_5="13000.00000" pt_clust_6="13000.00000" pt_clust_7="13000.00000" pt_clust_8="13000.00000" pt_clust_9="13000.00000"></scales>
<clustering>
<clus scale="   91.887">  5  6 -1 -1</clus>
<clus scale="   91.922">  7  8 -1 -1</clus>
<clus scale="   51.214">  7  9 -1 -1</clus>
<clus scale="   92.988">  2  5  1 -1</clus>
<clus scale="  219.604">  1  5  2 -1</clus>
</clustering>
</event>
<event>
 9    1  0.3303741E-006  0.1981265E+03  0.7546771E-02  0.1178019E+00
         21   -1    0    0  501  502  0.00000000000E+00  0.00000000000E+00  0.20813523314E+03  0.20813523314E+03  0.00000000000E+00 0.  1.
          3   -1    0    0  502    0 -0.00000000000E+00 -0.00000000000E+00 -0.22547017869E+03  0.22547017869E+03  0.00000000000E+00 0. -1.
         23    2    1    2    0    0 -0.51089614386E+02  0.79863598552E+01 -0.15786745023E+03  0.19069907955E+03  0.93648686353E+02 0.  0.
         23    2    1    2    0    0  0.83307242828E+02  0.38820181123E+02  0.50922100581E+02  0.13679859277E+03  0.87599608939E+02 0.  0.
        -11    1    3    3    0    0 -0.53307479197E+02 -0.16671579729E+02 -0.36246976659E+02  0.66584324176E+02  0.00000000000E+00 0. -1.
         11    1    3    3    0    0  0.22178648117E+01  0.24657939584E+02 -0.12162047357E+03  0.12411475537E+03  0.00000000000E+00 0.  1.
        -13    1    4    4    0    0 -0.15683838521E+02  0.18744763013E+02  0.18715002835E+01  0.24512271303E+02  0.00000000000E+00 0.  1.
         13    1    4    4    0    0  0.98991081349E+02  0.20075418110E+02  0.49050600297E+02  0.11228632147E+03  0.00000000000E+00 0. -1.
          3    1    1    2  501    0 -0.32217628443E+02 -0.46806540978E+02  0.89610404106E+02  0.10610773951E+03  0.00000000000E+00 0. -1.
<scales pt_clust_5="13000.00000" pt_clust_6="13000.00000" pt_clust_7="13000.00000" pt_clust_8="13000.00000" pt_clust_9="13000.00000"></scales>
<clustering>
<clus scale="   87.600">  7  8 -1 -1</clus>
<clus scale="   56.823">  7  9 -1 -1</clus>
<clus scale="   93.649">  5  6 -1 -1</clus>
<clus scale="  106.977">  2  5  1 -1</clus>
<clus scale="  198.126">  1  5  2 -1</clus>
</clustering>
</event>
<event>
 9    1  0.3303741E-006  0.1893068E+03  0.7546771E-02  0.1189818E+00
         21   -1    0    0  501  502  0.00000000000E+00  0.00000000000E+00  0.10862318561E+03  0.10862318561E+03  0.00000000000E+00 0. -1.
          1   -1    0    0  502    0 -0.00000000000E+00 -0.00000000000E+00 -0.35260257593E+03  0.35260257593E+03  0.00000000000E+00 0. -1.
         23    2    1    2    0    0  0.13021126173E+02  0.18538341298E+02 -0.25474225203E+03  0.27161321401E+03  0.91470778002E+02 0.  0.
         23    2    1    2    0    0 -0.15566677724E+02  0.20304298289E+02  0.71229513582E+02  0.11769977766E+03  0.90138826658E+02 0.  0.
        -11    1    3    3    0    0  0.38640305426E+02  0.43198361930E+02 -0.14117674817E+03  0.15261076601E+03  0.00000000000E+00 0.  1.
         11    1    3    3    0    0 -0.25619179252E+02 -0.24660020632E+02 -0.11356550386E+03  0.11900244800E+03  0.00000000000E+00 0. -1.
        -13    1    4    4    0    0  0.52994473464E+00  0.53705394899E+02  0.56070757143E+02  0.77643287471E+02  0.00000000000E+00 0. -1.
         13    1    4    4    0    0 -0.16096622458E+02 -0.33401096610E+02  0.15158756439E+02  0.40056490187E+02  0.00000000000E+00 0.  1.
          1    1    1    2  501    0  0.25455515504E+01 -0.38842639587E+02 -0.60466651868E+02  0.71912769874E+02  0.00000000000E+00 0. -1.
<scales pt_clust_5="13000.00000" pt_clust_6="13000.00000" pt_clust_7="13000.00000" pt_clust_8="13000.00000" pt_clust_9="13000.00000"></scales>
<clustering>
<clus scale="   90.139">  7  8 -1 -1</clus>
<clus scale="   38.926">  7  9 -1 -1</clus>
<clus scale="   91.471">  5  6 -1 -1</clus>
<clus scale="   94.234">  2  5  1 -1</clus>
<clus scale="  189.307">  1  5  2 -1</clus>
</clustering>
</event>
<event>
 9    1  0.3303741E-006  0.2445453E+03  0.7546771E-02  0.1137902E+00
         21   -1    0    0  501  502  0.00000000000E+00  0.00000000000E+00  0.60859467778E+03  0.60859467778E+03  0.00000000000E+00 0. -1.
          2   -1    0    0  502    0 -0.00000000000E+00 -0.00000000000E+00 -0.63140981751E+02  0.63140981751E+02  0.00000000000E+00 0. -1.
         23    2    1    2    0    0 -0.11375548043E+03 -0.66234502902E+01  0.23871084532E+03  0.27944290880E+03  0.90118212260E+02 0.  0.
         23    2    1    2    0    0  0.23145256124E+02  0.55962361581E+02  0.59949712293E+02  0.12480182737E+03  0.91181353991E+02 0.  0.
        -11    1    4    4    0    0  0.38310271947E+02 -0.78065048607E+01  0.52882054307E+01  0.39453562215E+02  0.00000000000E+00 0.  1.
         11    1    4    4    0    0 -0.15165015823E+02  0.63768866441E+02  0.54661506863E+02  0.85348265153E+02  0.00000000000E+00 0. -1.
        -13    1    3    3    0    0 -0.26231284450E+02 -0.11363557012E+02  0.15709906155E+03  0.15967882092E+03  0.00000000000E+00 0.  1.
         13    1    3    3    0    0 -0.87524195977E+02  0.47401067219E+01  0.81611783771E+02  0.11976408787E+03  0.00000000000E+00 0. -1.
          2    1    1    2  501    0  0.90610224304E+02 -0.49338911290E+02  0.24679313841E+03  0.26749092336E+03  0.00000000000E+00 0. -1.
<scales pt_clust_5="13000.00000" pt_clust_6="13000.00000" pt_clust_7="13000.00000" pt_clust_8="13000.00000" pt_clust_9="13000.00000"></scales>
<clustering>
<clus scale="   90.118">  7  8 -1 -1</clus>
<clus scale="   91.181">  5  6 -1 -1</clus>
<clus scale="  103.172">  5  9 -1 -1</clus>
<clus scale="  145.277">  2  7  1 -1</clus>
<clus scale="  244.545">  1  5  2 -1</clus>
</clustering>
</event>
<event>
 9    1  0.3303741E-006  0.1769630E+03  0.7546771E-02  0.1184454E+00
          4   -1    0    0  502    0 -0.00000000000E+00  0.00000000000E+00  0.31093025098E+03  0.31093025098E+03  0.00000000000E+00 0. -1.
         21   -1    0    0  501  502  0.00000000000E+00 -0.00000000000E+00 -0.98164687140E+02  0.98164687140E+02  0.00000000000E+00 0. -1.
         23    2    1    2    0    0  0.38930413234E+02  0.86549334924E+02  0.19069100335E+03  0.23076041763E+03  0.88774698743E+02 0.  0.
         23    2    1    2    0    0 -0.14424967995E+02 -0.10711204951E+03  0.38429151525E+01  0.14151421401E+03  0.91271210789E+02 0.  0.
        -13    1    4    4    0    0 -0.42394379554E+02 -0.38921164507E+02 -0.24499012286E+02  0.62548717552E+02  0.00000000000E+00 0.  1.
         13    1    4    4    0    0  0.27969411559E+02 -0.68190885001E+02  0.28341927439E+02  0.78965496459E+02  0.00000000000E+00 0. -1.
        -13    1    3    3    0    0  0.65567230430E+02  0.77940094531E+02  0.15332771680E+03  0.18407365043E+03  0.00000000000E+00 0. -1.
         13    1    3    3    0    0 -0.26636817196E+02  0.86092403929E+01  0.37363286549E+02  0.46686767206E+02  0.00000000000E+00 0.  1.
          4    1    1    2  501    0 -0.24505445239E+02  0.20562714583E+02  0.18231645339E+02  0.36820306478E+02  0.00000000000E+00 0. -1.
<scales pt_clust_5="13000.00000" pt_clust_6="13000.00000" pt_clust_7="13000.00000" pt_clust_8="13000.00000" pt_clust_9="13000.00000"></scales>
<clustering>
<clus scale="   88.775">  7  8 -1 -1</clus>
<clus scale="   91.271">  5  6 -1 -1</clus>
<clus scale="   31.990">  5  9 -1 -1</clus>
<clus scale="  129.951">  1  7  2 -1</clus>
<clus scale="  176.963">  2  5  1 -1</clus>
</clustering>
</event>
<event>
 9    1  0.3303741E-006  0.1953800E+03  0.7546771E-02  0.1184787E+00
          1   -1    0    0  502    0 -0.00000000000E+00  0.00000000000E+00  0.36870641646E+02  0.36870641646E+02  0.00000000000E+00 0. -1.
         21   -1    0    0  501  502  0.00000000000E+00 -0.00000000000E+00 -0.58580307146E+03  0.58580307146E+03  0.00000000000E+00 0.  1.
         23    2    1    2    0    0 -0.32820680804E+02 -0.19576017290E+02 -0.14271425598E+03  0.17191152006E+03  0.87896497822E+02 0.  0.
         23    2    1    2    0    0  0.51100366677E+02 -0.46642497489E+02 -0.24203638674E+03  0.27278832466E+03  0.10509561131E+03 0.  0.
        -13    1    4    4    0    0  0.17417793631E+02  0.33813441310E+02 -0.85827267949E+02  0.93877836957E+02  0.00000000000E+00 0. -1.
         13    1    4    4    0    0  0.33682573046E+02 -0.80455938799E+02 -0.15620911879E+03  0.17891048770E+03  0.00000000000E+00 0.  1.
        -13    1    3    3    0    0  0.14870653949E+02  0.25871977554E+02 -0.40495460483E+02  0.50302861660E+02  0.00000000000E+00 0. -1.
         13    1    3    3    0    0 -0.47691334753E+02 -0.45447994844E+02 -0.10221879549E+03  0.12160865840E+03  0.00000000000E+00 0.  1.
          1    1    1    2  501    0 -0.18279685873E+02  0.66218514779E+02 -0.16418178710E+03  0.17797386840E+03  0.00000000000E+00 0. -1.
<scales pt_clust_5="13000.00000" pt_clust_6="13000.00000" pt_clust_7="13000.00000" pt_clust_8="13000.00000" pt_clust_9="13000.00000"></scales>
<clustering>
<clus scale="   87.896">  7  8 -1 -1</clus>
<clus scale="   95.845">  1  7  2 -1</clus>
<clus scale="  105.096">  5  6 -1 -1</clus>
<clus scale="   66.542">  5  9 -1 -1</clus>
<clus scale="  195.380">  2  5  1 -1</clus>
</clustering>
</event>
<event>
 9    1  0.3303741E-006  0.2924223E+03  0.7546771E-02  0.1109893E+00
         21   -1    0    0  501  502  0.00000000000E+00  0.00000000000E+00  0.57547084561E+03  0.57547084561E+03  0.00000000000E+00 0. -1.
          2   -1    0    0  502    0 -0.00000000000E+00 -0.00000000000E+00 -0.26730968816E+03  0.26730968816E+03  0.00000000000E+00 0. -1.
         23    2    1    2    0    0 -0.17375389570E+02 -0.13139768864E+03 -0.19616254483E+03  0.25981122206E+03  0.10702742813E+03 0.  0.
         23    2    1    2    0    0 -0.31130233552E+02 -0.33132153294E+02  0.94445735540E+02  0.13864644264E+03  0.90752454905E+02 0.  0.
        -13    1    3    3    0    0 -0.32496123699E+02 -0.35745300351E+02 -0.13946407381E+03  0.14759387669E+03  0.00000000000E+00 0. -1.
         13    1    3    3    0    0  0.15120734128E+02 -0.95652388289E+02 -0.56698471021E+02  0.11221734537E+03  0.00000000000E+00 0.  1.
        -13    1    4    4    0    0  0.24419712700E+02 -0.30217435544E+02  0.64952100659E+02  0.75684814588E+02  0.00000000000E+00 0.  1.
         13    1    4    4    0    0 -0.55549946252E+02 -0.29147177503E+01  0.29493634881E+02  0.62961628049E+02  0.00000000000E+00 0. -1.
          2    1    1    2  501    0  0.48505623122E+02  0.16452984193E+03  0.40987796674E+03  0.44432286908E+03  0.00000000000E+00 0. -1.
<scales pt_clust_5="13000.00000" pt_clust_6="13000.00000" pt_clust_7="13000.00000" pt_clust_8="13000.00000" pt_clust_9="13000.00000"></scales>
<clustering>
<clus scale="   90.752">  7  8 -1 -1</clus>
<clus scale="  107.027">  5  6 -1 -1</clus>
<clus scale="  170.359">  2  5  1 -1</clus>
<clus scale="  114.531">  7  9 -1 -1</clus>
<clus scale="  292.422">  1  5  2 -1</clus>
</clustering>
</event>
<event>
 9    1  0.3303741E-006  0.1434161E+03  0.7546771E-02  0.1217486E+00
          3   -1    0    0  502    0 -0.00000000000E+00  0.00000000000E+00  0.89285195856E+02  0.89285195856E+02  0.00000000000E+00 0. -1.
         21   -1    0    0  501  502  0.00000000000E+00 -0.00000000000E+00 -0.19863149355E+03  0.19863149355E+03  0.00000000000E+00 0.  1.
         23    2    1    2    0    0 -0.28693442974E+02 -0.71521890508E+02 -0.26093074731E+02  0.12208764834E+03  0.91026649052E+02 0.  0.
         23    2    1    2    0    0 -0.28828384493E+01  0.53345995480E+02 -0.61247735495E+02  0.12326536891E+03  0.92676642566E+02 0.  0.
        -11    1    3    3    0    0  0.16919856856E+02 -0.71559527450E+02 -0.13427596918E+02  0.74748564427E+02  0.00000000000E+00 0. -1.
         11    1    3    3    0    0 -0.45613299829E+02  0.37636942052E-01 -0.12665477812E+02  0.47339083917E+02  0.00000000000E+00 0.  1.
        -13    1    4    4    0    0  0.10629505503E+02  0.26080792897E+02  0.21284601056E+02  0.35301960108E+02  0.00000000000E+00 0. -1.
         13    1    4    4    0    0 -0.13512343952E+02  0.27265202583E+02 -0.82532336551E+02  0.87963408799E+02  0.00000000000E+00 0.  1.
          3    1    1    2  501    0  0.31576281423E+02  0.18175895028E+02 -0.22005487468E+02  0.42563672154E+02  0.00000000000E+00 0. -1.
<scales pt_clust_5="13000.00000" pt_clust_6="13000.00000" pt_clust_7="13000.00000" pt_clust_8="13000.00000" pt_clust_9="13000.00000"></scales>
<clustering>
<clus scale="   91.027">  5  6 -1 -1</clus>
<clus scale="   92.677">  7  8 -1 -1</clus>
<clus scale="   36.434">  7  9 -1 -1</clus>
<clus scale="  119.267">  1  5  2 -1</clus>
<clus scale="  143.416">  2  5  1 -1</clus>
</clustering>
</event>
<event>
 9    1  0.3303741E-006  0.3315315E+03  0.7546771E-02  0.1118391E+00
          2   -1    0    0  502    0 -0.00000000000E+00  0.00000000000E+00  0.39346170860E+03  0.39346170860E+03  0.00000000000E+00 0. -1.
         21   -1    0    0  501  502  0.00000000000E+00 -0.00000000000E+00 -0.11702476046E+03  0.11702476046E+03  0.00000000000E+00 0. -1.
         23    2    1    2    0    0 -0.35812352856E+01  0.22799939174E+02  0.35971114023E+02  0.10092942185E+03  0.91433936139E+02 0.  0.
         23    2    1    2    0    0  0.38913927452E+02 -0.88920955232E+02  0.29070610423E+03  0.31931031519E+03  0.89598037464E+02 0.  0.
        -13    1    3    3    0    0 -0.23266958566E+02 -0.22428237410E+02  0.40017486663E+02  0.51437111437E+02  0.00000000000E+00 0. -1.
         13    1    3    3    0    0  0.19685723280E+02  0.45228176584E+02 -0.40463726396E+01  0.49492310410E+02  0.00000000000E+00 0.  1.
        -13    1    4    4    0    0  0.44508721053E+01 -0.96112814952E+02  0.19786310811E+03  0.22001657440E+03  0.00000000000E+00 0. -1.
         13    1    4    4    0    0  0.34463055346E+02  0.71918597200E+01  0.92842996123E+02  0.99293740785E+02  0.00000000000E+00 0.  1.
          2    1    1    2  501    0 -0.35332692166E+02  0.66121016058E+02 -0.50240270121E+02  0.90246732030E+02  0.00000000000E+00 0. -1.
<scales pt_clust_5="13000.00000" pt_clust_6="13000.00000" pt_clust_7="13000.00000" pt_clust_8="13000.00000" pt_clust_9="13000.00000"></scales>
<clustering>
<clus scale="   89.598">  7  8 -1 -1</clus>
<clus scale="   74.969">  7  9 -1 -1</clus>
<clus scale="   91.434">  5  6 -1 -1</clus>
<clus scale="   94.302">  1  5  2 -1</clus>
<clus scale="  331.532">  2  5  1 -1</clus>
</clustering>
</event>
<event>
 9    1  0.3303741E-006  0.2505856E+03  0.7546771E-02  0.1148751E+00
          3   -1    0    0  502    0 -0.00000000000E+00  0.00000000000E+00  0.17015922693E+03  0.17015922693E+03  0.00000000000E+00 0. -1.
         21   -1    0    0  501  502  0.00000000000E+00 -0.00000000000E+00 -0.18485043319E+03  0.18485043319E+03  0.00000000000E+00 0. -1.
         23    2    1    2    0    0 -0.18983428437E+02 -0.66489771611E+02 -0.23908016572E+01  0.10412231565E+03  0.77810541697E+02 0.  0.
         23    2    1    2    0    0  0.71474840888E+02  0.76430393469E+02  0.67834888803E+02  0.15457623611E+03  0.91334455199E+02 0.  0.
        -13    1    4    4    0    0  0.59282532151E+02 -0.21938633780E+01  0.28084468835E+02  0.65635120511E+02  0.00000000000E+00 0. -1.
         13    1    4    4    0    0  0.12192308737E+02  0.78624256847E+02  0.39750419968E+02  0.88941115603E+02  0.00000000000E+00 0.  1.
        -13    1    3    3    0    0 -0.33021452109E+02 -0.85729103834E+01  0.21046039626E+02  0.40085494581E+02  0.00000000000E+00 0.  1.
         13    1    3    3    0    0  0.14038023672E+02 -0.57916861228E+02 -0.23436841283E+02  0.64036821067E+02  0.00000000000E+00 0. -1.
          3    1    1    2  501    0 -0.52491412451E+02 -0.99406218586E+01 -0.80135293407E+02  0.96311108359E+02  0.00000000000E+00 0. -1.
<scales pt_clust_5="13000.00000" pt_clust_6="13000.00000" pt_clust_7="13000.00000" pt_clust_8="13000.00000" pt_clust_9="13000.00000"></scales>
<clustering>
<clus scale="   77.811">  7  8 -1 -1</clus>
<clus scale="   91.334">  5  6 -1 -1</clus>
<clus scale="   53.424">  5  9 -1 -1</clus>
<clus scale="  104.095">  1  7  2 -1</clus>
<clus scale="  250.586">  2  5  1 -1</clus>
</clustering>
</event>
<event>
 9    1  0.3303741E-006  0.1673752E+03  0.7546771E-02  0.1204222E+00
         21   -1    0    0  501  502  0.00000000000E+00  0.00000000000E+00  0.28573149937E+02  0.28573149937E+02  0.00000000000E+00 0.  1.
          2   -1    0    0  502    0 -0.00000000000E+00 -0.00000000000E+00 -0.63789577161E+03  0.63789577161E+03  0.00000000000E+00 0. -1.
         23    2    1    2    0    0  0.13901609872E+02  0.39269181442E+02 -0.27759855414E+03  0.29491094825E+03  0.90422269203E+02 0.  0.
         23    2    1    2    0    0  0.13772088327E+01  0.12451607243E+02 -0.11109051381E+03  0.14442883093E+03  0.91442034748E+02 0.  0.
        -11    1    3    3    0    0 -0.29236280236E+02  0.10291411077E+00 -0.17050418328E+03  0.17299262177E+03  0.00000000000E+00 0. -1.
         11    1    3    3    0    0  0.43137890109E+02  0.39166267331E+02 -0.10709437086E+03  0.12191832647E+03  0.00000000000E+00 0.  1.
        -13    1    4    4    0    0  0.17871836227E+02  0.35641597909E+02 -0.12457004616E+02  0.41772036049E+02  0.00000000000E+00 0.  1.
         13    1    4    4    0    0 -0.16494627394E+02 -0.23189990667E+02 -0.98633509190E+02  0.10265679488E+03  0.00000000000E+00 0. -1.
          2    1    1    2  501    0 -0.15278818705E+02 -0.51720788685E+02 -0.22063355373E+03  0.22712914237E+03  0.00000000000E+00 0. -1.
<scales pt_clust_5="13000.00000" pt_clust_6="13000.00000" pt_clust_7="13000.00000" pt_clust_8="13000.00000" pt_clust_9="13000.00000"></scales>
<clustering>
<clus scale="   90.422">  5  6 -1 -1</clus>
<clus scale="   91.442">  7  8 -1 -1</clus>
<clus scale="   53.930">  7  9 -1 -1</clus>
<clus scale="   99.557">  2  5  1 -1</clus>
<clus scale="  167.375">  1  5  2 -1</clus>
</clustering>
</event>
<event>
 9    1  0.3303741E-006  0.2408182E+03  0.7546771E-02  0.1157275E+00
         21   -1    0    0  501  502  0.00000000000E+00  0.00000000000E+00  0.94592861368E+02  0.94592861368E+02  0.00000000000E+00 0. -1.
          3   -1    0    0  502    0 -0.00000000000E+00 -0.00000000000E+00 -0.40626971679E+03  0.40626971679E+03  0.00000000000E+00 0. -1.
         23    2    1    2    0    0 -0.88469269855E+01 -0.28641057244E+02 -0.22555195646E+03  0.24510701938E+03  0.91132802051E+02 0.  0.
         23    2    1    2    0    0 -0.63039260886E+02  0.83849998697E+02 -0.87632844353E+02  0.16510278650E+03  0.92599373680E+02 0.  0.
        -11    1    4    4    0    0 -0.37719624568E+02 -0.10702313485E+02 -0.10807852840E+02  0.40670865180E+02  0.00000000000E+00 0.  1.
         11    1    4    4    0    0 -0.25319636319E+02  0.94552312182E+02 -0.76824991513E+02  0.12443192132E+03  0.00000000000E+00 0. -1.
        -11    1    3    3    0    0  0.39143184426E+02 -0.26839412394E+01 -0.12057826288E+03  0.12680106429E+03  0.00000000000E+00 0.  1.
         11    1    3    3    0    0 -0.47990111412E+02 -0.25957116005E+02 -0.10497369359E+03  0.11830595509E+03  0.00000000000E+00 0. -1.
          3    1    1    2  501    0  0.71886187872E+02 -0.55208941452E+02  0.15079453877E+01  0.90652772281E+02  0.00000000000E+00 0. -1.
<scales pt_clust_5="13000.00000" pt_clust_6="13000.00000" pt_clust_7="13000.00000" pt_clust_8="13000.00000" pt_clust_9="13000.00000"></scales>
<clustering>
<clus scale="   91.133">  7  8 -1 -1</clus>
<clus scale="   92.599">  5  6 -1 -1</clus>
<clus scale="   90.640">  5  9 -1 -1</clus>
<clus scale="   95.936">  2  7  1 -1</clus>
<clus scale="  240.818">  1  5  2 -1</clus>
</clustering>
</event>
<event>
 9    1  0.3303741E-006  0.2987107E+03  0.7546771E-02  0.1109581E+00
         -3   -1    0    0    0  501 -0.00000000000E+00  0.00000000000E+00  0.70722438453E+03  0.70722438453E+03  0.00000000000E+00 0.  1.
         21   -1    0    0  501  502  0.00000000000E+00 -0.00000000000E+00 -0.74743551319E+02  0.74743551319E+02  0.00000000000E+00 0.  1.
         23    2    1    2    0    0 -0.12784291353E+03  0.14513709098E+02  0.22508274400E+03  0.27679344994E+03  0.96942838800E+02 0.  0.
         23    2    1    2    0    0 -0.31887162862E+02  0.69827387903E+02  0.17263231316E+03  0.20896157674E+03  0.89276927313E+02 0.  0.
        -11    1    4    4    0    0 -0.54858502696E+02  0.27337237690E+02  0.13313574662E+03  0.14656707308E+03  0.00000000000E+00 0.  1.
         11    1    4    4    0    0  0.22971339834E+02  0.42490150213E+02  0.39496566540E+02  0.62394503663E+02  0.00000000000E+00 0. -1.
        -13    1    3    3    0    0  0.12753062820E+02  0.15993267212E+02  0.30634066799E+02  0.36835733413E+02  0.00000000000E+00 0. -1.
         13    1    3    3    0    0 -0.14059597635E+03 -0.14795581136E+01  0.19444867720E+03  0.23995771653E+03  0.00000000000E+00 0.  1.
         -3    1    1    2    0  502  0.15973007640E+03 -0.84341097001E+02  0.23476577605E+03  0.29621290916E+03  0.00000000000E+00 0.  1.
<scales pt_clust_5="13000.00000" pt_clust_6="13000.00000" pt_clust_7="13000.00000" pt_clust_8="13000.00000" pt_clust_9="13000.00000"></scales>
<clustering>
<clus scale="   89.277">  5  6 -1 -1</clus>
<clus scale="   96.943">  7  8 -1 -1</clus>
<clus scale="  161.097">  1  7  2 -1</clus>
<clus scale="  114.210">  5  9 -1 -1</clus>
<clus scale="  298.711">  2  5  1 -1</clus>
</clustering>
</event>
<event>
 9    1  0.3303741E-006  0.2708884E+03  0.7546771E-02  0.1143958E+00
          1   -1    0    0  502    0 -0.00000000000E+00  0.00000000000E+00  0.10307254564E+03  0.10307254564E+03  0.00000000000E+00 0. -1.
         21   -1    0    0  501  502  0.00000000000E+00 -0.00000000000E+00 -0.73825865768E+03  0.73825865768E+03  0.00000000000E+00 0.  1.
         23    2    1    2    0    0  0.21135914435E+02  0.20569197231E+00  0.49643290695E+02  0.10487221593E+03  0.89927505107E+02 0.  0.
         23    2    1    2    0    0 -0.10883749756E+03 -0.14345410364E+02 -0.58832181266E+03  0.60529033922E+03  0.90567366262E+02 0.  0.
        -11    1    4    4    0    0 -0.77124052409E+02  0.30224270576E+02 -0.42660310553E+03  0.43457086377E+03  0.00000000000E+00 0. -1.
         11    1    4    4    0    0 -0.31713445153E+02 -0.44569680939E+02 -0.16171870713E+03  0.17071947545E+03  0.00000000000E+00 0.  1.
        -13    1    3    3    0    0  0.28368216933E+02  0.41140845926E+02  0.34067773543E+02  0.60480890615E+02  0.00000000000E+00 0. -1.
         13    1    3    3    0    0 -0.72323024978E+01 -0.40935153953E+02  0.15575517152E+02  0.44391325314E+02  0.00000000000E+00 0.  1.
          1    1    1    2  501    0  0.87701583127E+02  0.14139718391E+02 -0.96507590076E+02  0.13116864816E+03  0.00000000000E+00 0. -1.
<scales pt_clust_5="13000.00000" pt_clust_6="13000.00000" pt_clust_7="13000.00000" pt_clust_8="13000.00000" pt_clust_9="13000.00000"></scales>
<clustering>
<clus scale="   89.928">  7  8 -1 -1</clus>
<clus scale="   90.567">  5  6 -1 -1</clus>
<clus scale="   88.834">  5  9 -1 -1</clus>
<clus scale="   92.378">  1  7  2 -1</clus>
<clus scale="  270.888">  2  5  1 -1</clus>
</clustering>
</event>
<event>
 9    1  0.3303741E-006  0.3725524E+03  0.7546771E-02  0.1096023E+00
         21   -1    0    0  501  502  0.00000000000E+00  0.00000000000E+00  0.13157324440E+03  0.13157324440E+03  0.00000000000E+00 0. -1.
          1   -1    0    0  502    0 -0.00000000000E+00 -0.00000000000E+00 -0.54754088241E+03  0.54754088241E+03  0.00000000000E+00 0. -1.
         23    2    1    2    0    0  0.38395348260E+02  0.66789825939E+02 -0.23942161465E+03  0.26684749599E+03  0.89161611347E+02 0.  0.
         23    2    1    2    0    0  0.10551530045E+03  0.73020390077E+02 -0.13158488543E+03  0.20664884161E+03  0.94465367553E+02 0.  0.
        -13    1    4    4    0    0  0.87447686507E+02  0.23459259580E+02 -0.12372555078E+03  0.15331486115E+03  0.00000000000E+00 0. -1.
         13    1    4    4    0    0  0.18067613942E+02  0.49561130498E+02 -0.78593346566E+01  0.53333980453E+02  0.00000000000E+00 0.  1.
        -13    1    3    3    0    0 -0.98428200582E+01 -0.17866817846E+02 -0.41396184380E+02  0.46149196828E+02  0.00000000000E+00 0. -1.
         13    1    3    3    0    0  0.48238168318E+02  0.84656643786E+02 -0.19802543027E+03  0.22069829916E+03  0.00000000000E+00 0.  1.
          1    1    1    2  501    0 -0.14391064871E+03 -0.13981021602E+03 -0.44961137931E+02  0.20561778921E+03  0.00000000000E+00 0. -1.
<scales pt_clust_5="13000.00000" pt_clust_6="13000.00000" pt_clust_7="13000.00000" pt_clust_8="13000.00000" pt_clust_9="13000.00000"></scales>
<clustering>
<clus scale="   89.162">  7  8 -1 -1</clus>
<clus scale="   94.465">  5  6 -1 -1</clus>
<clus scale="  117.834">  2  7  1 -1</clus>
<clus scale="  169.356">  5  9 -1 -1</clus>
<clus scale="  372.552">  1  5  2 -1</clus>
</clustering>
</event>
<event>
 9    1  0.3303741E-006  0.2741532E+03  0.7546771E-02  0.1111328E+00
         -4   -1    0    0    0  501 -0.00000000000E+00  0.00000000000E+00  0.10956696776E+03  0.10956696776E+03  0.00000000000E+00 0.  1.
         21   -1    0    0  501  502  0.00000000000E+00 -0.00000000000E+00 -0.51853052134E+03  0.51853052134E+03  0.00000000000E+00 0.  1.
         23    2    1    2    0    0 -0.88852375446E+01  0.17718114506E+03 -0.13650930628E+03  0.24158575490E+03  0.90866829263E+02 0.  0.
         23    2    1    2    0    0  0.53681509198E+00 -0.63064050426E+01 -0.40847761200E+02  0.98571745079E+02  0.89486258263E+02 0.  0.
        -11    1    4    4    0    0  0.38397240937E+02  0.74477761087E+01  0.27555418547E+01  0.39209826465E+02  0.00000000000E+00 0.  1.
         11    1    4    4    0    0 -0.37860425845E+02 -0.13754181151E+02 -0.43603303055E+02  0.59361918614E+02  0.00000000000E+00 0. -1.
        -13    1    3    3    0    0 -0.27800740472E+02  0.14676570806E+03 -0.67675937836E+02  0.16399111804E+03  0.00000000000E+00 0.  1.
         13    1    3    3    0    0  0.18915502927E+02  0.30415436999E+02 -0.68833368447E+02  0.77594636867E+02  0.00000000000E+00 0. -1.
         -4    1    1    2    0  502  0.83484224526E+01 -0.17087474002E+03 -0.23160648610E+03  0.28793998912E+03  0.00000000000E+00 0.  1.
<scales pt_clust_5="13000.00000" pt_clust_6="13000.00000" pt_clust_7="13000.00000" pt_clust_8="13000.00000" pt_clust_9="13000.00000"></scales>
<clustering>
<clus scale="   89.486">  5  6 -1 -1</clus>
<clus scale="   90.867">  7  8 -1 -1</clus>
<clus scale="  171.079">  5  9 -1 -1</clus>
<clus scale="  199.321">  1  7  2 -1</clus>
<clus scale="  274.153">  2  5  1 -1</clus>
</clustering>
</event>
<event>
 9    1  0.3303741E-006  0.1822209E+03  0.7546771E-02  0.1192466E+00
         21   -1    0    0  501  502  0.00000000000E+00  0.00000000000E+00  0.13580804363E+03  0.13580804363E+03  0.00000000000E+00 0. -1.
          2   -1    0    0  502    0 -0.00000000000E+00 -0.00000000000E+00 -0.15250222534E+03  0.15250222534E+03  0.00000000000E+00 0. -1.
         23    2    1    2    0    0  0.39324297400E+02  0.18052698067E+01 -0.33908473510E+02  0.10527802947E+03  0.91564291882E+02 0.  0.
         23    2    1    2    0    0  0.26897948199E+02  0.40163256942E+02  0.20016527718E+02  0.10458100895E+03  0.90553515806E+02 0.  0.
        -11    1    4    4    0    0 -0.30645438540E+02  0.10885847017E+02 -0.90785259979E+01  0.33764836782E+02  0.00000000000E+00 0.  1.
         11    1    4    4    0    0  0.57543386739E+02  0.29277409925E+02  0.29095053716E+02  0.70816172165E+02  0.00000000000E+00 0. -1.
        -13    1    3    3    0    0  0.48073064259E+02  0.35463867568E+02 -0.37153778069E+02  0.70349901456E+02  0.00000000000E+00 0. -1.
         13    1    3    3    0    0 -0.87487668584E+01 -0.33658597761E+02  0.32453045584E+01  0.34928128012E+02  0.00000000000E+00 0.  1.
          2    1    1    2  501    0 -0.66222245599E+02 -0.41968526749E+02 -0.28022359183E+01  0.78451230556E+02  0.00000000000E+00 0. -1.
<scales pt_clust_5="13000.00000" pt_clust_6="13000.00000" pt_clust_7="13000.00000" pt_clust_8="13000.00000" pt_clust_9="13000.00000"></scales>
<clustering>
<clus scale="   90.554">  5  6 -1 -1</clus>
<clus scale="   78.401">  5  9 -1 -1</clus>
<clus scale="   91.564">  7  8 -1 -1</clus>
<clus scale="   99.668">  2  7  1 -1</clus>
<clus scale="  182.221">  1  5  2 -1</clus>
</clustering>
</event>
<event>
 9    1  0.3303741E-006  0.3803317E+03  0.7546771E-02  0.1088333E+00
          2   -1    0    0  502    0 -0.00000000000E+00  0.00000000000E+00  0.88133213551E+03  0.88133213551E+03  0.00000000000E+00 0. -1.
         21   -1    0    0  501  502  0.00000000000E+00 -0.00000000000E+00 -0.77802796980E+02  0.77802796980E+02  0.00000000000E+00 0. -1.
         23    2    1    2    0    0  0.56221575475E+02 -0.83279304930E+02  0.28961771986E+03  0.31979361045E+03  0.91067126055E+02 0.  0.
         23    2    1    2    0    0 -0.13594933687E+03  0.18716902984E+03  0.34398286048E+03  0.42480607147E+03  0.92852151947E+02 0.  0.
        -11    1    4    4    0    0 -0.28036471754E+02  0.10165070166E+02  0.10147980545E+03  0.10577108922E+03  0.00000000000E+00 0.  1.
         11    1    4    4    0    0 -0.10791286512E+03  0.17700395968E+03  0.24250305503E+03  0.31903498225E+03  0.00000000000E+00 0. -1.
        -13    1    3    3    0    0  0.78183850657E+02 -0.43372324634E+02  0.20619587255E+03  0.22474565825E+03  0.00000000000E+00 0. -1.
         13    1    3    3    0    0 -0.21962275182E+02 -0.39906980296E+02  0.83421847311E+02  0.95047952194E+02  0.00000000000E+00 0.  1.
          2    1    1    2  501    0  0.79727761397E+02 -0.10388972491E+03  0.16992875820E+03  0.21453525058E+03  0.00000000000E+00 0. -1.
<scales pt_clust_5="13000.00000" pt_clust_6="13000.00000" pt_clust_7="13000.00000" pt_clust_8="13000.00000" pt_clust_9="13000.00000"></scales>
<clustering>
<clus scale="   91.067">  7  8 -1 -1</clus>
<clus scale="   92.852">  5  6 -1 -1</clus>
<clus scale="  130.957">  5  9 -1 -1</clus>
<clus scale="  135.608">  1  7  2 -1</clus>
<clus scale="  380.332">  2  5  1 -1</clus>
</clustering>
</event>
<event>
 9    1  0.3303741E-006  0.3273896E+03  0.7546771E-02  0.1108440E+00
         21   -1    0    0  501  502  0.00000000000E+00  0.00000000000E+00  0.12502009162E+03  0.12502009162E+03  0.00000000000E+00 0.  1.
         -1   -1    0    0    0  501 -0.00000000000E+00 -0.00000000000E+00 -0.47672021546E+03  0.47672021546E+03  0.00000000000E+00 0.  1.
         23    2    1    2    0    0  0.50654566518E+02  0.69812849110E+02 -0.67470509136E+01  0.12616008544E+03  0.91821160152E+02 0.  0.
         23    2    1    2    0    0  0.29908332287E+02 -0.69029490732E+02 -0.37184361168E+03  0.39064439064E+03  0.93143918016E+02 0.  0.
        -11    1    3    3    0    0  0.28326605177E+02  0.17483560262E+01 -0.38479157889E+02  0.47813166612E+02  0.00000000000E+00 0. -1.
         11    1    3    3    0    0  0.22327961341E+02  0.68064493083E+02  0.31732106975E+02  0.78346918825E+02  0.00000000000E+00 0.  1.
        -13    1    4    4    0    0 -0.31353324938E+02 -0.69393091768E+01 -0.11466745467E+03  0.11907900805E+03  0.00000000000E+00 0. -1.
         13    1    4    4    0    0  0.61261657225E+02 -0.62090181555E+02 -0.25717615700E+03  0.27156538259E+03  0.00000000000E+00 0.  1.
         -1    1    1    2    0  502 -0.80562898805E+02 -0.78335837802E+00  0.26890538745E+02  0.84935831003E+02  0.00000000000E+00 0.  1.
<scales pt_clust_5="13000.00000" pt_clust_6="13000.00000" pt_clust_7="13000.00000" pt_clust_8="13000.00000" pt_clust_9="13000.00000"></scales>
<clustering>
<clus scale="   91.821">  5  6 -1 -1</clus>
<clus scale="   93.144">  7  8 -1 -1</clus>
<clus scale="   80.567">  7  9 -1 -1</clus>
<clus scale="  125.980">  2  5  1 -1</clus>
<clus scale="  327.390">  1  5  2 -1</clus>
</clustering>
</event>
<event>
 9    1  0.3303741E-006  0.2664257E+03  0.7546771E-02  0.1113565E+00
          1   -1    0    0  502    0 -0.00000000000E+00  0.00000000000E+00  0.28356082929E+03  0.28356082929E+03  0.00000000000E+00 0. -1.
         21   -1    0    0  501  502  0.00000000000E+00 -0.00000000000E+00 -0.21258677597E+03  0.21258677597E+03  0.00000000000E+00 0.  1.
         23    2    1    2    0    0  0.17447236513E+03 -0.66188099350E+02  0.99777348279E+02  0.22816945324E+03  0.85348166192E+02 0.  0.
         23    2    1    2    0    0 -0.17876478686E+02  0.47376359703E+02  0.10499372892E+02  0.10543322623E+03  0.91879488535E+02 0.  0.
        -11    1    4    4    0    0 -0.18185630021E+02  0.68962238178E+02  0.29011647480E+02  0.76994695423E+02  0.00000000000E+00 0. -1.
         11    1    4    4    0    0  0.30915133528E+00 -0.21585878475E+02 -0.18512274589E+02  0.28438530808E+02  0.00000000000E+00 0.  1.
        -13    1    3    3    0    0  0.14864652806E+03 -0.86795930214E+02  0.85010512245E+02  0.19197945462E+03  0.00000000000E+00 0.  1.
         13    1    3    3    0    0  0.25825837071E+02  0.20607830863E+02  0.14766836034E+02  0.36189998615E+02  0.00000000000E+00 0. -1.
          1    1    1    2  501    0 -0.15659588644E+03  0.18811739647E+02 -0.39302667845E+02  0.16254492579E+03  0.00000000000E+00 0. -1.
<scales pt_clust_5="13000.00000" pt_clust_6="13000.00000" pt_clust_7="13000.00000" pt_clust_8="13000.00000" pt_clust_9="13000.00000"></scales>
<clustering>
<clus scale="   85.348">  7  8 -1 -1</clus>
<clus scale="   91.879">  5  6 -1 -1</clus>
<clus scale="  157.722">  5  9 -1 -1</clus>
<clus scale="  205.197">  1  7  2 -1</clus>
<clus scale="  266.426">  2  5  1 -1</clus>
</clustering>
</event>
<event>
 9    1  0.3303741E-006  0.4877354E+03  0.7546771E-02  0.1046946E+00
         21   -1    0    0  501  502  0.00000000000E+00  0.00000000000E+00  0.16576015591E+04  0.16576015591E+04  0.00000000000E+00 0. -1.
          1   -1    0    0  502    0 -0.00000000000E+00 -0.00000000000E+00 -0.82000837316E+02  0.82000837316E+02  0.00000000000E+00 0. -1.
         23    2    1    2    0    0  0.13498982345E+03 -0.11884964856E+03  0.21682518391E+03  0.29594151217E+03  0.90668224026E+02 0.  0.
         23    2    1    2    0    0  0.22150229996E+02  0.52253064186E+02  0.36855525492E+02  0.11076905796E+03  0.87695148311E+02 0.  0.
        -11    1    3    3    0    0  0.47866435953E+02 -0.93540501200E+02  0.81317105221E+02  0.13286644669E+03  0.00000000000E+00 0.  1.
         11    1    3    3    0    0  0.87123387494E+02 -0.25309147361E+02  0.13550807869E+03  0.16307506547E+03  0.00000000000E+00 0. -1.
        -11    1    4    4    0    0 -0.10948786973E+01  0.64431321609E+02  0.49863604716E+02  0.81479893464E+02  0.00000000000E+00 0.  1.
         11    1    4    4    0    0  0.23245108693E+02 -0.12178257423E+02 -0.13008079224E+02  0.29289164500E+02  0.00000000000E+00 0. -1.
          1    1    1    2  501    0 -0.15714005344E+03  0.66596584375E+02  0.13219200123E+04  0.13328918262E+04  0.00000000000E+00 0. -1.
<scales pt_clust_5="13000.00000" pt_clust_6="13000.00000" pt_clust_7="13000.00000" pt_clust_8="13000.00000" pt_clust_9="13000.00000"></scales>
<clustering>
<clus scale="   87.695">  7  8 -1 -1</clus>
<clus scale="   90.668">  5  6 -1 -1</clus>
<clus scale="  170.670">  7  9 -1 -1</clus>
<clus scale="  201.416">  2  5  1 -1</clus>
<clus scale="  487.735">  1  5  2 -1</clus>
</clustering>
</event>
<event>
 9    1  0.3303741E-006  0.1411998E+03  0.7546771E-02  0.1234110E+00
         21   -1    0    0  501  502  0.00000000000E+00  0.00000000000E+00  0.12902401451E+03  0.12902401451E+03  0.00000000000E+00 0. -1.
         -1   -1    0    0    0  501 -0.00000000000E+00 -0.00000000000E+00 -0.10290450591E+03  0.10290450591E+03  0.00000000000E+00 0.  1.
         23    2    1    2    0    0  0.31453672668E+02 -0.61360613592E+01  0.19527826938E+02  0.90574954007E+02  0.82434831807E+02 0.  0.
         23    2    1    2    0    0  0.98445334420E+01  0.23711399388E+02 -0.41042974531E+01  0.95214230660E+02  0.91595628514E+02 0.  0.
        -11    1    3    3    0    0 -0.13002937143E+01 -0.26459507863E+02 -0.21618816482E+02  0.34193121328E+02  0.00000000000E+00 0.  1.
         11    1    3    3    0    0  0.32753966382E+02  0.20323446503E+02  0.41146643419E+02  0.56381832679E+02  0.00000000000E+00 0. -1.
        -13    1    4    4    0    0 -0.32749858465E+01  0.56896579585E+02 -0.12963478292E+02  0.58446540276E+02  0.00000000000E+00 0. -1.
         13    1    4    4    0    0  0.13119519288E+02 -0.33185180197E+02  0.88591808384E+01  0.36767690384E+02  0.00000000000E+00 0.  1.
         -1    1    1    2    0  502 -0.41298206110E+02 -0.17575338029E+02  0.10695979113E+02  0.46139335755E+02  0.00000000000E+00 0.  1.
<scales pt_clust_5="13000.00000" pt_clust_6="13000.00000" pt_clust_7="13000.00000" pt_clust_8="13000.00000" pt_clust_9="13000.00000"></scales>
<clustering>
<clus scale="   82.435">  5  6 -1 -1</clus>
<clus scale="   88.445">  2  5  1 -1</clus>
<clus scale="   91.596">  7  8 -1 -1</clus>
<clus scale="   38.196">  7  9 -1 -1</clus>
<clus scale="  141.200">  1  5  2 -1</clus>
</clustering>
</event>
<event>
 9    1  0.3303741E-006  0.1921387E+03  0.7546771E-02  0.1175478E+00
          1   -1    0    0  502    0 -0.00000000000E+00  0.00000000000E+00  0.11982210320E+03  0.11982210320E+03  0.00000000000E+00 0. -1.
         21   -1    0    0  501  502  0.00000000000E+00 -0.00000000000E+00 -0.22084706797E+03  0.22084706797E+03  0.00000000000E+00 0. -1.
         23    2    1    2    0    0 -0.39785629587E+02 -0.74266404834E+02 -0.79122746632E+02  0.14728616327E+03  0.91292987937E+02 0.  0.
         23    2    1    2    0    0 -0.31798969990E+02  0.15275845708E+02 -0.13777956294E+02  0.10026885971E+03  0.92841188026E+02 0.  0.
        -11    1    4    4    0    0 -0.17233879362E+02 -0.20842900169E+02 -0.43538513870E+02  0.51254612234E+02  0.00000000000E+00 0. -1.
         11    1    4    4    0    0 -0.14565090629E+02  0.36118745876E+02  0.29760557576E+02  0.49014247479E+02  0.00000000000E+00 0.  1.
        -13    1    3    3    0    0 -0.41093823521E+02 -0.59055595389E+01 -0.65530843346E+02  0.77574927617E+02  0.00000000000E+00 0.  1.
         13    1    3    3    0    0  0.13081939341E+01 -0.68360845295E+02 -0.13591903285E+02  0.69711235649E+02  0.00000000000E+00 0. -1.
          1    1    1    2  501    0  0.71584599578E+02  0.58990559126E+02 -0.81242618362E+01  0.93114148190E+02  0.00000000000E+00 0. -1.
<scales pt_clust_5="13000.00000" pt_clust_6="13000.00000" pt_clust_7="13000.00000" pt_clust_8="13000.00000" pt_clust_9="13000.00000"></scales>
<clustering>
<clus scale="   91.293">  7  8 -1 -1</clus>
<clus scale="   92.841">  5  6 -1 -1</clus>
<clus scale="   92.759">  5  9 -1 -1</clus>
<clus scale="  124.229">  1  7  2 -1</clus>
<clus scale="  192.139">  2  5  1 -1</clus>
</clustering>
</event>
<event>
 9    1  0.3303741E-006  0.2737808E+03  0.7546771E-02  0.1121435E+00
         21   -1    0    0  501  502  0.00000000000E+00  0.00000000000E+00  0.28961838540E+03  0.28961838540E+03  0.00000000000E+00 0. -1.
          1   -1    0    0  502    0 -0.00000000000E+00 -0.00000000000E+00 -0.18087745896E+03  0.18087745896E+03  0.00000000000E+00 0. -1.
         23    2    1    2    0    0 -0.19857415081E+02  0.12447979266E+03 -0.38157049938E+02  0.15979515417E+03  0.90493066713E+02 0.  0.
         23    2    1    2    0    0 -0.77471064127E+02 -0.12956551991E+03  0.76753218028E+02  0.19062161370E+03  0.87501733729E+02 0.  0.
        -11    1    4    4    0    0  0.13565777911E+02 -0.26584992271E+02 -0.56303864238E+01  0.30372576375E+02  0.00000000000E+00 0.  1.
         11    1    4    4    0    0 -0.91036842038E+02 -0.10298052764E+03  0.82383604451E+02  0.16024903732E+03  0.00000000000E+00 0. -1.
        -13    1    3    3    0    0 -0.49640365807E+02  0.34900802674E+02 -0.12266574909E+02  0.61908810397E+02  0.00000000000E+00 0. -1.
         13    1    3    3    0    0  0.29782950726E+02  0.89578989987E+02 -0.25890475029E+02  0.97886343778E+02  0.00000000000E+00 0.  1.
          1    1    1    2  501    0  0.97328479208E+02  0.50857272459E+01  0.70144758346E+02  0.12007907649E+03  0.00000000000E+00 0. -1.
<scales pt_clust_5="13000.00000" pt_clust_6="13000.00000" pt_clust_7="13000.00000" pt_clust_8="13000.00000" pt_clust_9="13000.00000"></scales>
<clustering>
<clus scale="   87.502">  5  6 -1 -1</clus>
<clus scale="   90.493">  7  8 -1 -1</clus>
<clus scale="   97.461">  5  9 -1 -1</clus>
<clus scale="  155.173">  2  7  1 -1</clus>
<clus scale="  273.781">  1  5  2 -1</clus>
</clustering>
</event>
<event>
 9    1  0.3303741E-006  0.2597978E+03  0.7546771E-02  0.1148299E+00
         21   -1    0    0  501  502  0.00000000000E+00  0.00000000000E+00  0.40619150992E+03  0.40619150992E+03  0.00000000000E+00 0. -1.
          2   -1    0    0  502    0 -0.00000000000E+00 -0.00000000000E+00 -0.32111511047E+03  0.32111511047E+03  0.00000000000E+00 0. -1.
         23    2    1    2    0    0 -0.23518385014E+02  0.66020117170E+01 -0.27074410273E+03  0.28673525895E+03  0.91203281548E+02 0.  0.
         23    2    1    2    0    0  0.12572062580E+03  0.82575000317E+01  0.20521329972E+03  0.25795528181E+03  0.92490902090E+02 0.  0.
        -11    1    3    3    0    0 -0.51444856184E+02  0.26007406943E+02 -0.20162189064E+03  0.20970060856E+03  0.00000000000E+00 0. -1.
         11    1    3    3    0    0  0.27926471170E+02 -0.19405395226E+02 -0.69122212095E+02  0.77034650390E+02  0.00000000000E+00 0.  1.
        -13    1    4    4    0    0  0.88165252885E+02 -0.20909862537E+02  0.18556195265E+03  0.20650320200E+03  0.00000000000E+00 0.  1.
         13    1    4    4    0    0  0.37555372917E+02  0.29167362569E+02  0.19651347078E+02  0.51452079804E+02  0.00000000000E+00 0. -1.
          2    1    1    2  501    0 -0.10220224079E+03 -0.14859511749E+02  0.15060720246E+03  0.18261607965E+03  0.00000000000E+00 0. -1.
<scales pt_clust_5="13000.00000" pt_clust_6="13000.00000" pt_clust_7="13000.00000" pt_clust_8="13000.00000" pt_clust_9="13000.00000"></scales>
<clustering>
<clus scale="   91.203">  5  6 -1 -1</clus>
<clus scale="   92.491">  7  8 -1 -1</clus>
<clus scale="   94.418">  2  5  1 -1</clus>
<clus scale="  111.771">  7  9 -1 -1</clus>
<clus scale="  259.798">  1  5  2 -1</clus>
</clustering>
</event>
<event>
 9    1  0.3303741E-006  0.5960984E+03  0.7546771E-02  0.9954461E-01
          1   -1    0    0  502    0 -0.00000000000E+00  0.00000000000E+00  0.24135803140E+04  0.24135803140E+04  0.00000000000E+00 0. -1.
         21   -1    0    0  501  502  0.00000000000E+00 -0.00000000000E+00 -0.14898496353E+03  0.14898496353E+03  0.00000000000E+00 0.  1.
         23    2    1    2    0    0 -0.48947368054E+03  0.16022767414E+03  0.60819172600E+03  0.80216579774E+03  0.91188815043E+02 0.  0.
         23    2    1    2    0    0  0.35628991366E+03  0.15250046038E+02  0.89465161265E+03  0.96743259931E+03  0.91374283562E+02 0.  0.
        -11    1    3    3    0    0 -0.47724471420E+03  0.13685386583E+03  0.58196856999E+03  0.76496987802E+03  0.00000000000E+00 0.  1.
         11    1    3    3    0    0 -0.12228966339E+02  0.23373808309E+02  0.26223156013E+02  0.37195919721E+02  0.00000000000E+00 0. -1.
        -13    1    4    4    0    0  0.31067228106E+02  0.23330266376E+02  0.14742538148E+03  0.15245890297E+03  0.00000000000E+00 0.  1.
         13    1    4    4    0    0  0.32522268556E+03 -0.80802203379E+01  0.74722623117E+03  0.81497369633E+03  0.00000000000E+00 0. -1.
          1    1    1    2  501    0  0.13318376687E+03 -0.17547772018E+03  0.76175201185E+03  0.79296688052E+03  0.00000000000E+00 0. -1.
<scales pt_clust_5="13000.00000" pt_clust_6="13000.00000" pt_clust_7="13000.00000" pt_clust_8="13000.00000" pt_clust_9="13000.00000"></scales>
<clustering>
<clus scale="   91.189">  5  6 -1 -1</clus>
<clus scale="   91.374">  7  8 -1 -1</clus>
<clus scale="  220.296">  7  9 -1 -1</clus>
<clus scale="  523.042">  1  5  2 -1</clus>
<clus scale="  596.098">  2  5  1 -1</clus>
</clustering>
</event>
<event>
 9    1  0.3303741E-006  0.4724480E+03  0.7546771E-02  0.1063196E+00
         21   -1    0    0  501  502  0.00000000000E+00  0.00000000000E+00  0.22845830329E+03  0.22845830329E+03  0.00000000000E+00 0. -1.
          1   -1    0    0  502    0 -0.00000000000E+00 -0.00000000000E+00 -0.77058903627E+03  0.77058903627E+03  0.00000000000E+00 0. -1.
         23    2    1    2    0    0 -0.27357466163E+02  0.10935262621E+03 -0.50622966005E+03  0.52523725482E+03  0.83061888548E+02 0.  0.
         23    2    1    2    0    0  0.82020696053E+02 -0.18424961632E+03 -0.19158100491E+03  0.29260890083E+03  0.90782001004E+02 0.  0.
        -13    1    4    4    0    0  0.29181458580E+02 -0.42988551217E+02 -0.10878740490E+03  0.12055817071E+03  0.00000000000E+00 0.  1.
         13    1    4    4    0    0  0.52839237473E+02 -0.14126106510E+03 -0.82793600011E+02  0.17205073011E+03  0.00000000000E+00 0. -1.
        -13    1    3    3    0    0 -0.55144211579E+02  0.91980141683E+02 -0.38566323107E+03  0.40029658796E+03  0.00000000000E+00 0.  1.
         13    1    3    3    0    0  0.27786745416E+02  0.17372484525E+02 -0.12056642898E+03  0.12494066686E+03  0.00000000000E+00 0. -1.
          1    1    1    2  501    0 -0.54663229890E+02  0.74896990110E+02  0.15567993198E+03  0.18120118391E+03  0.00000000000E+00 0. -1.
<scales pt_clust_5="13000.00000" pt_clust_6="13000.00000" pt_clust_7="13000.00000" pt_clust_8="13000.00000" pt_clust_9="13000.00000"></scales>
<clustering>
<clus scale="   83.062">  7  8 -1 -1</clus>
<clus scale="   90.782">  5  6 -1 -1</clus>
<clus scale="   92.723">  5  9 -1 -1</clus>
<clus scale="  140.020">  2  7  1 -1</clus>
<clus scale="  472.448">  1  5  2 -1</clus>
</clustering>
</event>
<event>
 9    1  0.3303741E-006  0.2823053E+03  0.7546771E-02  0.1139315E+00
          2   -1    0    0  502    0 -0.00000000000E+00  0.00000000000E+00  0.63157157454E+03  0.63157157454E+03  0.00000000000E+00 0. -1.
         21   -1    0    0  501  502  0.00000000000E+00 -0.00000000000E+00 -0.10398724910E+03  0.10398724910E+03  0.00000000000E+00 0. -1.
         23    2    1    2    0    0  0.12993892420E+02 -0.43417596075E+01  0.42579203907E+03  0.43546224746E+03  0.90226472344E+02 0.  0.
         23    2    1    2    0    0 -0.68372403843E+02 -0.67193926167E+02  0.14796120537E+03  0.19853032713E+03  0.91279587938E+02 0.  0.
        -11    1    3    3    0    0  0.24697404860E+02 -0.42809240905E+02  0.19325382977E+03  0.19947339581E+03  0.00000000000E+00 0.  1.
         11    1    3    3    0    0 -0.11703512440E+02  0.38467481298E+02  0.23253820930E+03  0.23598885165E+03  0.00000000000E+00 0. -1.
        -13    1    4    4    0    0  0.14567257038E+02 -0.33164352089E+02  0.17480896995E+02  0.40220156475E+02  0.00000000000E+00 0.  1.
         13    1    4    4    0    0 -0.82939660881E+02 -0.34029574078E+02  0.13048030837E+03  0.15831017065E+03  0.00000000000E+00 0. -1.
          2    1    1    2  501    0  0.55378511424E+02  0.71535685774E+02 -0.46168918999E+02  0.10156624906E+03  0.00000000000E+00 0. -1.
<scales pt_clust_5="13000.00000" pt_clust_6="13000.00000" pt_clust_7="13000.00000" pt_clust_8="13000.00000" pt_clust_9="13000.00000"></scales>
<clustering>
<clus scale="   90.226">  5  6 -1 -1</clus>
<clus scale="   91.261">  1  5  2 -1</clus>
<clus scale="   91.280">  7  8 -1 -1</clus>
<clus scale="   91.107">  7  9 -1 -1</clus>
<clus scale="  282.305">  2  5  1 -1</clus>
</clustering>
</event>
<event>
 9    1  0.3303741E-006  0.2368211E+03  0.7546771E-02  0.1152200E+00
          3   -1    0    0  502    0 -0.00000000000E+00  0.00000000000E+00  0.10172125799E+04  0.10172125799E+04  0.00000000000E+00 0. -1.
         21   -1    0    0  501  502  0.00000000000E+00 -0.00000000000E+00 -0.36397619534E+02  0.36397619534E+02  0.00000000000E+00 0. -1.
         23    2    1    2    0    0  0.37109270554E+01 -0.64084086773E+02  0.14132216196E+03  0.18135312383E+03  0.93789449843E+02 0.  0.
         23    2    1    2    0    0  0.89618649571E+02  0.43391743175E+02  0.58513708472E+03  0.60053035252E+03  0.91306903660E+02 0.  0.
        -11    1    4    4    0    0  0.57655219722E+02  0.71629095520E+02  0.42290474482E+03  0.43278548367E+03  0.00000000000E+00 0. -1.
         11    1    4    4    0    0  0.31963429849E+02 -0.28237352345E+02  0.16223233990E+03  0.16774486885E+03  0.00000000000E+00 0.  1.
        -13    1    3    3    0    0 -0.64903105360E+00 -0.84705898828E+02  0.13495048508E+03  0.15933343642E+03  0.00000000000E+00 0.  1.
         13    1    3    3    0    0  0.43599581090E+01  0.20621812054E+02  0.63716768810E+01  0.22019687405E+02  0.00000000000E+00 0. -1.
          3    1    1    2  501    0 -0.93329576627E+02  0.20692343599E+02  0.25435571366E+03  0.27172672306E+03  0.00000000000E+00 0. -1.
<scales pt_clust_5="13000.00000" pt_clust_6="13000.00000" pt_clust_7="13000.00000" pt_clust_8="13000.00000" pt_clust_9="13000.00000"></scales>
<clustering>
<clus scale="   91.307">  5  6 -1 -1</clus>
<clus scale="   93.789">  7  8 -1 -1</clus>
<clus scale="   95.596">  5  9 -1 -1</clus>
<clus scale="  113.653">  1  7  2 -1</clus>
<clus scale="  236.821">  2  5  1 -1</clus>
</clustering>
</event>
<event>
 9    1  0.4593198E-006  0.8195303E+03  0.7546771E-02  0.9947880E-01
         -1   -1    0    0    0  501 -0.00000000000E+00  0.00000000000E+00  0.57381836689E+03  0.57381836689E+03  0.00000000000E+00 0.  1.
         21   -1    0    0  501  502  0.00000000000E+00 -0.00000000000E+00 -0.48113419934E+03  0.48113419934E+03  0.00000000000E+00 0.  1.
         23    2    1    2    0    0  0.66681760122E+02  0.17200658553E+03 -0.74350829805E+02  0.21857309963E+03  0.90627983476E+02 0.  0.
         23    2    1    2    0    0 -0.27178202191E+03 -0.21250927559E+03  0.39160274420E+03  0.52956151046E+03  0.89760929434E+02 0.  0.
        -11    1    4    4    0    0 -0.21023103159E+03 -0.20165248416E+03  0.34536592847E+03  0.45181681638E+03  0.00000000000E+00 0.  1.
         11    1    4    4    0    0 -0.61550990319E+02 -0.10856791425E+02  0.46236815723E+02  0.77744694079E+02  0.00000000000E+00 0. -1.
        -13    1    3    3    0    0  0.62891753990E+02  0.79547461897E+02 -0.25339437216E+01  0.10143762756E+03  0.00000000000E+00 0. -1.
         13    1    3    3    0    0  0.37900061314E+01  0.92459123633E+02 -0.71816886084E+02  0.11713547207E+03  0.00000000000E+00 0.  1.
         -1    1    1    2    0  502  0.20510026179E+03  0.40502690058E+02 -0.22456774685E+03  0.30681795614E+03  0.00000000000E+00 0.  1.
<scales pt_clust_5="13000.00000" pt_clust_6="13000.00000" pt_clust_7="13000.00000" pt_clust_8="13000.00000" pt_clust_9="13000.00000"></scales>
<clustering>
<clus scale="   89.761">  5  6 -1 -1</clus>
<clus scale="   90.628">  7  8 -1 -1</clus>
<clus scale="  205.539">  1  7  2 -1</clus>
<clus scale="  217.531">  5  9 -1 -1</clus>
<clus scale="  819.530">  2  5  1 -1</clus>
</clustering>
</event>
<event>
 9    1  0.3303741E-006  0.1818265E+03  0.7546771E-02  0.1191162E+00
          1   -1    0    0  502    0 -0.00000000000E+00  0.00000000000E+00  0.76526875664E+03  0.76526875664E+03  0.00000000000E+00 0. -1.
         21   -1    0    0  501  502  0.00000000000E+00 -0.00000000000E+00 -0.27331944208E+02  0.27331944208E+02  0.00000000000E+00 0.  1.
         23    2    1    2    0    0 -0.36803181108E+02  0.30789838715E+02  0.20555393121E+03  0.23002411449E+03  0.91412178096E+02 0.  0.
         23    2    1    2    0    0  0.80690921812E+02 -0.44653582943E+02  0.37869360121E+03  0.40214363469E+03  0.99023694109E+02 0.  0.
        -11    1    3    3    0    0 -0.67259373547E+02  0.23358403408E+02  0.15443869929E+03  0.17006101898E+03  0.00000000000E+00 0. -1.
         11    1    3    3    0    0  0.30456192439E+02  0.74314353068E+01  0.51115231922E+02  0.59963095509E+02  0.00000000000E+00 0.  1.
        -11    1    4    4    0    0 -0.85220311004E+01 -0.44427528862E+02  0.14968712281E+03  0.15637347944E+03  0.00000000000E+00 0.  1.
         11    1    4    4    0    0  0.89212952912E+02 -0.22605408084E+00  0.22900647840E+03  0.24577015526E+03  0.00000000000E+00 0. -1.
          1    1    1    2  501    0 -0.43887740704E+02  0.13863744228E+02  0.15368928001E+03  0.16043295166E+03  0.00000000000E+00 0. -1.
<scales pt_clust_5="13000.00000" pt_clust_6="13000.00000" pt_clust_7="13000.00000" pt_clust_8="13000.00000" pt_clust_9="13000.00000"></scales>
<clustering>
<clus scale="   91.412">  5  6 -1 -1</clus>
<clus scale="   99.024">  7  8 -1 -1</clus>
<clus scale="   46.025">  7  9 -1 -1</clus>
<clus scale="  103.241">  1  5  2 -1</clus>
<clus scale="  181.827">  2  5  1 -1</clus>
</clustering>
</event>
<event>
 9    1  0.3303741E-006  0.2263021E+03  0.7546771E-02  0.1155433E+00
         -3   -1    0    0    0  501 -0.00000000000E+00  0.00000000000E+00  0.73771858804E+02  0.73771858804E+02  0.00000000000E+00 0.  1.
         21   -1    0    0  501  502  0.00000000000E+00 -0.00000000000E+00 -0.44462968946E+03  0.44462968946E+03  0.00000000000E+00 0.  1.
         23    2    1    2    0    0  0.20973966296E+02  0.77052193894E+02 -0.20474636803E+03  0.23767810827E+03  0.90514419196E+02 0.  0.
         23    2    1    2    0    0 -0.10682725331E+01 -0.14793030969E+02  0.10366108487E+02  0.92529993995E+02  0.90743421867E+02 0.  0.
        -13    1    4    4    0    0 -0.45355002598E+02 -0.10540664043E+02  0.11730706036E+02  0.48018655992E+02  0.00000000000E+00 0. -1.
         13    1    4    4    0    0  0.44286730065E+02 -0.42523669264E+01 -0.13645975497E+01  0.44511338003E+02  0.00000000000E+00 0.  1.
        -13    1    3    3    0    0 -0.20996867587E+02 -0.15824063606E+01 -0.89722967106E+02  0.92160638478E+02  0.00000000000E+00 0. -1.
         13    1    3    3    0    0  0.41970833883E+02  0.78634600255E+02 -0.11502340093E+03  0.14551746979E+03  0.00000000000E+00 0.  1.
         -3    1    1    2    0  502 -0.19905693763E+02 -0.62259162925E+02 -0.17647757111E+03  0.18819344600E+03  0.00000000000E+00 0.  1.
<scales pt_clust_5="13000.00000" pt_clust_6="13000.00000" pt_clust_7="13000.00000" pt_clust_8="13000.00000" pt_clust_9="13000.00000"></scales>
<clustering>
<clus scale="   90.514">  7  8 -1 -1</clus>
<clus scale="   90.743">  5  6 -1 -1</clus>
<clus scale="   65.364">  5  9 -1 -1</clus>
<clus scale="  120.706">  1  7  2 -1</clus>
<clus scale="  226.302">  2  5  1 -1</clus>
</clustering>
</event>
<event>
 9    1  0.3303741E-006  0.2763492E+03  0.7546771E-02  0.1138451E+00
          4   -1    0    0  502    0 -0.00000000000E+00  0.00000000000E+00  0.10455541376E+03  0.10455541376E+03  0.00000000000E+00 0. -1.
         21   -1    0    0  501  502  0.00000000000E+00 -0.00000000000E+00 -0.34589033321E+03  0.34589033321E+03  0.00000000000E+00 0. -1.
         23    2    1    2    0    0  0.34239601571E+01 -0.35029917569E+02 -0.34119411536E+02  0.10503710842E+03  0.92896938988E+02 0.  0.
         23    2    1    2    0    0  0.30785703144E+02  0.12928370744E+02  0.32278817668E+02  0.10247590832E+03  0.91348165974E+02 0.  0.
        -11    1    3    3    0    0  0.34777545471E+02 -0.26893184852E+02 -0.51955109378E+02  0.68059198136E+02  0.00000000000E+00 0.  1.
         11    1    3    3    0    0 -0.31353585314E+02 -0.81367327171E+01  0.17835697842E+02  0.36977910283E+02  0.00000000000E+00 0. -1.
        -13    1    4    4    0    0  0.52649142612E+02  0.62212583896E+01 -0.10428136210E+02  0.54031308503E+02  0.00000000000E+00 0.  1.
         13    1    4    4    0    0 -0.21863439468E+02  0.67071123544E+01  0.42706953878E+02  0.48444599813E+02  0.00000000000E+00 0. -1.
          4    1    1    2  501    0 -0.34209663301E+02  0.22101546825E+02 -0.23949432558E+03  0.24293273024E+03  0.00000000000E+00 0. -1.
<scales pt_clust_5="13000.00000" pt_clust_6="13000.00000" pt_clust_7="13000.00000" pt_clust_8="13000.00000" pt_clust_9="13000.00000"></scales>
<clustering>
<clus scale="   91.348">  7  8 -1 -1</clus>
<clus scale="   40.728">  7  9 -1 -1</clus>
<clus scale="   92.897">  5  6 -1 -1</clus>
<clus scale="   99.341">  1  5  2 -1</clus>
<clus scale="  276.349">  2  5  1 -1</clus>
</clustering>
</event>
<event>
 9    1  0.3303741E-006  0.1504255E+03  0.7546771E-02  0.1220598E+00
          2   -1    0    0  502    0 -0.00000000000E+00  0.00000000000E+00  0.12370618644E+03  0.12370618644E+03  0.00000000000E+00 0. -1.
         21   -1    0    0  501  502  0.00000000000E+00 -0.00000000000E+00 -0.18319533968E+03  0.18319533968E+03  0.00000000000E+00 0. -1.
         23    2    1    2    0    0 -0.30932121263E+02 -0.22008536342E+02  0.60779068620E+02  0.11430794672E+03  0.89056384962E+02 0.  0.
         23    2    1    2    0    0  0.98210885776E+01  0.74658567525E+01 -0.27569359583E+02  0.96415389052E+02  0.91562355039E+02 0.  0.
        -13    1    4    4    0    0 -0.14518512148E+02  0.27432049787E+02 -0.49233635128E+02  0.58200132117E+02  0.00000000000E+00 0. -1.
         13    1    4    4    0    0  0.24339600726E+02 -0.19966193034E+02  0.21664275545E+02  0.38215256936E+02  0.00000000000E+00 0.  1.
        -13    1    3    3    0    0 -0.26138485020E+02 -0.45940098196E+02  0.45991060122E+01  0.53055299429E+02  0.00000000000E+00 0.  1.
         13    1    3    3    0    0 -0.47936362430E+01  0.23931561854E+02  0.56179962607E+02  0.61252647288E+02  0.00000000000E+00 0. -1.
          2    1    1    2  501    0  0.21111032685E+02  0.14542679589E+02 -0.92698862276E+02  0.96178190345E+02  0.00000000000E+00 0. -1.
<scales pt_clust_5="13000.00000" pt_clust_6="13000.00000" pt_clust_7="13000.00000" pt_clust_8="13000.00000" pt_clust_9="13000.00000"></scales>
<clustering>
<clus scale="   89.056">  7  8 -1 -1</clus>
<clus scale="   91.562">  5  6 -1 -1</clus>
<clus scale="   25.635">  5  9 -1 -1</clus>
<clus scale="   96.810">  1  7  2 -1</clus>
<clus scale="  150.426">  2  5  1 -1</clus>
</clustering>
</event>
<event>
 9    1  0.3303741E-006  0.3435548E+03  0.7546771E-02  0.1112416E+00
         21   -1    0    0  501  502  0.00000000000E+00  0.00000000000E+00  0.48636428949E+03  0.48636428949E+03  0.00000000000E+00 0.  1.
         -1   -1    0    0    0  501 -0.00000000000E+00 -0.00000000000E+00 -0.10462360416E+03  0.10462360416E+03  0.00000000000E+00 0.  1.
         23    2    1    2    0    0 -0.11161856292E+02  0.34548973194E+02  0.39780442383E+02  0.10625421731E+03  0.91592884633E+02 0.  0.
         23    2    1    2    0    0  0.14482427511E+03 -0.95152061834E+02  0.17592875246E+03  0.26313757442E+03  0.90898138558E+02 0.  0.
        -11    1    3    3    0    0  0.14680711335E+02 -0.20108438189E+02  0.38417946143E+02  0.45780030117E+02  0.00000000000E+00 0. -1.
         11    1    3    3    0    0 -0.25842567627E+02  0.54657411384E+02  0.13624962402E+01  0.60474187193E+02  0.00000000000E+00 0.  1.
        -13    1    4    4    0    0  0.11691473357E+03 -0.33162816349E+02  0.14280281233E+03  0.18751392088E+03  0.00000000000E+00 0.  1.
         13    1    4    4    0    0  0.27909541543E+02 -0.61989245485E+02  0.33125940138E+02  0.75623653541E+02  0.00000000000E+00 0. -1.
         -1    1    1    2    0  502 -0.13366241882E+03  0.60603088639E+02  0.16603149048E+03  0.22159610192E+03  0.00000000000E+00 0.  1.
<scales pt_clust_5="13000.00000" pt_clust_6="13000.00000" pt_clust_7="13000.00000" pt_clust_8="13000.00000" pt_clust_9="13000.00000"></scales>
<clustering>
<clus scale="   90.898">  7  8 -1 -1</clus>
<clus scale="   91.593">  5  6 -1 -1</clus>
<clus scale="   98.527">  2  5  1 -1</clus>
<clus scale="  156.617">  7  9 -1 -1</clus>
<clus scale="  343.555">  1  5  2 -1</clus>
</clustering>
</event>
<event>
 9    1  0.3303741E-006  0.3536916E+03  0.7546771E-02  0.1099958E+00
         21   -1    0    0  501  502  0.00000000000E+00  0.00000000000E+00  0.14254423940E+03  0.14254423940E+03  0.00000000000E+00 0. -1.
          2   -1    0    0  502    0 -0.00000000000E+00 -0.00000000000E+00 -0.82652929774E+03  0.82652929774E+03  0.00000000000E+00 0. -1.
         23    2    1    2    0    0 -0.81396949536E+02 -0.19517606373E+02 -0.59021729367E+03  0.60316356133E+03  0.91888125542E+02 0.  0.
         23    2    1    2    0    0 -0.84473145225E+02 -0.48578224629E+02 -0.13002556880E+03  0.18297676697E+03  0.84132589020E+02 0.  0.
        -13    1    4    4    0    0  0.46163755118E+01 -0.37366939343E+02 -0.27106392079E+02  0.46393486291E+02  0.00000000000E+00 0.  1.
         13    1    4    4    0    0 -0.89089520737E+02 -0.11211285286E+02 -0.10291917673E+03  0.13658328068E+03  0.00000000000E+00 0. -1.
        -13    1    3    3    0    0  0.46880032724E+01  0.21041412542E+02 -0.47451098163E+02  0.52118376158E+02  0.00000000000E+00 0.  1.
         13    1    3    3    0    0 -0.86084952808E+02 -0.40559018915E+02 -0.54276619550E+03  0.55104518517E+03  0.00000000000E+00 0. -1.
          2    1    1    2  501    0  0.16587009476E+03  0.68095831002E+02  0.36257804134E+02  0.18293320884E+03  0.00000000000E+00 0. -1.
<scales pt_clust_5="13000.00000" pt_clust_6="13000.00000" pt_clust_7="13000.00000" pt_clust_8="13000.00000" pt_clust_9="13000.00000"></scales>
<clustering>
<clus scale="   84.133">  5  6 -1 -1</clus>
<clus scale="   91.888">  7  8 -1 -1</clus>
<clus scale="  124.297">  2  7  1 -1</clus>
<clus scale="  152.967">  5  9 -1 -1</clus>
<clus scale="  353.692">  1  5  2 -1</clus>
</clustering>
</event>
<event>
 9    1  0.3303741E-006  0.1970313E+03  0.7546771E-02  0.1165789E+00
         21   -1    0    0  501  502  0.00000000000E+00  0.00000000000E+00  0.35093678981E+03  0.35093678981E+03  0.00000000000E+00 0.  1.
         -1   -1    0    0    0  501 -0.00000000000E+00 -0.00000000000E+00 -0.12446598269E+03  0.12446598269E+03  0.00000000000E+00 0.  1.
         23    2    1    2    0    0  0.31403162964E+02 -0.11152801393E+03 -0.35057098579E+02  0.14796092494E+03  0.85081012057E+02 0.  0.
         23    2    1    2    0    0 -0.16635324231E+02  0.64695794943E+02  0.78402713652E+02  0.13784706451E+03  0.91610849739E+02 0.  0.
        -11    1    3    3    0    0  0.28376532516E+02 -0.22176696810E+01  0.93157934886E+01  0.29948784028E+02  0.00000000000E+00 0. -1.
         11    1    3    3    0    0  0.30266304484E+01 -0.10931034425E+03 -0.44372892068E+02  0.11801214091E+03  0.00000000000E+00 0.  1.
        -11    1    4    4    0    0 -0.11030374940E+01  0.85534623596E+02  0.48913114572E+02  0.98538729962E+02  0.00000000000E+00 0. -1.
         11    1    4    4    0    0 -0.15532286737E+02 -0.20838828653E+02  0.29489599080E+02  0.39308334546E+02  0.00000000000E+00 0.  1.
         -1    1    1    2    0  502 -0.14767838734E+02  0.46832218992E+02  0.18312519205E+03  0.18959478305E+03  0.00000000000E+00 0.  1.
<scales pt_clust_5="13000.00000" pt_clust_6="13000.00000" pt_clust_7="13000.00000" pt_clust_8="13000.00000" pt_clust_9="13000.00000"></scales>
<clustering>
<clus scale="   85.081">  5  6 -1 -1</clus>
<clus scale="   91.611">  7  8 -1 -1</clus>
<clus scale="   49.105">  7  9 -1 -1</clus>
<clus scale="  143.748">  2  5  1 -1</clus>
<clus scale="  197.031">  1  5  2 -1</clus>
</clustering>
</event>
<event>
 9    1  0.3303741E-006  0.1861645E+03  0.7546771E-02  0.1174382E+00
          3   -1    0    0  502    0 -0.00000000000E+00  0.00000000000E+00  0.45208873860E+03  0.45208873860E+03  0.00000000000E+00 0. -1.
         21   -1    0    0  501  502  0.00000000000E+00 -0.00000000000E+00 -0.68422485095E+02  0.68422485095E+02  0.00000000000E+00 0.  1.
         23    2    1    2    0    0 -0.44974618405E+02  0.92097169564E+02  0.26508239166E+03  0.29978657716E+03  0.95387171747E+02 0.  0.
         23    2    1    2    0    0  0.19100419753E+02 -0.80462036525E+01  0.74173041790E+02  0.12220378598E+03  0.94881809383E+02 0.  0.
        -11    1    3    3    0    0 -0.41968381765E+01  0.62902524256E+02  0.23025255246E+03  0.23872699663E+03  0.00000000000E+00 0.  1.
         11    1    3    3    0    0 -0.40777780229E+02  0.29194645308E+02  0.34829839203E+02  0.61059580526E+02  0.00000000000E+00 0. -1.
        -13    1    4    4    0    0  0.34748488195E+02  0.21138781788E+02 -0.32798343319E+00  0.40674477261E+02  0.00000000000E+00 0.  1.
         13    1    4    4    0    0 -0.15648068442E+02 -0.29184985441E+02  0.74501025223E+02  0.81529308720E+02  0.00000000000E+00 0. -1.
          3    1    1    2  501    0  0.25874198652E+02 -0.84050965912E+02  0.44410820053E+02  0.98520860554E+02  0.00000000000E+00 0. -1.
<scales pt_clust_5="13000.00000" pt_clust_6="13000.00000" pt_clust_7="13000.00000" pt_clust_8="13000.00000" pt_clust_9="13000.00000"></scales>
<clustering>
<clus scale="   94.882">  7  8 -1 -1</clus>
<clus scale="   87.943">  7  9 -1 -1</clus>
<clus scale="   95.387">  5  6 -1 -1</clus>
<clus scale="  140.012">  1  5  2 -1</clus>
<clus scale="  186.165">  2  5  1 -1</clus>
</clustering>
</event>
<event>
 9    1  0.3303741E-006  0.1734571E+03  0.7546771E-02  0.1201120E+00
          3   -1    0    0  502    0 -0.00000000000E+00  0.00000000000E+00  0.38628912360E+02  0.38628912360E+02  0.00000000000E+00 0. -1.
         21   -1    0    0  501  502  0.00000000000E+00 -0.00000000000E+00 -0.49742265670E+03  0.49742265670E+03  0.00000000000E+00 0.  1.
         23    2    1    2    0    0  0.79120750116E+00  0.30644477730E+02 -0.10507662457E+03  0.14209325380E+03  0.90607316035E+02 0.  0.
         23    2    1    2    0    0 -0.38923597952E+02 -0.51123569468E+02 -0.28724907655E+03  0.31463950810E+03  0.11116349332E+03 0.  0.
        -11    1    3    3    0    0  0.41420687960E+02  0.34870550733E+02 -0.68037183918E+02  0.86952211559E+02  0.00000000000E+00 0. -1.
         11    1    3    3    0    0 -0.40629480458E+02 -0.42260730029E+01 -0.37039440655E+02  0.55141042240E+02  0.00000000000E+00 0.  1.
        -13    1    4    4    0    0  0.78058259611E+01 -0.32223120913E+02 -0.12704461469E+02  0.35505827431E+02  0.00000000000E+00 0. -1.
         13    1    4    4    0    0 -0.46729423913E+02 -0.18900448555E+02 -0.27454461508E+03  0.27913368067E+03  0.00000000000E+00 0.  1.
          3    1    1    2  501    0  0.38132390450E+02  0.20479091739E+02 -0.66468043213E+02  0.79318807155E+02  0.00000000000E+00 0. -1.
<scales pt_clust_5="13000.00000" pt_clust_6="13000.00000" pt_clust_7="13000.00000" pt_clust_8="13000.00000" pt_clust_9="13000.00000"></scales>
<clustering>
<clus scale="   90.607">  5  6 -1 -1</clus>
<clus scale="   95.652">  1  5  2 -1</clus>
<clus scale="  111.163">  7  8 -1 -1</clus>
<clus scale="   48.881">  7  9 -1 -1</clus>
<clus scale="  173.457">  2  5  1 -1</clus>
</clustering>
</event>
<event>
 9    1  0.3303741E-006  0.2574908E+03  0.7546771E-02  0.1126265E+00
          2   -1    0    0  502    0 -0.00000000000E+00  0.00000000000E+00  0.13300801322E+03  0.13300801322E+03  0.00000000000E+00 0. -1.
         21   -1    0    0  501  502  0.00000000000E+00 -0.00000000000E+00 -0.34039012920E+03  0.34039012920E+03  0.00000000000E+00 0. -1.
         23    2    1    2    0    0 -0.32228670014E+02  0.13465857312E+03 -0.10701910243E+03  0.19703920636E+03  0.90552427199E+02 0.  0.
         23    2    1    2    0    0  0.71464486728E+02 -0.13420075183E+01 -0.20272189966E+02  0.11596162936E+03  0.89034622194E+02 0.  0.
        -11    1    3    3    0    0  0.99336538621E+01  0.99431810845E+02 -0.33778055286E+02  0.10548137042E+03  0.00000000000E+00 0. -1.
         11    1    3    3    0    0 -0.42162323876E+02  0.35226762277E+02 -0.73241047140E+02  0.91557835936E+02  0.00000000000E+00 0.  1.
        -13    1    4    4    0    0  0.57833135884E+02 -0.23428865373E+02 -0.47443048682E+02  0.78386390446E+02  0.00000000000E+00 0.  1.
         13    1    4    4    0    0  0.13631350844E+02  0.22086857855E+02  0.27170858716E+02  0.37575238910E+02  0.00000000000E+00 0. -1.
          2    1    1    2  501    0 -0.39235816714E+02 -0.13331656560E+03 -0.80090823589E+02  0.16039730671E+03  0.00000000000E+00 0. -1.
<scales pt_clust_5="13000.00000" pt_clust_6="13000.00000" pt_clust_7="13000.00000" pt_clust_8="13000.00000" pt_clust_9="13000.00000"></scales>
<clustering>
<clus scale="   89.035">  7  8 -1 -1</clus>
<clus scale="   90.552">  5  6 -1 -1</clus>
<clus scale="  138.970">  7  9 -1 -1</clus>
<clus scale="  165.443">  1  5  2 -1</clus>
<clus scale="  257.491">  2  5  1 -1</clus>
</clustering>
</event>
<event>
 9    1  0.3303741E-006  0.2559600E+03  0.7546771E-02  0.1146959E+00
         21   -1    0    0  501  502  0.00000000000E+00  0.00000000000E+00  0.66656566668E+02  0.66656566668E+02  0.00000000000E+00 0. -1.
          1   -1    0    0  502    0 -0.00000000000E+00 -0.00000000000E+00 -0.63034081795E+03  0.63034081795E+03  0.00000000000E+00 0. -1.
         23    2    1    2    0    0 -0.40173843833E+02  0.25205493337E+02 -0.34692011859E+03  0.36158387512E+03  0.90222366656E+02 0.  0.
         23    2    1    2    0    0  0.19007565723E+02 -0.59837674406E+02 -0.25595695325E+03  0.27899120471E+03  0.91543954222E+02 0.  0.
        -11    1    3    3    0    0 -0.32439968504E+02 -0.30873982675E+02 -0.17180273596E+03  0.17754361280E+03  0.00000000000E+00 0.  1.
         11    1    3    3    0    0 -0.77338753292E+01  0.56079476012E+02 -0.17511738263E+03  0.18404026233E+03  0.00000000000E+00 0. -1.
        -11    1    4    4    0    0  0.31331405637E+02  0.11056944899E+02 -0.43884130247E+02  0.55042982270E+02  0.00000000000E+00 0.  1.
         11    1    4    4    0    0 -0.12323839914E+02 -0.70894619305E+02 -0.21207282300E+03  0.22394822244E+03  0.00000000000E+00 0. -1.
          1    1    1    2  501    0  0.21166278110E+02  0.34632181068E+02  0.39192820555E+02  0.56422304788E+02  0.00000000000E+00 0. -1.
<scales pt_clust_5="13000.00000" pt_clust_6="13000.00000" pt_clust_7="13000.00000" pt_clust_8="13000.00000" pt_clust_9="13000.00000"></scales>
<clustering>
<clus scale="   90.222">  5  6 -1 -1</clus>
<clus scale="   91.544">  7  8 -1 -1</clus>
<clus scale="   40.588">  7  9 -1 -1</clus>
<clus scale="  101.928">  2  5  1 -1</clus>
<clus scale="  255.960">  1  5  2 -1</clus>
</clustering>
</event>
<event>
 9    1  0.3303741E-006  0.2258733E+03  0.7546771E-02  0.1161918E+00
         21   -1    0    0  501  502  0.00000000000E+00  0.00000000000E+00  0.86997494775E+03  0.86997494775E+03  0.00000000000E+00 0.  1.
          4   -1    0    0  502    0 -0.00000000000E+00 -0.00000000000E+00 -0.31353976953E+02  0.31353976953E+02  0.00000000000E+00 0. -1.
         23    2    1    2    0    0  0.36826910215E+01 -0.45066664478E+02  0.27514113260E+03  0.29426363960E+03  0.94041907055E+02 0.  0.
         23    2    1    2    0    0  0.80660463048E+02  0.33886505139E+02  0.22459071675E+03  0.25765921727E+03  0.91065233019E+02 0.  0.
        -11    1    3    3    0    0 -0.37113352047E+02 -0.50958528830E+02  0.16042921770E+03  0.17237083991E+03  0.00000000000E+00 0.  1.
         11    1    3    3    0    0  0.40796043068E+02  0.58918643520E+01  0.11471191491E+03  0.12189279969E+03  0.00000000000E+00 0. -1.
        -11    1    4    4    0    0  0.82221300726E+02 -0.95705210734E+01  0.14946557970E+03  0.17085636272E+03  0.00000000000E+00 0.  1.
         11    1    4    4    0    0 -0.15608376779E+01  0.43457026213E+02  0.75125137048E+02  0.86802854549E+02  0.00000000000E+00 0. -1.
          4    1    1    2  501    0 -0.84343154070E+02  0.11180159339E+02  0.33888912144E+03  0.34940606782E+03  0.00000000000E+00 0. -1.
<scales pt_clust_5="13000.00000" pt_clust_6="13000.00000" pt_clust_7="13000.00000" pt_clust_8="13000.00000" pt_clust_9="13000.00000"></scales>
<clustering>
<clus scale="   91.065">  7  8 -1 -1</clus>
<clus scale="   85.081">  7  9 -1 -1</clus>
<clus scale="   94.042">  5  6 -1 -1</clus>
<clus scale="  104.348">  2  5  1 -1</clus>
<clus scale="  225.873">  1  5  2 -1</clus>
</clustering>
</event>
<event>
 9    1  0.9269570E-006  0.5974114E+03  0.7546771E-02  0.9997560E-01
         21   -1    0    0  501  502  0.00000000000E+00  0.00000000000E+00  0.75556986697E+03  0.75556986697E+03  0.00000000000E+00 0. -1.
          2   -1    0    0  502    0 -0.00000000000E+00 -0.00000000000E+00 -0.42204805258E+03  0.42204805258E+03  0.00000000000E+00 0. -1.
         23    2    1    2    0    0 -0.44383359950E+03 -0.10444862553E+02  0.36113249848E+03  0.57956883305E+03  0.91575059872E+02 0.  0.
         23    2    1    2    0    0 -0.35199986313E+01  0.25064286223E+02 -0.10827294456E+03  0.14324652541E+03  0.90310174866E+02 0.  0.
        -11    1    4    4    0    0 -0.18256311291E+02  0.56335698503E+02 -0.68205383028E+02  0.90327061846E+02  0.00000000000E+00 0. -1.
         11    1    4    4    0    0  0.14736312660E+02 -0.31271412280E+02 -0.40067561534E+02  0.52919463565E+02  0.00000000000E+00 0.  1.
        -11    1    3    3    0    0 -0.38168940452E+03 -0.17190854609E+02  0.26530120684E+03  0.46515272477E+03  0.00000000000E+00 0. -1.
         11    1    3    3    0    0 -0.62144194973E+02  0.67459920565E+01  0.95831291637E+02  0.11441610828E+03  0.00000000000E+00 0.  1.
          2    1    1    2  501    0  0.44735359813E+03 -0.14619423671E+02  0.80662260472E+02  0.45480256109E+03  0.00000000000E+00 0. -1.
<scales pt_clust_5="13000.00000" pt_clust_6="13000.00000" pt_clust_7="13000.00000" pt_clust_8="13000.00000" pt_clust_9="13000.00000"></scales>
<clustering>
<clus scale="   90.310">  5  6 -1 -1</clus>
<clus scale="   91.575">  7  8 -1 -1</clus>
<clus scale="  447.593">  5  9 -1 -1</clus>
<clus scale="  453.303">  2  7  1 -1</clus>
<clus scale="  597.411">  1  5  2 -1</clus>
</clustering>
</event>
<event>
 9    1  0.3303741E-006  0.2370398E+03  0.7546771E-02  0.1151388E+00
          2   -1    0    0  502    0 -0.00000000000E+00  0.00000000000E+00  0.28321893516E+03  0.28321893516E+03  0.00000000000E+00 0. -1.
         21   -1    0    0  501  502  0.00000000000E+00 -0.00000000000E+00 -0.11737487118E+03  0.11737487118E+03  0.00000000000E+00 0. -1.
         23    2    1    2    0    0 -0.45412828417E+01 -0.72167782668E+02  0.10441355368E+03  0.15572331956E+03  0.90104106221E+02 0.  0.
         23    2    1    2    0    0  0.31677321688E+02 -0.46924815029E+02 -0.35188378309E+01  0.10653094343E+03  0.90172438765E+02 0.  0.
        -11    1    3    3    0    0  0.12094619974E+02 -0.86848795610E+02  0.10018028563E+03  0.13313558037E+03  0.00000000000E+00 0. -1.
         11    1    3    3    0    0 -0.16635902816E+02  0.14681012942E+02  0.42332680539E+01  0.22587739194E+02  0.00000000000E+00 0.  1.
        -11    1    4    4    0    0 -0.11386550931E+02 -0.28708271837E+02 -0.37609131347E+02  0.48664824818E+02  0.00000000000E+00 0.  1.
         11    1    4    4    0    0  0.43063872619E+02 -0.18216543193E+02  0.34090293516E+02  0.57866118608E+02  0.00000000000E+00 0. -1.
          2    1    1    2  501    0 -0.27136038846E+02  0.11909259770E+03  0.64949348133E+02  0.13833954335E+03  0.00000000000E+00 0. -1.
<scales pt_clust_5="13000.00000" pt_clust_6="13000.00000" pt_clust_7="13000.00000" pt_clust_8="13000.00000" pt_clust_9="13000.00000"></scales>
<clustering>
<clus scale="   90.104">  5  6 -1 -1</clus>
<clus scale="   90.172">  7  8 -1 -1</clus>
<clus scale="  115.532">  1  5  2 -1</clus>
<clus scale="   77.316">  7  9 -1 -1</clus>
<clus scale="  237.040">  2  5  1 -1</clus>
</clustering>
</event>
<event>
 9    1  0.3303741E-006  0.2764223E+03  0.7546771E-02  0.1115095E+00
          2   -1    0    0  502    0 -0.00000000000E+00  0.00000000000E+00  0.68140279633E+03  0.68140279633E+03  0.00000000000E+00 0. -1.
         21   -1    0    0  501  502  0.00000000000E+00 -0.00000000000E+00 -0.17183894625E+03  0.17183894625E+03  0.00000000000E+00 0. -1.
         23    2    1    2    0    0  0.30263510255E+02  0.15025262611E+03  0.54648826397E+03  0.57436413894E+03  0.88051176846E+02 0.  0.
         23    2    1    2    0    0 -0.79050740763E+02 -0.52313641312E+02  0.50362696851E+02  0.13890875601E+03  0.88167480287E+02 0.  0.
        -11    1    3    3    0    0  0.51155253007E+02  0.13252422020E+03  0.38095919997E+03  0.40658263723E+03  0.00000000000E+00 0. -1.
         11    1    3    3    0    0 -0.20891742752E+02  0.17728405906E+02  0.16552906399E+03  0.16778150171E+03  0.00000000000E+00 0.  1.
        -13    1    4    4    0    0  0.18776203660E+02 -0.10774203353E+02  0.86040738619E+00  0.21664939018E+02  0.00000000000E+00 0. -1.
         13    1    4    4    0    0 -0.97826944423E+02 -0.41539437959E+02  0.49502289465E+02  0.11724381699E+03  0.00000000000E+00 0.  1.
          2    1    1    2  501    0  0.48787230508E+02 -0.97938984795E+02 -0.87287110742E+02  0.13996884762E+03  0.00000000000E+00 0. -1.
<scales pt_clust_5="13000.00000" pt_clust_6="13000.00000" pt_clust_7="13000.00000" pt_clust_8="13000.00000" pt_clust_9="13000.00000"></scales>
<clustering>
<clus scale="   88.051">  5  6 -1 -1</clus>
<clus scale="   88.167">  7  8 -1 -1</clus>
<clus scale="  109.418">  7  9 -1 -1</clus>
<clus scale="  176.762">  1  5  2 -1</clus>
<clus scale="  276.422">  2  5  1 -1</clus>
</clustering>
</event>
<event>
 9    1  0.3303741E-006  0.3377813E+03  0.7546771E-02  0.1088336E+00
         -1   -1    0    0    0  501 -0.00000000000E+00  0.00000000000E+00  0.15640858349E+03  0.15640858349E+03  0.00000000000E+00 0.  1.
         21   -1    0    0  501  502  0.00000000000E+00 -0.00000000000E+00 -0.46383967244E+03  0.46383967244E+03  0.00000000000E+00 0. -1.
         23    2    1    2    0    0  0.99921741607E+02 -0.13771744166E+03 -0.16231943342E+03  0.25261583759E+03  0.92286048520E+02 0.  0.
         23    2    1    2    0    0 -0.11881496961E+03  0.69212214515E+02  0.40303241757E+02  0.16906604569E+03  0.89730980544E+02 0.  0.
        -11    1    4    4    0    0 -0.13218012090E+03  0.53143916630E+02  0.29296125765E+02  0.14544457096E+03  0.00000000000E+00 0.  1.
         11    1    4    4    0    0  0.13365151297E+02  0.16068297886E+02  0.11007115991E+02  0.23621474733E+02  0.00000000000E+00 0. -1.
        -13    1    3    3    0    0  0.36011285574E+02  0.51846161737E+01 -0.22902701476E+02  0.42991006832E+02  0.00000000000E+00 0.  1.
         13    1    3    3    0    0  0.63910456034E+02 -0.14290205783E+03 -0.13941673195E+03  0.20962483076E+03  0.00000000000E+00 0. -1.
         -1    1    1    2    0  502  0.18893228000E+02  0.68505227146E+02 -0.18541489729E+03  0.19856637265E+03  0.00000000000E+00 0.  1.
<scales pt_clust_5="13000.00000" pt_clust_6="13000.00000" pt_clust_7="13000.00000" pt_clust_8="13000.00000" pt_clust_9="13000.00000"></scales>
<clustering>
<clus scale="   89.731">  5  6 -1 -1</clus>
<clus scale="   71.063">  5  9 -1 -1</clus>
<clus scale="   92.286">  7  8 -1 -1</clus>
<clus scale="  193.564">  1  7  2 -1</clus>
<clus scale="  337.781">  2  5  1 -1</clus>
</clustering>
</event>
<event>
 9    1  0.3303741E-006  0.4316368E+03  0.7546771E-02  0.1080281E+00
         -1   -1    0    0    0  501 -0.00000000000E+00  0.00000000000E+00  0.87764052579E+03  0.87764052579E+03  0.00000000000E+00 0.  1.
         21   -1    0    0  501  502  0.00000000000E+00 -0.00000000000E+00 -0.12074949512E+03  0.12074949512E+03  0.00000000000E+00 0.  1.
         23    2    1    2    0    0 -0.24721745226E+01 -0.71765504295E+02  0.46083832377E+03  0.47498049986E+03  0.89878336341E+02 0.  0.
         23    2    1    2    0    0 -0.33515319203E+02  0.16048758472E+03  0.36179633603E+03  0.40726765939E+03  0.89948964157E+02 0.  0.
        -13    1    4    4    0    0 -0.23932397127E+02  0.64977426238E+02  0.63664165549E+02  0.94063550474E+02  0.00000000000E+00 0. -1.
         13    1    4    4    0    0 -0.95829220759E+01  0.95510158486E+02  0.29813217048E+03  0.31320410892E+03  0.00000000000E+00 0.  1.
        -13    1    3    3    0    0 -0.36512680224E+02 -0.67579017500E+02  0.36986676827E+03  0.37775855476E+03  0.00000000000E+00 0.  1.
         13    1    3    3    0    0  0.34040505701E+02 -0.41864867957E+01  0.90971555498E+02  0.97221945104E+02  0.00000000000E+00 0. -1.
         -1    1    1    2    0  502  0.35987493726E+02 -0.88722080429E+02 -0.65743629124E+02  0.11614186166E+03  0.00000000000E+00 0.  1.
<scales pt_clust_5="13000.00000" pt_clust_6="13000.00000" pt_clust_7="13000.00000" pt_clust_8="13000.00000" pt_clust_9="13000.00000"></scales>
<clustering>
<clus scale="   89.878">  7  8 -1 -1</clus>
<clus scale="   89.949">  5  6 -1 -1</clus>
<clus scale="   95.743">  5  9 -1 -1</clus>
<clus scale="  115.041">  1  7  2 -1</clus>
<clus scale="  431.637">  2  5  1 -1</clus>
</clustering>
</event>
<event>
 9    1  0.3303741E-006  0.1390466E+03  0.7546771E-02  0.1222373E+00
         21   -1    0    0  501  502  0.00000000000E+00  0.00000000000E+00  0.33775859944E+03  0.33775859944E+03  0.00000000000E+00 0. -1.
          4   -1    0    0  502    0 -0.00000000000E+00 -0.00000000000E+00 -0.51670400719E+02  0.51670400719E+02  0.00000000000E+00 0. -1.
         23    2    1    2    0    0 -0.27150181625E+02  0.73463424836E+02  0.87430589310E+02  0.14694435659E+03  0.88399823738E+02 0.  0.
         23    2    1    2    0    0  0.29085683709E+01 -0.46520252542E+02  0.16034925233E+03  0.18974831293E+03  0.90110742264E+02 0.  0.
        -11    1    4    4    0    0  0.39307995443E+02 -0.29398930482E+02  0.41505441450E+02  0.64281547035E+02  0.00000000000E+00 0.  1.
         11    1    4    4    0    0 -0.36399427072E+02 -0.17121322060E+02  0.11884381088E+03  0.12546676590E+03  0.00000000000E+00 0. -1.
        -13    1    3    3    0    0 -0.57108019284E+02  0.30663349388E+02  0.58010130793E+02  0.86987022806E+02  0.00000000000E+00 0.  1.
         13    1    3    3    0    0  0.29957837658E+02  0.42800075449E+02  0.29420458518E+02  0.59957333788E+02  0.00000000000E+00 0. -1.
          4    1    1    2  501    0  0.24241613255E+02 -0.26943172294E+02  0.38308357080E+02  0.52736330632E+02  0.00000000000E+00 0. -1.
<scales pt_clust_5="13000.00000" pt_clust_6="13000.00000" pt_clust_7="13000.00000" pt_clust_8="13000.00000" pt_clust_9="13000.00000"></scales>
<clustering>
<clus scale="   88.400">  7  8 -1 -1</clus>
<clus scale="   90.111">  5  6 -1 -1</clus>
<clus scale="   36.244">  5  9 -1 -1</clus>
<clus scale="  118.104">  2  7  1 -1</clus>
<clus scale="  139.047">  1  5  2 -1</clus>
</clustering>
</event>
<event>
 9    1  0.3303741E-006  0.3883693E+03  0.7546771E-02  0.1054166E+00
          1   -1    0    0  502    0 -0.00000000000E+00  0.00000000000E+00  0.45373284826E+03  0.45373284826E+03  0.00000000000E+00 0. -1.
         21   -1    0    0  501  502  0.00000000000E+00 -0.00000000000E+00 -0.43936697533E+03  0.43936697533E+03  0.00000000000E+00 0. -1.
         23    2    1    2    0    0  0.21509203786E+03  0.22600914700E+03  0.27486795615E+03  0.42545464841E+03  0.90080770738E+02 0.  0.
         23    2    1    2    0    0 -0.39382380262E+02 -0.31055561684E+02 -0.21893681651E+02  0.11294142062E+03  0.98797830998E+02 0.  0.
        -11    1    4    4    0    0  0.13089282050E+02  0.24816315377E+02  0.10189178456E+02  0.29849592478E+02  0.00000000000E+00 0. -1.
         11    1    4    4    0    0 -0.52471662313E+02 -0.55871877061E+02 -0.32082860107E+02  0.83091828147E+02  0.00000000000E+00 0.  1.
        -13    1    3    3    0    0  0.21552877716E+03  0.18869214104E+03  0.23202383036E+03  0.36863591216E+03  0.00000000000E+00 0. -1.
         13    1    3    3    0    0 -0.43673930237E+00  0.37317005956E+02  0.42844125785E+02  0.56818736250E+02  0.00000000000E+00 0.  1.
          1    1    1    2  501    0 -0.17570965759E+03 -0.19495358531E+03 -0.23860840157E+03  0.35470375456E+03  0.00000000000E+00 0. -1.
<scales pt_clust_5="13000.00000" pt_clust_6="13000.00000" pt_clust_7="13000.00000" pt_clust_8="13000.00000" pt_clust_9="13000.00000"></scales>
<clustering>
<clus scale="   90.081">  7  8 -1 -1</clus>
<clus scale="   98.798">  5  6 -1 -1</clus>
<clus scale="  262.452">  5  9 -1 -1</clus>
<clus scale="  324.745">  1  7  2 -1</clus>
<clus scale="  388.369">  2  5  1 -1</clus>
</clustering>
</event>
<event>
 9    1  0.3303741E-006  0.1505269E+03  0.7546771E-02  0.1207984E+00
         -3   -1    0    0    0  501 -0.00000000000E+00  0.00000000000E+00  0.10355788687E+03  0.10355788687E+03  0.00000000000E+00 0.  1.
         21   -1    0    0  501  502  0.00000000000E+00 -0.00000000000E+00 -0.22424765014E+03  0.22424765014E+03  0.00000000000E+00 0. -1.
         23    2    1    2    0    0 -0.59779756280E+02 -0.57704061242E+02 -0.12440345234E+03  0.17723284508E+03  0.95036227172E+02 0.  0.
         23    2    1    2    0    0  0.28999093589E+02  0.63253304246E+02  0.18418347876E+02  0.11601158251E+03  0.90980898058E+02 0.  0.
        -13    1    3    3    0    0 -0.53525002301E+02  0.12545174822E+02 -0.45124490820E+02  0.71123322156E+02  0.00000000000E+00 0.  1.
         13    1    3    3    0    0 -0.62547539795E+01 -0.70249236064E+02 -0.79278961523E+02  0.10610952292E+03  0.00000000000E+00 0. -1.
        -13    1    4    4    0    0  0.22590128323E+02  0.84823934469E+02  0.13887329609E+01  0.87791470746E+02  0.00000000000E+00 0.  1.
         13    1    4    4    0    0  0.64089652665E+01 -0.21570630222E+02  0.17029614915E+02  0.28220111767E+02  0.00000000000E+00 0. -1.
         -3    1    1    2    0  502  0.30780662691E+02 -0.55492430043E+01 -0.14704658809E+02  0.34561109419E+02  0.00000000000E+00 0.  1.
<scales pt_clust_5="13000.00000" pt_clust_6="13000.00000" pt_clust_7="13000.00000" pt_clust_8="13000.00000" pt_clust_9="13000.00000"></scales>
<clustering>
<clus scale="   90.981">  7  8 -1 -1</clus>
<clus scale="   31.277">  7  9 -1 -1</clus>
<clus scale="   95.036">  5  6 -1 -1</clus>
<clus scale="  126.235">  1  5  2 -1</clus>
<clus scale="  150.527">  2  5  1 -1</clus>
</clustering>
</event>
<event>
 9    1  0.3303741E-006  0.1813293E+03  0.7546771E-02  0.1183825E+00
         21   -1    0    0  501  502  0.00000000000E+00  0.00000000000E+00  0.11669478051E+03  0.11669478051E+03  0.00000000000E+00 0. -1.
         -3   -1    0    0    0  501 -0.00000000000E+00 -0.00000000000E+00 -0.25948098539E+03  0.25948098539E+03  0.00000000000E+00 0.  1.
         23    2    1    2    0    0  0.18603389512E+02 -0.80446842076E+02  0.29556517488E+02  0.12601113638E+03  0.90484464217E+02 0.  0.
         23    2    1    2    0    0  0.41069734406E+02  0.49750126520E+02 -0.12217189611E+03  0.16637750717E+03  0.92702235796E+02 0.  0.
        -11    1    3    3    0    0  0.41400208571E+02 -0.55298874079E+02 -0.14310089769E+02  0.70545881618E+02  0.00000000000E+00 0.  1.
         11    1    3    3    0    0 -0.22796819059E+02 -0.25147967997E+02  0.43866607257E+02  0.55465254763E+02  0.00000000000E+00 0. -1.
        -13    1    4    4    0    0  0.11586722802E+02 -0.26845088478E+02 -0.20483023217E+02  0.35699652110E+02  0.00000000000E+00 0.  1.
         13    1    4    4    0    0  0.29483011603E+02  0.76595214998E+02 -0.10168887289E+03  0.13067785506E+03  0.00000000000E+00 0. -1.
         -3    1    1    2    0  502 -0.59673123917E+02  0.30696715557E+02 -0.50170826250E+02  0.83787122344E+02  0.00000000000E+00 0.  1.
<scales pt_clust_5="13000.00000" pt_clust_6="13000.00000" pt_clust_7="13000.00000" pt_clust_8="13000.00000" pt_clust_9="13000.00000"></scales>
<clustering>
<clus scale="   90.484">  5  6 -1 -1</clus>
<clus scale="   92.702">  7  8 -1 -1</clus>
<clus scale="   67.106">  7  9 -1 -1</clus>
<clus scale="  122.496">  2  5  1 -1</clus>
<clus scale="  181.329">  1  5  2 -1</clus>
</clustering>
</event>
<event>
 9    1  0.3303741E-006  0.1999844E+03  0.7546771E-02  0.1157522E+00
          1   -1    0    0  502    0 -0.00000000000E+00  0.00000000000E+00  0.44333838244E+03  0.44333838244E+03  0.00000000000E+00 0. -1.
         21   -1    0    0  501  502  0.00000000000E+00 -0.00000000000E+00 -0.80116368289E+02  0.80116368289E+02  0.00000000000E+00 0. -1.
         23    2    1    2    0    0 -0.11886600014E+03  0.75616188252E+02  0.22673289574E+03  0.28133277943E+03  0.88844768288E+02 0.  0.
         23    2    1    2    0    0  0.87356546709E+02 -0.39171382287E+02  0.14197581394E+03  0.19363307191E+03  0.90393978504E+02 0.  0.
        -11    1    3    3    0    0 -0.99349536631E+02  0.51753090214E+02  0.97611509313E+02  0.14858236613E+03  0.00000000000E+00 0. -1.
         11    1    3    3    0    0 -0.19516463513E+02  0.23863098038E+02  0.12912138643E+03  0.13275041329E+03  0.00000000000E+00 0.  1.
        -11    1    4    4    0    0  0.46406099520E+02  0.25993022717E+02  0.72724729265E+02  0.90100219475E+02  0.00000000000E+00 0.  1.
         11    1    4    4    0    0  0.40950447188E+02 -0.65164405004E+02  0.69251084670E+02  0.10353285243E+03  0.00000000000E+00 0. -1.
          1    1    1    2  501    0  0.31509453435E+02 -0.36444805966E+02 -0.54866955212E+01  0.48488899404E+02  0.00000000000E+00 0. -1.
<scales pt_clust_5="13000.00000" pt_clust_6="13000.00000" pt_clust_7="13000.00000" pt_clust_8="13000.00000" pt_clust_9="13000.00000"></scales>
<clustering>
<clus scale="   88.845">  5  6 -1 -1</clus>
<clus scale="   90.394">  7  8 -1 -1</clus>
<clus scale="   48.178">  7  9 -1 -1</clus>
<clus scale="  166.554">  1  5  2 -1</clus>
<clus scale="  199.984">  2  5  1 -1</clus>
</clustering>
</event>
<event>
 9    1  0.3303741E-006  0.3141821E+03  0.7546771E-02  0.1090231E+00
         21   -1    0    0  501  502  0.00000000000E+00  0.00000000000E+00  0.51106296344E+03  0.51106296344E+03  0.00000000000E+00 0.  1.
         -1   -1    0    0    0  501 -0.00000000000E+00 -0.00000000000E+00 -0.14423021807E+03  0.14423021807E+03  0.00000000000E+00 0.  1.
         23    2    1    2    0    0 -0.24055096638E+02 -0.20878041653E+03  0.15052690092E+03  0.27385039488E+03  0.90375775931E+02 0.  0.
         23    2    1    2    0    0  0.39370725666E+02  0.97412565946E+01  0.23210374919E+02  0.10370727209E+03  0.92582561323E+02 0.  0.
        -11    1    3    3    0    0 -0.15310625224E+02 -0.10519796080E+03  0.22019282123E+02  0.10856276980E+03  0.00000000000E+00 0. -1.
         11    1    3    3    0    0 -0.87444714143E+01 -0.10358245572E+03  0.12850761880E+03  0.16528762508E+03  0.00000000000E+00 0.  1.
        -13    1    4    4    0    0  0.55820260382E+02  0.38001042317E+02  0.21871202062E+02  0.70981195861E+02  0.00000000000E+00 0.  1.
         13    1    4    4    0    0 -0.16449534716E+02 -0.28259785723E+02  0.13391728574E+01  0.32726076230E+02  0.00000000000E+00 0. -1.
         -1    1    1    2    0  502 -0.15315629028E+02  0.19903915993E+03  0.19309546953E+03  0.27773551453E+03  0.00000000000E+00 0.  1.
<scales pt_clust_5="13000.00000" pt_clust_6="13000.00000" pt_clust_7="13000.00000" pt_clust_8="13000.00000" pt_clust_9="13000.00000"></scales>
<clustering>
<clus scale="   90.376">  5  6 -1 -1</clus>
<clus scale="   92.583">  7  8 -1 -1</clus>
<clus scale="  199.628">  7  9 -1 -1</clus>
<clus scale="  228.770">  2  5  1 -1</clus>
<clus scale="  314.182">  1  5  2 -1</clus>
</clustering>
</event>
<event>
 9    1  0.3303741E-006  0.2089192E+03  0.7546771E-02  0.1173591E+00
         21   -1    0    0  501  502  0.00000000000E+00  0.00000000000E+00  0.15325938108E+03  0.15325938108E+03  0.00000000000E+00 0. -1.
          1   -1    0    0  502    0 -0.00000000000E+00 -0.00000000000E+00 -0.16832053823E+03  0.16832053823E+03  0.00000000000E+00 0. -1.
         23    2    1    2    0    0 -0.34285510419E+02  0.26719056716E+02 -0.45148702400E+02  0.11050527376E+03  0.91014317460E+02 0.  0.
         23    2    1    2    0    0  0.58067642257E+02 -0.69402707641E+02 -0.29398448562E+02  0.13409369134E+03  0.94489482875E+02 0.  0.
        -11    1    4    4    0    0 -0.11387465891E+02 -0.45819043669E+02 -0.37505815827E+02  0.60297142245E+02  0.00000000000E+00 0.  1.
         11    1    4    4    0    0  0.69455108148E+02 -0.23583663972E+02  0.81073672655E+01  0.73796549093E+02  0.00000000000E+00 0. -1.
        -13    1    3    3    0    0 -0.30578907779E+02  0.48744813675E+02 -0.60428828681E+02  0.83443213007E+02  0.00000000000E+00 0.  1.
         13    1    3    3    0    0 -0.37066026404E+01 -0.22025756959E+02  0.15280126281E+02  0.27062060748E+02  0.00000000000E+00 0. -1.
          1    1    1    2  501    0 -0.23782131837E+02  0.42683650925E+02  0.59485993812E+02  0.76980954208E+02  0.00000000000E+00 0. -1.
<scales pt_clust_5="13000.00000" pt_clust_6="13000.00000" pt_clust_7="13000.00000" pt_clust_8="13000.00000" pt_clust_9="13000.00000"></scales>
<clustering>
<clus scale="   91.014">  7  8 -1 -1</clus>
<clus scale="   94.489">  5  6 -1 -1</clus>
<clus scale="   48.862">  5  9 -1 -1</clus>
<clus scale="  100.861">  2  7  1 -1</clus>
<clus scale="  208.919">  1  5  2 -1</clus>
</clustering>
</event>
<event>
 9    1  0.3303741E-006  0.4078027E+03  0.7546771E-02  0.1074183E+00
          3   -1    0    0  502    0 -0.00000000000E+00  0.00000000000E+00  0.96542561576E+02  0.96542561576E+02  0.00000000000E+00 0. -1.
         21   -1    0    0  501  502  0.00000000000E+00 -0.00000000000E+00 -0.93407355360E+03  0.93407355360E+03  0.00000000000E+00 0. -1.
         23    2    1    2    0    0  0.44425336130E+02  0.12478312586E+03 -0.10472970538E+03  0.19198583442E+03  0.91355407278E+02 0.  0.
         23    2    1    2    0    0 -0.13914813541E+03  0.36980667176E+02 -0.15352781352E+03  0.22978080009E+03  0.92188140407E+02 0.  0.
        -13    1    4    4    0    0 -0.29195101665E+01  0.27996297541E+02 -0.60108238220E+01  0.28782741681E+02  0.00000000000E+00 0.  1.
         13    1    4    4    0    0 -0.13622862525E+03  0.89843696346E+01 -0.14751698970E+03  0.20099805841E+03  0.00000000000E+00 0. -1.
        -13    1    3    3    0    0  0.59503893380E+02  0.10857065197E+03 -0.11370178962E+03  0.16809639127E+03  0.00000000000E+00 0. -1.
         13    1    3    3    0    0 -0.15078557250E+02  0.16212473896E+02  0.89720842358E+01  0.23889443152E+02  0.00000000000E+00 0.  1.
          3    1    1    2  501    0  0.94722799285E+02 -0.16176379304E+03 -0.57927347312E+03  0.60884948067E+03  0.00000000000E+00 0. -1.
<scales pt_clust_5="13000.00000" pt_clust_6="13000.00000" pt_clust_7="13000.00000" pt_clust_8="13000.00000" pt_clust_9="13000.00000"></scales>
<clustering>
<clus scale="   91.355">  7  8 -1 -1</clus>
<clus scale="   92.188">  5  6 -1 -1</clus>
<clus scale="  160.904">  1  7  2 -1</clus>
<clus scale="  166.072">  5  9 -1 -1</clus>
<clus scale="  407.803">  2  5  1 -1</clus>
</clustering>
</event>
<event>
 9    1  0.3303741E-006  0.4634283E+03  0.7546771E-02  0.1077202E+00
         21   -1    0    0  501  502  0.00000000000E+00  0.00000000000E+00  0.18867149604E+03  0.18867149604E+03  0.00000000000E+00 0. -1.
          2   -1    0    0  502    0 -0.00000000000E+00 -0.00000000000E+00 -0.54817944262E+03  0.54817944262E+03  0.00000000000E+00 0. -1.
         23    2    1    2    0    0  0.37747915663E+02 -0.63836912139E+00 -0.23681281632E+03  0.25745563350E+03  0.93689810518E+02 0.  0.
         23    2    1    2    0    0  0.19007833857E+03 -0.15814197461E+02  0.15160672679E+02  0.21260004382E+03  0.92677230220E+02 0.  0.
        -11    1    3    3    0    0  0.39032691215E+02  0.42583253327E+02 -0.13431629203E+03  0.14621132225E+03  0.00000000000E+00 0. -1.
         11    1    3    3    0    0 -0.12847755523E+01 -0.43221622448E+02 -0.10249652428E+03  0.11124431125E+03  0.00000000000E+00 0.  1.
        -13    1    4    4    0    0  0.18453963109E+03 -0.38399945880E+02  0.98695100525E+01  0.18875073116E+03  0.00000000000E+00 0. -1.
         13    1    4    4    0    0  0.55387074799E+01  0.22585748419E+02  0.52911626268E+01  0.23849312656E+02  0.00000000000E+00 0.  1.
          2    1    1    2  501    0 -0.22782625423E+03  0.16452566582E+02 -0.13785580294E+03  0.26679526133E+03  0.00000000000E+00 0. -1.
<scales pt_clust_5="13000.00000" pt_clust_6="13000.00000" pt_clust_7="13000.00000" pt_clust_8="13000.00000" pt_clust_9="13000.00000"></scales>
<clustering>
<clus scale="   92.677">  7  8 -1 -1</clus>
<clus scale="   93.690">  5  6 -1 -1</clus>
<clus scale="  101.010">  2  5  1 -1</clus>
<clus scale="  203.090">  7  9 -1 -1</clus>
<clus scale="  463.428">  1  5  2 -1</clus>
</clustering>
</event>
<event>
 9    1  0.3303741E-006  0.4610233E+03  0.7546771E-02  0.1070139E+00
          2   -1    0    0  502    0 -0.00000000000E+00  0.00000000000E+00  0.33765481107E+03  0.33765481107E+03  0.00000000000E+00 0. -1.
         21   -1    0    0  501  502  0.00000000000E+00 -0.00000000000E+00 -0.25459803904E+03  0.25459803904E+03  0.00000000000E+00 0. -1.
         23    2    1    2    0    0  0.13346182908E+02  0.83611041615E+02  0.36302769910E+01  0.12443768154E+03  0.91118773020E+02 0.  0.
         23    2    1    2    0    0 -0.14304606197E+03 -0.20356529797E+03  0.11299261231E+03  0.28798812257E+03  0.90933062847E+02 0.  0.
        -13    1    3    3    0    0  0.12068017663E+02 -0.18254371370E+02 -0.41297446303E+01  0.22269124706E+02  0.00000000000E+00 0. -1.
         13    1    3    3    0    0  0.12781652457E+01  0.10186541299E+03  0.77600216213E+01  0.10216855683E+03  0.00000000000E+00 0.  1.
        -13    1    4    4    0    0  0.12240416930E+01 -0.31465042683E+02  0.41938214254E+02  0.52443884333E+02  0.00000000000E+00 0.  1.
         13    1    4    4    0    0 -0.14427010367E+03 -0.17210025529E+03  0.71054398060E+02  0.23554423824E+03  0.00000000000E+00 0. -1.
          2    1    1    2  501    0  0.12969987907E+03  0.11995425636E+03 -0.33566117275E+02  0.17982704601E+03  0.00000000000E+00 0. -1.
<scales pt_clust_5="13000.00000" pt_clust_6="13000.00000" pt_clust_7="13000.00000" pt_clust_8="13000.00000" pt_clust_9="13000.00000"></scales>
<clustering>
<clus scale="   90.933">  7  8 -1 -1</clus>
<clus scale="   91.119">  5  6 -1 -1</clus>
<clus scale="  124.385">  1  5  2 -1</clus>
<clus scale="  194.961">  7  9 -1 -1</clus>
<clus scale="  461.023">  2  5  1 -1</clus>
</clustering>
</event>
<event>
 9    1  0.3303741E-006  0.2076296E+03  0.7546771E-02  0.1165535E+00
         21   -1    0    0  501  502  0.00000000000E+00  0.00000000000E+00  0.15883754926E+03  0.15883754926E+03  0.00000000000E+00 0. -1.
         -1   -1    0    0    0  501 -0.00000000000E+00 -0.00000000000E+00 -0.31460733541E+03  0.31460733541E+03  0.00000000000E+00 0.  1.
         23    2    1    2    0    0 -0.77320527399E+02 -0.30644852758E+02 -0.22321755606E+03  0.25513487872E+03  0.91379199196E+02 0.  0.
         23    2    1    2    0    0  0.11952696567E+03  0.13649823534E+02  0.19918507358E+02  0.15251300565E+03  0.91599436411E+02 0.  0.
        -13    1    3    3    0    0 -0.86675440206E+02 -0.11047407351E+02 -0.11322685582E+03  0.14302097057E+03  0.00000000000E+00 0.  1.
         13    1    3    3    0    0  0.93549128070E+01 -0.19597445407E+02 -0.10999070024E+03  0.11211390815E+03  0.00000000000E+00 0. -1.
        -13    1    4    4    0    0  0.63341489024E+02  0.52753094904E+02  0.15825127674E+02  0.83937285634E+02  0.00000000000E+00 0.  1.
         13    1    4    4    0    0  0.56185476647E+02 -0.39103271370E+02  0.40933796837E+01  0.68575720012E+02  0.00000000000E+00 0. -1.
         -1    1    1    2    0  502 -0.42206438272E+02  0.16995029224E+02  0.47529262556E+02  0.65797000304E+02  0.00000000000E+00 0.  1.
<scales pt_clust_5="13000.00000" pt_clust_6="13000.00000" pt_clust_7="13000.00000" pt_clust_8="13000.00000" pt_clust_9="13000.00000"></scales>
<clustering>
<clus scale="   91.379">  5  6 -1 -1</clus>
<clus scale="   91.599">  7  8 -1 -1</clus>
<clus scale="   45.500">  7  9 -1 -1</clus>
<clus scale="  123.563">  2  5  1 -1</clus>
<clus scale="  207.630">  1  5  2 -1</clus>
</clustering>
</event>
<event>
 9    1  0.3303741E-006  0.2149858E+03  0.7546771E-02  0.1142808E+00
         21   -1    0    0  501  502  0.00000000000E+00  0.00000000000E+00  0.10719392775E+03  0.10719392775E+03  0.00000000000E+00 0. -1.
          2   -1    0    0  502    0 -0.00000000000E+00 -0.00000000000E+00 -0.38783713734E+03  0.38783713734E+03  0.00000000000E+00 0. -1.
         23    2    1    2    0    0 -0.16459722278E+03 -0.36357312750E+02 -0.16085872185E+03  0.24892701880E+03  0.87607262021E+02 0.  0.
         23    2    1    2    0    0  0.84390779062E+02 -0.66901303983E+01 -0.74634606980E+02  0.14449367424E+03  0.90230459937E+02 0.  0.
        -13    1    4    4    0    0  0.57079511770E+01  0.34326330202E+02 -0.17413731352E+02  0.38911639536E+02  0.00000000000E+00 0.  1.
         13    1    4    4    0    0  0.78682827885E+02 -0.41016460601E+02 -0.57220875628E+02  0.10558203470E+03  0.00000000000E+00 0. -1.
        -13    1    3    3    0    0 -0.80112437716E+02 -0.62417430490E+02 -0.86420795431E+02  0.13335101120E+03  0.00000000000E+00 0.  1.
         13    1    3    3    0    0 -0.84484785063E+02  0.26060117739E+02 -0.74437926417E+02  0.11557600760E+03  0.00000000000E+00 0. -1.
          2    1    1    2  501    0  0.80206443717E+02  0.43047443149E+02 -0.45149880762E+02  0.10161037205E+03  0.00000000000E+00 0. -1.
<scales pt_clust_5="13000.00000" pt_clust_6="13000.00000" pt_clust_7="13000.00000" pt_clust_8="13000.00000" pt_clust_9="13000.00000"></scales>
<clustering>
<clus scale="   87.607">  7  8 -1 -1</clus>
<clus scale="   90.230">  5  6 -1 -1</clus>
<clus scale="   91.028">  5  9 -1 -1</clus>
<clus scale="  189.971">  2  7  1 -1</clus>
<clus scale="  214.986">  1  5  2 -1</clus>
</clustering>
</event>
<event>
 9    1  0.3303741E-006  0.5394765E+03  0.7546771E-02  0.1008757E+00
         21   -1    0    0  501  502  0.00000000000E+00  0.00000000000E+00  0.75786022803E+03  0.75786022803E+03  0.00000000000E+00 0. -1.
          1   -1    0    0  502    0 -0.00000000000E+00 -0.00000000000E+00 -0.35314502232E+03  0.35314502232E+03  0.00000000000E+00 0. -1.
         23    2    1    2    0    0  0.47210991292E+02  0.45260266740E+03  0.54596342863E+02  0.46787375398E+03  0.94058687935E+02 0.  0.
         23    2    1    2    0    0 -0.11262655593E+03 -0.19075653715E+03  0.59717343998E+02  0.24667767287E+03  0.90614102376E+02 0.  0.
        -11    1    4    4    0    0 -0.12184304187E+03 -0.15578606450E+03  0.68782037359E+02  0.20939434904E+03  0.00000000000E+00 0. -1.
         11    1    4    4    0    0  0.92164859321E+01 -0.34970472652E+02 -0.90646933613E+01  0.37283323835E+02  0.00000000000E+00 0.  1.
        -13    1    3    3    0    0  0.30472219172E+02  0.41739486284E+03  0.25599689818E+02  0.41928793422E+03  0.00000000000E+00 0. -1.
         13    1    3    3    0    0  0.16738772120E+02  0.35207804563E+02  0.28996653045E+02  0.48585819763E+02  0.00000000000E+00 0.  1.
          1    1    1    2  501    0  0.65415564643E+02 -0.26184613024E+03  0.29040151884E+03  0.39645382350E+03  0.00000000000E+00 0. -1.
<scales pt_clust_5="13000.00000" pt_clust_6="13000.00000" pt_clust_7="13000.00000" pt_clust_8="13000.00000" pt_clust_9="13000.00000"></scales>
<clustering>
<clus scale="   90.614">  5  6 -1 -1</clus>
<clus scale="   94.059">  7  8 -1 -1</clus>
<clus scale="  269.894">  5  9 -1 -1</clus>
<clus scale="  464.677">  2  7  1 -1</clus>
<clus scale="  539.477">  1  5  2 -1</clus>
</clustering>
</event>
<event>
 9    1  0.3303741E-006  0.2895600E+03  0.7546771E-02  0.1133651E+00
          2   -1    0    0  502    0 -0.00000000000E+00  0.00000000000E+00  0.13764116922E+03  0.13764116922E+03  0.00000000000E+00 0. -1.
         21   -1    0    0  501  502  0.00000000000E+00 -0.00000000000E+00 -0.64470820225E+03  0.64470820225E+03  0.00000000000E+00 0. -1.
         23    2    1    2    0    0  0.26809160276E+02 -0.27623851333E+02  0.81298432263E+02  0.12659110842E+03  0.89073370910E+02 0.  0.
         23    2    1    2    0    0  0.44707990165E+02  0.75257198297E+02 -0.10481739966E+03  0.16463468356E+03  0.91953474533E+02 0.  0.
        -11    1    3    3    0    0 -0.30891878206E+02 -0.23808586661E+02  0.28732429350E+02  0.48442847091E+02  0.00000000000E+00 0.  1.
         11    1    3    3    0    0  0.57701038482E+02 -0.38152646717E+01  0.52566002913E+02  0.78148261329E+02  0.00000000000E+00 0. -1.
        -11    1    4    4    0    0 -0.19584873772E+02 -0.75008164215E+01 -0.26562317110E+02  0.33843555042E+02  0.00000000000E+00 0.  1.
         11    1    4    4    0    0  0.64292863938E+02  0.82758014719E+02 -0.78255082547E+02  0.13079112851E+03  0.00000000000E+00 0. -1.
          2    1    1    2  501    0 -0.71517150441E+02 -0.47633346964E+02 -0.48354806564E+03  0.49112357949E+03  0.00000000000E+00 0. -1.
<scales pt_clust_5="13000.00000" pt_clust_6="13000.00000" pt_clust_7="13000.00000" pt_clust_8="13000.00000" pt_clust_9="13000.00000"></scales>
<clustering>
<clus scale="   89.073">  5  6 -1 -1</clus>
<clus scale="   91.953">  7  8 -1 -1</clus>
<clus scale="   85.928">  7  9 -1 -1</clus>
<clus scale="   97.035">  1  5  2 -1</clus>
<clus scale="  289.560">  2  5  1 -1</clus>
</clustering>
</event>
<event>
 9    1  0.3303741E-006  0.2123763E+03  0.7546771E-02  0.1153597E+00
         21   -1    0    0  501  502  0.00000000000E+00  0.00000000000E+00  0.22282954443E+03  0.22282954443E+03  0.00000000000E+00 0.  1.
         -2   -1    0    0    0  501 -0.00000000000E+00 -0.00000000000E+00 -0.15170310573E+03  0.15170310573E+03  0.00000000000E+00 0.  1.
         23    2    1    2    0    0  0.33496782084E+02  0.11720359804E+03  0.68294443223E+01  0.15263674029E+03  0.91611218600E+02 0.  0.
         23    2    1    2    0    0  0.40964956033E+02 -0.88230152769E+02  0.41411031049E+02  0.13878286460E+03  0.89906187409E+02 0.  0.
        -13    1    4    4    0    0  0.14382473407E+02 -0.84364969877E+02 -0.43802537295E+01  0.85694167284E+02  0.00000000000E+00 0.  1.
         13    1    4    4    0    0  0.26582482626E+02 -0.38651828916E+01  0.45791284779E+02  0.53088697319E+02  0.00000000000E+00 0. -1.
        -13    1    3    3    0    0  0.56285228781E+02  0.11595771807E+03  0.29231770469E+00  0.12889648873E+03  0.00000000000E+00 0.  1.
         13    1    3    3    0    0 -0.22788446696E+02  0.12458799776E+01  0.65371266176E+01  0.23740251561E+02  0.00000000000E+00 0. -1.
         -2    1    1    2    0  502 -0.74461738117E+02 -0.28973445274E+02  0.22885963331E+02  0.83113045258E+02  0.00000000000E+00 0.  1.
<scales pt_clust_5="13000.00000" pt_clust_6="13000.00000" pt_clust_7="13000.00000" pt_clust_8="13000.00000" pt_clust_9="13000.00000"></scales>
<clustering>
<clus scale="   89.906">  5  6 -1 -1</clus>
<clus scale="   79.900">  5  9 -1 -1</clus>
<clus scale="   91.611">  7  8 -1 -1</clus>
<clus scale="  152.484">  2  7  1 -1</clus>
<clus scale="  212.376">  1  5  2 -1</clus>
</clustering>
</event>
<event>
 9    1  0.3303741E-006  0.1584401E+03  0.7546771E-02  0.1216206E+00
         -1   -1    0    0    0  501 -0.00000000000E+00  0.00000000000E+00  0.44514620780E+03  0.44514620780E+03  0.00000000000E+00 0.  1.
         21   -1    0    0  501  502  0.00000000000E+00 -0.00000000000E+00 -0.37533171743E+02  0.37533171743E+02  0.00000000000E+00 0.  1.
         23    2    1    2    0    0 -0.12108192830E+02  0.20145589252E+02  0.21403173926E+03  0.23252544801E+03  0.87784084324E+02 0.  0.
         23    2    1    2    0    0 -0.16263566537E+02  0.30549137236E+02  0.14352308788E+03  0.17346797256E+03  0.91074186072E+02 0.  0.
        -11    1    4    4    0    0  0.54492298237E+00 -0.21050463885E+02  0.10456430471E+03  0.10666354949E+03  0.00000000000E+00 0. -1.
         11    1    4    4    0    0 -0.16808489519E+02  0.51599601121E+02  0.38958783167E+02  0.66804423069E+02  0.00000000000E+00 0.  1.
        -13    1    3    3    0    0  0.12134931284E+02 -0.30388369424E+02  0.56130748359E+02  0.64972074500E+02  0.00000000000E+00 0. -1.
         13    1    3    3    0    0 -0.24243124114E+02  0.50533958676E+02  0.15790099091E+03  0.16755337351E+03  0.00000000000E+00 0.  1.
         -1    1    1    2    0  502  0.28371759367E+02 -0.50694726488E+02  0.50058208918E+02  0.76685958972E+02  0.00000000000E+00 0.  1.
<scales pt_clust_5="13000.00000" pt_clust_6="13000.00000" pt_clust_7="13000.00000" pt_clust_8="13000.00000" pt_clust_9="13000.00000"></scales>
<clustering>
<clus scale="   87.784">  7  8 -1 -1</clus>
<clus scale="   90.876">  1  7  2 -1</clus>
<clus scale="   91.074">  5  6 -1 -1</clus>
<clus scale="   51.384">  5  9 -1 -1</clus>
<clus scale="  158.440">  2  5  1 -1</clus>
</clustering>
</event>
<event>
 9    1  0.3303741E-006  0.5224952E+03  0.7546771E-02  0.1036382E+00
         21   -1    0    0  501  502  0.00000000000E+00  0.00000000000E+00  0.37301976956E+03  0.37301976956E+03  0.00000000000E+00 0. -1.
          2   -1    0    0  502    0 -0.00000000000E+00 -0.00000000000E+00 -0.37464827874E+03  0.37464827874E+03  0.00000000000E+00 0. -1.
         23    2    1    2    0    0  0.19950138009E+03 -0.39794695455E+02  0.28073544674E+02  0.22432929608E+03  0.90283391206E+02 0.  0.
         23    2    1    2    0    0 -0.11439318832E+03  0.21437401163E+01 -0.24321806596E+03  0.29042227326E+03  0.10999850924E+03 0.  0.
        -13    1    3    3    0    0  0.14056119308E+03 -0.17383050296E+02  0.59801722961E+02  0.15373960292E+03  0.00000000000E+00 0.  1.
         13    1    3    3    0    0  0.58940187007E+02 -0.22411645159E+02 -0.31728178287E+02  0.70589693161E+02  0.00000000000E+00 0. -1.
        -13    1    4    4    0    0  0.67672103852E+00 -0.29204902759E+02 -0.99310900735E+02  0.10351830418E+03  0.00000000000E+00 0.  1.
         13    1    4    4    0    0 -0.11506990936E+03  0.31348642875E+02 -0.14390716523E+03  0.18690396907E+03  0.00000000000E+00 0. -1.
          2    1    1    2  501    0 -0.85108191767E+02  0.37650955338E+02  0.21351601211E+03  0.23291647896E+03  0.00000000000E+00 0. -1.
<scales pt_clust_5="13000.00000" pt_clust_6="13000.00000" pt_clust_7="13000.00000" pt_clust_8="13000.00000" pt_clust_9="13000.00000"></scales>
<clustering>
<clus scale="   90.283">  5  6 -1 -1</clus>
<clus scale="  109.999">  7  8 -1 -1</clus>
<clus scale="   93.065">  7  9 -1 -1</clus>
<clus scale="  222.566">  2  5  1 -1</clus>
<clus scale="  522.495">  1  5  2 -1</clus>
</clustering>
</event>
<event>
 9    1  0.3661066E-006  0.8298121E+03  0.7546771E-02  0.1018357E+00
         21   -1    0    0  501  502  0.00000000000E+00  0.00000000000E+00  0.10174922395E+04  0.10174922395E+04  0.00000000000E+00 0.  1.
         -2   -1    0    0    0  501 -0.00000000000E+00 -0.00000000000E+00 -0.22313400246E+03  0.22313400246E+03  0.00000000000E+00 0.  1.
         23    2    1    2    0    0  0.43635569991E+01  0.16845235064E+02  0.48580914862E+01  0.95244810020E+02  0.93515614786E+02 0.  0.
         23    2    1    2    0    0 -0.14192949674E+02  0.11544216532E+03 -0.13556000811E+03  0.21085863330E+03  0.11205585252E+03 0.  0.
        -11    1    4    4    0    0  0.61541508760E+01 -0.21307411857E+02 -0.10947750018E+02  0.24733228732E+02  0.00000000000E+00 0. -1.
         11    1    4    4    0    0 -0.20347100550E+02  0.13674957717E+03 -0.12461225810E+03  0.18612540457E+03  0.00000000000E+00 0.  1.
        -13    1    3    3    0    0  0.30480003476E+02 -0.24436184026E+02 -0.15887530768E+02  0.42173111523E+02  0.00000000000E+00 0. -1.
         13    1    3    3    0    0 -0.26116446477E+02  0.41281419089E+02  0.20745622254E+02  0.53071698497E+02  0.00000000000E+00 0.  1.
         -2    1    1    2    0  502  0.98293926752E+01 -0.13228740038E+03  0.92506015366E+03  0.93452279862E+03  0.00000000000E+00 0.  1.
<scales pt_clust_5="13000.00000" pt_clust_6="13000.00000" pt_clust_7="13000.00000" pt_clust_8="13000.00000" pt_clust_9="13000.00000"></scales>
<clustering>
<clus scale="   93.516">  7  8 -1 -1</clus>
<clus scale="   95.121">  2  7  1 -1</clus>
<clus scale="  112.056">  5  6 -1 -1</clus>
<clus scale="  132.214">  5  9 -1 -1</clus>
<clus scale="  829.812">  1  5  2 -1</clus>
</clustering>
</event>
<event>
 9    1  0.3303741E-006  0.1686015E+03  0.7546771E-02  0.1205057E+00
         21   -1    0    0  501  502  0.00000000000E+00  0.00000000000E+00  0.32706477199E+02  0.32706477199E+02  0.00000000000E+00 0. -1.
          2   -1    0    0  502    0 -0.00000000000E+00 -0.00000000000E+00 -0.54273413327E+03  0.54273413327E+03  0.00000000000E+00 0. -1.
         23    2    1    2    0    0  0.66286685178E+01 -0.50858346416E+02 -0.22128161432E+03  0.24107444404E+03  0.80751619714E+02 0.  0.
         23    2    1    2    0    0  0.34986820278E+02  0.24620913164E+02 -0.25713688373E+03  0.27589061015E+03  0.90365838889E+02 0.  0.
        -13    1    4    4    0    0  0.60657902393E+02  0.30107855802E+02 -0.13581965527E+03  0.15176574997E+03  0.00000000000E+00 0. -1.
         13    1    4    4    0    0 -0.25671082115E+02 -0.54869426385E+01 -0.12131722845E+03  0.12412486019E+03  0.00000000000E+00 0.  1.
        -13    1    3    3    0    0 -0.28461388647E+02 -0.57733066130E+01 -0.31339910180E+02  0.42726709246E+02  0.00000000000E+00 0.  1.
         13    1    3    3    0    0  0.35090057165E+02 -0.45085039803E+02 -0.18994170414E+03  0.19834773479E+03  0.00000000000E+00 0. -1.
          2    1    1    2  501    0 -0.41615488796E+02  0.26237433252E+02 -0.31609158028E+02  0.58475556283E+02  0.00000000000E+00 0. -1.
<scales pt_clust_5="13000.00000" pt_clust_6="13000.00000" pt_clust_7="13000.00000" pt_clust_8="13000.00000" pt_clust_9="13000.00000"></scales>
<clustering>
<clus scale="   80.752">  7  8 -1 -1</clus>
<clus scale="   90.366">  5  6 -1 -1</clus>
<clus scale="   49.196">  5  9 -1 -1</clus>
<clus scale="   95.663">  2  7  1 -1</clus>
<clus scale="  168.601">  1  5  2 -1</clus>
</clustering>
</event>
<event>
 9    1  0.3303741E-006  0.2026001E+03  0.7546771E-02  0.1178429E+00
         21   -1    0    0  501  502  0.00000000000E+00  0.00000000000E+00  0.33985325110E+02  0.33985325110E+02  0.00000000000E+00 0. -1.
          2   -1    0    0  502    0 -0.00000000000E+00 -0.00000000000E+00 -0.75593394946E+03  0.75593394946E+03  0.00000000000E+00 0. -1.
         23    2    1    2    0    0 -0.11733467531E+02 -0.35694215452E+02 -0.37757250757E+03  0.39036739319E+03  0.91727596248E+02 0.  0.
         23    2    1    2    0    0  0.40361233279E+02 -0.46857365714E+02 -0.18974771984E+03  0.22194486107E+03  0.97111700102E+02 0.  0.
        -13    1    4    4    0    0  0.62183169383E+02 -0.35354096687E+02 -0.71450775258E+02  0.10110327389E+03  0.00000000000E+00 0. -1.
         13    1    4    4    0    0 -0.21821936103E+02 -0.11503269027E+02 -0.11829694458E+03  0.12084158717E+03  0.00000000000E+00 0.  1.
        -13    1    3    3    0    0  0.37722113707E+02 -0.20173596310E+02 -0.23030516848E+03  0.23424432219E+03  0.00000000000E+00 0.  1.
         13    1    3    3    0    0 -0.49455581238E+02 -0.15520619142E+02 -0.14726733910E+03  0.15612307100E+03  0.00000000000E+00 0. -1.
          2    1    1    2  501    0 -0.28627765748E+02  0.82551581166E+02 -0.15462839694E+03  0.17760702032E+03  0.00000000000E+00 0. -1.
<scales pt_clust_5="13000.00000" pt_clust_6="13000.00000" pt_clust_7="13000.00000" pt_clust_8="13000.00000" pt_clust_9="13000.00000"></scales>
<clustering>
<clus scale="   91.728">  7  8 -1 -1</clus>
<clus scale="   97.112">  5  6 -1 -1</clus>
<clus scale="   87.375">  5  9 -1 -1</clus>
<clus scale="   99.125">  2  7  1 -1</clus>
<clus scale="  202.600">  1  5  2 -1</clus>
</clustering>
</event>
<event>
 9    1  0.3303741E-006  0.2360662E+03  0.7546771E-02  0.1146400E+00
         21   -1    0    0  501  502  0.00000000000E+00  0.00000000000E+00  0.22153913444E+03  0.22153913444E+03  0.00000000000E+00 0.  1.
          1   -1    0    0  502    0 -0.00000000000E+00 -0.00000000000E+00 -0.19069087417E+03  0.19069087417E+03  0.00000000000E+00 0. -1.
         23    2    1    2    0    0 -0.31540311301E+02  0.90332729824E+02 -0.77175504005E+02  0.15262183981E+03  0.90457582617E+02 0.  0.
         23    2    1    2    0    0  0.86199985678E+02 -0.87579698489E+02  0.18347934501E+02  0.15455097662E+03  0.91916900269E+02 0.  0.
        -13    1    3    3    0    0  0.14473773772E+02  0.45162736519E+02  0.55351552913E+01  0.47747260038E+02  0.00000000000E+00 0.  1.
         13    1    3    3    0    0 -0.46014085073E+02  0.45169993306E+02 -0.82710659296E+02  0.10487457977E+03  0.00000000000E+00 0. -1.
        -13    1    4    4    0    0  0.48743567020E+02 -0.99980365267E+02  0.26312326486E+02  0.11429937572E+03  0.00000000000E+00 0.  1.
         13    1    4    4    0    0  0.37456418658E+02  0.12400666779E+02 -0.79643919843E+01  0.40251600899E+02  0.00000000000E+00 0. -1.
          1    1    1    2  501    0 -0.54659674377E+02 -0.27530313357E+01  0.89675829768E+02  0.10505719218E+03  0.00000000000E+00 0. -1.
<scales pt_clust_5="13000.00000" pt_clust_6="13000.00000" pt_clust_7="13000.00000" pt_clust_8="13000.00000" pt_clust_9="13000.00000"></scales>
<clustering>
<clus scale="   90.458">  5  6 -1 -1</clus>
<clus scale="   91.917">  7  8 -1 -1</clus>
<clus scale="   54.729">  7  9 -1 -1</clus>
<clus scale="  131.671">  2  5  1 -1</clus>
<clus scale="  236.066">  1  5  2 -1</clus>
</clustering>
</event>
<event>
 9    1  0.3303741E-006  0.4239814E+03  0.7546771E-02  0.1084833E+00
         21   -1    0    0  501  502  0.00000000000E+00  0.00000000000E+00  0.25406599117E+03  0.25406599117E+03  0.00000000000E+00 0.  1.
         -3   -1    0    0    0  501 -0.00000000000E+00 -0.00000000000E+00 -0.29756243085E+03  0.29756243085E+03  0.00000000000E+00 0.  1.
         23    2    1    2    0    0  0.26178359164E+02 -0.49169216249E+02 -0.67640642884E+02  0.12696007386E+03  0.91873203223E+02 0.  0.
         23    2    1    2    0    0 -0.38493994572E+02 -0.85195658463E+01 -0.18354568624E+03  0.20876383077E+03  0.91317837686E+02 0.  0.
        -11    1    4    4    0    0  0.19148763268E+02 -0.28773407846E+02 -0.95784958456E+02  0.10182996809E+03  0.00000000000E+00 0.  1.
         11    1    4    4    0    0 -0.57642757840E+02  0.20253842000E+02 -0.87760727780E+02  0.10693386268E+03  0.00000000000E+00 0. -1.
        -13    1    3    3    0    0  0.19800718699E+02  0.23213386076E+02 -0.47865569193E+01  0.30884314486E+02  0.00000000000E+00 0. -1.
         13    1    3    3    0    0  0.63776404650E+01 -0.72382602326E+02 -0.62854085965E+02  0.96075759377E+02  0.00000000000E+00 0.  1.
         -3    1    1    2    0  502  0.12315635408E+02  0.57688782096E+02  0.20768988944E+03  0.21590451740E+03  0.00000000000E+00 0.  1.
<scales pt_clust_5="13000.00000" pt_clust_6="13000.00000" pt_clust_7="13000.00000" pt_clust_8="13000.00000" pt_clust_9="13000.00000"></scales>
<clustering>
<clus scale="   91.318">  5  6 -1 -1</clus>
<clus scale="   58.989">  5  9 -1 -1</clus>
<clus scale="   91.873">  7  8 -1 -1</clus>
<clus scale="  107.441">  2  7  1 -1</clus>
<clus scale="  423.981">  1  5  2 -1</clus>
</clustering>
</event>
<event>
 9    1  0.3303741E-006  0.1816206E+03  0.7546771E-02  0.1194847E+00
         -4   -1    0    0    0  501 -0.00000000000E+00  0.00000000000E+00  0.61476048511E+02  0.61476048511E+02  0.00000000000E+00 0.  1.
         21   -1    0    0  501  502  0.00000000000E+00 -0.00000000000E+00 -0.31333871953E+03  0.31333871953E+03  0.00000000000E+00 0. -1.
         23    2    1    2    0    0 -0.56983240933E+01  0.23589794165E+02 -0.77037845932E+02  0.12272401614E+03  0.92398079770E+02 0.  0.
         23    2    1    2    0    0 -0.17490617581E+02 -0.67479245471E+01 -0.20835445047E+02  0.95457087727E+02  0.91249567878E+02 0.  0.
        -13    1    3    3    0    0  0.10308561234E+02 -0.17267183207E+02 -0.76227768230E+02  0.78835871911E+02  0.00000000000E+00 0.  1.
         13    1    3    3    0    0 -0.16006885327E+02  0.40856977372E+02 -0.81007770122E+00  0.43888144227E+02  0.00000000000E+00 0. -1.
        -13    1    4    4    0    0 -0.48892823077E+02 -0.26697191692E+02 -0.15875648985E+02  0.57924816990E+02  0.00000000000E+00 0.  1.
         13    1    4    4    0    0  0.31402205496E+02  0.19949267145E+02 -0.49597960626E+01  0.37532270736E+02  0.00000000000E+00 0. -1.
         -4    1    1    2    0  502  0.23188941674E+02 -0.16841869618E+02 -0.15398938004E+03  0.15663366418E+03  0.00000000000E+00 0.  1.
<scales pt_clust_5="13000.00000" pt_clust_6="13000.00000" pt_clust_7="13000.00000" pt_clust_8="13000.00000" pt_clust_9="13000.00000"></scales>
<clustering>
<clus scale="   91.250">  7  8 -1 -1</clus>
<clus scale="   28.660">  7  9 -1 -1</clus>
<clus scale="   92.398">  5  6 -1 -1</clus>
<clus scale="   95.532">  1  5  2 -1</clus>
<clus scale="  181.621">  2  5  1 -1</clus>
</clustering>
</event>
<event>
 9    1  0.3303741E-006  0.2383147E+03  0.7546771E-02  0.1143799E+00
         -3   -1    0    0    0  501 -0.00000000000E+00  0.00000000000E+00  0.34293655639E+03  0.34293655639E+03  0.00000000000E+00 0.  1.
         21   -1    0    0  501  502  0.00000000000E+00 -0.00000000000E+00 -0.11192184373E+03  0.11192184373E+03  0.00000000000E+00 0.  1.
         23    2    1    2    0    0  0.56963492154E+02  0.84276172916E+02  0.15129663108E+03  0.20356402195E+03  0.90555660764E+02 0.  0.
         23    2    1    2    0    0 -0.60824545508E+02  0.37885418930E+02  0.48227891166E+02  0.12508029675E+03  0.90466683619E+02 0.  0.
        -11    1    3    3    0    0  0.30965687028E+02  0.81821798581E+02  0.15420092466E+03  0.17728960957E+03  0.00000000000E+00 0.  1.
         11    1    3    3    0    0  0.25997805126E+02  0.24543743344E+01 -0.29042935769E+01  0.26274412380E+02  0.00000000000E+00 0. -1.
        -13    1    4    4    0    0 -0.22817238586E+02 -0.16033633377E+02 -0.16711917253E+02  0.32511412676E+02  0.00000000000E+00 0. -1.
         13    1    4    4    0    0 -0.38007306922E+02  0.53919052307E+02  0.64939808418E+02  0.92568884074E+02  0.00000000000E+00 0.  1.
         -3    1    1    2    0  502  0.38610533546E+01 -0.12216159185E+03  0.31490190412E+02  0.12621408142E+03  0.00000000000E+00 0.  1.
<scales pt_clust_5="13000.00000" pt_clust_6="13000.00000" pt_clust_7="13000.00000" pt_clust_8="13000.00000" pt_clust_9="13000.00000"></scales>
<clustering>
<clus scale="   90.467">  7  8 -1 -1</clus>
<clus scale="   90.556">  5  6 -1 -1</clus>
<clus scale="  122.223">  7  9 -1 -1</clus>
<clus scale="  136.190">  1  5  2 -1</clus>
<clus scale="  238.315">  2  5  1 -1</clus>
</clustering>
</event>
<event>
 9    1  0.3303741E-006  0.2487062E+03  0.7546771E-02  0.1140406E+00
          1   -1    0    0  502    0 -0.00000000000E+00  0.00000000000E+00  0.36591961743E+03  0.36591961743E+03  0.00000000000E+00 0. -1.
         21   -1    0    0  501  502  0.00000000000E+00 -0.00000000000E+00 -0.14381419035E+03  0.14381419035E+03  0.00000000000E+00 0. -1.
         23    2    1    2    0    0  0.40525606711E+02  0.85350287094E+02  0.22631053805E+03  0.26099206597E+03  0.89293911107E+02 0.  0.
         23    2    1    2    0    0 -0.90577939425E+02 -0.89927033401E+02  0.60027169199E+02  0.16718214131E+03  0.89751729148E+02 0.  0.
        -11    1    3    3    0    0  0.15339188881E+02  0.98363497854E+02  0.19367366241E+03  0.21776169529E+03  0.00000000000E+00 0. -1.
         11    1    3    3    0    0  0.25186417830E+02 -0.13013210760E+02  0.32636875641E+02  0.43230370679E+02  0.00000000000E+00 0.  1.
        -13    1    4    4    0    0 -0.33921195864E+02  0.64160529680E+01  0.41346672484E+02  0.53864279351E+02  0.00000000000E+00 0.  1.
         13    1    4    4    0    0 -0.56656743561E+02 -0.96343086369E+02  0.18680496715E+02  0.11331786196E+03  0.00000000000E+00 0. -1.
          1    1    1    2  501    0  0.50052332713E+02  0.45767463077E+01 -0.64232280168E+02  0.81559600492E+02  0.00000000000E+00 0. -1.
<scales pt_clust_5="13000.00000" pt_clust_6="13000.00000" pt_clust_7="13000.00000" pt_clust_8="13000.00000" pt_clust_9="13000.00000"></scales>
<clustering>
<clus scale="   89.294">  5  6 -1 -1</clus>
<clus scale="   89.752">  7  8 -1 -1</clus>
<clus scale="   50.261">  7  9 -1 -1</clus>
<clus scale="  130.002">  1  5  2 -1</clus>
<clus scale="  248.706">  2  5  1 -1</clus>
</clustering>
</event>
<event>
 9    1  0.3303741E-006  0.1798331E+03  0.7546771E-02  0.1197211E+00
         -1   -1    0    0    0  501 -0.00000000000E+00  0.00000000000E+00  0.20355050577E+03  0.20355050577E+03  0.00000000000E+00 0.  1.
         21   -1    0    0  501  502  0.00000000000E+00 -0.00000000000E+00 -0.17329346050E+03  0.17329346050E+03  0.00000000000E+00 0.  1.
         23    2    1    2    0    0  0.20276015401E+02  0.17105589398E+01  0.13840218934E+03  0.16699804359E+03  0.91209307290E+02 0.  0.
         23    2    1    2    0    0 -0.56518102818E+01 -0.64020045442E+02 -0.46677738007E+02  0.12110708399E+03  0.91419939775E+02 0.  0.
        -11    1    3    3    0    0  0.27798601376E+02 -0.40372152178E+02  0.89505875006E+02  0.10204888324E+03  0.00000000000E+00 0.  1.
         11    1    3    3    0    0 -0.75225859750E+01  0.42082711117E+02  0.48896314338E+02  0.64949160353E+02  0.00000000000E+00 0. -1.
        -11    1    4    4    0    0  0.23266421856E+02 -0.26972532967E+02  0.18980295033E+02  0.40362055450E+02  0.00000000000E+00 0.  1.
         11    1    4    4    0    0 -0.28918232138E+02 -0.37047512476E+02 -0.65658033041E+02  0.80745028537E+02  0.00000000000E+00 0. -1.
         -1    1    1    2    0  502 -0.14624205119E+02  0.62309486502E+02 -0.61467406062E+02  0.88738838687E+02  0.00000000000E+00 0.  1.
<scales pt_clust_5="13000.00000" pt_clust_6="13000.00000" pt_clust_7="13000.00000" pt_clust_8="13000.00000" pt_clust_9="13000.00000"></scales>
<clustering>
<clus scale="   91.209">  5  6 -1 -1</clus>
<clus scale="   91.420">  7  8 -1 -1</clus>
<clus scale="   64.003">  7  9 -1 -1</clus>
<clus scale="   93.451">  1  5  2 -1</clus>
<clus scale="  179.833">  2  5  1 -1</clus>
</clustering>
</event>
<event>
 9    1  0.3303741E-006  0.1214226E+03  0.7546771E-02  0.1255955E+00
         21   -1    0    0  501  502  0.00000000000E+00  0.00000000000E+00  0.32019935634E+02  0.32019935634E+02  0.00000000000E+00 0. -1.
          2   -1    0    0  502    0 -0.00000000000E+00 -0.00000000000E+00 -0.35609623447E+03  0.35609623447E+03  0.00000000000E+00 0. -1.
         23    2    1    2    0    0  0.94808308129E+01  0.94758474741E+01 -0.16781879393E+03  0.19022769083E+03  0.88564941844E+02 0.  0.
         23    2    1    2    0    0 -0.45865632068E+01 -0.29364381092E+02 -0.12282629765E+03  0.15868193335E+03  0.95970584753E+02 0.  0.
        -11    1    3    3    0    0  0.35842349684E+02  0.25305068247E+02 -0.42111973570E+02  0.60814791193E+02  0.00000000000E+00 0.  1.
         11    1    3    3    0    0 -0.26361518871E+02 -0.15829220773E+02 -0.12570682036E+03  0.12941289963E+03  0.00000000000E+00 0. -1.
        -13    1    4    4    0    0  0.24932932612E+02 -0.47399338637E+02 -0.10896480539E+03  0.12141530894E+03  0.00000000000E+00 0. -1.
         13    1    4    4    0    0 -0.29519495818E+02  0.18034957545E+02 -0.13861492262E+02  0.37266624407E+02  0.00000000000E+00 0.  1.
          2    1    1    2  501    0 -0.48942676061E+01  0.19888533618E+02 -0.33431207257E+02  0.39206545927E+02  0.00000000000E+00 0. -1.
<scales pt_clust_5="13000.00000" pt_clust_6="13000.00000" pt_clust_7="13000.00000" pt_clust_8="13000.00000" pt_clust_9="13000.00000"></scales>
<clustering>
<clus scale="   88.565">  5  6 -1 -1</clus>
<clus scale="   89.574">  2  5  1 -1</clus>
<clus scale="   95.971">  7  8 -1 -1</clus>
<clus scale="   22.030">  7  9 -1 -1</clus>
<clus scale="  121.423">  1  5  2 -1</clus>
</clustering>
</event>
<event>
 9    1  0.3303741E-006  0.1871255E+03  0.7546771E-02  0.1182777E+00
          2   -1    0    0  502    0 -0.00000000000E+00  0.00000000000E+00  0.20458108138E+03  0.20458108138E+03  0.00000000000E+00 0. -1.
         21   -1    0    0  501  502  0.00000000000E+00 -0.00000000000E+00 -0.34420312575E+03  0.34420312575E+03  0.00000000000E+00 0.  1.
         23    2    1    2    0    0  0.66081519442E+02 -0.17799992204E+02  0.15940420943E+03  0.19603405323E+03  0.91301922798E+02 0.  0.
         23    2    1    2    0    0  0.10241533486E+02  0.40657507843E+02 -0.21113339723E+03  0.23412120016E+03  0.92073356560E+02 0.  0.
        -11    1    3    3    0    0  0.14630673723E+02  0.32606218301E+02  0.86301432539E+02  0.93408561406E+02  0.00000000000E+00 0.  1.
         11    1    3    3    0    0  0.51450845719E+02 -0.50406210505E+02  0.73102776894E+02  0.10262549182E+03  0.00000000000E+00 0. -1.
        -11    1    4    4    0    0 -0.30379723343E+02  0.42443475554E+02 -0.16278362333E+03  0.17094702171E+03  0.00000000000E+00 0.  1.
         11    1    4    4    0    0  0.40621256829E+02 -0.17859677115E+01 -0.48349773899E+02  0.63174178452E+02  0.00000000000E+00 0. -1.
          2    1    1    2  501    0 -0.76323052928E+02 -0.22857515639E+02 -0.87892856573E+02  0.11862895374E+03  0.00000000000E+00 0. -1.
<scales pt_clust_5="13000.00000" pt_clust_6="13000.00000" pt_clust_7="13000.00000" pt_clust_8="13000.00000" pt_clust_9="13000.00000"></scales>
<clustering>
<clus scale="   91.302">  5  6 -1 -1</clus>
<clus scale="   92.073">  7  8 -1 -1</clus>
<clus scale="   79.672">  7  9 -1 -1</clus>
<clus scale="  114.104">  1  5  2 -1</clus>
<clus scale="  187.126">  2  5  1 -1</clus>
</clustering>
</event>
<event>
 9    1  0.3303741E-006  0.3019619E+03  0.7546771E-02  0.1123512E+00
          1   -1    0    0  502    0 -0.00000000000E+00  0.00000000000E+00  0.70421171565E+03  0.70421171565E+03  0.00000000000E+00 0. -1.
         21   -1    0    0  501  502  0.00000000000E+00 -0.00000000000E+00 -0.60688502389E+02  0.60688502389E+02  0.00000000000E+00 0. -1.
         23    2    1    2    0    0 -0.57559238496E+02  0.17271784582E+02  0.20326478765E+03  0.23103839689E+03  0.91928159220E+02 0.  0.
         23    2    1    2    0    0  0.13439322319E+03  0.42579474590E+02  0.14321575329E+03  0.22125986402E+03  0.92577671921E+02 0.  0.
        -13    1    3    3    0    0 -0.42131967080E+02  0.44176397260E+02  0.64332896029E+02  0.88686967681E+02  0.00000000000E+00 0. -1.
         13    1    3    3    0    0 -0.15427271416E+02 -0.26904612679E+02  0.13893189163E+03  0.14235142921E+03  0.00000000000E+00 0.  1.
        -13    1    4    4    0    0  0.56420102193E+02 -0.84086395438E+00  0.11425844208E+03  0.12743204688E+03  0.00000000000E+00 0.  1.
         13    1    4    4    0    0  0.77973120995E+02  0.43420338544E+02  0.28957311209E+02  0.93827817141E+02  0.00000000000E+00 0. -1.
          1    1    1    2  501    0 -0.76833984692E+02 -0.59851259171E+02  0.29704267231E+03  0.31260195713E+03  0.00000000000E+00 0. -1.
<scales pt_clust_5="13000.00000" pt_clust_6="13000.00000" pt_clust_7="13000.00000" pt_clust_8="13000.00000" pt_clust_9="13000.00000"></scales>
<clustering>
<clus scale="   91.928">  5  6 -1 -1</clus>
<clus scale="   92.578">  7  8 -1 -1</clus>
<clus scale="   97.394">  7  9 -1 -1</clus>
<clus scale="  109.828">  1  5  2 -1</clus>
<clus scale="  301.962">  2  5  1 -1</clus>
</clustering>
</event>
<event>
 9    1  0.3303741E-006  0.3774983E+03  0.7546771E-02  0.1083946E+00
         21   -1    0    0  501  502  0.00000000000E+00  0.00000000000E+00  0.15739788791E+03  0.15739788791E+03  0.00000000000E+00 0. -1.
          1   -1    0    0  502    0 -0.00000000000E+00 -0.00000000000E+00 -0.52575814772E+03  0.52575814772E+03  0.00000000000E+00 0. -1.
         23    2    1    2    0    0  0.10297426498E+03  0.70008213695E+02 -0.21612326473E+00  0.15586575763E+03  0.93750938437E+02 0.  0.
         23    2    1    2    0    0 -0.18747730436E+03 -0.17098701098E+02 -0.37267392978E+03  0.42748697539E+03  0.91755931473E+02 0.  0.
        -11    1    3    3    0    0  0.35152158277E+02  0.79388955247E+02 -0.67596218710E+01  0.87086008834E+02  0.00000000000E+00 0. -1.
         11    1    3    3    0    0  0.67822106704E+02 -0.93807415525E+01  0.65434986063E+01  0.68779748792E+02  0.00000000000E+00 0.  1.
        -13    1    4    4    0    0 -0.10282047283E+03 -0.55015849525E+02 -0.20283419215E+03  0.23396688406E+03  0.00000000000E+00 0. -1.
         13    1    4    4    0    0 -0.84656831529E+02  0.37917148427E+02 -0.16983973763E+03  0.19352009133E+03  0.00000000000E+00 0.  1.
          1    1    1    2  501    0  0.84503039378E+02 -0.52909512597E+02  0.45297932387E+01  0.99803302621E+02  0.00000000000E+00 0. -1.
<scales pt_clust_5="13000.00000" pt_clust_6="13000.00000" pt_clust_7="13000.00000" pt_clust_8="13000.00000" pt_clust_9="13000.00000"></scales>
<clustering>
<clus scale="   91.756">  7  8 -1 -1</clus>
<clus scale="   93.751">  5  6 -1 -1</clus>
<clus scale="   99.701">  7  9 -1 -1</clus>
<clus scale="  155.866">  2  5  1 -1</clus>
<clus scale="  377.498">  1  5  2 -1</clus>
</clustering>
</event>
<event>
 9    1  0.3303741E-006  0.1774721E+03  0.7546771E-02  0.1186210E+00
          1   -1    0    0  502    0 -0.00000000000E+00  0.00000000000E+00  0.35344631750E+03  0.35344631750E+03  0.00000000000E+00 0. -1.
         21   -1    0    0  501  502  0.00000000000E+00 -0.00000000000E+00 -0.71604710636E+02  0.71604710636E+02  0.00000000000E+00 0.  1.
         23    2    1    2    0    0 -0.53495814033E+02  0.55426797752E+02  0.18562495352E+03  0.22317484738E+03  0.97038431060E+02 0.  0.
         23    2    1    2    0    0  0.32794026104E+02 -0.71396476666E+02  0.11744634241E+03  0.16819689386E+03  0.91234021767E+02 0.  0.
        -11    1    3    3    0    0 -0.36387166015E+02 -0.23281007697E+02  0.59577733370E+02  0.73590335531E+02  0.00000000000E+00 0.  1.
         11    1    3    3    0    0 -0.17108648018E+02  0.78707805449E+02  0.12604722015E+03  0.14958451184E+03  0.00000000000E+00 0. -1.
        -13    1    4    4    0    0  0.23077400873E+02  0.72581587578E-01  0.86824567913E+02  0.89839174598E+02  0.00000000000E+00 0. -1.
         13    1    4    4    0    0  0.97166252310E+01 -0.71469058254E+02  0.30621774500E+02  0.78357719257E+02  0.00000000000E+00 0.  1.
          1    1    1    2  501    0  0.20701787929E+02  0.15969678914E+02 -0.21229689074E+02  0.33679286903E+02  0.00000000000E+00 0. -1.
<scales pt_clust_5="13000.00000" pt_clust_6="13000.00000" pt_clust_7="13000.00000" pt_clust_8="13000.00000" pt_clust_9="13000.00000"></scales>
<clustering>
<clus scale="   91.234">  7  8 -1 -1</clus>
<clus scale="   26.146">  7  9 -1 -1</clus>
<clus scale="   97.038">  5  6 -1 -1</clus>
<clus scale="  123.897">  1  5  2 -1</clus>
<clus scale="  177.472">  2  5  1 -1</clus>
</clustering>
</event>
<event>
 9    1  0.3303741E-006  0.2230298E+03  0.7546771E-02  0.1168073E+00
         -4   -1    0    0    0  501 -0.00000000000E+00  0.00000000000E+00  0.86843443296E+02  0.86843443296E+02  0.00000000000E+00 0.  1.
         21   -1    0    0  501  502  0.00000000000E+00 -0.00000000000E+00 -0.33409736117E+03  0.33409736117E+03  0.00000000000E+00 0. -1.
         23    2    1    2    0    0 -0.14197116408E+02  0.21223263332E+02 -0.15130583350E+03  0.17814803987E+03  0.90505711638E+02 0.  0.
         23    2    1    2    0    0 -0.19790140419E+02 -0.11952863086E+02  0.40032462048E+02  0.10232289967E+03  0.91284484906E+02 0.  0.
        -11    1    3    3    0    0 -0.14277853189E+02 -0.24453270423E+02 -0.10635688878E+02  0.30247932226E+02  0.00000000000E+00 0.  1.
         11    1    3    3    0    0  0.80736781252E-01  0.45676533755E+02 -0.14067014462E+03  0.14790010765E+03  0.00000000000E+00 0. -1.
        -11    1    4    4    0    0  0.26924978321E+02  0.96329682132E+01  0.42015302181E+02  0.50823559021E+02  0.00000000000E+00 0. -1.
         11    1    4    4    0    0 -0.46715118740E+02 -0.21585831299E+02 -0.19828401331E+01  0.51499340644E+02  0.00000000000E+00 0.  1.
         -4    1    1    2    0  502  0.33987256827E+02 -0.92704002463E+01 -0.13598054642E+03  0.14046986493E+03  0.00000000000E+00 0.  1.
<scales pt_clust_5="13000.00000" pt_clust_6="13000.00000" pt_clust_7="13000.00000" pt_clust_8="13000.00000" pt_clust_9="13000.00000"></scales>
<clustering>
<clus scale="   90.506">  5  6 -1 -1</clus>
<clus scale="   91.284">  7  8 -1 -1</clus>
<clus scale="   35.229">  7  9 -1 -1</clus>
<clus scale="   94.039">  1  5  2 -1</clus>
<clus scale="  223.030">  2  5  1 -1</clus>
</clustering>
</event>
<event>
 9    1  0.3303741E-006  0.2346540E+03  0.7546771E-02  0.1147237E+00
         21   -1    0    0  501  502  0.00000000000E+00  0.00000000000E+00  0.10199818490E+03  0.10199818490E+03  0.00000000000E+00 0.  1.
          2   -1    0    0  502    0 -0.00000000000E+00 -0.00000000000E+00 -0.67888459003E+03  0.67888459003E+03  0.00000000000E+00 0. -1.
         23    2    1    2    0    0 -0.80819138827E+02  0.48750431490E+02 -0.52415309344E+03  0.54037644319E+03  0.91443409954E+02 0.  0.
         23    2    1    2    0    0  0.13452117725E+03 -0.25664701651E+02 -0.70859266846E+02  0.17930657599E+03  0.91516055724E+02 0.  0.
        -11    1    3    3    0    0 -0.88203204031E+02  0.76341280600E+01 -0.32180018588E+03  0.33375656510E+03  0.00000000000E+00 0.  1.
         11    1    3    3    0    0  0.73840652042E+01  0.41116303430E+02 -0.20235290756E+03  0.20661987809E+03  0.00000000000E+00 0. -1.
        -13    1    4    4    0    0  0.10980345016E+03  0.31854255334E+01 -0.13738087230E+02  0.11070537314E+03  0.00000000000E+00 0.  1.
         13    1    4    4    0    0  0.24717727096E+02 -0.28850127184E+02 -0.57121179616E+02  0.68601202847E+02  0.00000000000E+00 0. -1.
          2    1    1    2  501    0 -0.53702038427E+02 -0.23085729839E+02  0.18125955155E+02  0.61199755748E+02  0.00000000000E+00 0. -1.
<scales pt_clust_5="13000.00000" pt_clust_6="13000.00000" pt_clust_7="13000.00000" pt_clust_8="13000.00000" pt_clust_9="13000.00000"></scales>
<clustering>
<clus scale="   91.443">  5  6 -1 -1</clus>
<clus scale="   91.516">  7  8 -1 -1</clus>
<clus scale="   58.454">  7  9 -1 -1</clus>
<clus scale="  131.416">  2  5  1 -1</clus>
<clus scale="  234.654">  1  5  2 -1</clus>
</clustering>
</event>
<event>
 9    1  0.3303741E-006  0.3015030E+03  0.7546771E-02  0.1132240E+00
          2   -1    0    0  502    0 -0.00000000000E+00  0.00000000000E+00  0.44457199391E+03  0.44457199391E+03  0.00000000000E+00 0. -1.
         21   -1    0    0  501  502  0.00000000000E+00 -0.00000000000E+00 -0.90747086501E+02  0.90747086501E+02  0.00000000000E+00 0. -1.
         23    2    1    2    0    0 -0.28615064601E+02 -0.79098655883E+01  0.32576016206E+02  0.94745676467E+02  0.83869890197E+02 0.  0.
         23    2    1    2    0    0  0.10267005109E+03  0.97397162183E+02  0.26044251424E+03  0.30946454553E+03  0.88941863750E+02 0.  0.
        -11    1    3    3    0    0 -0.32728554498E+01 -0.44063042230E+02  0.10647498002E+02  0.45449229774E+02  0.00000000000E+00 0. -1.
         11    1    3    3    0    0 -0.25342209152E+02  0.36153176641E+02  0.21928518205E+02  0.49296446693E+02  0.00000000000E+00 0.  1.
        -13    1    4    4    0    0  0.75560027824E+02  0.16059381660E+02  0.15804303672E+03  0.17591140668E+03  0.00000000000E+00 0.  1.
         13    1    4    4    0    0  0.27110023262E+02  0.81337780523E+02  0.10239947752E+03  0.13355313886E+03  0.00000000000E+00 0. -1.
          2    1    1    2  501    0 -0.74054986484E+02 -0.89487296595E+02  0.60806376968E+02  0.13110885842E+03  0.00000000000E+00 0. -1.
<scales pt_clust_5="13000.00000" pt_clust_6="13000.00000" pt_clust_7="13000.00000" pt_clust_8="13000.00000" pt_clust_9="13000.00000"></scales>
<clustering>
<clus scale="   83.870">  5  6 -1 -1</clus>
<clus scale="   88.942">  7  8 -1 -1</clus>
<clus scale="   88.969">  1  5  2 -1</clus>
<clus scale="  122.362">  7  9 -1 -1</clus>
<clus scale="  301.503">  2  5  1 -1</clus>
</clustering>
</event>
<event>
 9    1  0.3303741E-006  0.3097134E+03  0.7546771E-02  0.1090388E+00
         21   -1    0    0  501  502  0.00000000000E+00  0.00000000000E+00  0.15130901852E+03  0.15130901852E+03  0.00000000000E+00 0. -1.
         -1   -1    0    0    0  501 -0.00000000000E+00 -0.00000000000E+00 -0.73876176419E+03  0.73876176419E+03  0.00000000000E+00 0.  1.
         23    2    1    2    0    0 -0.98297792164E+02 -0.19519683536E+03 -0.13899504838E+02  0.23823821374E+03  0.93808260669E+02 0.  0.
         23    2    1    2    0    0  0.92638272606E+02  0.42123747968E+02 -0.38598263923E+03  0.40966293663E+03  0.92113322425E+02 0.  0.
        -13    1    4    4    0    0  0.13401369622E+02 -0.23094344567E+02 -0.35229427738E+02  0.44204728678E+02  0.00000000000E+00 0. -1.
         13    1    4    4    0    0  0.79236902984E+02  0.65218092536E+02 -0.35075321149E+03  0.36545820795E+03  0.00000000000E+00 0.  1.
        -13    1    3    3    0    0 -0.81691779809E+02 -0.60630099982E+02 -0.13696168281E+02  0.10265057690E+03  0.00000000000E+00 0. -1.
         13    1    3    3    0    0 -0.16606012355E+02 -0.13456673538E+03 -0.20333655701E+00  0.13558763684E+03  0.00000000000E+00 0.  1.
         -1    1    1    2    0  502  0.56595195574E+01  0.15307308739E+03 -0.18757060160E+03  0.24216963235E+03  0.00000000000E+00 0.  1.
<scales pt_clust_5="13000.00000" pt_clust_6="13000.00000" pt_clust_7="13000.00000" pt_clust_8="13000.00000" pt_clust_9="13000.00000"></scales>
<clustering>
<clus scale="   92.113">  5  6 -1 -1</clus>
<clus scale="   93.808">  7  8 -1 -1</clus>
<clus scale="  153.178">  5  9 -1 -1</clus>
<clus scale="  237.833">  2  7  1 -1</clus>
<clus scale="  309.713">  1  5  2 -1</clus>
</clustering>
</event>
<event>
 9    1  0.3303741E-006  0.2637989E+03  0.7546771E-02  0.1126993E+00
          1   -1    0    0  502    0 -0.00000000000E+00  0.00000000000E+00  0.47093118361E+03  0.47093118361E+03  0.00000000000E+00 0. -1.
         21   -1    0    0  501  502  0.00000000000E+00 -0.00000000000E+00 -0.18615060139E+03  0.18615060139E+03  0.00000000000E+00 0. -1.
         23    2    1    2    0    0  0.30820831283E+02  0.11553309637E+03  0.35352984197E+03  0.38447155770E+03  0.92397021157E+02 0.  0.
         23    2    1    2    0    0 -0.85347219191E+02 -0.36432877508E+02  0.31379936863E+02  0.13384485835E+03  0.91204403857E+02 0.  0.
        -11    1    4    4    0    0 -0.13111372617E+02  0.27758866559E+02  0.19767467993E+02  0.36513224390E+02  0.00000000000E+00 0. -1.
         11    1    4    4    0    0 -0.72235846574E+02 -0.64191744066E+02  0.11612468870E+02  0.97331633963E+02  0.00000000000E+00 0.  1.
        -11    1    3    3    0    0  0.53236443560E+02  0.11705000413E+03  0.30464294803E+03  0.33066924286E+03  0.00000000000E+00 0. -1.
         11    1    3    3    0    0 -0.22415612277E+02 -0.15169077602E+01  0.48886893946E+02  0.53802314844E+02  0.00000000000E+00 0.  1.
          1    1    1    2  501    0  0.54526387908E+02 -0.79100218865E+02 -0.10012919662E+03  0.13876536894E+03  0.00000000000E+00 0. -1.
<scales pt_clust_5="13000.00000" pt_clust_6="13000.00000" pt_clust_7="13000.00000" pt_clust_8="13000.00000" pt_clust_9="13000.00000"></scales>
<clustering>
<clus scale="   91.204">  5  6 -1 -1</clus>
<clus scale="   92.397">  7  8 -1 -1</clus>
<clus scale="   96.073">  5  9 -1 -1</clus>
<clus scale="  151.113">  1  7  2 -1</clus>
<clus scale="  263.799">  2  5  1 -1</clus>
</clustering>
</event>
<event>
 9    1  0.3303741E-006  0.2989093E+03  0.7546771E-02  0.1108640E+00
          2   -1    0    0  502    0 -0.00000000000E+00  0.00000000000E+00  0.70968897382E+03  0.70968897382E+03  0.00000000000E+00 0. -1.
         21   -1    0    0  501  502  0.00000000000E+00 -0.00000000000E+00 -0.13981391349E+03  0.13981391349E+03  0.00000000000E+00 0. -1.
         23    2    1    2    0    0  0.10339745268E+03 -0.89675284440E+02  0.52127254700E+03  0.54666797246E+03  0.91586647475E+02 0.  0.
         23    2    1    2    0    0 -0.76178863432E+02  0.51786133985E+02  0.14552420187E+03  0.19526980419E+03  0.92021628929E+02 0.  0.
        -11    1    3    3    0    0  0.66299142198E+02 -0.52133726815E+02  0.45080185573E+03  0.45862382718E+03  0.00000000000E+00 0. -1.
         11    1    3    3    0    0  0.37098310486E+02 -0.37541557625E+02  0.70470691270E+02  0.88044145278E+02  0.00000000000E+00 0.  1.
        -11    1    4    4    0    0 -0.67592823988E+02 -0.84156293228E+01  0.63178878760E+02  0.92904162409E+02  0.00000000000E+00 0. -1.
         11    1    4    4    0    0 -0.85860394442E+01  0.60201763308E+02  0.82345323110E+02  0.10236564178E+03  0.00000000000E+00 0.  1.
          2    1    1    2  501    0 -0.27218589252E+02  0.37889150454E+02 -0.96921688539E+02  0.10756511066E+03  0.00000000000E+00 0. -1.
<scales pt_clust_5="13000.00000" pt_clust_6="13000.00000" pt_clust_7="13000.00000" pt_clust_8="13000.00000" pt_clust_9="13000.00000"></scales>
<clustering>
<clus scale="   91.587">  5  6 -1 -1</clus>
<clus scale="   92.022">  7  8 -1 -1</clus>
<clus scale="   46.652">  7  9 -1 -1</clus>
<clus scale="  164.684">  1  5  2 -1</clus>
<clus scale="  298.909">  2  5  1 -1</clus>
</clustering>
</event>
<event>
 9    1  0.4870814E-006  0.8869174E+03  0.7546771E-02  0.1009881E+00
         21   -1    0    0  501  502  0.00000000000E+00  0.00000000000E+00  0.28396018454E+03  0.28396018454E+03  0.00000000000E+00 0. -1.
          1   -1    0    0  502    0 -0.00000000000E+00 -0.00000000000E+00 -0.12063250354E+04  0.12063250354E+04  0.00000000000E+00 0. -1.
         23    2    1    2    0    0  0.14964790400E+02 -0.35805005133E+02  0.96346241466E+02  0.13958366658E+03  0.93247296942E+02 0.  0.
         23    2    1    2    0    0  0.10590956597E+03 -0.26020370902E+03 -0.98584720653E+03  0.10292800173E+04  0.92735284701E+02 0.  0.
        -11    1    3    3    0    0  0.50946187326E+02 -0.16958593406E+02  0.78759705383E+02  0.95321556247E+02  0.00000000000E+00 0. -1.
         11    1    3    3    0    0 -0.35981396926E+02 -0.18846411727E+02  0.17586536083E+02  0.44262110333E+02  0.00000000000E+00 0.  1.
        -13    1    4    4    0    0  0.80248030930E+02 -0.10722713736E+03 -0.34903291711E+03  0.37384673689E+03  0.00000000000E+00 0.  1.
         13    1    4    4    0    0  0.25661535038E+02 -0.15297657166E+03 -0.63681428942E+03  0.65543328041E+03  0.00000000000E+00 0. -1.
          1    1    1    2  501    0 -0.12087435637E+03  0.29600871415E+03 -0.32863885832E+02  0.32142153611E+03  0.00000000000E+00 0. -1.
<scales pt_clust_5="13000.00000" pt_clust_6="13000.00000" pt_clust_7="13000.00000" pt_clust_8="13000.00000" pt_clust_9="13000.00000"></scales>
<clustering>
<clus scale="   92.735">  7  8 -1 -1</clus>
<clus scale="   93.247">  5  6 -1 -1</clus>
<clus scale="  101.000">  2  5  1 -1</clus>
<clus scale="  313.935">  7  9 -1 -1</clus>
<clus scale="  886.917">  1  5  2 -1</clus>
</clustering>
</event>
<event>
 9    1  0.3303741E-006  0.2749071E+03  0.7546771E-02  0.1138651E+00
          2   -1    0    0  502    0 -0.00000000000E+00  0.00000000000E+00  0.62404247810E+03  0.62404247810E+03  0.00000000000E+00 0. -1.
         21   -1    0    0  501  502  0.00000000000E+00 -0.00000000000E+00 -0.57774762438E+02  0.57774762438E+02  0.00000000000E+00 0. -1.
         23    2    1    2    0    0  0.12083064432E+02  0.78896838808E+01  0.20064539510E+03  0.22437480978E+03  0.99384270043E+02 0.  0.
         23    2    1    2    0    0 -0.49219397466E+02  0.19155272514E+01  0.39573790007E+03  0.40863466984E+03  0.89149254120E+02 0.  0.
        -13    1    3    3    0    0 -0.35265138537E+02 -0.20922669792E+02  0.55482544644E+02  0.68990585354E+02  0.00000000000E+00 0. -1.
         13    1    3    3    0    0  0.47348202969E+02  0.28812353673E+02  0.14516285046E+03  0.15538422443E+03  0.00000000000E+00 0.  1.
        -13    1    4    4    0    0 -0.74646162262E+02  0.85612953366E+01  0.30893395836E+03  0.31793951617E+03  0.00000000000E+00 0. -1.
         13    1    4    4    0    0  0.25426764795E+02 -0.66457680852E+01  0.86803941717E+02  0.90695153669E+02  0.00000000000E+00 0.  1.
          2    1    1    2  501    0  0.37136333035E+02 -0.98052111322E+01 -0.30115579509E+02  0.48807760917E+02  0.00000000000E+00 0. -1.
<scales pt_clust_5="13000.00000" pt_clust_6="13000.00000" pt_clust_7="13000.00000" pt_clust_8="13000.00000" pt_clust_9="13000.00000"></scales>
<clustering>
<clus scale="   89.149">  7  8 -1 -1</clus>
<clus scale="   38.409">  7  9 -1 -1</clus>
<clus scale="   99.384">  5  6 -1 -1</clus>
<clus scale="  100.426">  1  5  2 -1</clus>
<clus scale="  274.907">  2  5  1 -1</clus>
</clustering>
</event>
<event>
 9    1  0.3303741E-006  0.1930970E+03  0.7546771E-02  0.1180743E+00
         21   -1    0    0  501  502  0.00000000000E+00  0.00000000000E+00  0.23909634402E+03  0.23909634402E+03  0.00000000000E+00 0. -1.
          1   -1    0    0  502    0 -0.00000000000E+00 -0.00000000000E+00 -0.95334072236E+02  0.95334072236E+02  0.00000000000E+00 0. -1.
         23    2    1    2    0    0  0.47842688187E+02  0.35272364380E+02  0.57198047381E+02  0.12281797931E+03  0.90992180521E+02 0.  0.
         23    2    1    2    0    0 -0.36546192183E+02  0.13518372199E+02 -0.13975686542E+02  0.99289596477E+02  0.90248177845E+02 0.  0.
        -13    1    4    4    0    0  0.23412787183E+02 -0.18935010883E+02 -0.35884194638E+01  0.30324412526E+02  0.00000000000E+00 0.  1.
         13    1    4    4    0    0 -0.59958979366E+02  0.32453383082E+02 -0.10387267078E+02  0.68965183951E+02  0.00000000000E+00 0. -1.
        -13    1    3    3    0    0 -0.27028497201E+02  0.45347473722E+01  0.18810697106E+02  0.33240726831E+02  0.00000000000E+00 0.  1.
         13    1    3    3    0    0  0.74871185388E+02  0.30737617008E+02  0.38387350276E+02  0.89577252480E+02  0.00000000000E+00 0. -1.
          1    1    1    2  501    0 -0.11296496004E+02 -0.48790736579E+02  0.10053991095E+03  0.11232284047E+03  0.00000000000E+00 0. -1.
<scales pt_clust_5="13000.00000" pt_clust_6="13000.00000" pt_clust_7="13000.00000" pt_clust_8="13000.00000" pt_clust_9="13000.00000"></scales>
<clustering>
<clus scale="   90.248">  5  6 -1 -1</clus>
<clus scale="   50.081">  5  9 -1 -1</clus>
<clus scale="   90.992">  7  8 -1 -1</clus>
<clus scale="  108.686">  2  7  1 -1</clus>
<clus scale="  193.097">  1  5  2 -1</clus>
</clustering>
</event>
<event>
 9    1  0.3303741E-006  0.2928188E+03  0.7546771E-02  0.1103815E+00
         21   -1    0    0  501  502  0.00000000000E+00  0.00000000000E+00  0.10436142790E+03  0.10436142790E+03  0.00000000000E+00 0. -1.
          1   -1    0    0  502    0 -0.00000000000E+00 -0.00000000000E+00 -0.60256015918E+03  0.60256015918E+03  0.00000000000E+00 0. -1.
         23    2    1    2    0    0 -0.23116514428E+02  0.17502253288E+03 -0.27363867928E+03  0.33790931442E+03  0.90207082401E+02 0.  0.
         23    2    1    2    0    0 -0.68780816590E+02 -0.17754508976E+03 -0.15550212587E+03  0.25403192695E+03  0.64017568910E+02 0.  0.
        -11    1    4    4    0    0 -0.98526590074E+00 -0.79258120815E+02 -0.43971377771E+02  0.90643822333E+02  0.00000000000E+00 0.  1.
         11    1    4    4    0    0 -0.67795550689E+02 -0.98286968947E+02 -0.11153074810E+03  0.16338810461E+03  0.00000000000E+00 0. -1.
        -13    1    3    3    0    0  0.10596545301E+02  0.59897761579E+02 -0.33421042503E+02  0.69404572591E+02  0.00000000000E+00 0.  1.
         13    1    3    3    0    0 -0.33713059730E+02  0.11512477130E+03 -0.24021763678E+03  0.26850474183E+03  0.00000000000E+00 0. -1.
          1    1    1    2  501    0  0.91897331018E+02  0.25225568796E+01 -0.69057926126E+02  0.11498034572E+03  0.00000000000E+00 0. -1.
<scales pt_clust_5="13000.00000" pt_clust_6="13000.00000" pt_clust_7="13000.00000" pt_clust_8="13000.00000" pt_clust_9="13000.00000"></scales>
<clustering>
<clus scale="   64.018">  5  6 -1 -1</clus>
<clus scale="   90.207">  7  8 -1 -1</clus>
<clus scale="   91.932">  5  9 -1 -1</clus>
<clus scale="  198.254">  2  7  1 -1</clus>
<clus scale="  292.819">  1  5  2 -1</clus>
</clustering>
</event>
<event>
 9    1  0.3303741E-006  0.3524885E+03  0.7546771E-02  0.1106316E+00
          2   -1    0    0  502    0 -0.00000000000E+00  0.00000000000E+00  0.24737967664E+03  0.24737967664E+03  0.00000000000E+00 0. -1.
         21   -1    0    0  501  502  0.00000000000E+00 -0.00000000000E+00 -0.22881859512E+03  0.22881859512E+03  0.00000000000E+00 0. -1.
         23    2    1    2    0    0  0.47717406126E+02  0.35703343950E+01 -0.48985438316E+02  0.11729626630E+03  0.95232047054E+02 0.  0.
         23    2    1    2    0    0 -0.14534544197E+03 -0.20463728764E+01  0.15267821519E+03  0.22936065532E+03  0.90366961174E+02 0.  0.
        -11    1    3    3    0    0 -0.23832133435E+02  0.18102414899E+02 -0.10308211462E+01  0.29945460449E+02  0.00000000000E+00 0. -1.
         11    1    3    3    0    0  0.71549539561E+02 -0.14532080504E+02 -0.47954617170E+02  0.87350805853E+02  0.00000000000E+00 0.  1.
        -11    1    4    4    0    0 -0.63568595893E+02 -0.42086033273E+02  0.94035822534E+02  0.12105757515E+03  0.00000000000E+00 0.  1.
         11    1    4    4    0    0 -0.81776846077E+02  0.40039660396E+02  0.58642392658E+02  0.10830308018E+03  0.00000000000E+00 0. -1.
          2    1    1    2  501    0  0.97628035844E+02 -0.15239615186E+01 -0.85131695353E+02  0.12954135014E+03  0.00000000000E+00 0. -1.
<scales pt_clust_5="13000.00000" pt_clust_6="13000.00000" pt_clust_7="13000.00000" pt_clust_8="13000.00000" pt_clust_9="13000.00000"></scales>
<clustering>
<clus scale="   90.367">  7  8 -1 -1</clus>
<clus scale="   95.232">  5  6 -1 -1</clus>
<clus scale="   97.640">  7  9 -1 -1</clus>
<clus scale="  106.578">  1  5  2 -1</clus>
<clus scale="  352.488">  2  5  1 -1</clus>
</clustering>
</event>
<event>
 9    1  0.3303741E-006  0.3684955E+03  0.7546771E-02  0.1095534E+00
          1   -1    0    0  502    0 -0.00000000000E+00  0.00000000000E+00  0.22211477023E+03  0.22211477023E+03  0.00000000000E+00 0. -1.
         21   -1    0    0  501  502  0.00000000000E+00 -0.00000000000E+00 -0.28023082053E+03  0.28023082053E+03  0.00000000000E+00 0. -1.
         23    2    1    2    0    0  0.11162829643E+02 -0.85828005187E+02  0.21888342157E+02  0.12526522255E+03  0.87870479783E+02 0.  0.
         23    2    1    2    0    0  0.29113222277E+02  0.50033399388E+02  0.12416215701E+03  0.16592309487E+03  0.93612560122E+02 0.  0.
        -11    1    4    4    0    0 -0.12120110407E+02 -0.21564030576E+02  0.45784562402E+02  0.52039702587E+02  0.00000000000E+00 0.  1.
         11    1    4    4    0    0  0.41233332685E+02  0.71597429964E+02  0.78377594610E+02  0.11388339229E+03  0.00000000000E+00 0. -1.
        -11    1    3    3    0    0 -0.12692053984E+02 -0.51546709604E+02 -0.28149783808E+02  0.60087950820E+02  0.00000000000E+00 0.  1.
         11    1    3    3    0    0  0.23854883627E+02 -0.34281295583E+02  0.50038125964E+02  0.65177271727E+02  0.00000000000E+00 0. -1.
          1    1    1    2  501    0 -0.40276051920E+02  0.35794605799E+02 -0.20416654947E+03  0.21115727334E+03  0.00000000000E+00 0. -1.
<scales pt_clust_5="13000.00000" pt_clust_6="13000.00000" pt_clust_7="13000.00000" pt_clust_8="13000.00000" pt_clust_9="13000.00000"></scales>
<clustering>
<clus scale="   87.870">  7  8 -1 -1</clus>
<clus scale="   93.613">  5  6 -1 -1</clus>
<clus scale="   53.883">  5  9 -1 -1</clus>
<clus scale="  123.338">  1  7  2 -1</clus>
<clus scale="  368.495">  2  5  1 -1</clus>
</clustering>
</event>
<event>
 9    1  0.4080958E-006  0.6970588E+03  0.7546771E-02  0.1035323E+00
         21   -1    0    0  501  502  0.00000000000E+00  0.00000000000E+00  0.41891821804E+03  0.41891821804E+03  0.00000000000E+00 0. -1.
          1   -1    0    0  502    0 -0.00000000000E+00 -0.00000000000E+00 -0.38953446361E+03  0.38953446361E+03  0.00000000000E+00 0. -1.
         23    2    1    2    0    0  0.16534881842E+02 -0.12641510512E+01  0.54404481352E+02  0.11094500301E+03  0.95257260647E+02 0.  0.
         23    2    1    2    0    0 -0.16475495988E+03 -0.58762392365E+02 -0.31195115056E+03  0.36902412432E+03  0.90928919670E+02 0.  0.
        -11    1    3    3    0    0  0.46921552483E+02 -0.12531163937E+02  0.11200916953E+01  0.48578974490E+02  0.00000000000E+00 0.  1.
         11    1    3    3    0    0 -0.30386670642E+02  0.11267012886E+02  0.53284389656E+02  0.62366028518E+02  0.00000000000E+00 0. -1.
        -11    1    4    4    0    0  0.24154203538E+01 -0.25961886453E+02 -0.52900812205E+02  0.58977535856E+02  0.00000000000E+00 0.  1.
         11    1    4    4    0    0 -0.16717038024E+03 -0.32800505912E+02 -0.25905033835E+03  0.31004658846E+03  0.00000000000E+00 0. -1.
          1    1    1    2  501    0  0.14822007804E+03  0.60026543416E+02  0.28693042364E+03  0.32848355432E+03  0.00000000000E+00 0. -1.
<scales pt_clust_5="13000.00000" pt_clust_6="13000.00000" pt_clust_7="13000.00000" pt_clust_8="13000.00000" pt_clust_9="13000.00000"></scales>
<clustering>
<clus scale="   90.929">  7  8 -1 -1</clus>
<clus scale="   95.257">  5  6 -1 -1</clus>
<clus scale="   96.690">  2  5  1 -1</clus>
<clus scale="  160.768">  7  9 -1 -1</clus>
<clus scale="  697.059">  1  5  2 -1</clus>
</clustering>
</event>
<event>
 9    1  0.3303741E-006  0.3744899E+03  0.7546771E-02  0.1068804E+00
         21   -1    0    0  501  502  0.00000000000E+00  0.00000000000E+00  0.98152350079E+02  0.98152350079E+02  0.00000000000E+00 0. -1.
          1   -1    0    0  502    0 -0.00000000000E+00 -0.00000000000E+00 -0.10819876220E+04  0.10819876220E+04  0.00000000000E+00 0. -1.
         23    2    1    2    0    0 -0.11378795851E+03  0.19100945925E+03 -0.20599553992E+03  0.31684548996E+03  0.92328700923E+02 0.  0.
         23    2    1    2    0    0  0.94037116403E+02 -0.72514275697E+02 -0.70934784287E+03  0.72501092138E+03  0.91461327865E+02 0.  0.
        -11    1    4    4    0    0  0.10945598053E+03 -0.46455529863E+02 -0.59168946601E+03  0.60351897411E+03  0.00000000000E+00 0.  1.
         11    1    4    4    0    0 -0.15418864124E+02 -0.26058745834E+02 -0.11765837686E+03  0.12149194727E+03  0.00000000000E+00 0. -1.
        -11    1    3    3    0    0 -0.12446610497E+03  0.15918102774E+03 -0.15037728378E+03  0.25188040487E+03  0.00000000000E+00 0. -1.
         11    1    3    3    0    0  0.10678146466E+02  0.31828431512E+02 -0.55618256143E+02  0.64965085091E+02  0.00000000000E+00 0.  1.
          1    1    1    2  501    0  0.19750842104E+02 -0.11849518356E+03 -0.68491889098E+02  0.13828356071E+03  0.00000000000E+00 0. -1.
<scales pt_clust_5="13000.00000" pt_clust_6="13000.00000" pt_clust_7="13000.00000" pt_clust_8="13000.00000" pt_clust_9="13000.00000"></scales>
<clustering>
<clus scale="   91.461">  5  6 -1 -1</clus>
<clus scale="   92.329">  7  8 -1 -1</clus>
<clus scale="  120.130">  5  9 -1 -1</clus>
<clus scale="  240.743">  2  7  1 -1</clus>
<clus scale="  374.490">  1  5  2 -1</clus>
</clustering>
</event>
<event>
 9    1  0.3303741E-006  0.1397670E+03  0.7546771E-02  0.1228660E+00
          2   -1    0    0  502    0 -0.00000000000E+00  0.00000000000E+00  0.27339643023E+03  0.27339643023E+03  0.00000000000E+00 0. -1.
         21   -1    0    0  501  502  0.00000000000E+00 -0.00000000000E+00 -0.62292057268E+02  0.62292057268E+02  0.00000000000E+00 0.  1.
         23    2    1    2    0    0  0.29359752386E+00 -0.47761590097E+02  0.15394139975E+03  0.18468374382E+03  0.90160273878E+02 0.  0.
         23    2    1    2    0    0 -0.16700904395E+02  0.89018537024E+01  0.51353937644E+02  0.10842512736E+03  0.93598173728E+02 0.  0.
        -11    1    4    4    0    0  0.23663471205E+02  0.18752003734E+02  0.58908325898E+02  0.66195078167E+02  0.00000000000E+00 0. -1.
         11    1    4    4    0    0 -0.40364375599E+02 -0.98501500318E+01 -0.75543882539E+01  0.42230049196E+02  0.00000000000E+00 0.  1.
        -13    1    3    3    0    0  0.36345816145E+02  0.48339335380E+01  0.72544443675E+02  0.81283956429E+02  0.00000000000E+00 0. -1.
         13    1    3    3    0    0 -0.36052218621E+02 -0.52595523635E+02  0.81396956075E+02  0.10339978739E+03  0.00000000000E+00 0.  1.
          2    1    1    2  501    0  0.16407306871E+02  0.38859736395E+02  0.58090355676E+01  0.42579616316E+02  0.00000000000E+00 0. -1.
<scales pt_clust_5="13000.00000" pt_clust_6="13000.00000" pt_clust_7="13000.00000" pt_clust_8="13000.00000" pt_clust_9="13000.00000"></scales>
<clustering>
<clus scale="   90.160">  7  8 -1 -1</clus>
<clus scale="   93.598">  5  6 -1 -1</clus>
<clus scale="   42.182">  5  9 -1 -1</clus>
<clus scale="  102.030">  1  7  2 -1</clus>
<clus scale="  139.767">  2  5  1 -1</clus>
</clustering>
</event>
<event>
 9    1  0.3303741E-006  0.3271951E+03  0.7546771E-02  0.1104340E+00
         21   -1    0    0  501  502  0.00000000000E+00  0.00000000000E+00  0.21981355050E+03  0.21981355050E+03  0.00000000000E+00 0.  1.
         -1   -1    0    0    0  501 -0.00000000000E+00 -0.00000000000E+00 -0.65279042544E+03  0.65279042544E+03  0.00000000000E+00 0.  1.
         23    2    1    2    0    0  0.96112631299E+02  0.34754705503E+02 -0.51627556344E+03  0.53497208401E+03  0.95964294460E+02 0.  0.
         23    2    1    2    0    0 -0.73822077502E+02 -0.77338266854E+02 -0.84110844274E+02  0.16345904633E+03  0.90627363718E+02 0.  0.
        -11    1    4    4    0    0  0.44772200327E+01 -0.59505876273E+02 -0.31782794421E+02  0.67610212479E+02  0.00000000000E+00 0.  1.
         11    1    4    4    0    0 -0.78299297535E+02 -0.17832390581E+02 -0.52328049853E+02  0.95848833846E+02  0.00000000000E+00 0. -1.
        -13    1    3    3    0    0  0.14069072546E+02  0.49412995946E+02 -0.12950327118E+03  0.13932221724E+03  0.00000000000E+00 0. -1.
         13    1    3    3    0    0  0.82043558753E+02 -0.14658290443E+02 -0.38677229226E+03  0.39564986676E+03  0.00000000000E+00 0.  1.
         -1    1    1    2    0  502 -0.22290553796E+02  0.42583561351E+02  0.16740953277E+03  0.17417284561E+03  0.00000000000E+00 0.  1.
<scales pt_clust_5="13000.00000" pt_clust_6="13000.00000" pt_clust_7="13000.00000" pt_clust_8="13000.00000" pt_clust_9="13000.00000"></scales>
<clustering>
<clus scale="   90.627">  5  6 -1 -1</clus>
<clus scale="   48.065">  5  9 -1 -1</clus>
<clus scale="   95.964">  7  8 -1 -1</clus>
<clus scale="  140.195">  2  7  1 -1</clus>
<clus scale="  327.195">  1  5  2 -1</clus>
</clustering>
</event>
<event>
 9    1  0.3303741E-006  0.2028931E+03  0.7546771E-02  0.1167893E+00
         21   -1    0    0  501  502  0.00000000000E+00  0.00000000000E+00  0.38246252191E+03  0.38246252191E+03  0.00000000000E+00 0. -1.
          1   -1    0    0  502    0 -0.00000000000E+00 -0.00000000000E+00 -0.82333116931E+02  0.82333116931E+02  0.00000000000E+00 0. -1.
         23    2    1    2    0    0  0.52021526295E+02 -0.71250319977E+02  0.20588737093E+03  0.24108340843E+03  0.89155779502E+02 0.  0.
         23    2    1    2    0    0 -0.31197828555E+02 -0.85238012234E+01 -0.53405258286E+00  0.98093587690E+02  0.92607273148E+02 0.  0.
        -13    1    3    3    0    0  0.36973996455E+02 -0.85762489566E+02  0.11665287957E+03  0.14943284559E+03  0.00000000000E+00 0. -1.
         13    1    3    3    0    0  0.15047529840E+02  0.14512169589E+02  0.89234491362E+02  0.91650562841E+02  0.00000000000E+00 0.  1.
        -13    1    4    4    0    0 -0.28166828612E+02  0.39747467668E+02  0.67520865112E+01  0.49181521858E+02  0.00000000000E+00 0.  1.
         13    1    4    4    0    0 -0.30309999429E+01 -0.48271268891E+02 -0.72861390941E+01  0.48912065832E+02  0.00000000000E+00 0. -1.
          1    1    1    2  501    0 -0.20823697741E+02  0.79774121200E+02  0.94776086632E+02  0.12561864272E+03  0.00000000000E+00 0. -1.
<scales pt_clust_5="13000.00000" pt_clust_6="13000.00000" pt_clust_7="13000.00000" pt_clust_8="13000.00000" pt_clust_9="13000.00000"></scales>
<clustering>
<clus scale="   89.156">  5  6 -1 -1</clus>
<clus scale="   92.607">  7  8 -1 -1</clus>
<clus scale="   82.447">  7  9 -1 -1</clus>
<clus scale="  125.426">  2  5  1 -1</clus>
<clus scale="  202.893">  1  5  2 -1</clus>
</clustering>
</event>
<event>
 9    1  0.3303741E-006  0.2077206E+03  0.7546771E-02  0.1167314E+00
         -2   -1    0    0    0  501 -0.00000000000E+00  0.00000000000E+00  0.26492069776E+03  0.26492069776E+03  0.00000000000E+00 0.  1.
         21   -1    0    0  501  502  0.00000000000E+00 -0.00000000000E+00 -0.10860048341E+03  0.10860048341E+03  0.00000000000E+00 0.  1.
         23    2    1    2    0    0  0.72174670922E+02  0.23337062442E+02  0.10791329706E+03  0.16023484718E+03  0.90973210144E+02 0.  0.
         23    2    1    2    0    0 -0.75469512455E+02  0.22973847051E+02  0.90223657722E+02  0.15080276736E+03  0.91529892772E+02 0.  0.
        -11    1    4    4    0    0 -0.30572019939E+02 -0.35664761416E+02  0.35898824170E+02  0.59121478219E+02  0.00000000000E+00 0.  1.
         11    1    4    4    0    0 -0.44897492516E+02  0.58638608468E+02  0.54324833551E+02  0.91681289136E+02  0.00000000000E+00 0. -1.
        -11    1    3    3    0    0  0.75250831279E+02 -0.35850018453E+01  0.10970138760E+03  0.13307867706E+03  0.00000000000E+00 0.  1.
         11    1    3    3    0    0 -0.30761603570E+01  0.26922064287E+02 -0.17880905418E+01  0.27156170124E+02  0.00000000000E+00 0. -1.
         -2    1    1    2    0  502  0.32948415322E+01 -0.46310909493E+02 -0.41816740431E+02  0.62483566632E+02  0.00000000000E+00 0.  1.
<scales pt_clust_5="13000.00000" pt_clust_6="13000.00000" pt_clust_7="13000.00000" pt_clust_8="13000.00000" pt_clust_9="13000.00000"></scales>
<clustering>
<clus scale="   90.973">  7  8 -1 -1</clus>
<clus scale="   91.530">  5  6 -1 -1</clus>
<clus scale="   46.428">  5  9 -1 -1</clus>
<clus scale="  118.448">  1  7  2 -1</clus>
<clus scale="  207.721">  2  5  1 -1</clus>
</clustering>
</event>
<event>
 9    1  0.3303741E-006  0.4801291E+03  0.7546771E-02  0.1053093E+00
         21   -1    0    0  501  502  0.00000000000E+00  0.00000000000E+00  0.35715270961E+03  0.35715270961E+03  0.00000000000E+00 0.  1.
         -4   -1    0    0    0  501 -0.00000000000E+00 -0.00000000000E+00 -0.30362452398E+03  0.30362452398E+03  0.00000000000E+00 0.  1.
         23    2    1    2    0    0 -0.15244507322E+03  0.28526976135E+01 -0.39449433224E+01  0.17722050682E+03  0.90243599367E+02 0.  0.
         23    2    1    2    0    0  0.18023314388E+01  0.13999561205E+03 -0.12578935997E+03  0.20663793892E+03  0.85289242736E+02 0.  0.
        -11    1    4    4    0    0  0.34902614788E+02  0.11975386787E+03 -0.10195960739E+03  0.16110537834E+03  0.00000000000E+00 0.  1.
         11    1    4    4    0    0 -0.33100283350E+02  0.20241744181E+02 -0.23829752574E+02  0.45532560581E+02  0.00000000000E+00 0. -1.
        -13    1    3    3    0    0 -0.52657918630E+02  0.43249900351E+02 -0.12295597331E+02  0.69242992343E+02  0.00000000000E+00 0.  1.
         13    1    3    3    0    0 -0.99787154589E+02 -0.40397202738E+02  0.83506540090E+01  0.10797751448E+03  0.00000000000E+00 0. -1.
         -4    1    1    2    0  502  0.15064274178E+03 -0.14284830967E+03  0.18326248891E+03  0.27691878786E+03  0.00000000000E+00 0.  1.
<scales pt_clust_5="13000.00000" pt_clust_6="13000.00000" pt_clust_7="13000.00000" pt_clust_8="13000.00000" pt_clust_9="13000.00000"></scales>
<clustering>
<clus scale="   85.289">  5  6 -1 -1</clus>
<clus scale="   90.244">  7  8 -1 -1</clus>
<clus scale="  177.177">  2  7  1 -1</clus>
<clus scale="  184.248">  5  9 -1 -1</clus>
<clus scale="  480.129">  1  5  2 -1</clus>
</clustering>
</event>
<event>
 9    1  0.3303741E-006  0.3251605E+03  0.7546771E-02  0.1118418E+00
          2   -1    0    0  502    0 -0.00000000000E+00  0.00000000000E+00  0.78133793684E+03  0.78133793684E+03  0.00000000000E+00 0. -1.
         21   -1    0    0  501  502  0.00000000000E+00 -0.00000000000E+00 -0.72446710405E+02  0.72446710405E+02  0.00000000000E+00 0.  1.
         23    2    1    2    0    0  0.21858903534E+01  0.43565278087E+02  0.35518235447E+02  0.10601425117E+03  0.89859695247E+02 0.  0.
         23    2    1    2    0    0 -0.52273095095E+02 -0.12519021013E+03  0.61381808528E+03  0.63499564534E+03  0.89675875268E+02 0.  0.
        -11    1    4    4    0    0  0.12989094339E+02 -0.72598920448E+02  0.36692406533E+03  0.37426272796E+03  0.00000000000E+00 0.  1.
         11    1    4    4    0    0 -0.65262189434E+02 -0.52591289680E+02  0.24689401995E+03  0.26073291738E+03  0.00000000000E+00 0. -1.
        -11    1    3    3    0    0 -0.17235649474E+02  0.65602495111E+02  0.13146938306E+02  0.69091222050E+02  0.00000000000E+00 0.  1.
         11    1    3    3    0    0  0.19421539828E+02 -0.22037217024E+02  0.22371297141E+02  0.36923029117E+02  0.00000000000E+00 0. -1.
          2    1    1    2  501    0  0.50087204741E+02  0.81624932041E+02  0.59554905713E+02  0.11277475074E+03  0.00000000000E+00 0. -1.
<scales pt_clust_5="13000.00000" pt_clust_6="13000.00000" pt_clust_7="13000.00000" pt_clust_8="13000.00000" pt_clust_9="13000.00000"></scales>
<clustering>
<clus scale="   89.676">  5  6 -1 -1</clus>
<clus scale="   89.860">  7  8 -1 -1</clus>
<clus scale="   95.767">  5  9 -1 -1</clus>
<clus scale="   99.887">  1  7  2 -1</clus>
<clus scale="  325.161">  2  5  1 -1</clus>
</clustering>
</event>
<event>
 9    1  0.3303741E-006  0.2177299E+03  0.7546771E-02  0.1175639E+00
         -2   -1    0    0    0  501 -0.00000000000E+00  0.00000000000E+00  0.10005142356E+03  0.10005142356E+03  0.00000000000E+00 0.  1.
         21   -1    0    0  501  502  0.00000000000E+00 -0.00000000000E+00 -0.29270593775E+03  0.29270593775E+03  0.00000000000E+00 0.  1.
         23    2    1    2    0    0 -0.33618600981E+02  0.79004718262E+01  0.21100436370E+02  0.87638515965E+02  0.77734505070E+02 0.  0.
         23    2    1    2    0    0  0.94442207637E+02  0.13941583065E+02 -0.73410215011E+02  0.15060919747E+03  0.90445411010E+02 0.  0.
        -11    1    3    3    0    0 -0.35567231772E+02 -0.30310620873E+02  0.98444167670E+01  0.47756405383E+02  0.00000000000E+00 0. -1.
         11    1    3    3    0    0  0.19486307905E+01  0.38211092699E+02  0.11256019603E+02  0.39882110582E+02  0.00000000000E+00 0.  1.
        -11    1    4    4    0    0  0.49860340490E+02  0.48010105677E+02 -0.62893250573E+02  0.93523177708E+02  0.00000000000E+00 0. -1.
         11    1    4    4    0    0  0.44581867147E+02 -0.34068522612E+02 -0.10516964438E+02  0.57086019762E+02  0.00000000000E+00 0.  1.
         -2    1    1    2    0  502 -0.60823606655E+02 -0.21842054891E+02 -0.14034473555E+03  0.15450964787E+03  0.00000000000E+00 0.  1.
<scales pt_clust_5="13000.00000" pt_clust_6="13000.00000" pt_clust_7="13000.00000" pt_clust_8="13000.00000" pt_clust_9="13000.00000"></scales>
<clustering>
<clus scale="   77.735">  5  6 -1 -1</clus>
<clus scale="   85.060">  1  5  2 -1</clus>
<clus scale="   90.445">  7  8 -1 -1</clus>
<clus scale="   69.179">  7  9 -1 -1</clus>
<clus scale="  217.730">  2  5  1 -1</clus>
</clustering>
</event>
<event>
 9    1  0.3303741E-006  0.2230823E+03  0.7546771E-02  0.1153816E+00
         21   -1    0    0  501  502  0.00000000000E+00  0.00000000000E+00  0.64347083506E+03  0.64347083506E+03  0.00000000000E+00 0.  1.
         -1   -1    0    0    0  501 -0.00000000000E+00 -0.00000000000E+00 -0.48686001514E+02  0.48686001514E+02  0.00000000000E+00 0.  1.
         23    2    1    2    0    0 -0.76337631719E+02  0.53381749892E+02  0.22372512705E+03  0.25920067262E+03  0.91951133624E+02 0.  0.
         23    2    1    2    0    0 -0.78295884579E+01 -0.91158897927E+01  0.69761131607E+02  0.11700613855E+03  0.93163399859E+02 0.  0.
        -11    1    3    3    0    0 -0.50194678551E+02  0.37029947888E+02  0.42754716477E+02  0.75622011191E+02  0.00000000000E+00 0.  1.
         11    1    3    3    0    0 -0.26142953168E+02  0.16351802005E+02  0.18097041057E+03  0.18357866143E+03  0.00000000000E+00 0. -1.
        -11    1    4    4    0    0 -0.36130664973E+02 -0.36700204300E+02  0.24850056716E+02  0.57182648293E+02  0.00000000000E+00 0.  1.
         11    1    4    4    0    0  0.28301076515E+02  0.27584314507E+02  0.44911074892E+02  0.59823490258E+02  0.00000000000E+00 0. -1.
         -1    1    1    2    0  502  0.84167220177E+02 -0.44265860100E+02  0.30129857489E+03  0.31595002540E+03  0.00000000000E+00 0.  1.
<scales pt_clust_5="13000.00000" pt_clust_6="13000.00000" pt_clust_7="13000.00000" pt_clust_8="13000.00000" pt_clust_9="13000.00000"></scales>
<clustering>
<clus scale="   91.951">  5  6 -1 -1</clus>
<clus scale="   93.163">  7  8 -1 -1</clus>
<clus scale="   95.098">  7  9 -1 -1</clus>
<clus scale="  130.890">  2  5  1 -1</clus>
<clus scale="  223.082">  1  5  2 -1</clus>
</clustering>
</event>
<event>
 9    1  0.3303741E-006  0.2911895E+03  0.7546771E-02  0.1127286E+00
          2   -1    0    0  502    0 -0.00000000000E+00  0.00000000000E+00  0.16980298284E+03  0.16980298284E+03  0.00000000000E+00 0. -1.
         21   -1    0    0  501  502  0.00000000000E+00 -0.00000000000E+00 -0.35797429856E+03  0.35797429856E+03  0.00000000000E+00 0. -1.
         23    2    1    2    0    0  0.56660145841E+02 -0.20099899062E+02  0.75706558525E+02  0.13481050861E+03  0.93957501877E+02 0.  0.
         23    2    1    2    0    0 -0.68927097298E+01  0.45185341124E+02 -0.30648849158E+03  0.32281164604E+03  0.90459597888E+02 0.  0.
        -11    1    4    4    0    0  0.22367818174E+02 -0.13802265997E+02 -0.36935060892E+02  0.45332334593E+02  0.00000000000E+00 0.  1.
         11    1    4    4    0    0 -0.29260527904E+02  0.58987607122E+02 -0.26955343069E+03  0.27747931145E+03  0.00000000000E+00 0. -1.
        -11    1    3    3    0    0 -0.25949357208E+02 -0.87300442889E+01  0.12103188582E+02  0.29934428117E+02  0.00000000000E+00 0.  1.
         11    1    3    3    0    0  0.82609503049E+02 -0.11369854773E+02  0.63603369943E+02  0.10487608049E+03  0.00000000000E+00 0. -1.
          2    1    1    2  501    0 -0.49767436111E+02 -0.25085442062E+02  0.42610617331E+02  0.70155126754E+02  0.00000000000E+00 0. -1.
<scales pt_clust_5="13000.00000" pt_clust_6="13000.00000" pt_clust_7="13000.00000" pt_clust_8="13000.00000" pt_clust_9="13000.00000"></scales>
<clustering>
<clus scale="   90.460">  5  6 -1 -1</clus>
<clus scale="   55.732">  5  9 -1 -1</clus>
<clus scale="   93.958">  7  8 -1 -1</clus>
<clus scale="  111.545">  1  7  2 -1</clus>
<clus scale="  291.190">  2  5  1 -1</clus>
</clustering>
</event>
<event>
 9    1  0.3303741E-006  0.2227447E+03  0.7546771E-02  0.1157702E+00
          2   -1    0    0  502    0 -0.00000000000E+00  0.00000000000E+00  0.11555335284E+03  0.11555335284E+03  0.00000000000E+00 0. -1.
         21   -1    0    0  501  502  0.00000000000E+00 -0.00000000000E+00 -0.56309928039E+03  0.56309928039E+03  0.00000000000E+00 0. -1.
         23    2    1    2    0    0  0.81938898544E+02 -0.43905453004E+01  0.52674161917E+02  0.13108039586E+03  0.87602756016E+02 0.  0.
         23    2    1    2    0    0  0.26367172033E+02  0.21646930471E+02 -0.10040551627E+03  0.13298849349E+03  0.80254933455E+02 0.  0.
        -11    1    3    3    0    0  0.39175124512E+02  0.16064177637E+02 -0.17977470003E+02  0.45999321858E+02  0.00000000000E+00 0.  1.
         11    1    3    3    0    0  0.42763774032E+02 -0.20454722937E+02  0.70651631919E+02  0.85081073998E+02  0.00000000000E+00 0. -1.
        -11    1    4    4    0    0  0.47643811962E+02  0.29900969362E+02 -0.93551489929E+02  0.10915989215E+03  0.00000000000E+00 0. -1.
         11    1    4    4    0    0 -0.21276639929E+02 -0.82540388910E+01 -0.68540263439E+01  0.23828601340E+02  0.00000000000E+00 0.  1.
          2    1    1    2  501    0 -0.10830607058E+03 -0.17256385170E+02 -0.39981457320E+03  0.41458374388E+03  0.00000000000E+00 0. -1.
<scales pt_clust_5="13000.00000" pt_clust_6="13000.00000" pt_clust_7="13000.00000" pt_clust_8="13000.00000" pt_clust_9="13000.00000"></scales>
<clustering>
<clus scale="   80.255">  7  8 -1 -1</clus>
<clus scale="   87.603">  5  6 -1 -1</clus>
<clus scale="  109.672">  7  9 -1 -1</clus>
<clus scale="  120.031">  1  5  2 -1</clus>
<clus scale="  222.745">  2  5  1 -1</clus>
</clustering>
</event>
<event>
 9    1  0.3303741E-006  0.2399398E+03  0.7546771E-02  0.1150460E+00
          1   -1    0    0  502    0 -0.00000000000E+00  0.00000000000E+00  0.72819706537E+02  0.72819706537E+02  0.00000000000E+00 0. -1.
         21   -1    0    0  501  502  0.00000000000E+00 -0.00000000000E+00 -0.52763732669E+03  0.52763732669E+03  0.00000000000E+00 0. -1.
         23    2    1    2    0    0  0.19582067391E+02 -0.66906246234E+02 -0.38964074308E+02  0.12034736309E+03  0.90029914846E+02 0.  0.
         23    2    1    2    0    0 -0.53078838360E+02 -0.48546767898E+02 -0.21282384495E+03  0.24415948136E+03  0.95633213924E+02 0.  0.
        -13    1    3    3    0    0  0.28162188857E+02  0.93572343183E+01 -0.31441963601E+02  0.43234983409E+02  0.00000000000E+00 0.  1.
         13    1    3    3    0    0 -0.85801214660E+01 -0.76263480552E+02 -0.75221107063E+01  0.77112379679E+02  0.00000000000E+00 0. -1.
        -13    1    4    4    0    0  0.17687563349E+02 -0.30190063510E+02 -0.26155506973E+02  0.43685242097E+02  0.00000000000E+00 0.  1.
         13    1    4    4    0    0 -0.70766401709E+02 -0.18356704388E+02 -0.18666833797E+03  0.20047423926E+03  0.00000000000E+00 0. -1.
          1    1    1    2  501    0  0.33496770969E+02  0.11545301413E+03 -0.20302970090E+03  0.23595018878E+03  0.00000000000E+00 0. -1.
<scales pt_clust_5="13000.00000" pt_clust_6="13000.00000" pt_clust_7="13000.00000" pt_clust_8="13000.00000" pt_clust_9="13000.00000"></scales>
<clustering>
<clus scale="   90.030">  5  6 -1 -1</clus>
<clus scale="   95.633">  7  8 -1 -1</clus>
<clus scale="  113.865">  1  5  2 -1</clus>
<clus scale="   92.109">  7  9 -1 -1</clus>
<clus scale="  239.940">  2  5  1 -1</clus>
</clustering>
</event>
<event>
 9    1  0.3303741E-006  0.2401294E+03  0.7546771E-02  0.1150757E+00
         21   -1    0    0  501  502  0.00000000000E+00  0.00000000000E+00  0.33696824541E+03  0.33696824541E+03  0.00000000000E+00 0.  1.
         -2   -1    0    0    0  501 -0.00000000000E+00 -0.00000000000E+00 -0.10592899814E+03  0.10592899814E+03  0.00000000000E+00 0.  1.
         23    2    1    2    0    0 -0.42181250098E+02 -0.54800857580E+02  0.46815860580E+01  0.11289737522E+03  0.89115140313E+02 0.  0.
         23    2    1    2    0    0  0.83767557558E+02 -0.14801443510E+02  0.47488007578E+02  0.13361184865E+03  0.91438114622E+02 0.  0.
        -11    1    3    3    0    0  0.25115064386E+02 -0.19660413894E+02 -0.13814163676E+02  0.34758156620E+02  0.00000000000E+00 0.  1.
         11    1    3    3    0    0 -0.67296314485E+02 -0.35140443686E+02  0.18495749734E+02  0.78139218603E+02  0.00000000000E+00 0. -1.
        -13    1    4    4    0    0  0.21235346276E+02 -0.44139927502E+02 -0.13775816258E+01  0.49001743463E+02  0.00000000000E+00 0.  1.
         13    1    4    4    0    0  0.62532211282E+02  0.29338483992E+02  0.48865589204E+02  0.84610105183E+02  0.00000000000E+00 0. -1.
         -2    1    1    2    0  502 -0.41586307460E+02  0.69602301090E+02  0.17886965363E+03  0.19638801968E+03  0.00000000000E+00 0.  1.
<scales pt_clust_5="13000.00000" pt_clust_6="13000.00000" pt_clust_7="13000.00000" pt_clust_8="13000.00000" pt_clust_9="13000.00000"></scales>
<clustering>
<clus scale="   89.115">  5  6 -1 -1</clus>
<clus scale="   91.438">  7  8 -1 -1</clus>
<clus scale="   81.080">  7  9 -1 -1</clus>
<clus scale="  112.800">  2  5  1 -1</clus>
<clus scale="  240.129">  1  5  2 -1</clus>
</clustering>
</event>
<event>
 9    1  0.3303741E-006  0.3071612E+03  0.7546771E-02  0.1094237E+00
          4   -1    0    0  502    0 -0.00000000000E+00  0.00000000000E+00  0.11795868661E+03  0.11795868661E+03  0.00000000000E+00 0. -1.
         21   -1    0    0  501  502  0.00000000000E+00 -0.00000000000E+00 -0.60268630698E+03  0.60268630698E+03  0.00000000000E+00 0. -1.
         23    2    1    2    0    0 -0.72545834435E+02  0.18589559535E+03 -0.25554540026E+03  0.33740552731E+03  0.93375413262E+02 0.  0.
         23    2    1    2    0    0  0.12006187850E+03 -0.10232774389E+03 -0.65025947573E+02  0.19300634073E+03  0.90206717417E+02 0.  0.
        -13    1    3    3    0    0 -0.43275974470E+02  0.16576174156E+03 -0.15596696315E+03  0.23167964634E+03  0.00000000000E+00 0. -1.
         13    1    3    3    0    0 -0.29269859965E+02  0.20133853785E+02 -0.99578437107E+02  0.10572588097E+03  0.00000000000E+00 0.  1.
        -13    1    4    4    0    0  0.22542339136E+02  0.14151936435E+02 -0.23534567750E+02  0.35529005584E+02  0.00000000000E+00 0.  1.
         13    1    4    4    0    0  0.97519539360E+02 -0.11647968032E+03 -0.41491379823E+02  0.15747733515E+03  0.00000000000E+00 0. -1.
          4    1    1    2  501    0 -0.47516044060E+02 -0.83567851462E+02 -0.16415627254E+03  0.19023312555E+03  0.00000000000E+00 0. -1.
<scales pt_clust_5="13000.00000" pt_clust_6="13000.00000" pt_clust_7="13000.00000" pt_clust_8="13000.00000" pt_clust_9="13000.00000"></scales>
<clustering>
<clus scale="   90.207">  7  8 -1 -1</clus>
<clus scale="   93.375">  5  6 -1 -1</clus>
<clus scale="   96.132">  7  9 -1 -1</clus>
<clus scale="  220.316">  1  5  2 -1</clus>
<clus scale="  307.161">  2  5  1 -1</clus>
</clustering>
</event>
<event>
 9    1  0.3303741E-006  0.2525391E+03  0.7546771E-02  0.1117351E+00
          2   -1    0    0  502    0 -0.00000000000E+00  0.00000000000E+00  0.17246869968E+04  0.17246869968E+04  0.00000000000E+00 0. -1.
         21   -1    0    0  501  502  0.00000000000E+00 -0.00000000000E+00 -0.38590833591E+02  0.38590833591E+02  0.00000000000E+00 0. -1.
         23    2    1    2    0    0  0.10211811060E+03 -0.17092895527E+03  0.11501348804E+04  0.11707995484E+04  0.91194973189E+02 0.  0.
         23    2    1    2    0    0 -0.90180811531E+02  0.74239610331E+02  0.39421081112E+03  0.42047675656E+03  0.88059302101E+02 0.  0.
        -13    1    3    3    0    0 -0.90389337656E+01 -0.20352488977E+02  0.48361057202E+02  0.53242069690E+02  0.00000000000E+00 0.  1.
         13    1    3    3    0    0  0.11115704436E+03 -0.15057646629E+03  0.11017738232E+04  0.11175574787E+04  0.00000000000E+00 0. -1.
        -13    1    4    4    0    0 -0.66523550659E+02  0.94166282955E+02  0.30592431292E+03  0.32692867246E+03  0.00000000000E+00 0.  1.
         13    1    4    4    0    0 -0.23657260873E+02 -0.19926672624E+02  0.88286498200E+02  0.93548084097E+02  0.00000000000E+00 0. -1.
          2    1    1    2  501    0 -0.11937299066E+02  0.96689344935E+02  0.14175047168E+03  0.17200152544E+03  0.00000000000E+00 0. -1.
<scales pt_clust_5="13000.00000" pt_clust_6="13000.00000" pt_clust_7="13000.00000" pt_clust_8="13000.00000" pt_clust_9="13000.00000"></scales>
<clustering>
<clus scale="   88.059">  7  8 -1 -1</clus>
<clus scale="   91.195">  5  6 -1 -1</clus>
<clus scale="   97.423">  7  9 -1 -1</clus>
<clus scale="  219.001">  1  5  2 -1</clus>
<clus scale="  252.539">  2  5  1 -1</clus>
</clustering>
</event>
<event>
 9    1  0.3303741E-006  0.1376478E+03  0.7546771E-02  0.1234232E+00
          3   -1    0    0  502    0 -0.00000000000E+00  0.00000000000E+00  0.12615542854E+03  0.12615542854E+03  0.00000000000E+00 0. -1.
         21   -1    0    0  501  502  0.00000000000E+00 -0.00000000000E+00 -0.13309683893E+03  0.13309683893E+03  0.00000000000E+00 0. -1.
         23    2    1    2    0    0 -0.85423431412E+01  0.24223113574E+02  0.53148784137E+02  0.10905994130E+03  0.91703580539E+02 0.  0.
         23    2    1    2    0    0  0.31060510895E+02  0.21175365868E+01 -0.22597611030E+02  0.99137536514E+02  0.91369359325E+02 0.  0.
        -13    1    4    4    0    0  0.35395951931E+02  0.37701056904E+02  0.75975900801E+01  0.52268216727E+02  0.00000000000E+00 0. -1.
         13    1    4    4    0    0 -0.43354410357E+01 -0.35583520318E+02 -0.30195201110E+02  0.46869319786E+02  0.00000000000E+00 0.  1.
        -13    1    3    3    0    0 -0.46250362663E+02  0.27958578562E+02  0.16909650792E+02  0.56627859323E+02  0.00000000000E+00 0. -1.
         13    1    3    3    0    0  0.37708019521E+02 -0.37354649880E+01  0.36239133345E+02  0.52432081977E+02  0.00000000000E+00 0.  1.
          3    1    1    2  501    0 -0.22518167754E+02 -0.26340650161E+02 -0.37492583491E+02  0.51054789655E+02  0.00000000000E+00 0. -1.
<scales pt_clust_5="13000.00000" pt_clust_6="13000.00000" pt_clust_7="13000.00000" pt_clust_8="13000.00000" pt_clust_9="13000.00000"></scales>
<clustering>
<clus scale="   91.369">  5  6 -1 -1</clus>
<clus scale="   34.654">  5  9 -1 -1</clus>
<clus scale="   91.704">  7  8 -1 -1</clus>
<clus scale="   95.233">  1  7  2 -1</clus>
<clus scale="  137.648">  2  5  1 -1</clus>
</clustering>
</event>
<event>
 9    1  0.3303741E-006  0.1585852E+03  0.7546771E-02  0.1214402E+00
         21   -1    0    0  501  502  0.00000000000E+00  0.00000000000E+00  0.80473511398E+02  0.80473511398E+02  0.00000000000E+00 0.  1.
          1   -1    0    0  502    0 -0.00000000000E+00 -0.00000000000E+00 -0.41773889042E+03  0.41773889042E+03  0.00000000000E+00 0. -1.
         23    2    1    2    0    0  0.12291545011E+01 -0.25921762211E+02 -0.32589155980E+03  0.33921986156E+03  0.90506116646E+02 0.  0.
         23    2    1    2    0    0 -0.27288162334E+02  0.38211825209E+02 -0.47923203021E+02  0.11245250379E+03  0.90244915826E+02 0.  0.
        -11    1    3    3    0    0 -0.43915260392E+02 -0.45569938130E+01 -0.14701734671E+03  0.15350379970E+03  0.00000000000E+00 0.  1.
         11    1    3    3    0    0  0.45144414894E+02 -0.21364768398E+02 -0.17887421309E+03  0.18571606186E+03  0.00000000000E+00 0. -1.
        -13    1    4    4    0    0 -0.35135974474E+02  0.64943680587E+02 -0.36017482889E+02  0.82155203269E+02  0.00000000000E+00 0.  1.
         13    1    4    4    0    0  0.78478121401E+01 -0.26731855378E+02 -0.11905720132E+02  0.30297300526E+02  0.00000000000E+00 0. -1.
          1    1    1    2  501    0  0.26059007833E+02 -0.12290062999E+02  0.36549383800E+02  0.46540036462E+02  0.00000000000E+00 0. -1.
<scales pt_clust_5="13000.00000" pt_clust_6="13000.00000" pt_clust_7="13000.00000" pt_clust_8="13000.00000" pt_clust_9="13000.00000"></scales>
<clustering>
<clus scale="   90.245">  7  8 -1 -1</clus>
<clus scale="   28.812">  7  9 -1 -1</clus>
<clus scale="   90.506">  5  6 -1 -1</clus>
<clus scale="   94.153">  2  5  1 -1</clus>
<clus scale="  158.585">  1  5  2 -1</clus>
</clustering>
</event>
<event>
 9    1  0.3303741E-006  0.3824830E+03  0.7546771E-02  0.1075860E+00
          2   -1    0    0  502    0 -0.00000000000E+00  0.00000000000E+00  0.57186489766E+03  0.57186489766E+03  0.00000000000E+00 0. -1.
         21   -1    0    0  501  502  0.00000000000E+00 -0.00000000000E+00 -0.14335094803E+03  0.14335094803E+03  0.00000000000E+00 0. -1.
         23    2    1    2    0    0  0.87456771706E+01 -0.16099856440E+03  0.18011791143E+03  0.25915247170E+03  0.93383708247E+02 0.  0.
         23    2    1    2    0    0  0.84605405719E+01 -0.15874667857E+02  0.26122969851E+03  0.27789239697E+03  0.93057203295E+02 0.  0.
        -11    1    3    3    0    0  0.41446697765E+02 -0.30249288983E+02  0.55628912060E+02  0.75679746938E+02  0.00000000000E+00 0.  1.
         11    1    3    3    0    0 -0.32701020595E+02 -0.13074927541E+03  0.12448899937E+03  0.18347272476E+03  0.00000000000E+00 0. -1.
        -11    1    4    4    0    0 -0.39596166306E+02 -0.12525509203E+02  0.77196968190E+02  0.87659093451E+02  0.00000000000E+00 0. -1.
         11    1    4    4    0    0  0.48056706878E+02 -0.33491586537E+01  0.18403273032E+03  0.19023330352E+03  0.00000000000E+00 0.  1.
          2    1    1    2  501    0 -0.17206217742E+02  0.17687323225E+03 -0.12833660300E+02  0.17817097702E+03  0.00000000000E+00 0. -1.
<scales pt_clust_5="13000.00000" pt_clust_6="13000.00000" pt_clust_7="13000.00000" pt_clust_8="13000.00000" pt_clust_9="13000.00000"></scales>
<clustering>
<clus scale="   93.057">  7  8 -1 -1</clus>
<clus scale="   93.384">  5  6 -1 -1</clus>
<clus scale="  177.708">  7  9 -1 -1</clus>
<clus scale="  186.326">  1  5  2 -1</clus>
<clus scale="  382.483">  2  5  1 -1</clus>
</clustering>
</event>
<event>
 9    1  0.3303741E-006  0.6383682E+03  0.7546771E-02  0.1026775E+00
         -4   -1    0    0    0  501 -0.00000000000E+00  0.00000000000E+00  0.72223465212E+03  0.72223465212E+03  0.00000000000E+00 0.  1.
         21   -1    0    0  501  502  0.00000000000E+00 -0.00000000000E+00 -0.37588647858E+03  0.37588647858E+03  0.00000000000E+00 0.  1.
         23    2    1    2    0    0 -0.12180702528E+03 -0.53831564800E+02  0.42504222999E+03  0.45492077675E+03  0.92505281312E+02 0.  0.
         23    2    1    2    0    0  0.72766529305E+02  0.23101685111E+03  0.18737648498E+03  0.31979174405E+03  0.92157794872E+02 0.  0.
        -11    1    4    4    0    0  0.80906828676E+02  0.21038362990E+03  0.13457772068E+03  0.26252304577E+03  0.00000000000E+00 0.  1.
         11    1    4    4    0    0 -0.81402993710E+01  0.20633221211E+02  0.52798764300E+02  0.57268698282E+02  0.00000000000E+00 0. -1.
        -11    1    3    3    0    0 -0.11157186945E+03 -0.73714123846E+02  0.39780558452E+03  0.41968004144E+03  0.00000000000E+00 0.  1.
         11    1    3    3    0    0 -0.10235155831E+02  0.19882559046E+02  0.27236645474E+02  0.35240735318E+02  0.00000000000E+00 0. -1.
         -4    1    1    2    0  502  0.49040495976E+02 -0.17718528631E+03 -0.26607054143E+03  0.32340860989E+03  0.00000000000E+00 0.  1.
<scales pt_clust_5="13000.00000" pt_clust_6="13000.00000" pt_clust_7="13000.00000" pt_clust_8="13000.00000" pt_clust_9="13000.00000"></scales>
<clustering>
<clus scale="   92.158">  5  6 -1 -1</clus>
<clus scale="   92.505">  7  8 -1 -1</clus>
<clus scale="  162.148">  1  7  2 -1</clus>
<clus scale="  186.297">  5  9 -1 -1</clus>
<clus scale="  638.368">  2  5  1 -1</clus>
</clustering>
</event>
<event>
 9    1  0.3303741E-006  0.4975510E+03  0.7546771E-02  0.1051050E+00
         -1   -1    0    0    0  501 -0.00000000000E+00  0.00000000000E+00  0.34192866425E+03  0.34192866425E+03  0.00000000000E+00 0.  1.
         21   -1    0    0  501  502  0.00000000000E+00 -0.00000000000E+00 -0.36392509210E+03  0.36392509210E+03  0.00000000000E+00 0.  1.
         23    2    1    2    0    0  0.13757340764E+03 -0.29373228967E+02 -0.10883269146E+03  0.20078194928E+03  0.93164410360E+02 0.  0.
         23    2    1    2    0    0 -0.23046399172E+03  0.97611666148E+02  0.20798105134E+03  0.33785576563E+03  0.90822419064E+02 0.  0.
        -11    1    4    4    0    0 -0.72638663550E+01  0.32897196700E+02  0.22409949470E+02  0.40462268107E+02  0.00000000000E+00 0. -1.
         11    1    4    4    0    0 -0.22320012537E+03  0.64714469448E+02  0.18557110187E+03  0.29739349752E+03  0.00000000000E+00 0.  1.
        -13    1    3    3    0    0  0.10785507577E+03 -0.59088775964E+02 -0.61554323361E+02  0.13752503604E+03  0.00000000000E+00 0. -1.
         13    1    3    3    0    0  0.29718331865E+02  0.29715546997E+02 -0.47278368095E+02  0.63256913233E+02  0.00000000000E+00 0.  1.
         -1    1    1    2    0  502  0.92890584087E+02 -0.68238437180E+02 -0.12114478773E+03  0.16721604144E+03  0.00000000000E+00 0.  1.
<scales pt_clust_5="13000.00000" pt_clust_6="13000.00000" pt_clust_7="13000.00000" pt_clust_8="13000.00000" pt_clust_9="13000.00000"></scales>
<clustering>
<clus scale="   90.822">  5  6 -1 -1</clus>
<clus scale="   93.164">  7  8 -1 -1</clus>
<clus scale="  115.261">  5  9 -1 -1</clus>
<clus scale="  168.727">  1  7  2 -1</clus>
<clus scale="  497.551">  2  5  1 -1</clus>
</clustering>
</event>
<event>
 9    1  0.3303741E-006  0.2814757E+03  0.7546771E-02  0.1136027E+00
          3   -1    0    0  502    0 -0.00000000000E+00  0.00000000000E+00  0.19205001177E+03  0.19205001177E+03  0.00000000000E+00 0. -1.
         21   -1    0    0  501  502  0.00000000000E+00 -0.00000000000E+00 -0.22382763210E+03  0.22382763210E+03  0.00000000000E+00 0. -1.
         23    2    1    2    0    0 -0.13292478262E+02  0.41160015702E+02  0.64089407012E+02  0.11852423573E+03  0.89831539530E+02 0.  0.
         23    2    1    2    0    0 -0.62957774515E+02  0.93386970634E+01  0.52951678243E+02  0.12267877297E+03  0.90527943050E+02 0.  0.
        -13    1    3    3    0    0 -0.33364472133E+00 -0.24994348499E+02 -0.72661766327E+00  0.25007133960E+02  0.00000000000E+00 0.  1.
         13    1    3    3    0    0 -0.12958833540E+02  0.66154364200E+02  0.64816024675E+02  0.93517101774E+02  0.00000000000E+00 0. -1.
        -13    1    4    4    0    0 -0.10627861373E+02 -0.29157551918E+02  0.48477727157E+02  0.57560440421E+02  0.00000000000E+00 0.  1.
         13    1    4    4    0    0 -0.52329913142E+02  0.38496248981E+02  0.44739510863E+01  0.65118332544E+02  0.00000000000E+00 0. -1.
          3    1    1    2  501    0  0.76250252776E+02 -0.50498712765E+02 -0.14881870558E+03  0.17467463517E+03  0.00000000000E+00 0. -1.
<scales pt_clust_5="13000.00000" pt_clust_6="13000.00000" pt_clust_7="13000.00000" pt_clust_8="13000.00000" pt_clust_9="13000.00000"></scales>
<clustering>
<clus scale="   89.832">  5  6 -1 -1</clus>
<clus scale="   90.528">  7  8 -1 -1</clus>
<clus scale="   91.456">  7  9 -1 -1</clus>
<clus scale="   99.702">  1  5  2 -1</clus>
<clus scale="  281.476">  2  5  1 -1</clus>
</clustering>
</event>
<event>
 9    1  0.3303741E-006  0.2572809E+03  0.7546771E-02  0.1140269E+00
         -3   -1    0    0    0  501 -0.00000000000E+00  0.00000000000E+00  0.34323447550E+03  0.34323447550E+03  0.00000000000E+00 0.  1.
         21   -1    0    0  501  502  0.00000000000E+00 -0.00000000000E+00 -0.11158024532E+03  0.11158024532E+03  0.00000000000E+00 0.  1.
         23    2    1    2    0    0 -0.35257336460E+02  0.68425312608E+02  0.15598962451E+02  0.11884842597E+03  0.89199313599E+02 0.  0.
         23    2    1    2    0    0 -0.86640815535E+01  0.87817264049E+01  0.22836069100E+03  0.24629221122E+03  0.91427911974E+02 0.  0.
        -11    1    4    4    0    0 -0.37362923952E+02 -0.21301651817E+02  0.16496234736E+03  0.17047675649E+03  0.00000000000E+00 0.  1.
         11    1    4    4    0    0  0.28698842399E+02  0.30083378222E+02  0.63398343632E+02  0.75815454728E+02  0.00000000000E+00 0. -1.
        -13    1    3    3    0    0 -0.71363099264E+01  0.19586827414E+02 -0.36543053620E+02  0.42070957862E+02  0.00000000000E+00 0.  1.
         13    1    3    3    0    0 -0.28121026534E+02  0.48838485195E+02  0.52142016071E+02  0.76777468110E+02  0.00000000000E+00 0. -1.
         -3    1    1    2    0  502  0.43921418014E+02 -0.77207039013E+02 -0.12305423267E+02  0.89674083633E+02  0.00000000000E+00 0.  1.
<scales pt_clust_5="13000.00000" pt_clust_6="13000.00000" pt_clust_7="13000.00000" pt_clust_8="13000.00000" pt_clust_9="13000.00000"></scales>
<clustering>
<clus scale="   89.199">  7  8 -1 -1</clus>
<clus scale="   91.428">  5  6 -1 -1</clus>
<clus scale="   88.826">  5  9 -1 -1</clus>
<clus scale="  117.820">  1  7  2 -1</clus>
<clus scale="  257.281">  2  5  1 -1</clus>
</clustering>
</event>
<event>
 9    1  0.3303741E-006  0.1970828E+03  0.7546771E-02  0.1182359E+00
         21   -1    0    0  501  502  0.00000000000E+00  0.00000000000E+00  0.28694517820E+03  0.28694517820E+03  0.00000000000E+00 0.  1.
         -1   -1    0    0    0  501 -0.00000000000E+00 -0.00000000000E+00 -0.14682399312E+03  0.14682399312E+03  0.00000000000E+00 0.  1.
         23    2    1    2    0    0  0.16067761870E+02 -0.32557803549E+02 -0.88109980346E+02  0.13222136871E+03  0.91656631862E+02 0.  0.
         23    2    1    2    0    0 -0.67620735947E+02 -0.21021187251E+02  0.88635271147E+02  0.14338512973E+03  0.87684832736E+02 0.  0.
        -11    1    4    4    0    0 -0.49312229694E+02 -0.50604801803E+02  0.81510090594E+02  0.10787231726E+03  0.00000000000E+00 0.  1.
         11    1    4    4    0    0 -0.18308506253E+02  0.29583614552E+02  0.71251805526E+01  0.35512812464E+02  0.00000000000E+00 0. -1.
        -11    1    3    3    0    0  0.89578885700E+01 -0.57189200340E+02 -0.89453245418E+02  0.10654919765E+03  0.00000000000E+00 0.  1.
         11    1    3    3    0    0  0.71098733003E+01  0.24631396791E+02  0.13432650720E+01  0.25672171067E+02  0.00000000000E+00 0. -1.
         -1    1    1    2    0  502  0.51552974077E+02  0.53578990800E+02  0.13959589428E+03  0.15816267288E+03  0.00000000000E+00 0.  1.
<scales pt_clust_5="13000.00000" pt_clust_6="13000.00000" pt_clust_7="13000.00000" pt_clust_8="13000.00000" pt_clust_9="13000.00000"></scales>
<clustering>
<clus scale="   87.685">  5  6 -1 -1</clus>
<clus scale="   74.353">  5  9 -1 -1</clus>
<clus scale="   91.657">  7  8 -1 -1</clus>
<clus scale="   98.586">  2  7  1 -1</clus>
<clus scale="  197.083">  1  5  2 -1</clus>
</clustering>
</event>
<event>
 9    1  0.3303741E-006  0.3105751E+03  0.7546771E-02  0.1110549E+00
          2   -1    0    0  502    0 -0.00000000000E+00  0.00000000000E+00  0.58338364181E+03  0.58338364181E+03  0.00000000000E+00 0. -1.
         21   -1    0    0  501  502  0.00000000000E+00 -0.00000000000E+00 -0.11652852101E+03  0.11652852101E+03  0.00000000000E+00 0. -1.
         23    2    1    2    0    0  0.70100113171E+02 -0.94997689623E+01  0.33403786002E+03  0.36212922607E+03  0.12063172455E+03 0.  0.
         23    2    1    2    0    0  0.62758163643E+02  0.74193894808E+01  0.16481266201E+03  0.20111049843E+03  0.96377303223E+02 0.  0.
        -11    1    4    4    0    0  0.72111332488E+02 -0.25782931781E+02  0.86452052829E+02  0.11549355516E+03  0.00000000000E+00 0. -1.
         11    1    4    4    0    0 -0.93531688453E+01  0.33202321261E+02  0.78360609177E+02  0.85616943272E+02  0.00000000000E+00 0.  1.
        -13    1    3    3    0    0  0.27624074890E+02  0.49912161147E+02  0.21528843788E+03  0.22271826335E+03  0.00000000000E+00 0. -1.
         13    1    3    3    0    0  0.42476038281E+02 -0.59411930109E+02  0.11874942214E+03  0.13941096272E+03  0.00000000000E+00 0.  1.
          2    1    1    2  501    0 -0.13285827681E+03  0.20803794815E+01 -0.31995401234E+02  0.13667243832E+03  0.00000000000E+00 0. -1.
<scales pt_clust_5="13000.00000" pt_clust_6="13000.00000" pt_clust_7="13000.00000" pt_clust_8="13000.00000" pt_clust_9="13000.00000"></scales>
<clustering>
<clus scale="   96.377">  5  6 -1 -1</clus>
<clus scale="  120.632">  7  8 -1 -1</clus>
<clus scale="  132.875">  5  9 -1 -1</clus>
<clus scale="  139.844">  1  7  2 -1</clus>
<clus scale="  310.575">  2  5  1 -1</clus>
</clustering>
</event>
<event>
 9    1  0.3303741E-006  0.3794364E+03  0.7546771E-02  0.1062447E+00
          3   -1    0    0  502    0 -0.00000000000E+00  0.00000000000E+00  0.55441930118E+03  0.55441930118E+03  0.00000000000E+00 0. -1.
         21   -1    0    0  501  502  0.00000000000E+00 -0.00000000000E+00 -0.24349934023E+03  0.24349934023E+03  0.00000000000E+00 0. -1.
         23    2    1    2    0    0  0.68620731627E+02 -0.25160176132E+03  0.31455478989E+03  0.41846485957E+03  0.90309865145E+02 0.  0.
         23    2    1    2    0    0 -0.11232767128E+03  0.10994219684E+03  0.92336453321E+02  0.20285192511E+03  0.88983653146E+02 0.  0.
        -11    1    3    3    0    0  0.24494442982E+02 -0.93697794486E+01  0.53694098535E+02  0.59756394815E+02  0.00000000000E+00 0.  1.
         11    1    3    3    0    0  0.44126288645E+02 -0.24223198187E+03  0.26086069136E+03  0.35870846476E+03  0.00000000000E+00 0. -1.
        -11    1    4    4    0    0 -0.83219661617E+02  0.20844981033E+02  0.33005067511E+02  0.91920399234E+02  0.00000000000E+00 0. -1.
         11    1    4    4    0    0 -0.29108009664E+02  0.89097215803E+02  0.59331385810E+02  0.11093152587E+03  0.00000000000E+00 0.  1.
          3    1    1    2  501    0  0.43706939654E+02  0.14165956449E+03 -0.95971282263E+02  0.17660185674E+03  0.00000000000E+00 0. -1.
<scales pt_clust_5="13000.00000" pt_clust_6="13000.00000" pt_clust_7="13000.00000" pt_clust_8="13000.00000" pt_clust_9="13000.00000"></scales>
<clustering>
<clus scale="   88.984">  7  8 -1 -1</clus>
<clus scale="   90.310">  5  6 -1 -1</clus>
<clus scale="  148.249">  7  9 -1 -1</clus>
<clus scale="  275.986">  1  5  2 -1</clus>
<clus scale="  379.436">  2  5  1 -1</clus>
</clustering>
</event>
<event>
 9    1  0.3303741E-006  0.3514689E+03  0.7546771E-02  0.1098005E+00
         21   -1    0    0  501  502  0.00000000000E+00  0.00000000000E+00  0.98886548405E+03  0.98886548405E+03  0.00000000000E+00 0. -1.
          1   -1    0    0  502    0 -0.00000000000E+00 -0.00000000000E+00 -0.64713503929E+02  0.64713503929E+02  0.00000000000E+00 0. -1.
         23    2    1    2    0    0 -0.39546779229E+02  0.88693810641E+02  0.13499938700E+03  0.18969695099E+03  0.91266417323E+02 0.  0.
         23    2    1    2    0    0 -0.44138824873E+01  0.10646837017E+03  0.44330057037E+03  0.46433925050E+03  0.87980382241E+02 0.  0.
        -11    1    3    3    0    0 -0.11701559686E+02 -0.18844243529E+02  0.22254904478E+02  0.31421533804E+02  0.00000000000E+00 0.  1.
         11    1    3    3    0    0 -0.27845219542E+02  0.10753805417E+03  0.11274448252E+03  0.15827541718E+03  0.00000000000E+00 0. -1.
        -13    1    4    4    0    0  0.28367724109E+02  0.82865764490E+02  0.20945623318E+03  0.22703166368E+03  0.00000000000E+00 0. -1.
         13    1    4    4    0    0 -0.32781606596E+02  0.23602605675E+02  0.23384433719E+03  0.23730758682E+03  0.00000000000E+00 0.  1.
          1    1    1    2  501    0  0.43960661716E+02 -0.19516218081E+03  0.34585202275E+03  0.39954278649E+03  0.00000000000E+00 0. -1.
<scales pt_clust_5="13000.00000" pt_clust_6="13000.00000" pt_clust_7="13000.00000" pt_clust_8="13000.00000" pt_clust_9="13000.00000"></scales>
<clustering>
<clus scale="   87.980">  7  8 -1 -1</clus>
<clus scale="   91.266">  5  6 -1 -1</clus>
<clus scale="  133.267">  2  5  1 -1</clus>
<clus scale="  132.355">  7  9 -1 -1</clus>
<clus scale="  351.469">  1  5  2 -1</clus>
</clustering>
</event>
<event>
 9    1  0.3303741E-006  0.1967433E+03  0.7546771E-02  0.1175824E+00
         -1   -1    0    0    0  501 -0.00000000000E+00  0.00000000000E+00  0.41625929378E+03  0.41625929378E+03  0.00000000000E+00 0.  1.
         21   -1    0    0  501  502  0.00000000000E+00 -0.00000000000E+00 -0.66031785545E+02  0.66031785545E+02  0.00000000000E+00 0. -1.
         23    2    1    2    0    0 -0.42598885369E+02 -0.50663570524E+02  0.21444239326E+03  0.24323978851E+03  0.93800811679E+02 0.  0.
         23    2    1    2    0    0  0.12077002965E+02  0.91390607326E+02  0.11490411059E+03  0.18403953593E+03  0.11031545244E+03 0.  0.
        -13    1    3    3    0    0 -0.68204657959E+02 -0.48201314842E+02  0.12626836428E+03  0.15139003249E+03  0.00000000000E+00 0. -1.
         13    1    3    3    0    0  0.25605772590E+02 -0.24622556812E+01  0.88174028982E+02  0.91849756015E+02  0.00000000000E+00 0.  1.
        -13    1    4    4    0    0 -0.26069178140E+02  0.57932184514E+02  0.58956825497E+01  0.63800463354E+02  0.00000000000E+00 0. -1.
         13    1    4    4    0    0  0.38146181106E+02  0.33458422813E+02  0.10900842804E+03  0.12023907258E+03  0.00000000000E+00 0.  1.
         -1    1    1    2    0  502  0.30521882404E+02 -0.40727036802E+02  0.20881004386E+02  0.55011754893E+02  0.00000000000E+00 0.  1.
<scales pt_clust_5="13000.00000" pt_clust_6="13000.00000" pt_clust_7="13000.00000" pt_clust_8="13000.00000" pt_clust_9="13000.00000"></scales>
<clustering>
<clus scale="   93.801">  5  6 -1 -1</clus>
<clus scale="  110.315">  7  8 -1 -1</clus>
<clus scale="   50.895">  7  9 -1 -1</clus>
<clus scale="  114.804">  1  5  2 -1</clus>
<clus scale="  196.743">  2  5  1 -1</clus>
</clustering>
</event>
<event>
 9    1  0.3303741E-006  0.2092588E+03  0.7546771E-02  0.1162346E+00
          1   -1    0    0  502    0 -0.00000000000E+00  0.00000000000E+00  0.80479751014E+02  0.80479751014E+02  0.00000000000E+00 0. -1.
         21   -1    0    0  501  502  0.00000000000E+00 -0.00000000000E+00 -0.36878564004E+03  0.36878564004E+03  0.00000000000E+00 0. -1.
         23    2    1    2    0    0 -0.33200763645E+02  0.86183553924E+02 -0.14991209986E+03  0.19838279113E+03  0.91390363038E+02 0.  0.
         23    2    1    2    0    0 -0.42029149143E+02 -0.44574371494E+02 -0.12315431783E+03  0.16357220349E+03  0.88518674761E+02 0.  0.
        -11    1    4    4    0    0 -0.24451483454E+02 -0.18809916261E+02 -0.12830388430E+03  0.13196050440E+03  0.00000000000E+00 0. -1.
         11    1    4    4    0    0 -0.17577665690E+02 -0.25764455233E+02  0.51495664742E+01  0.31611699091E+02  0.00000000000E+00 0.  1.
        -13    1    3    3    0    0 -0.30848102596E+02  0.14148622111E+01 -0.61706790475E+01  0.31491023304E+02  0.00000000000E+00 0.  1.
         13    1    3    3    0    0 -0.23526610495E+01  0.84768691713E+02 -0.14374142082E+03  0.16689176782E+03  0.00000000000E+00 0. -1.
          1    1    1    2  501    0  0.75229912789E+02 -0.41609182430E+02 -0.15239471336E+02  0.87310396444E+02  0.00000000000E+00 0. -1.
<scales pt_clust_5="13000.00000" pt_clust_6="13000.00000" pt_clust_7="13000.00000" pt_clust_8="13000.00000" pt_clust_9="13000.00000"></scales>
<clustering>
<clus scale="   88.519">  5  6 -1 -1</clus>
<clus scale="   85.970">  5  9 -1 -1</clus>
<clus scale="   91.390">  7  8 -1 -1</clus>
<clus scale="  129.931">  1  7  2 -1</clus>
<clus scale="  209.259">  2  5  1 -1</clus>
</clustering>
</event>
<event>
 9    1  0.3303741E-006  0.3018475E+03  0.7546771E-02  0.1128788E+00
          1   -1    0    0  502    0 -0.00000000000E+00  0.00000000000E+00  0.50882477145E+03  0.50882477145E+03  0.00000000000E+00 0. -1.
         21   -1    0    0  501  502  0.00000000000E+00 -0.00000000000E+00 -0.87574329460E+02  0.87574329460E+02  0.00000000000E+00 0. -1.
         23    2    1    2    0    0 -0.25801392271E+02  0.30452420797E+02  0.20026874861E+03  0.22230709198E+03  0.87862447618E+02 0.  0.
         23    2    1    2    0    0 -0.70596043449E+02  0.87710611547E+02  0.77512537594E+02  0.16471587254E+03  0.91903060086E+02 0.  0.
        -13    1    4    4    0    0 -0.48265392819E+02 -0.18489437549E+01  0.75315088330E+01  0.48884459313E+02  0.00000000000E+00 0.  1.
         13    1    4    4    0    0 -0.22330650630E+02  0.89559555302E+02  0.69981028761E+02  0.11583141323E+03  0.00000000000E+00 0. -1.
        -13    1    3    3    0    0 -0.51838828021E+02  0.33161021840E+02  0.17660323914E+03  0.18701770380E+03  0.00000000000E+00 0. -1.
         13    1    3    3    0    0  0.26037435749E+02 -0.27086010425E+01  0.23665509471E+02  0.35289388186E+02  0.00000000000E+00 0.  1.
          1    1    1    2  501    0  0.96397435721E+02 -0.11816303234E+03  0.14346915579E+03  0.20937613639E+03  0.00000000000E+00 0. -1.
<scales pt_clust_5="13000.00000" pt_clust_6="13000.00000" pt_clust_7="13000.00000" pt_clust_8="13000.00000" pt_clust_9="13000.00000"></scales>
<clustering>
<clus scale="   87.862">  7  8 -1 -1</clus>
<clus scale="   91.903">  5  6 -1 -1</clus>
<clus scale="   96.503">  1  7  2 -1</clus>
<clus scale="  128.834">  5  9 -1 -1</clus>
<clus scale="  301.848">  2  5  1 -1</clus>
</clustering>
</event>
<event>
 9    1  0.3303741E-006  0.3167770E+03  0.7546771E-02  0.1118261E+00
         21   -1    0    0  501  502  0.00000000000E+00  0.00000000000E+00  0.81710697227E+02  0.81710697227E+02  0.00000000000E+00 0. -1.
          1   -1    0    0  502    0 -0.00000000000E+00 -0.00000000000E+00 -0.56048785025E+03  0.56048785025E+03  0.00000000000E+00 0. -1.
         23    2    1    2    0    0  0.54888636304E+02  0.20738955933E+02 -0.15551920049E+03  0.18960231207E+03  0.91213750798E+02 0.  0.
         23    2    1    2    0    0  0.10714544390E+03  0.24395179359E+02 -0.19254578052E+03  0.23957556686E+03  0.90814666828E+02 0.  0.
        -11    1    3    3    0    0  0.78711449667E+02  0.28003278987E+02 -0.11893963128E+03  0.14534893131E+03  0.00000000000E+00 0.  1.
         11    1    3    3    0    0 -0.23822813363E+02 -0.72643230538E+01 -0.36579569202E+02  0.44253380763E+02  0.00000000000E+00 0. -1.
        -13    1    4    4    0    0  0.84096615693E+02 -0.18298633262E+02 -0.82102182382E+02  0.11894473129E+03  0.00000000000E+00 0. -1.
         13    1    4    4    0    0  0.23048828210E+02  0.42693812621E+02 -0.11044359814E+03  0.12063083556E+03  0.00000000000E+00 0.  1.
          1    1    1    2  501    0 -0.16203408021E+03 -0.45134135292E+02 -0.13071217201E+03  0.21302066855E+03  0.00000000000E+00 0. -1.
<scales pt_clust_5="13000.00000" pt_clust_6="13000.00000" pt_clust_7="13000.00000" pt_clust_8="13000.00000" pt_clust_9="13000.00000"></scales>
<clustering>
<clus scale="   90.815">  7  8 -1 -1</clus>
<clus scale="   91.214">  5  6 -1 -1</clus>
<clus scale="  108.457">  2  5  1 -1</clus>
<clus scale="  142.330">  7  9 -1 -1</clus>
<clus scale="  316.777">  1  5  2 -1</clus>
</clustering>
</event>
<event>
 9    1  0.3303741E-006  0.1752615E+03  0.7546771E-02  0.1201408E+00
         21   -1    0    0  501  502  0.00000000000E+00  0.00000000000E+00  0.99974550158E+02  0.99974550158E+02  0.00000000000E+00 0. -1.
          3   -1    0    0  502    0 -0.00000000000E+00 -0.00000000000E+00 -0.18440940928E+03  0.18440940928E+03  0.00000000000E+00 0. -1.
         23    2    1    2    0    0 -0.94283395168E+01 -0.15097870311E+01 -0.53060937692E+02  0.10633645976E+03  0.91655913736E+02 0.  0.
         23    2    1    2    0    0  0.36088459540E+02 -0.19122537415E+02 -0.73211570395E+02  0.12431814379E+03  0.91798793498E+02 0.  0.
        -11    1    3    3    0    0  0.31128844299E+02  0.27936353536E+02 -0.20608606116E+02  0.46627882670E+02  0.00000000000E+00 0.  1.
         11    1    3    3    0    0 -0.40557183816E+02 -0.29446140567E+02 -0.32452331577E+02  0.59708577090E+02  0.00000000000E+00 0. -1.
        -13    1    4    4    0    0  0.19447267242E+02  0.25556323516E+02  0.52166725482E+01  0.32535143265E+02  0.00000000000E+00 0.  1.
         13    1    4    4    0    0  0.16641192299E+02 -0.44678860930E+02 -0.78428242943E+02  0.91783000530E+02  0.00000000000E+00 0. -1.
          3    1    1    2  501    0 -0.26660120023E+02  0.20632324446E+02  0.41837648970E+02  0.53729355878E+02  0.00000000000E+00 0. -1.
<scales pt_clust_5="13000.00000" pt_clust_6="13000.00000" pt_clust_7="13000.00000" pt_clust_8="13000.00000" pt_clust_9="13000.00000"></scales>
<clustering>
<clus scale="   91.656">  5  6 -1 -1</clus>
<clus scale="   91.799">  7  8 -1 -1</clus>
<clus scale="   33.711">  7  9 -1 -1</clus>
<clus scale="   92.152">  2  5  1 -1</clus>
<clus scale="  175.261">  1  5  2 -1</clus>
</clustering>
</event>
<event>
 9    1  0.3303741E-006  0.4562980E+03  0.7546771E-02  0.1055389E+00
         21   -1    0    0  501  502  0.00000000000E+00  0.00000000000E+00  0.55648117168E+03  0.55648117168E+03  0.00000000000E+00 0. -1.
          1   -1    0    0  502    0 -0.00000000000E+00 -0.00000000000E+00 -0.19601329599E+03  0.19601329599E+03  0.00000000000E+00 0. -1.
         23    2    1    2    0    0  0.16084333643E+03  0.47077268020E+02  0.47485503822E+02  0.19917196627E+03  0.96580282855E+02 0.  0.
         23    2    1    2    0    0  0.53016694302E+02  0.18448063848E+02 -0.56149910442E+02  0.12171119049E+03  0.92248037998E+02 0.  0.
        -11    1    3    3    0    0  0.27115136303E+02 -0.19125508505E+02  0.36831618781E+02  0.49574023786E+02  0.00000000000E+00 0.  1.
         11    1    3    3    0    0  0.13372820013E+03  0.66202776525E+02  0.10653885040E+02  0.14959794248E+03  0.00000000000E+00 0. -1.
        -13    1    4    4    0    0  0.34425473088E+02  0.40795909812E+02  0.53893876586E+01  0.53651327608E+02  0.00000000000E+00 0.  1.
         13    1    4    4    0    0  0.18591221214E+02 -0.22347845964E+02 -0.61539298101E+02  0.68059862887E+02  0.00000000000E+00 0. -1.
          1    1    1    2  501    0 -0.21386003073E+03 -0.65525331868E+02  0.36913228230E+03  0.43161131090E+03  0.00000000000E+00 0. -1.
<scales pt_clust_5="13000.00000" pt_clust_6="13000.00000" pt_clust_7="13000.00000" pt_clust_8="13000.00000" pt_clust_9="13000.00000"></scales>
<clustering>
<clus scale="   92.248">  7  8 -1 -1</clus>
<clus scale="   96.580">  5  6 -1 -1</clus>
<clus scale="  193.429">  2  5  1 -1</clus>
<clus scale="  180.110">  7  9 -1 -1</clus>
<clus scale="  456.298">  1  5  2 -1</clus>
</clustering>
</event>
<event>
 9    1  0.3303741E-006  0.2774855E+03  0.7546771E-02  0.1132035E+00
         21   -1    0    0  501  502  0.00000000000E+00  0.00000000000E+00  0.47759955764E+03  0.47759955764E+03  0.00000000000E+00 0.  1.
         -1   -1    0    0    0  501 -0.00000000000E+00 -0.00000000000E+00 -0.83461464290E+02  0.83461464290E+02  0.00000000000E+00 0.  1.
         23    2    1    2    0    0  0.68756776664E+02 -0.12821715688E+01  0.16630635120E+03  0.20202689781E+03  0.91803740053E+02 0.  0.
         23    2    1    2    0    0 -0.89813196524E+02 -0.81547000831E+02  0.45373466384E+02  0.15755194870E+03  0.89708090340E+02 0.  0.
        -11    1    4    4    0    0 -0.36160216009E+02 -0.79223443557E+02  0.54990305053E+02  0.10299441189E+03  0.00000000000E+00 0. -1.
         11    1    4    4    0    0 -0.53652980514E+02 -0.23235572738E+01 -0.96168386690E+01  0.54557536807E+02  0.00000000000E+00 0.  1.
        -13    1    3    3    0    0  0.87525947352E+02 -0.16900203700E+02  0.14135716078E+03  0.16711748935E+03  0.00000000000E+00 0.  1.
         13    1    3    3    0    0 -0.18769170688E+02  0.15618032131E+02  0.24949190424E+02  0.34909408457E+02  0.00000000000E+00 0. -1.
         -1    1    1    2    0  502  0.21056419860E+02  0.82829172400E+02  0.18245827576E+03  0.20148217542E+03  0.00000000000E+00 0.  1.
<scales pt_clust_5="13000.00000" pt_clust_6="13000.00000" pt_clust_7="13000.00000" pt_clust_8="13000.00000" pt_clust_9="13000.00000"></scales>
<clustering>
<clus scale="   89.708">  5  6 -1 -1</clus>
<clus scale="   85.464">  5  9 -1 -1</clus>
<clus scale="   91.804">  7  8 -1 -1</clus>
<clus scale="  114.704">  2  7  1 -1</clus>
<clus scale="  277.485">  1  5  2 -1</clus>
</clustering>
</event>
<event>
 9    1  0.3303741E-006  0.3793870E+03  0.7546771E-02  0.1094916E+00
         21   -1    0    0  501  502  0.00000000000E+00  0.00000000000E+00  0.61839380353E+03  0.61839380353E+03  0.00000000000E+00 0.  1.
         -1   -1    0    0    0  501 -0.00000000000E+00 -0.00000000000E+00 -0.32505336029E+03  0.32505336029E+03  0.00000000000E+00 0.  1.
         23    2    1    2    0    0 -0.40424361237E+02 -0.52083561805E+02 -0.25325778272E+03  0.27808700841E+03  0.94053460067E+02 0.  0.
         23    2    1    2    0    0 -0.10430230505E+03  0.79685285388E+02  0.87043238430E+02  0.18276462120E+03  0.92723599270E+02 0.  0.
        -11    1    4    4    0    0 -0.71678726834E+02  0.93075586633E+02  0.89094068149E+02  0.14744035298E+03  0.00000000000E+00 0.  1.
         11    1    4    4    0    0 -0.32623578215E+02 -0.13390301245E+02 -0.20508297188E+01  0.35324268223E+02  0.00000000000E+00 0. -1.
        -13    1    3    3    0    0  0.15958410095E+01 -0.69351272400E+02 -0.15743107092E+03  0.17203687914E+03  0.00000000000E+00 0.  1.
         13    1    3    3    0    0 -0.42020202247E+02  0.17267710595E+02 -0.95826711795E+02  0.10605012928E+03  0.00000000000E+00 0. -1.
         -1    1    1    2    0  502  0.14472666629E+03 -0.27601723583E+02  0.45955498752E+03  0.48259553420E+03  0.00000000000E+00 0.  1.
<scales pt_clust_5="13000.00000" pt_clust_6="13000.00000" pt_clust_7="13000.00000" pt_clust_8="13000.00000" pt_clust_9="13000.00000"></scales>
<clustering>
<clus scale="   92.724">  5  6 -1 -1</clus>
<clus scale="   94.053">  7  8 -1 -1</clus>
<clus scale="  114.860">  2  7  1 -1</clus>
<clus scale="  141.983">  5  9 -1 -1</clus>
<clus scale="  379.387">  1  5  2 -1</clus>
</clustering>
</event>
<event>
 9    1  0.3303741E-006  0.3124160E+03  0.7546771E-02  0.1112301E+00
          2   -1    0    0  502    0 -0.00000000000E+00  0.00000000000E+00  0.15520018722E+03  0.15520018722E+03  0.00000000000E+00 0. -1.
         21   -1    0    0  501  502  0.00000000000E+00 -0.00000000000E+00 -0.33862055980E+03  0.33862055980E+03  0.00000000000E+00 0.  1.
         23    2    1    2    0    0  0.74313695735E+02 -0.59994898157E+02  0.27145806033E+00  0.13140323466E+03  0.90248674286E+02 0.  0.
         23    2    1    2    0    0  0.19375302628E+01 -0.10483757034E+02 -0.23177919071E+03  0.24798899974E+03  0.87540205375E+02 0.  0.
        -11    1    3    3    0    0 -0.20348393533E+02 -0.31598431574E+01  0.37691419285E+01  0.20934377446E+02  0.00000000000E+00 0. -1.
         11    1    3    3    0    0  0.94662089268E+02 -0.56835055000E+02 -0.34976838681E+01  0.11046885721E+03  0.00000000000E+00 0.  1.
        -13    1    4    4    0    0  0.21409834205E+02  0.23254898746E+02 -0.34055454779E+02  0.46464452183E+02  0.00000000000E+00 0. -1.
         13    1    4    4    0    0 -0.19472303943E+02 -0.33738655781E+02 -0.19772373593E+03  0.20152454755E+03  0.00000000000E+00 0.  1.
          2    1    1    2  501    0 -0.76251225997E+02  0.70478655192E+02  0.48087360066E+02  0.11442851263E+03  0.00000000000E+00 0. -1.
<scales pt_clust_5="13000.00000" pt_clust_6="13000.00000" pt_clust_7="13000.00000" pt_clust_8="13000.00000" pt_clust_9="13000.00000"></scales>
<clustering>
<clus scale="   87.540">  7  8 -1 -1</clus>
<clus scale="   90.249">  5  6 -1 -1</clus>
<clus scale="  103.834">  7  9 -1 -1</clus>
<clus scale="  131.403">  1  5  2 -1</clus>
<clus scale="  312.416">  2  5  1 -1</clus>
</clustering>
</event>
<event>
 9    1  0.3303741E-006  0.1808144E+03  0.7546771E-02  0.1177607E+00
          2   -1    0    0  502    0 -0.00000000000E+00  0.00000000000E+00  0.48030208345E+03  0.48030208345E+03  0.00000000000E+00 0. -1.
         21   -1    0    0  501  502  0.00000000000E+00 -0.00000000000E+00 -0.74124684582E+02  0.74124684582E+02  0.00000000000E+00 0.  1.
         23    2    1    2    0    0  0.10777997895E+03 -0.11715694893E+01  0.42496197636E+02  0.14827672287E+03  0.92531958238E+02 0.  0.
         23    2    1    2    0    0 -0.61721207224E+02  0.50071734688E+02  0.23199434025E+03  0.25831883748E+03  0.81182275478E+02 0.  0.
        -11    1    4    4    0    0 -0.39992884989E+02  0.55509905046E+02  0.22450988425E+03  0.23470293678E+03  0.00000000000E+00 0. -1.
         11    1    4    4    0    0 -0.21728322235E+02 -0.54381703581E+01  0.74844559978E+01  0.23615900694E+02  0.00000000000E+00 0.  1.
        -11    1    3    3    0    0  0.90758739253E+02 -0.16373925274E+02 -0.82926484286E+01  0.92596016100E+02  0.00000000000E+00 0.  1.
         11    1    3    3    0    0  0.17021239695E+02  0.15202355784E+02  0.50788846065E+02  0.55680706773E+02  0.00000000000E+00 0. -1.
          2    1    1    2  501    0 -0.46058771724E+02 -0.48900165198E+02  0.13168686098E+03  0.14783120768E+03  0.00000000000E+00 0. -1.
<scales pt_clust_5="13000.00000" pt_clust_6="13000.00000" pt_clust_7="13000.00000" pt_clust_8="13000.00000" pt_clust_9="13000.00000"></scales>
<clustering>
<clus scale="   81.182">  5  6 -1 -1</clus>
<clus scale="   67.176">  5  9 -1 -1</clus>
<clus scale="   92.532">  7  8 -1 -1</clus>
<clus scale="  142.057">  1  7  2 -1</clus>
<clus scale="  180.814">  2  5  1 -1</clus>
</clustering>
</event>
<event>
 9    1  0.3303741E-006  0.2023932E+03  0.7546771E-02  0.1178529E+00
         -3   -1    0    0    0  501 -0.00000000000E+00  0.00000000000E+00  0.48940776882E+03  0.48940776882E+03  0.00000000000E+00 0.  1.
         21   -1    0    0  501  502  0.00000000000E+00 -0.00000000000E+00 -0.47969308526E+02  0.47969308526E+02  0.00000000000E+00 0.  1.
         23    2    1    2    0    0  0.94422119375E+01  0.39801599646E+02  0.19236688480E+03  0.21644150996E+03  0.90380231067E+02 0.  0.
         23    2    1    2    0    0 -0.54527051492E+02 -0.28135251670E+02  0.24712087273E+03  0.27432492832E+03  0.10208157928E+03 0.  0.
        -13    1    4    4    0    0 -0.29283414847E+02 -0.60688362467E+02  0.20332421432E+03  0.21419928070E+03  0.00000000000E+00 0. -1.
         13    1    4    4    0    0 -0.25243636644E+02  0.32553110797E+02  0.43796658406E+02  0.60125647615E+02  0.00000000000E+00 0.  1.
        -13    1    3    3    0    0  0.49949746673E+02  0.17357285983E+02  0.10055979803E+03  0.11361569235E+03  0.00000000000E+00 0.  1.
         13    1    3    3    0    0 -0.40507534735E+02  0.22444313663E+02  0.91807086770E+02  0.10282581761E+03  0.00000000000E+00 0. -1.
         -3    1    1    2    0  502  0.45084839554E+02 -0.11666347976E+02  0.19507027675E+01  0.46610639064E+02  0.00000000000E+00 0.  1.
<scales pt_clust_5="13000.00000" pt_clust_6="13000.00000" pt_clust_7="13000.00000" pt_clust_8="13000.00000" pt_clust_9="13000.00000"></scales>
<clustering>
<clus scale="   90.380">  7  8 -1 -1</clus>
<clus scale="   99.206">  1  7  2 -1</clus>
<clus scale="  102.082">  5  6 -1 -1</clus>
<clus scale="   46.629">  5  9 -1 -1</clus>
<clus scale="  202.393">  2  5  1 -1</clus>
</clustering>
</event>
<event>
 9    1  0.3303741E-006  0.3689669E+03  0.7546771E-02  0.1059706E+00
         21   -1    0    0  501  502  0.00000000000E+00  0.00000000000E+00  0.44451984045E+02  0.44451984045E+02  0.00000000000E+00 0. -1.
          2   -1    0    0  502    0 -0.00000000000E+00 -0.00000000000E+00 -0.27009739987E+04  0.27009739987E+04  0.00000000000E+00 0. -1.
         23    2    1    2    0    0  0.17915980753E+02 -0.30834190349E+03 -0.12477543710E+04  0.12891420535E+04  0.97982405771E+02 0.  0.
         23    2    1    2    0    0 -0.80263345269E+02  0.24061983868E+03 -0.90830226149E+03  0.94742336815E+03  0.90873147540E+02 0.  0.
        -11    1    3    3    0    0 -0.36627194603E+02 -0.14537309154E+03 -0.65777206562E+03  0.67463988722E+03  0.00000000000E+00 0.  1.
         11    1    3    3    0    0  0.54543175355E+02 -0.16296881194E+03 -0.58998230542E+03  0.61450216627E+03  0.00000000000E+00 0. -1.
        -13    1    4    4    0    0 -0.17349250535E+02  0.40285355980E+02 -0.65307169211E+02  0.78669770249E+02  0.00000000000E+00 0. -1.
         13    1    4    4    0    0 -0.62914094734E+02  0.20033448270E+03 -0.84299509227E+03  0.86875359791E+03  0.00000000000E+00 0.  1.
          2    1    1    2  501    0  0.62347364516E+02  0.67722064806E+02 -0.50046538211E+03  0.50886056107E+03  0.00000000000E+00 0. -1.
<scales pt_clust_5="13000.00000" pt_clust_6="13000.00000" pt_clust_7="13000.00000" pt_clust_8="13000.00000" pt_clust_9="13000.00000"></scales>
<clustering>
<clus scale="   90.873">  7  8 -1 -1</clus>
<clus scale="   92.052">  7  9 -1 -1</clus>
<clus scale="   97.982">  5  6 -1 -1</clus>
<clus scale="  324.031">  2  5  1 -1</clus>
<clus scale="  368.967">  1  5  2 -1</clus>
</clustering>
</event>
<event>
 9    1  0.3303741E-006  0.2562218E+03  0.7546771E-02  0.1148252E+00
         21   -1    0    0  501  502  0.00000000000E+00  0.00000000000E+00  0.11055370105E+03  0.11055370105E+03  0.00000000000E+00 0. -1.
          1   -1    0    0  502    0 -0.00000000000E+00 -0.00000000000E+00 -0.46901597841E+03  0.46901597841E+03  0.00000000000E+00 0. -1.
         23    2    1    2    0    0 -0.12232947074E+01 -0.32085250346E+02 -0.30136187919E+03  0.31706239766E+03  0.93159122177E+02 0.  0.
         23    2    1    2    0    0  0.20673179962E+02  0.83705456884E+02 -0.12155427151E+03  0.17767070037E+03  0.96733928718E+02 0.  0.
        -13    1    4    4    0    0  0.52427363529E+02  0.28036627488E+02 -0.85492884986E+02  0.10413315663E+03  0.00000000000E+00 0. -1.
         13    1    4    4    0    0 -0.31754183567E+02  0.55668829396E+02 -0.36061386523E+02  0.73537543733E+02  0.00000000000E+00 0.  1.
        -13    1    3    3    0    0  0.32532330953E+02 -0.45886389816E+02 -0.12655640942E+03  0.13849345866E+03  0.00000000000E+00 0.  1.
         13    1    3    3    0    0 -0.33755625660E+02  0.13801139470E+02 -0.17480546977E+03  0.17856893900E+03  0.00000000000E+00 0. -1.
          1    1    1    2  501    0 -0.19449885254E+02 -0.51620206537E+02  0.64453873344E+02  0.84836581428E+02  0.00000000000E+00 0. -1.
<scales pt_clust_5="13000.00000" pt_clust_6="13000.00000" pt_clust_7="13000.00000" pt_clust_8="13000.00000" pt_clust_9="13000.00000"></scales>
<clustering>
<clus scale="   93.159">  7  8 -1 -1</clus>
<clus scale="   96.734">  5  6 -1 -1</clus>
<clus scale="   55.163">  5  9 -1 -1</clus>
<clus scale="   98.537">  2  7  1 -1</clus>
<clus scale="  256.222">  1  5  2 -1</clus>
</clustering>
</event>
<event>
 9    1  0.3303741E-006  0.3230953E+03  0.7546771E-02  0.1121276E+00
         21   -1    0    0  501  502  0.00000000000E+00  0.00000000000E+00  0.41424073270E+03  0.41424073270E+03  0.00000000000E+00 0.  1.
         -1   -1    0    0    0  501 -0.00000000000E+00 -0.00000000000E+00 -0.10580722904E+03  0.10580722904E+03  0.00000000000E+00 0.  1.
         23    2    1    2    0    0 -0.18177996455E+02  0.17949965376E+02  0.56601595145E+02  0.11040193070E+03  0.91280912118E+02 0.  0.
         23    2    1    2    0    0 -0.41154772392E+02 -0.11865533910E+03  0.28637194250E+02  0.15769796054E+03  0.90971166176E+02 0.  0.
        -13    1    3    3    0    0  0.12096379135E+02  0.40824415453E+02  0.58564389421E+02  0.72406788311E+02  0.00000000000E+00 0.  1.
         13    1    3    3    0    0 -0.30274375590E+02 -0.22874450078E+02 -0.19627942760E+01  0.37995142388E+02  0.00000000000E+00 0. -1.
        -13    1    4    4    0    0  0.80600075622E+01 -0.10219845322E+03  0.12068614950E+02  0.10322373288E+03  0.00000000000E+00 0.  1.
         13    1    4    4    0    0 -0.49214779954E+02 -0.16456885876E+02  0.16568579300E+02  0.54474227656E+02  0.00000000000E+00 0. -1.
         -1    1    1    2    0  502  0.59332768847E+02  0.10070537372E+03  0.22319471427E+03  0.25194807051E+03  0.00000000000E+00 0.  1.
<scales pt_clust_5="13000.00000" pt_clust_6="13000.00000" pt_clust_7="13000.00000" pt_clust_8="13000.00000" pt_clust_9="13000.00000"></scales>
<clustering>
<clus scale="   90.971">  7  8 -1 -1</clus>
<clus scale="   91.281">  5  6 -1 -1</clus>
<clus scale="   94.788">  2  5  1 -1</clus>
<clus scale="  118.107">  7  9 -1 -1</clus>
<clus scale="  323.095">  1  5  2 -1</clus>
</clustering>
</event>
<event>
 9    1  0.3303741E-006  0.1454094E+03  0.7546771E-02  0.1218166E+00
         21   -1    0    0  501  502  0.00000000000E+00  0.00000000000E+00  0.25047774533E+03  0.25047774533E+03  0.00000000000E+00 0.  1.
          1   -1    0    0  502    0 -0.00000000000E+00 -0.00000000000E+00 -0.10226227694E+03  0.10226227694E+03  0.00000000000E+00 0. -1.
         23    2    1    2    0    0  0.35942288590E+01 -0.66722255833E+02 -0.35673068626E+02  0.11830693348E+03  0.90880057103E+02 0.  0.
         23    2    1    2    0    0 -0.24634677475E+02  0.29678743835E+02  0.15541325048E+03  0.18319087765E+03  0.88982717764E+02 0.  0.
        -11    1    4    4    0    0 -0.22358865842E+02  0.50608499452E+02  0.15213597555E+03  0.16188419983E+03  0.00000000000E+00 0.  1.
         11    1    4    4    0    0 -0.22758116329E+01 -0.20929755618E+02  0.32772749294E+01  0.21306677821E+02  0.00000000000E+00 0. -1.
        -13    1    3    3    0    0  0.23333737576E+02  0.15364613054E+02 -0.44434254754E+01  0.28289197117E+02  0.00000000000E+00 0.  1.
         13    1    3    3    0    0 -0.19739508717E+02 -0.82086868886E+02 -0.31229643150E+02  0.90017736359E+02  0.00000000000E+00 0. -1.
          1    1    1    2  501    0  0.21040448616E+02  0.37043511998E+02  0.28475286537E+02  0.51242211139E+02  0.00000000000E+00 0. -1.
<scales pt_clust_5="13000.00000" pt_clust_6="13000.00000" pt_clust_7="13000.00000" pt_clust_8="13000.00000" pt_clust_9="13000.00000"></scales>
<clustering>
<clus scale="   88.983">  5  6 -1 -1</clus>
<clus scale="   42.602">  5  9 -1 -1</clus>
<clus scale="   90.880">  7  8 -1 -1</clus>
<clus scale="  112.801">  2  7  1 -1</clus>
<clus scale="  145.409">  1  5  2 -1</clus>
</clustering>
</event>
<event>
 9    1  0.3303741E-006  0.2795537E+03  0.7546771E-02  0.1132241E+00
         21   -1    0    0  501  502  0.00000000000E+00  0.00000000000E+00  0.94804119229E+02  0.94804119229E+02  0.00000000000E+00 0. -1.
          1   -1    0    0  502    0 -0.00000000000E+00 -0.00000000000E+00 -0.58323020438E+03  0.58323020438E+03  0.00000000000E+00 0. -1.
         23    2    1    2    0    0 -0.24817253360E+02 -0.60082844278E+02  0.41149043332E+01  0.11168910330E+03  0.90728601429E+02 0.  0.
         23    2    1    2    0    0 -0.44837382380E+02  0.13572247172E+03 -0.36394270340E+03  0.40169212831E+03  0.92039634968E+02 0.  0.
        -11    1    4    4    0    0 -0.44603041138E+02  0.26787464005E+02 -0.63397454473E+02  0.82013637526E+02  0.00000000000E+00 0.  1.
         11    1    4    4    0    0 -0.23434124170E+00  0.10893500771E+03 -0.30054524892E+03  0.31967849079E+03  0.00000000000E+00 0. -1.
        -13    1    3    3    0    0  0.28892982144E+02  0.43363581460E+00 -0.77316820695E+01  0.29912729143E+02  0.00000000000E+00 0.  1.
         13    1    3    3    0    0 -0.53710235503E+02 -0.60516480092E+02  0.11846586403E+02  0.81776374155E+02  0.00000000000E+00 0. -1.
          1    1    1    2  501    0  0.69654635740E+02 -0.75639627440E+02 -0.12859828609E+03  0.16465309200E+03  0.00000000000E+00 0. -1.
<scales pt_clust_5="13000.00000" pt_clust_6="13000.00000" pt_clust_7="13000.00000" pt_clust_8="13000.00000" pt_clust_9="13000.00000"></scales>
<clustering>
<clus scale="   90.729">  7  8 -1 -1</clus>
<clus scale="   92.040">  5  6 -1 -1</clus>
<clus scale="  102.826">  5  9 -1 -1</clus>
<clus scale="  111.613">  2  7  1 -1</clus>
<clus scale="  279.554">  1  5  2 -1</clus>
</clustering>
</event>
<event>
 9    1  0.3303741E-006  0.4466565E+03  0.7546771E-02  0.1070250E+00
         21   -1    0    0  501  502  0.00000000000E+00  0.00000000000E+00  0.13219278873E+03  0.13219278873E+03  0.00000000000E+00 0.  1.
          2   -1    0    0  502    0 -0.00000000000E+00 -0.00000000000E+00 -0.64849605587E+03  0.64849605587E+03  0.00000000000E+00 0. -1.
         23    2    1    2    0    0 -0.97654028366E+02 -0.20822802519E+02 -0.91026316545E+02  0.16395344936E+03  0.92871119805E+02 0.  0.
         23    2    1    2    0    0 -0.26491718608E+01 -0.76211284164E+02 -0.46039282269E+03  0.47282754129E+03  0.76086494676E+02 0.  0.
        -11    1    3    3    0    0  0.42418618939E+01 -0.33419177523E+02 -0.21918389896E+02  0.40190180819E+02  0.00000000000E+00 0. -1.
         11    1    3    3    0    0 -0.10189589026E+03  0.12596375004E+02 -0.69107926649E+02  0.12376326854E+03  0.00000000000E+00 0.  1.
        -13    1    4    4    0    0  0.34258914822E+02 -0.42742560157E+02 -0.29692425772E+03  0.30193478520E+03  0.00000000000E+00 0. -1.
         13    1    4    4    0    0 -0.36908086683E+02 -0.33468724007E+02 -0.16346856497E+03  0.17089275609E+03  0.00000000000E+00 0.  1.
          2    1    1    2  501    0  0.10030320023E+03  0.97034086683E+02  0.35115872103E+02  0.14390785395E+03  0.00000000000E+00 0. -1.
<scales pt_clust_5="13000.00000" pt_clust_6="13000.00000" pt_clust_7="13000.00000" pt_clust_8="13000.00000" pt_clust_9="13000.00000"></scales>
<clustering>
<clus scale="   76.086">  7  8 -1 -1</clus>
<clus scale="   92.871">  5  6 -1 -1</clus>
<clus scale="  136.363">  2  5  1 -1</clus>
<clus scale="  130.835">  7  9 -1 -1</clus>
<clus scale="  446.657">  1  5  2 -1</clus>
</clustering>
</event>
<event>
 9    1  0.3303741E-006  0.6969222E+03  0.7546771E-02  0.1021753E+00
          1   -1    0    0  502    0 -0.00000000000E+00  0.00000000000E+00  0.93588135612E+03  0.93588135612E+03  0.00000000000E+00 0. -1.
         21   -1    0    0  501  502  0.00000000000E+00 -0.00000000000E+00 -0.20836855759E+03  0.20836855759E+03  0.00000000000E+00 0. -1.
         23    2    1    2    0    0  0.99267635627E+02 -0.51482966827E+02  0.11937556234E+02  0.14537632167E+03  0.92126056554E+02 0.  0.
         23    2    1    2    0    0  0.24310202307E+03  0.18490943635E+03  0.42340822525E+03  0.52942586140E+03  0.87904062669E+02 0.  0.
        -11    1    3    3    0    0  0.20125288482E+02 -0.34208592469E+02  0.43093361247E+02  0.58585773177E+02  0.00000000000E+00 0.  1.
         11    1    3    3    0    0  0.79142347145E+02 -0.17274374358E+02 -0.31155805013E+02  0.86790548490E+02  0.00000000000E+00 0. -1.
        -13    1    4    4    0    0  0.37919086831E+02  0.69744286106E+02  0.14129571456E+03  0.16206974284E+03  0.00000000000E+00 0.  1.
         13    1    4    4    0    0  0.20518293624E+03  0.11516515025E+03  0.28211251069E+03  0.36735611856E+03  0.00000000000E+00 0. -1.
          1    1    1    2  501    0 -0.34236965870E+03 -0.13342646952E+03  0.29216701704E+03  0.46944773065E+03  0.00000000000E+00 0. -1.
<scales pt_clust_5="13000.00000" pt_clust_6="13000.00000" pt_clust_7="13000.00000" pt_clust_8="13000.00000" pt_clust_9="13000.00000"></scales>
<clustering>
<clus scale="   87.904">  7  8 -1 -1</clus>
<clus scale="   92.126">  5  6 -1 -1</clus>
<clus scale="  144.885">  1  5  2 -1</clus>
<clus scale="  336.742">  7  9 -1 -1</clus>
<clus scale="  696.922">  2  5  1 -1</clus>
</clustering>
</event>
<event>
 9    1  0.3303741E-006  0.2806766E+03  0.7546771E-02  0.1139515E+00
          2   -1    0    0  502    0 -0.00000000000E+00  0.00000000000E+00  0.16132513791E+03  0.16132513791E+03  0.00000000000E+00 0. -1.
         21   -1    0    0  501  502  0.00000000000E+00 -0.00000000000E+00 -0.21570999245E+03  0.21570999245E+03  0.00000000000E+00 0. -1.
         23    2    1    2    0    0  0.49215701263E+01 -0.11886522304E+02 -0.14288863835E+02  0.93509051019E+02  0.91510981460E+02 0.  0.
         23    2    1    2    0    0 -0.30412002258E+02 -0.86753247766E+01  0.99814992307E+02  0.13983323035E+03  0.92683053894E+02 0.  0.
        -11    1    3    3    0    0 -0.22134275594E+02 -0.21969938548E+02  0.28261489422E+02  0.42087006786E+02  0.00000000000E+00 0. -1.
         11    1    3    3    0    0  0.27055845720E+02  0.10083416244E+02 -0.42550353257E+02  0.51422044232E+02  0.00000000000E+00 0.  1.
        -11    1    4    4    0    0  0.13132543792E+01  0.36637245015E+02  0.17410492015E+02  0.40584942917E+02  0.00000000000E+00 0.  1.
         11    1    4    4    0    0 -0.31725256637E+02 -0.45312569791E+02  0.82404500292E+02  0.99248287432E+02  0.00000000000E+00 0. -1.
          2    1    1    2  501    0  0.25490432131E+02  0.20561847081E+02 -0.13991098301E+03  0.14369284900E+03  0.00000000000E+00 0. -1.
<scales pt_clust_5="13000.00000" pt_clust_6="13000.00000" pt_clust_7="13000.00000" pt_clust_8="13000.00000" pt_clust_9="13000.00000"></scales>
<clustering>
<clus scale="   91.511">  5  6 -1 -1</clus>
<clus scale="   92.411">  1  5  2 -1</clus>
<clus scale="   92.683">  7  8 -1 -1</clus>
<clus scale="   32.694">  7  9 -1 -1</clus>
<clus scale="  280.677">  2  5  1 -1</clus>
</clustering>
</event>
<event>
 9    1  0.3303741E-006  0.2596820E+03  0.7546771E-02  0.1130345E+00
          2   -1    0    0  502    0 -0.00000000000E+00  0.00000000000E+00  0.63825252642E+02  0.63825252642E+02  0.00000000000E+00 0. -1.
         21   -1    0    0  501  502  0.00000000000E+00 -0.00000000000E+00 -0.85561666154E+03  0.85561666154E+03  0.00000000000E+00 0. -1.
         23    2    1    2    0    0  0.11444667621E+03 -0.45897042034E+01 -0.90613769942E+02  0.17172217625E+03  0.90324655718E+02 0.  0.
         23    2    1    2    0    0 -0.19149837421E+02  0.68821324118E+02 -0.17717082687E+03  0.21125880963E+03  0.90209156009E+02 0.  0.
        -11    1    3    3    0    0  0.61561167148E+02 -0.30678317143E+02 -0.89324568619E+02  0.11273781532E+03  0.00000000000E+00 0.  1.
         11    1    3    3    0    0  0.52885509065E+02  0.26088612940E+02 -0.12892013228E+01  0.58984360929E+02  0.00000000000E+00 0. -1.
        -11    1    4    4    0    0 -0.34294495728E+02 -0.67939157544E+01 -0.34712872802E+02  0.49267162154E+02  0.00000000000E+00 0.  1.
         11    1    4    4    0    0  0.15144658308E+02  0.75615239872E+02 -0.14245795407E+03  0.16199164748E+03  0.00000000000E+00 0. -1.
          2    1    1    2  501    0 -0.95296838792E+02 -0.64231619915E+02 -0.52400681209E+03  0.53646092831E+03  0.00000000000E+00 0. -1.
<scales pt_clust_5="13000.00000" pt_clust_6="13000.00000" pt_clust_7="13000.00000" pt_clust_8="13000.00000" pt_clust_9="13000.00000"></scales>
<clustering>
<clus scale="   90.209">  7  8 -1 -1</clus>
<clus scale="   90.325">  5  6 -1 -1</clus>
<clus scale="  114.923">  7  9 -1 -1</clus>
<clus scale="  145.869">  1  5  2 -1</clus>
<clus scale="  259.682">  2  5  1 -1</clus>
</clustering>
</event>
<event>
 9    1  0.3303741E-006  0.3280508E+03  0.7546771E-02  0.1106666E+00
          2   -1    0    0  502    0 -0.00000000000E+00  0.00000000000E+00  0.69089708917E+02  0.69089708917E+02  0.00000000000E+00 0. -1.
         21   -1    0    0  501  502  0.00000000000E+00 -0.00000000000E+00 -0.80172040574E+03  0.80172040574E+03  0.00000000000E+00 0. -1.
         23    2    1    2    0    0 -0.75324720025E+02  0.58060550874E+02 -0.30410426143E+03  0.33113220807E+03  0.90134878866E+02 0.  0.
         23    2    1    2    0    0  0.37613690178E+01  0.24367626565E+02  0.41898683228E+01  0.93405436961E+02  0.89994952836E+02 0.  0.
        -11    1    3    3    0    0 -0.76831115138E+02  0.78777208345E+02 -0.26247950749E+03  0.28461265021E+03  0.00000000000E+00 0. -1.
         11    1    3    3    0    0  0.15063951128E+01 -0.20716657471E+02 -0.41624753938E+02  0.46519557859E+02  0.00000000000E+00 0.  1.
        -11    1    4    4    0    0  0.46526593668E+02  0.67015333623E+01  0.33759487118E+01  0.47127820843E+02  0.00000000000E+00 0. -1.
         11    1    4    4    0    0 -0.42765224650E+02  0.17666093202E+02  0.81391961107E+00  0.46277616118E+02  0.00000000000E+00 0.  1.
          2    1    1    2  501    0  0.71563351007E+02 -0.82428177439E+02 -0.43271630372E+03  0.44627246962E+03  0.00000000000E+00 0. -1.
<scales pt_clust_5="13000.00000" pt_clust_6="13000.00000" pt_clust_7="13000.00000" pt_clust_8="13000.00000" pt_clust_9="13000.00000"></scales>
<clustering>
<clus scale="   89.995">  7  8 -1 -1</clus>
<clus scale="   90.135">  5  6 -1 -1</clus>
<clus scale="  109.159">  7  9 -1 -1</clus>
<clus scale="  131.031">  1  5  2 -1</clus>
<clus scale="  328.051">  2  5  1 -1</clus>
</clustering>
</event>
<event>
 9    1  0.3303741E-006  0.3558243E+03  0.7546771E-02  0.1092190E+00
         -1   -1    0    0    0  501 -0.00000000000E+00  0.00000000000E+00  0.51770362785E+03  0.51770362785E+03  0.00000000000E+00 0.  1.
         21   -1    0    0  501  502  0.00000000000E+00 -0.00000000000E+00 -0.22124106882E+03  0.22124106882E+03  0.00000000000E+00 0.  1.
         23    2    1    2    0    0  0.69244429850E+02 -0.92447556809E+02  0.34859519642E+03  0.37932163553E+03  0.94999738903E+02 0.  0.
         23    2    1    2    0    0  0.83118420716E+02 -0.23490763582E+02  0.58757313257E+02  0.13837045997E+03  0.90738495112E+02 0.  0.
        -11    1    3    3    0    0  0.55468586566E+02 -0.64898424854E+02  0.33490414933E+03  0.34561446567E+03  0.00000000000E+00 0.  1.
         11    1    3    3    0    0  0.13775843284E+02 -0.27549131954E+02  0.13691047091E+02  0.33707169862E+02  0.00000000000E+00 0. -1.
        -11    1    4    4    0    0  0.67918579991E+02 -0.56523272038E+02  0.35617815428E+02  0.95270365622E+02  0.00000000000E+00 0. -1.
         11    1    4    4    0    0  0.15199840725E+02  0.33032508457E+02  0.23139497829E+02  0.43100094347E+02  0.00000000000E+00 0.  1.
         -1    1    1    2    0  502 -0.15236285057E+03  0.11593832039E+03 -0.11088995064E+03  0.22125260116E+03  0.00000000000E+00 0.  1.
<scales pt_clust_5="13000.00000" pt_clust_6="13000.00000" pt_clust_7="13000.00000" pt_clust_8="13000.00000" pt_clust_9="13000.00000"></scales>
<clustering>
<clus scale="   90.738">  7  8 -1 -1</clus>
<clus scale="   95.000">  5  6 -1 -1</clus>
<clus scale="  149.554">  1  5  2 -1</clus>
<clus scale="  152.012">  7  9 -1 -1</clus>
<clus scale="  355.824">  2  5  1 -1</clus>
</clustering>
</event>
<event>
 9    1  0.3303741E-006  0.1645583E+03  0.7546771E-02  0.1199994E+00
         -4   -1    0    0    0  501 -0.00000000000E+00  0.00000000000E+00  0.34766362259E+02  0.34766362259E+02  0.00000000000E+00 0.  1.
         21   -1    0    0  501  502  0.00000000000E+00 -0.00000000000E+00 -0.66607638757E+03  0.66607638757E+03  0.00000000000E+00 0. -1.
         23    2    1    2    0    0  0.64080497553E+02  0.28481689392E+02 -0.13108281456E+03  0.17424357704E+03  0.90887859861E+02 0.  0.
         23    2    1    2    0    0  0.21980092655E+01 -0.35328423331E+02 -0.31222802587E+03  0.32714137838E+03  0.91006662248E+02 0.  0.
        -11    1    3    3    0    0  0.59267154331E+02 -0.22465984378E+02 -0.66907975749E+02  0.92162862669E+02  0.00000000000E+00 0.  1.
         11    1    3    3    0    0  0.48133432218E+01  0.50947673770E+02 -0.64174838811E+02  0.82080714373E+02  0.00000000000E+00 0. -1.
        -11    1    4    4    0    0  0.32449524909E+02  0.91463129720E+01 -0.56303228623E+02  0.65625301989E+02  0.00000000000E+00 0.  1.
         11    1    4    4    0    0 -0.30251515643E+02 -0.44474736303E+02 -0.25592479725E+03  0.26151607639E+03  0.00000000000E+00 0. -1.
         -4    1    1    2    0  502 -0.66278506818E+02  0.68467339384E+01 -0.18799918488E+03  0.19945779440E+03  0.00000000000E+00 0.  1.
<scales pt_clust_5="13000.00000" pt_clust_6="13000.00000" pt_clust_7="13000.00000" pt_clust_8="13000.00000" pt_clust_9="13000.00000"></scales>
<clustering>
<clus scale="   90.888">  5  6 -1 -1</clus>
<clus scale="   91.007">  7  8 -1 -1</clus>
<clus scale="   66.631">  7  9 -1 -1</clus>
<clus scale="  114.796">  1  5  2 -1</clus>
<clus scale="  164.558">  2  5  1 -1</clus>
</clustering>
</event>
<event>
 9    1  0.3303741E-006  0.2008555E+03  0.7546771E-02  0.1177721E+00
          1   -1    0    0  502    0 -0.00000000000E+00  0.00000000000E+00  0.10704026971E+04  0.10704026971E+04  0.00000000000E+00 0. -1.
         21   -1    0    0  501  502  0.00000000000E+00 -0.00000000000E+00 -0.21645351253E+02  0.21645351253E+02  0.00000000000E+00 0. -1.
         23    2    1    2    0    0  0.54446877534E+02 -0.24540601989E+01  0.33760330963E+03  0.35307376769E+03  0.87832829149E+02 0.  0.
         23    2    1    2    0    0 -0.62801128503E+02 -0.64464833847E+02  0.53961413753E+03  0.55465426348E+03  0.91423399836E+02 0.  0.
        -11    1    3    3    0    0  0.77020747598E+01  0.36553226253E+02  0.78804591221E+02  0.87210228200E+02  0.00000000000E+00 0.  1.
         11    1    3    3    0    0  0.46744802774E+02 -0.39007286452E+02  0.25879871841E+03  0.26586353949E+03  0.00000000000E+00 0. -1.
        -11    1    4    4    0    0  0.72538147085E+01 -0.53788543308E+02  0.29633417457E+03  0.30126361917E+03  0.00000000000E+00 0.  1.
         11    1    4    4    0    0 -0.70054943211E+02 -0.10676290539E+02  0.24327996296E+03  0.25339064432E+03  0.00000000000E+00 0. -1.
          1    1    1    2  501    0  0.83542509692E+01  0.66918894046E+02  0.17153989871E+03  0.18432001720E+03  0.00000000000E+00 0. -1.
<scales pt_clust_5="13000.00000" pt_clust_6="13000.00000" pt_clust_7="13000.00000" pt_clust_8="13000.00000" pt_clust_9="13000.00000"></scales>
<clustering>
<clus scale="   87.833">  5  6 -1 -1</clus>
<clus scale="   91.423">  7  8 -1 -1</clus>
<clus scale="   67.438">  7  9 -1 -1</clus>
<clus scale="  103.369">  1  5  2 -1</clus>
<clus scale="  200.855">  2  5  1 -1</clus>
</clustering>
</event>
<event>
 9    1  0.3303741E-006  0.7558130E+03  0.7546771E-02  0.1012139E+00
         21   -1    0    0  501  502  0.00000000000E+00  0.00000000000E+00  0.15795866896E+03  0.15795866896E+03  0.00000000000E+00 0. -1.
          2   -1    0    0  502    0 -0.00000000000E+00 -0.00000000000E+00 -0.16054912751E+04  0.16054912751E+04  0.00000000000E+00 0. -1.
         23    2    1    2    0    0  0.11973984631E+03 -0.24839722758E+02 -0.27346675998E+02  0.15466738100E+03  0.90661543321E+02 0.  0.
         23    2    1    2    0    0 -0.14312288522E+03  0.35179856867E+03 -0.10149327412E+04  0.10875542056E+04  0.91865596618E+02 0.  0.
        -11    1    3    3    0    0  0.39502252084E+02 -0.53204501493E+02 -0.38396333700E+01  0.66376876119E+02  0.00000000000E+00 0.  1.
         11    1    3    3    0    0  0.80237594223E+02  0.28364778735E+02 -0.23507042628E+02  0.88290504883E+02  0.00000000000E+00 0. -1.
        -13    1    4    4    0    0 -0.21073801952E+02  0.93393657950E+02 -0.16383357025E+03  0.18975752743E+03  0.00000000000E+00 0.  1.
         13    1    4    4    0    0 -0.12204908327E+03  0.25840491072E+03 -0.85109917094E+03  0.89779667820E+03  0.00000000000E+00 0. -1.
          2    1    1    2  501    0  0.23383038914E+02 -0.32695884591E+03 -0.40525318894E+03  0.52122835741E+03  0.00000000000E+00 0. -1.
<scales pt_clust_5="13000.00000" pt_clust_6="13000.00000" pt_clust_7="13000.00000" pt_clust_8="13000.00000" pt_clust_9="13000.00000"></scales>
<clustering>
<clus scale="   90.662">  5  6 -1 -1</clus>
<clus scale="   91.866">  7  8 -1 -1</clus>
<clus scale="  152.231">  2  5  1 -1</clus>
<clus scale="  339.896">  7  9 -1 -1</clus>
<clus scale="  755.813">  1  5  2 -1</clus>
</clustering>
</event>
<event>
 9    1  0.3303741E-006  0.4313929E+03  0.7546771E-02  0.1078717E+00
         21   -1    0    0  501  502  0.00000000000E+00  0.00000000000E+00  0.22258105660E+03  0.22258105660E+03  0.00000000000E+00 0. -1.
          2   -1    0    0  502    0 -0.00000000000E+00 -0.00000000000E+00 -0.34178280367E+03  0.34178280367E+03  0.00000000000E+00 0. -1.
         23    2    1    2    0    0  0.78801144629E+02 -0.10424214991E+02 -0.23182584081E+02  0.12241417665E+03  0.90163816394E+02 0.  0.
         23    2    1    2    0    0 -0.16139753363E+03  0.19624405351E+02 -0.22477845294E+03  0.28869903361E+03  0.79921824022E+02 0.  0.
        -11    1    3    3    0    0  0.13649860877E+01  0.25925419937E+02  0.13588578850E+02  0.29302560658E+02  0.00000000000E+00 0. -1.
         11    1    3    3    0    0  0.77436158541E+02 -0.36349634928E+02 -0.36771162931E+02  0.93111615990E+02  0.00000000000E+00 0.  1.
        -13    1    4    4    0    0 -0.86894672717E+02  0.17697216056E+02 -0.57824412520E+02  0.10586566151E+03  0.00000000000E+00 0.  1.
         13    1    4    4    0    0 -0.74502860911E+02  0.19271892950E+01 -0.16695404042E+03  0.18283337211E+03  0.00000000000E+00 0. -1.
          2    1    1    2  501    0  0.82596388999E+02 -0.92001903608E+01  0.12875928996E+03  0.15325065001E+03  0.00000000000E+00 0. -1.
<scales pt_clust_5="13000.00000" pt_clust_6="13000.00000" pt_clust_7="13000.00000" pt_clust_8="13000.00000" pt_clust_9="13000.00000"></scales>
<clustering>
<clus scale="   79.922">  7  8 -1 -1</clus>
<clus scale="   83.107">  7  9 -1 -1</clus>
<clus scale="   90.164">  5  6 -1 -1</clus>
<clus scale="  120.199">  2  5  1 -1</clus>
<clus scale="  431.393">  1  5  2 -1</clus>
</clustering>
</event>
<event>
 9    1  0.3303741E-006  0.2168653E+03  0.7546771E-02  0.1162961E+00
          4   -1    0    0  502    0 -0.00000000000E+00  0.00000000000E+00  0.30920610313E+03  0.30920610313E+03  0.00000000000E+00 0. -1.
         21   -1    0    0  501  502  0.00000000000E+00 -0.00000000000E+00 -0.90459101293E+02  0.90459101293E+02  0.00000000000E+00 0.  1.
         23    2    1    2    0    0 -0.21979671301E+02 -0.67646160470E+02  0.99751521919E+02  0.15229811425E+03  0.90472318985E+02 0.  0.
         23    2    1    2    0    0  0.39620147538E+02 -0.35618696443E+02  0.89628785407E+02  0.13856810202E+03  0.91265284186E+02 0.  0.
        -11    1    3    3    0    0  0.22153346793E+02 -0.24133682696E+02  0.81270919472E+02  0.87625154872E+02  0.00000000000E+00 0. -1.
         11    1    3    3    0    0 -0.44133018093E+02 -0.43512477774E+02  0.18480602447E+02  0.64672959379E+02  0.00000000000E+00 0.  1.
        -13    1    4    4    0    0  0.63070002342E+02 -0.31911325867E+02  0.90474431896E+02  0.11481193640E+03  0.00000000000E+00 0.  1.
         13    1    4    4    0    0 -0.23449854804E+02 -0.37073705756E+01 -0.84564648888E+00  0.23756165619E+02  0.00000000000E+00 0. -1.
          4    1    1    2  501    0 -0.17640476238E+02  0.10326485691E+03  0.29366694509E+02  0.10879898815E+03  0.00000000000E+00 0. -1.
<scales pt_clust_5="13000.00000" pt_clust_6="13000.00000" pt_clust_7="13000.00000" pt_clust_8="13000.00000" pt_clust_9="13000.00000"></scales>
<clustering>
<clus scale="   90.472">  5  6 -1 -1</clus>
<clus scale="   91.265">  7  8 -1 -1</clus>
<clus scale="  104.761">  7  9 -1 -1</clus>
<clus scale="  115.084">  1  5  2 -1</clus>
<clus scale="  216.865">  2  5  1 -1</clus>
</clustering>
</event>
<event>
 9    1  0.3303741E-006  0.1869033E+03  0.7546771E-02  0.1185212E+00
          1   -1    0    0  502    0 -0.00000000000E+00  0.00000000000E+00  0.40005138955E+02  0.40005138955E+02  0.00000000000E+00 0. -1.
         21   -1    0    0  501  502  0.00000000000E+00 -0.00000000000E+00 -0.59313727931E+03  0.59313727931E+03  0.00000000000E+00 0.  1.
         23    2    1    2    0    0 -0.24318711666E+02  0.55589805170E+02 -0.12197221242E+03  0.16321505218E+03  0.89890524969E+02 0.  0.
         23    2    1    2    0    0  0.36602416587E+02 -0.11270312391E+02 -0.11679407362E+03  0.15221523662E+03  0.89787893320E+02 0.  0.
        -11    1    4    4    0    0  0.57428271594E+02 -0.25112523720E+02 -0.47789300796E+02  0.78819175943E+02  0.00000000000E+00 0. -1.
         11    1    4    4    0    0 -0.20825855007E+02  0.13842211329E+02 -0.69004772820E+02  0.73396060679E+02  0.00000000000E+00 0.  1.
        -11    1    3    3    0    0 -0.39214303687E+02  0.19927645019E+02 -0.10485765378E+02  0.45219729380E+02  0.00000000000E+00 0.  1.
         11    1    3    3    0    0  0.14895592021E+02  0.35662160152E+02 -0.11148644704E+03  0.11799532280E+03  0.00000000000E+00 0. -1.
          1    1    1    2  501    0 -0.12283704921E+02 -0.44319492779E+02 -0.31436585432E+03  0.31771212946E+03  0.00000000000E+00 0. -1.
<scales pt_clust_5="13000.00000" pt_clust_6="13000.00000" pt_clust_7="13000.00000" pt_clust_8="13000.00000" pt_clust_9="13000.00000"></scales>
<clustering>
<clus scale="   89.788">  5  6 -1 -1</clus>
<clus scale="   45.990">  5  9 -1 -1</clus>
<clus scale="   89.891">  7  8 -1 -1</clus>
<clus scale="  108.452">  1  7  2 -1</clus>
<clus scale="  186.903">  2  5  1 -1</clus>
</clustering>
</event>
<event>
 9    1  0.3303741E-006  0.1673662E+03  0.7546771E-02  0.1206344E+00
          3   -1    0    0  502    0 -0.00000000000E+00  0.00000000000E+00  0.13278947543E+03  0.13278947543E+03  0.00000000000E+00 0. -1.
         21   -1    0    0  501  502  0.00000000000E+00 -0.00000000000E+00 -0.15342687950E+03  0.15342687950E+03  0.00000000000E+00 0. -1.
         23    2    1    2    0    0 -0.21339974660E+02  0.82675814176E+01  0.46504023777E+02  0.10588499016E+03  0.92332331787E+02 0.  0.
         23    2    1    2    0    0  0.17098299048E+02 -0.55833891432E+02 -0.13209281168E+02  0.10829510928E+03  0.90241732704E+02 0.  0.
        -11    1    4    4    0    0  0.17998727599E+02 -0.15047682722E+02 -0.48806301031E+02  0.54152026470E+02  0.00000000000E+00 0.  1.
         11    1    4    4    0    0 -0.90042855107E+00 -0.40786208711E+02  0.35597019863E+02  0.54143082806E+02  0.00000000000E+00 0. -1.
        -11    1    3    3    0    0 -0.14424506666E+02 -0.27950003323E+02  0.59077297954E+02  0.66928291565E+02  0.00000000000E+00 0.  1.
         11    1    3    3    0    0 -0.69154679943E+01  0.36217584741E+02 -0.12573274177E+02  0.38956698597E+02  0.00000000000E+00 0. -1.
          3    1    1    2  501    0  0.42416756119E+01  0.47566310015E+02 -0.53932146675E+02  0.72036255493E+02  0.00000000000E+00 0. -1.
<scales pt_clust_5="13000.00000" pt_clust_6="13000.00000" pt_clust_7="13000.00000" pt_clust_8="13000.00000" pt_clust_9="13000.00000"></scales>
<clustering>
<clus scale="   90.242">  5  6 -1 -1</clus>
<clus scale="   47.755">  5  9 -1 -1</clus>
<clus scale="   92.332">  7  8 -1 -1</clus>
<clus scale="   95.126">  1  7  2 -1</clus>
<clus scale="  167.366">  2  5  1 -1</clus>
</clustering>
</event>
<event>
 9    1  0.3303741E-006  0.2151336E+03  0.7546771E-02  0.1186424E+00
          1   -1    0    0  502    0 -0.00000000000E+00  0.00000000000E+00  0.10966651513E+03  0.10966651513E+03  0.00000000000E+00 0. -1.
         21   -1    0    0  501  502  0.00000000000E+00 -0.00000000000E+00 -0.19329955110E+03  0.19329955110E+03  0.00000000000E+00 0.  1.
         23    2    1    2    0    0 -0.83741555916E+01 -0.10429273890E+02 -0.49594241034E+02  0.85156248193E+02  0.67919817630E+02 0.  0.
         23    2    1    2    0    0 -0.49411752074E+02 -0.48847798670E+02 -0.60194270256E+02  0.13099339479E+03  0.93318222383E+02 0.  0.
        -11    1    3    3    0    0  0.12551414516E+02  0.24486808865E+02 -0.27225227551E+02  0.38708588581E+02  0.00000000000E+00 0. -1.
         11    1    3    3    0    0 -0.20925570108E+02 -0.34916082754E+02 -0.22369013482E+02  0.46447659612E+02  0.00000000000E+00 0.  1.
        -11    1    4    4    0    0 -0.71829294359E+02 -0.46831278406E+02 -0.25178764200E+02  0.89367702958E+02  0.00000000000E+00 0.  1.
         11    1    4    4    0    0  0.22417542285E+02 -0.20165202637E+01 -0.35015506056E+02  0.41625691831E+02  0.00000000000E+00 0. -1.
          1    1    1    2  501    0  0.57785907666E+02  0.59277072559E+02  0.26155475315E+02  0.86816423244E+02  0.00000000000E+00 0. -1.
<scales pt_clust_5="13000.00000" pt_clust_6="13000.00000" pt_clust_7="13000.00000" pt_clust_8="13000.00000" pt_clust_9="13000.00000"></scales>
<clustering>
<clus scale="   67.920">  5  6 -1 -1</clus>
<clus scale="   69.224">  1  5  2 -1</clus>
<clus scale="   93.318">  7  8 -1 -1</clus>
<clus scale="   74.603">  7  9 -1 -1</clus>
<clus scale="  215.134">  2  5  1 -1</clus>
</clustering>
</event>
<event>
 9    1  0.3303741E-006  0.1321151E+03  0.7546771E-02  0.1235669E+00
         -2   -1    0    0    0  501 -0.00000000000E+00  0.00000000000E+00  0.89822803440E+02  0.89822803440E+02  0.00000000000E+00 0.  1.
         21   -1    0    0  501  502  0.00000000000E+00 -0.00000000000E+00 -0.18867200217E+03  0.18867200217E+03  0.00000000000E+00 0. -1.
         23    2    1    2    0    0 -0.48201174976E+02 -0.20502572362E+02  0.13009074899E+02  0.10538597121E+03  0.90516618114E+02 0.  0.
         23    2    1    2    0    0  0.15829836979E+02  0.32155046473E+02 -0.82070771828E+02  0.12760082478E+03  0.90894599087E+02 0.  0.
        -11    1    4    4    0    0  0.32954513996E+02  0.19585818120E+02 -0.95199886074E+02  0.10262856607E+03  0.00000000000E+00 0. -1.
         11    1    4    4    0    0 -0.17124677017E+02  0.12569228353E+02  0.13129114246E+02  0.24972258713E+02  0.00000000000E+00 0.  1.
        -11    1    3    3    0    0  0.25307988291E+02  0.25169748735E+01 -0.58169682125E+01  0.26089587061E+02  0.00000000000E+00 0. -1.
         11    1    3    3    0    0 -0.73509163267E+02 -0.23019547235E+02  0.18826043111E+02  0.79296384145E+02  0.00000000000E+00 0.  1.
         -2    1    1    2    0  502  0.32371337997E+02 -0.11652474112E+02 -0.29787501803E+02  0.45508009628E+02  0.00000000000E+00 0.  1.
<scales pt_clust_5="13000.00000" pt_clust_6="13000.00000" pt_clust_7="13000.00000" pt_clust_8="13000.00000" pt_clust_9="13000.00000"></scales>
<clustering>
<clus scale="   90.517">  7  8 -1 -1</clus>
<clus scale="   90.895">  5  6 -1 -1</clus>
<clus scale="   34.405">  5  9 -1 -1</clus>
<clus scale="  104.580">  1  7  2 -1</clus>
<clus scale="  132.115">  2  5  1 -1</clus>
</clustering>
</event>
<event>
 9    1  0.3303741E-006  0.1538142E+03  0.7546771E-02  0.1220286E+00
         21   -1    0    0  501  502  0.00000000000E+00  0.00000000000E+00  0.17992308995E+03  0.17992308995E+03  0.00000000000E+00 0. -1.
         -1   -1    0    0    0  501 -0.00000000000E+00 -0.00000000000E+00 -0.16019685807E+03  0.16019685807E+03  0.00000000000E+00 0.  1.
         23    2    1    2    0    0 -0.12356720012E+02 -0.18048775387E+01 -0.10719102143E+03  0.14070383430E+03  0.90286808557E+02 0.  0.
         23    2    1    2    0    0  0.19039534618E+02  0.44302824163E+02  0.11668951521E+03  0.15519686332E+03  0.90246214970E+02 0.  0.
        -11    1    4    4    0    0  0.31097688247E+02 -0.12997344822E+02  0.13016894039E+02  0.36130827795E+02  0.00000000000E+00 0.  1.
         11    1    4    4    0    0 -0.12058153629E+02  0.57300168985E+02  0.10367262117E+03  0.11906603552E+03  0.00000000000E+00 0. -1.
        -13    1    3    3    0    0 -0.28604628023E+02 -0.24669474621E+02 -0.10611063065E+03  0.11263335945E+03  0.00000000000E+00 0. -1.
         13    1    3    3    0    0  0.16247908011E+02  0.22864597082E+02 -0.10803907792E+01  0.28070474857E+02  0.00000000000E+00 0.  1.
         -1    1    1    2    0  502 -0.66828146059E+01 -0.42497946625E+02  0.10227738104E+02  0.44219250391E+02  0.00000000000E+00 0.  1.
<scales pt_clust_5="13000.00000" pt_clust_6="13000.00000" pt_clust_7="13000.00000" pt_clust_8="13000.00000" pt_clust_9="13000.00000"></scales>
<clustering>
<clus scale="   90.246">  5  6 -1 -1</clus>
<clus scale="   43.020">  5  9 -1 -1</clus>
<clus scale="   90.287">  7  8 -1 -1</clus>
<clus scale="   91.146">  2  7  1 -1</clus>
<clus scale="  153.814">  1  5  2 -1</clus>
</clustering>
</event>
<event>
 9    1  0.3303741E-006  0.2491074E+03  0.7546771E-02  0.1152332E+00
          1   -1    0    0  502    0 -0.00000000000E+00  0.00000000000E+00  0.14760079352E+03  0.14760079352E+03  0.00000000000E+00 0. -1.
         21   -1    0    0  501  502  0.00000000000E+00 -0.00000000000E+00 -0.20536192076E+03  0.20536192076E+03  0.00000000000E+00 0. -1.
         23    2    1    2    0    0  0.44391147807E+01  0.34399127038E+02 -0.45879490942E+00  0.97349571460E+02  0.90960007089E+02 0.  0.
         23    2    1    2    0    0 -0.32409786799E+02 -0.56652317656E+02  0.61065652850E+02  0.13196629531E+03  0.97088669593E+02 0.  0.
        -13    1    4    4    0    0  0.54387209620E+01  0.25742380901E+02  0.14245425730E+02  0.29919592483E+02  0.00000000000E+00 0.  1.
         13    1    4    4    0    0 -0.37848507761E+02 -0.82394698556E+02  0.46820227120E+02  0.10204670283E+03  0.00000000000E+00 0. -1.
        -13    1    3    3    0    0 -0.38365606789E+02  0.38423979080E+02 -0.19030346893E+01  0.54331790820E+02  0.00000000000E+00 0.  1.
         13    1    3    3    0    0  0.42804721570E+02 -0.40248520418E+01  0.14442397799E+01  0.43017780640E+02  0.00000000000E+00 0. -1.
          1    1    1    2  501    0  0.27970672019E+02  0.22253190617E+02 -0.11836798517E+03  0.12364684751E+03  0.00000000000E+00 0. -1.
<scales pt_clust_5="13000.00000" pt_clust_6="13000.00000" pt_clust_7="13000.00000" pt_clust_8="13000.00000" pt_clust_9="13000.00000"></scales>
<clustering>
<clus scale="   90.960">  7  8 -1 -1</clus>
<clus scale="   97.089">  5  6 -1 -1</clus>
<clus scale="   35.743">  5  9 -1 -1</clus>
<clus scale="   97.348">  1  7  2 -1</clus>
<clus scale="  249.107">  2  5  1 -1</clus>
</clustering>
</event>
