<event>
 9    1  0.5300912E-006  0.1304660E+03  0.7546771E-02  0.1227613E+00
          1   -1    0    0  502    0  0.00000000000E+00  0.00000000000E+00  0.14509701994E+03  0.14509701994E+03  0.00000000000E+00 0. -1.
         -1   -1    0    0    0  501 -0.00000000000E+00 -0.00000000000E+00 -0.31878039999E+03  0.31878039999E+03  0.00000000000E+00 0.  1.
         23    2    1    2    0    0  0.71545212336E+02  0.80522534455E+02 -0.14192608267E+03  0.19882658481E+03  0.88240591108E+02 0.  0.
         23    2    1    2    0    0  0.45383527043E+02 -0.93591646641E+02  0.13047176174E+02  0.13915177779E+03  0.91509166797E+02 0.  0.
        -13    1    3    3    0    0  0.50809430824E+02  0.26018354495E+02 -0.14811782772E+02  0.58974078544E+02  0.00000000000E+00 0. -1.
         13    1    3    3    0    0  0.20735781512E+02  0.54504179960E+02 -0.12711429990E+03  0.13985250626E+03  0.00000000000E+00 0.  1.
        -13    1    4    4    0    0  0.64328485250E+02 -0.65675687714E+02 -0.17566586807E+02  0.93595058327E+02  0.00000000000E+00 0. -1.
         13    1    4    4    0    0 -0.18944958207E+02 -0.27915958927E+02  0.30613762981E+02  0.45556719462E+02  0.00000000000E+00 0.  1.
         21    1    1    2  502  501 -0.11692873938E+03  0.13069112186E+02 -0.44804473553E+02  0.12589905733E+03  0.00000000000E+00 0.  1.
<scales pt_clust_5="13000.00000" pt_clust_6="13000.00000" pt_clust_7="13000.00000" pt_clust_8="13000.00000" pt_clust_9="117.65684"></scales>
<clustering>
<clus scale="   88.241">  5  6 -1 -1</clus>
<clus scale="   91.509">  7  8 -1 -1</clus>
<clus scale="  117.657">  1  9  2 -1</clus>
<clus scale="  128.195">  2  5  1 -1</clus>
<clus scale="  117.657">  1  5  2 -1</clus>
</clustering>
</event>
<event>
 9    1  0.5300912E-006  0.2198149E+03  0.7546771E-02  0.1146092E+00
         -1   -1    0    0    0  501 -0.00000000000E+00  0.00000000000E+00  0.57962283443E+03  0.57962283443E+03  0.00000000000E+00 0.  1.
          1   -1    0    0  502    0  0.00000000000E+00 -0.00000000000E+00 -0.19107850596E+03  0.19107850596E+03  0.00000000000E+00 0. -1.
         23    2    1    2    0    0  0.12999769242E+03 -0.37505318912E+02  0.17165166061E+03  0.23760393259E+03  0.93194888347E+02 0.  0.
         23    2    1    2    0    0  0.15988549129E+03 -0.12321492372E+02  0.36170763566E+02  0.18787953744E+03  0.90968164495E+02 0.  0.
        -13    1    4    4    0    0  0.18997860181E+02  0.31188932064E+02  0.12117280234E+02  0.38477222548E+02  0.00000000000E+00 0.  1.
         13    1    4    4    0    0  0.14088763111E+03 -0.43510424435E+02  0.24053483331E+02  0.14940231489E+03  0.00000000000E+00 0. -1.
        -13    1    3    3    0    0  0.28615754709E+02  0.30801212342E+02  0.44422668537E+02  0.61163302554E+02  0.00000000000E+00 0.  1.
         13    1    3    3    0    0  0.10138193771E+03 -0.68306531254E+02  0.12722899207E+03  0.17644063004E+03  0.00000000000E+00 0. -1.
         21    1    1    2  502  501 -0.28988318371E+03  0.49826811284E+02  0.18072190430E+03  0.34521787036E+03  0.00000000000E+00 0.  1.
<scales pt_clust_5="13000.00000" pt_clust_6="13000.00000" pt_clust_7="13000.00000" pt_clust_8="13000.00000" pt_clust_9="200.10842"></scales>
<clustering>
<clus scale="   90.968">  5  6 -1 -1</clus>
<clus scale="   93.195">  7  8 -1 -1</clus>
<clus scale="  164.290">  1  7  2 -1</clus>
<clus scale="  200.108">  1  9  2 -1</clus>
<clus scale="  219.815">  2  5  1 -1</clus>
</clustering>
</event>
<event>
 9    1  0.5300912E-006  0.1393572E+03  0.7546771E-02  0.1214671E+00
          2   -1    0    0  502    0  0.00000000000E+00  0.00000000000E+00  0.25049528191E+03  0.25049528191E+03  0.00000000000E+00 0. -1.
         -2   -1    0    0    0  501 -0.00000000000E+00 -0.00000000000E+00 -0.28671886266E+03  0.28671886266E+03  0.00000000000E+00 0.  1.
         23    2    1    2    0    0  0.32772317627E+02 -0.59784196423E+02 -0.20496719796E+03  0.23533174240E+03  0.93387910352E+02 0.  0.
         23    2    1    2    0    0 -0.78815098273E+02  0.72883363721E+02  0.20003767695E+03  0.24469110905E+03  0.91295466613E+02 0.  0.
        -13    1    3    3    0    0  0.57309692925E+02 -0.50312218080E+02 -0.19075788823E+03  0.20543683242E+03  0.00000000000E+00 0.  1.
         13    1    3    3    0    0 -0.24537375297E+02 -0.94719783431E+01 -0.14209309726E+02  0.29894909986E+02  0.00000000000E+00 0. -1.
        -13    1    4    4    0    0 -0.41699066870E+02  0.82354786647E+02  0.93125772044E+02  0.13112411098E+03  0.00000000000E+00 0.  1.
         13    1    4    4    0    0 -0.37116031403E+02 -0.94714229258E+01  0.10691190490E+03  0.11356699807E+03  0.00000000000E+00 0. -1.
         21    1    1    2  502  501  0.46042780645E+02 -0.13099167299E+02 -0.31294059751E+02  0.57191293124E+02  0.00000000000E+00 0.  1.
<scales pt_clust_5="13000.00000" pt_clust_6="13000.00000" pt_clust_7="13000.00000" pt_clust_8="13000.00000" pt_clust_9="47.86988"></scales>
<clustering>
<clus scale="   47.870">  2  9  1 -1</clus>
<clus scale="   91.295">  7  8 -1 -1</clus>
<clus scale="   93.388">  5  6 -1 -1</clus>
<clus scale="  137.964">  1  7  2 -1</clus>
<clus scale="  137.964">  1  5  2 -1</clus>
</clustering>
</event>
<event>
 9    1  0.5300912E-006  0.9330414E+02  0.7546771E-02  0.1296227E+00
          1   -1    0    0  502    0  0.00000000000E+00  0.00000000000E+00  0.10014172900E+03  0.10014172900E+03  0.00000000000E+00 0. -1.
         -1   -1    0    0    0  501 -0.00000000000E+00 -0.00000000000E+00 -0.12884120983E+03  0.12884120983E+03  0.00000000000E+00 0.  1.
         23    2    1    2    0    0 -0.20694851853E+02 -0.39656519827E+00 -0.16961468829E+02  0.94419141254E+02  0.90547493909E+02 0.  0.
         23    2    1    2    0    0 -0.50597886731E+01  0.16862286855E+02  0.13122897994E+02  0.95162194250E+02  0.92594247032E+02 0.  0.
        -11    1    4    4    0    0 -0.90814437313E+01 -0.37744958120E+02 -0.14555930192E+00  0.38822360454E+02  0.00000000000E+00 0.  1.
         11    1    4    4    0    0  0.40216550582E+01  0.54607244975E+02  0.13268457296E+02  0.56339833796E+02  0.00000000000E+00 0. -1.
        -13    1    3    3    0    0  0.17242382532E+02 -0.36586671808E+02 -0.79445868833E+01  0.41218937033E+02  0.00000000000E+00 0. -1.
         13    1    3    3    0    0 -0.37937234385E+02  0.36190106610E+02 -0.90168819453E+01  0.53200204222E+02  0.00000000000E+00 0.  1.
         21    1    1    2  502  501  0.25754640526E+02 -0.16465721657E+02 -0.24860909994E+02  0.39401603318E+02  0.00000000000E+00 0. -1.
<scales pt_clust_5="13000.00000" pt_clust_6="13000.00000" pt_clust_7="13000.00000" pt_clust_8="13000.00000" pt_clust_9="30.56831"></scales>
<clustering>
<clus scale="   30.568">  2  9  1 -1</clus>
<clus scale="   90.547">  7  8 -1 -1</clus>
<clus scale="   91.273">  2  7  1 -1</clus>
<clus scale="   92.594">  5  6 -1 -1</clus>
<clus scale="   93.304">  1  5  2 -1</clus>
</clustering>
</event>
<event>
 9    1  0.5300912E-006  0.3175859E+03  0.7546771E-02  0.1119577E+00
         -1   -1    0    0    0  501 -0.00000000000E+00  0.00000000000E+00  0.40393192153E+03  0.40393192153E+03  0.00000000000E+00 0.  1.
          1   -1    0    0  502    0  0.00000000000E+00 -0.00000000000E+00 -0.74997442831E+03  0.74997442831E+03  0.00000000000E+00 0. -1.
         23    2    1    2    0    0 -0.35910777416E+02  0.37813274504E+02  0.21669062757E+03  0.24041470781E+03  0.90138648711E+02 0.  0.
         23    2    1    2    0    0 -0.15610726194E+03  0.24613798757E+03 -0.46677764998E+03  0.55753279378E+03  0.89487739194E+02 0.  0.
        -13    1    3    3    0    0 -0.12447651383E+02  0.63742353612E+02  0.17071322210E+03  0.18265003660E+03  0.00000000000E+00 0.  1.
         13    1    3    3    0    0 -0.23463126033E+02 -0.25929079108E+02  0.45977405463E+02  0.57764671208E+02  0.00000000000E+00 0. -1.
        -13    1    4    4    0    0 -0.94525091543E+02  0.20045488112E+03 -0.39267608049E+03  0.45090093866E+03  0.00000000000E+00 0. -1.
         13    1    4    4    0    0 -0.61582170398E+02  0.45683106459E+02 -0.74101569490E+02  0.10663185513E+03  0.00000000000E+00 0.  1.
         21    1    1    2  502  501  0.19201803936E+03 -0.28395126208E+03 -0.95955484370E+02  0.35595884826E+03  0.00000000000E+00 0.  1.
<scales pt_clust_5="13000.00000" pt_clust_6="13000.00000" pt_clust_7="13000.00000" pt_clust_8="13000.00000" pt_clust_9="304.71745"></scales>
<clustering>
<clus scale="   89.488">  7  8 -1 -1</clus>
<clus scale="   90.139">  5  6 -1 -1</clus>
<clus scale="  104.136">  1  5  2 -1</clus>
<clus scale="  304.717">  1  9  2 -1</clus>
<clus scale="  317.586">  2  5  1 -1</clus>
</clustering>
</event>
<event>
 9    1  0.5300912E-006  0.1113965E+03  0.7546771E-02  0.1258037E+00
          1   -1    0    0  502    0  0.00000000000E+00  0.00000000000E+00  0.48658063228E+03  0.48658063228E+03  0.00000000000E+00 0. -1.
         -1   -1    0    0    0  501 -0.00000000000E+00 -0.00000000000E+00 -0.74194685387E+02  0.74194685387E+02  0.00000000000E+00 0.  1.
         23    2    1    2    0    0 -0.95803108515E+02 -0.34077761677E+02  0.91159538742E+02  0.16561049285E+03  0.93686948918E+02 0.  0.
         23    2    1    2    0    0  0.51655402893E+02 -0.42103118407E+01  0.31919012142E+03  0.33669138684E+03  0.93769659202E+02 0.  0.
        -11    1    3    3    0    0 -0.10019669839E+03 -0.63381298379E+01  0.41657925156E+02  0.10869651782E+03  0.00000000000E+00 0.  1.
         11    1    3    3    0    0  0.43935898734E+01 -0.27739631839E+02  0.49501613586E+02  0.56913975034E+02  0.00000000000E+00 0. -1.
        -13    1    4    4    0    0  0.53042566902E+02 -0.40624445159E+02  0.16010881044E+03  0.17348974214E+03  0.00000000000E+00 0.  1.
         13    1    4    4    0    0 -0.13871640089E+01  0.36414133318E+02  0.15908131097E+03  0.16320164469E+03  0.00000000000E+00 0. -1.
         21    1    1    2  502  501  0.44147705622E+02  0.38288073518E+02  0.20362867379E+01  0.58473437979E+02  0.00000000000E+00 0. -1.
<scales pt_clust_5="13000.00000" pt_clust_6="13000.00000" pt_clust_7="13000.00000" pt_clust_8="13000.00000" pt_clust_9="58.43797"></scales>
<clustering>
<clus scale="   58.438">  2  9  1 -1</clus>
<clus scale="   93.687">  5  6 -1 -1</clus>
<clus scale="   93.770">  7  8 -1 -1</clus>
<clus scale="  111.327">  2  5  1 -1</clus>
<clus scale="  111.397">  1  5  2 -1</clus>
</clustering>
</event>
<event>
 9    1  0.5300912E-006  0.1824130E+03  0.7546771E-02  0.1165724E+00
          1   -1    0    0  502    0  0.00000000000E+00  0.00000000000E+00  0.18600915537E+03  0.18600915537E+03  0.00000000000E+00 0. -1.
         -1   -1    0    0    0  501 -0.00000000000E+00 -0.00000000000E+00 -0.12285827209E+04  0.12285827209E+04  0.00000000000E+00 0.  1.
         23    2    1    2    0    0 -0.22470991146E+03 -0.96566008427E+01 -0.54608100346E+02  0.24893036001E+03  0.91632337435E+02 0.  0.
         23    2    1    2    0    0  0.11536582806E+03 -0.67693268409E+02  0.75291200039E+01  0.16119718141E+03  0.89644803391E+02 0.  0.
        -11    1    3    3    0    0 -0.46721249608E+02  0.26523873493E+02 -0.39482787071E+02  0.66672944324E+02  0.00000000000E+00 0.  1.
         11    1    3    3    0    0 -0.17798866186E+03 -0.36180474336E+02 -0.15125313275E+02  0.18225741569E+03  0.00000000000E+00 0. -1.
        -13    1    4    4    0    0  0.46882572112E+02 -0.77796933782E+02  0.12999162441E+02  0.91756834611E+02  0.00000000000E+00 0. -1.
         13    1    4    4    0    0  0.68483255953E+02  0.10103665373E+02 -0.54700424373E+01  0.69440346803E+02  0.00000000000E+00 0.  1.
         21    1    1    2  502  501  0.10934408340E+03  0.77349869251E+02 -0.99549458516E+03  0.10044643348E+04  0.00000000000E+00 0.  1.
<scales pt_clust_5="13000.00000" pt_clust_6="13000.00000" pt_clust_7="13000.00000" pt_clust_8="13000.00000" pt_clust_9="133.93704"></scales>
<clustering>
<clus scale="   89.645">  7  8 -1 -1</clus>
<clus scale="   91.632">  5  6 -1 -1</clus>
<clus scale="  133.937">  2  9  1 -1</clus>
<clus scale="  181.423">  1  7  2 -1</clus>
<clus scale="  181.423">  1  5  2 -1</clus>
</clustering>
</event>
<event>
 9    1  0.5300912E-006  0.1237323E+03  0.7546771E-02  0.1237251E+00
          1   -1    0    0  502    0  0.00000000000E+00  0.00000000000E+00  0.55794946427E+03  0.55794946427E+03  0.00000000000E+00 0. -1.
         -1   -1    0    0    0  501 -0.00000000000E+00 -0.00000000000E+00 -0.57161597538E+02  0.57161597538E+02  0.00000000000E+00 0.  1.
         23    2    1    2    0    0  0.90665575353E+02  0.81842747947E+02  0.21450798314E+03  0.26317137181E+03  0.91252474850E+02 0.  0.
         23    2    1    2    0    0 -0.57056427247E+02 -0.33725084361E+02  0.26784330585E+03  0.29041902856E+03  0.90611028323E+02 0.  0.
        -11    1    3    3    0    0  0.84709881090E+02  0.48498389654E+02  0.85405790005E+02  0.12969967895E+03  0.00000000000E+00 0. -1.
         11    1    3    3    0    0  0.59556942631E+01  0.33344358293E+02  0.12910219313E+03  0.13347169286E+03  0.00000000000E+00 0.  1.
        -13    1    4    4    0    0 -0.72425190291E+02  0.29342210005E+01  0.16981768032E+03  0.18464035959E+03  0.00000000000E+00 0.  1.
         13    1    4    4    0    0  0.15368763043E+02 -0.36659305361E+02  0.98025625535E+02  0.10577866897E+03  0.00000000000E+00 0. -1.
         21    1    1    2  502  501 -0.33609148106E+02 -0.48117663586E+02  0.18436577749E+02  0.61520661444E+02  0.00000000000E+00 0.  1.
<scales pt_clust_5="13000.00000" pt_clust_6="13000.00000" pt_clust_7="13000.00000" pt_clust_8="13000.00000" pt_clust_9="58.69314"></scales>
<clustering>
<clus scale="   58.693">  2  9  1 -1</clus>
<clus scale="   90.611">  7  8 -1 -1</clus>
<clus scale="   91.252">  5  6 -1 -1</clus>
<clus scale="  123.260">  1  7  2 -1</clus>
<clus scale="  123.260">  1  5  2 -1</clus>
</clustering>
</event>
<event>
 9    1  0.5300912E-006  0.1203523E+03  0.7546771E-02  0.1242764E+00
         -3   -1    0    0    0  501 -0.00000000000E+00  0.00000000000E+00  0.70462943165E+03  0.70462943165E+03  0.00000000000E+00 0.  1.
          3   -1    0    0  502    0  0.00000000000E+00 -0.00000000000E+00 -0.44541253693E+02  0.44541253693E+02  0.00000000000E+00 0. -1.
         23    2    1    2    0    0 -0.95864304158E+02 -0.53176061629E+02  0.24645035688E+03  0.28544584679E+03  0.93401791741E+02 0.  0.
         23    2    1    2    0    0  0.56563448306E+02 -0.32830430965E+02  0.21205470767E+03  0.24106495072E+03  0.94169265367E+02 0.  0.
        -11    1    3    3    0    0 -0.34124112793E+02  0.21098451909E+02  0.36054746747E+02  0.53940193825E+02  0.00000000000E+00 0. -1.
         11    1    3    3    0    0 -0.61740191365E+02 -0.74274513538E+02  0.21039561013E+03  0.23150565296E+03  0.00000000000E+00 0.  1.
        -13    1    4    4    0    0  0.28484540611E+02 -0.24999980001E+02  0.20824627208E+03  0.21166690315E+03  0.00000000000E+00 0.  1.
         13    1    4    4    0    0  0.28078907695E+02 -0.78304509633E+01  0.38084355957E+01  0.29398047577E+02  0.00000000000E+00 0. -1.
         21    1    1    2  502  501  0.39300855852E+02  0.86006492594E+02  0.20158311341E+03  0.22265988783E+03  0.00000000000E+00 0.  1.
<scales pt_clust_5="13000.00000" pt_clust_6="13000.00000" pt_clust_7="13000.00000" pt_clust_8="13000.00000" pt_clust_9="94.56043"></scales>
<clustering>
<clus scale="   93.402">  5  6 -1 -1</clus>
<clus scale="   94.169">  7  8 -1 -1</clus>
<clus scale="   94.560">  1  9  2 -1</clus>
<clus scale="  119.753">  1  5  2 -1</clus>
<clus scale="  120.352">  2  5  1 -1</clus>
</clustering>
</event>
<event>
 9    1  0.5300912E-006  0.1375496E+03  0.7546771E-02  0.1234898E+00
          1   -1    0    0  502    0  0.00000000000E+00  0.00000000000E+00  0.51731619846E+02  0.51731619846E+02  0.00000000000E+00 0. -1.
         -1   -1    0    0    0  501 -0.00000000000E+00 -0.00000000000E+00 -0.60320995769E+03  0.60320995769E+03  0.00000000000E+00 0.  1.
         23    2    1    2    0    0  0.11363704767E+03 -0.34442151491E+02 -0.26214470018E+03  0.30155890293E+03  0.90101541077E+02 0.  0.
         23    2    1    2    0    0 -0.20847729908E+02  0.97751056010E+01 -0.81799890192E+02  0.12471571812E+03  0.91283118811E+02 0.  0.
        -11    1    4    4    0    0 -0.28449361997E+01 -0.40074620933E+02 -0.26558047240E+02  0.48160136815E+02  0.00000000000E+00 0. -1.
         11    1    4    4    0    0 -0.18002793708E+02  0.49849726534E+02 -0.55241842952E+02  0.76555581309E+02  0.00000000000E+00 0.  1.
        -13    1    3    3    0    0  0.92321151770E+02 -0.35725812808E+01 -0.24187328055E+03  0.25891821536E+03  0.00000000000E+00 0.  1.
         13    1    3    3    0    0  0.21315895902E+02 -0.30869570211E+02 -0.20271419629E+02  0.42640687575E+02  0.00000000000E+00 0. -1.
         21    1    1    2  502  501 -0.92789317764E+02  0.24667045890E+02 -0.20753374747E+03  0.22866695647E+03  0.00000000000E+00 0. -1.
<scales pt_clust_5="13000.00000" pt_clust_6="13000.00000" pt_clust_7="13000.00000" pt_clust_8="13000.00000" pt_clust_9="103.93081"></scales>
<clustering>
<clus scale="   90.102">  7  8 -1 -1</clus>
<clus scale="   91.283">  5  6 -1 -1</clus>
<clus scale="   94.142">  1  5  2 -1</clus>
<clus scale="  103.931">  2  9  1 -1</clus>
<clus scale="   94.142">  1  5  2 -1</clus>
</clustering>
</event>
<event>
 9    1  0.5300912E-006  0.1138032E+03  0.7546771E-02  0.1260833E+00
         -1   -1    0    0    0  501 -0.00000000000E+00  0.00000000000E+00  0.21310197613E+02  0.21310197613E+02  0.00000000000E+00 0.  1.
          1   -1    0    0  502    0  0.00000000000E+00 -0.00000000000E+00 -0.72701716553E+03  0.72701716553E+03  0.00000000000E+00 0. -1.
         23    2    1    2    0    0  0.49237769116E+01  0.23657749709E+02 -0.22178164769E+03  0.24101014861E+03  0.91185852972E+02 0.  0.
         23    2    1    2    0    0  0.12790849548E+02 -0.50858729684E+02 -0.39546395345E+03  0.41308816002E+03  0.10723746198E+03 0.  0.
        -11    1    3    3    0    0 -0.33207419077E+02 -0.63724855904E+01 -0.15384147427E+03  0.15751361992E+03  0.00000000000E+00 0. -1.
         11    1    3    3    0    0  0.38131195988E+02  0.30030235299E+02 -0.67940173418E+02  0.83496528693E+02  0.00000000000E+00 0.  1.
        -11    1    4    4    0    0 -0.13121104271E+02  0.16202508895E+02 -0.14489427413E+02  0.25389528915E+02  0.00000000000E+00 0.  1.
         11    1    4    4    0    0  0.25911953818E+02 -0.67061238579E+02 -0.38097452603E+03  0.38769863110E+03  0.00000000000E+00 0. -1.
         21    1    1    2  502  501 -0.17714626459E+02  0.27200979975E+02 -0.88461366784E+02  0.94229054518E+02  0.00000000000E+00 0.  1.
<scales pt_clust_5="13000.00000" pt_clust_6="13000.00000" pt_clust_7="13000.00000" pt_clust_8="13000.00000" pt_clust_9="32.46077"></scales>
<clustering>
<clus scale="   32.461">  1  9  2 -1</clus>
<clus scale="   91.186">  5  6 -1 -1</clus>
<clus scale="   98.824">  1  5  2 -1</clus>
<clus scale="  107.237">  7  8 -1 -1</clus>
<clus scale="  113.803">  2  5  1 -1</clus>
</clustering>
</event>
<event>
 9    1  0.5300912E-006  0.1274403E+03  0.7546771E-02  0.1234047E+00
         -1   -1    0    0    0  501 -0.00000000000E+00  0.00000000000E+00  0.15219074146E+03  0.15219074146E+03  0.00000000000E+00 0.  1.
          1   -1    0    0  502    0  0.00000000000E+00 -0.00000000000E+00 -0.29329416901E+03  0.29329416901E+03  0.00000000000E+00 0. -1.
         23    2    1    2    0    0 -0.75913898979E+02  0.63497038804E+02  0.93328290163E+01  0.13493686629E+03  0.91247258545E+02 0.  0.
         23    2    1    2    0    0  0.80257804477E+02  0.63869204909E+02 -0.43070384776E+02  0.14390933326E+03  0.91292100638E+02 0.  0.
        -13    1    4    4    0    0  0.91411519954E+02  0.23659348339E+02 -0.21107111039E+02  0.96754022554E+02  0.00000000000E+00 0.  1.
         13    1    4    4    0    0 -0.11153715477E+02  0.40209856570E+02 -0.21963273738E+02  0.47155310704E+02  0.00000000000E+00 0. -1.
        -13    1    3    3    0    0 -0.42553084105E+01  0.54095529395E+02  0.26893274450E+02  0.60561391669E+02  0.00000000000E+00 0. -1.
         13    1    3    3    0    0 -0.71658590568E+02  0.94015094088E+01 -0.17560445434E+02  0.74375474622E+02  0.00000000000E+00 0.  1.
         21    1    1    2  502  501 -0.43439054979E+01 -0.12736624371E+03 -0.10736587179E+03  0.16663871092E+03  0.00000000000E+00 0.  1.
<scales pt_clust_5="13000.00000" pt_clust_6="13000.00000" pt_clust_7="13000.00000" pt_clust_8="13000.00000" pt_clust_9="127.44030"></scales>
<clustering>
<clus scale="   91.247">  7  8 -1 -1</clus>
<clus scale="   91.292">  5  6 -1 -1</clus>
<clus scale="  127.440">  2  9  1 -1</clus>
<clus scale="  120.452">  1  7  2 -1</clus>
<clus scale="  127.440">  2  5  1 -1</clus>
</clustering>
</event>
<event>
 9    1  0.5300912E-006  0.1823516E+03  0.7546771E-02  0.1196371E+00
          2   -1    0    0  502    0  0.00000000000E+00  0.00000000000E+00  0.61155300941E+03  0.61155300941E+03  0.00000000000E+00 0. -1.
         -2   -1    0    0    0  501 -0.00000000000E+00 -0.00000000000E+00 -0.77358309507E+02  0.77358309507E+02  0.00000000000E+00 0.  1.
         23    2    1    2    0    0 -0.16227042692E+02 -0.52049791206E+01  0.88743949338E+02  0.12731752881E+03  0.89687545828E+02 0.  0.
         23    2    1    2    0    0 -0.39157369752E+02 -0.14675690727E+03  0.19749507652E+03  0.26555010355E+03  0.91878522015E+02 0.  0.
        -11    1    4    4    0    0 -0.28254181660E+02 -0.19220982143E+01  0.56121831568E+02  0.62862176397E+02  0.00000000000E+00 0. -1.
         11    1    4    4    0    0 -0.10903188092E+02 -0.14483480906E+03  0.14137324496E+03  0.20268792716E+03  0.00000000000E+00 0.  1.
        -13    1    3    3    0    0  0.19741110521E+02  0.29015750075E+02  0.61184049656E+02  0.70534481846E+02  0.00000000000E+00 0. -1.
         13    1    3    3    0    0 -0.35968153213E+02 -0.34220729196E+02  0.27559899683E+02  0.56783046966E+02  0.00000000000E+00 0.  1.
         21    1    1    2  502  501  0.55384412444E+02  0.15196188639E+03  0.24795567404E+03  0.29604368655E+03  0.00000000000E+00 0. -1.
<scales pt_clust_5="13000.00000" pt_clust_6="13000.00000" pt_clust_7="13000.00000" pt_clust_8="13000.00000" pt_clust_9="157.51329"></scales>
<clustering>
<clus scale="   89.688">  7  8 -1 -1</clus>
<clus scale="   91.292">  2  7  1 -1</clus>
<clus scale="   91.879">  5  6 -1 -1</clus>
<clus scale="  157.513">  1  9  2 -1</clus>
<clus scale="  157.513">  1  5  2 -1</clus>
</clustering>
</event>
<event>
 9    1  0.5300912E-006  0.2540866E+03  0.7546771E-02  0.1126452E+00
          2   -1    0    0  502    0  0.00000000000E+00  0.00000000000E+00  0.19442642472E+04  0.19442642472E+04  0.00000000000E+00 0. -1.
         -2   -1    0    0    0  501 -0.00000000000E+00 -0.00000000000E+00 -0.16798734168E+03  0.16798734168E+03  0.00000000000E+00 0.  1.
         23    2    1    2    0    0  0.11891528352E+03  0.90149189554E+02  0.33138491859E+01  0.17141881460E+03  0.84295357943E+02 0.  0.
         23    2    1    2    0    0 -0.34162500344E+03 -0.51317746348E+02  0.35045253885E+03  0.50047043352E+03  0.91173015619E+02 0.  0.
        -11    1    3    3    0    0  0.52241389320E+02  0.84652907325E+00 -0.22715802791E+02  0.56972687018E+02  0.00000000000E+00 0.  1.
         11    1    3    3    0    0  0.66673894199E+02  0.89302660481E+02  0.26029651977E+02  0.11444612758E+03  0.00000000000E+00 0. -1.
        -11    1    4    4    0    0 -0.29266509317E+03 -0.70519938523E+02  0.27017510425E+03  0.40450031576E+03  0.00000000000E+00 0.  1.
         11    1    4    4    0    0 -0.48959910265E+02  0.19202192175E+02  0.80277434599E+02  0.95970117762E+02  0.00000000000E+00 0. -1.
         21    1    1    2  502  501  0.22270971992E+03 -0.38831443206E+02  0.14225105174E+04  0.14403623407E+04  0.00000000000E+00 0. -1.
<scales pt_clust_5="13000.00000" pt_clust_6="13000.00000" pt_clust_7="13000.00000" pt_clust_8="13000.00000" pt_clust_9="237.16554"></scales>
<clustering>
<clus scale="   84.295">  5  6 -1 -1</clus>
<clus scale="   91.173">  7  8 -1 -1</clus>
<clus scale="  171.387">  2  5  1 -1</clus>
<clus scale="  237.166">  1  9  2 -1</clus>
<clus scale="  237.166">  1  5  2 -1</clus>
</clustering>
</event>
<event>
 9    1  0.8113049E-006  0.1749597E+03  0.7546771E-02  0.1189461E+00
          4   -1    0    0  502    0  0.00000000000E+00  0.00000000000E+00  0.39444285946E+03  0.39444285946E+03  0.00000000000E+00 0. -1.
         -4   -1    0    0    0  501 -0.00000000000E+00 -0.00000000000E+00 -0.30803462661E+03  0.30803462661E+03  0.00000000000E+00 0.  1.
         23    2    1    2    0    0  0.13565423689E+03  0.82288074192E+01 -0.19722010287E+03  0.25810244650E+03  0.96183775445E+02 0.  0.
         23    2    1    2    0    0  0.73535437700E+02 -0.32008185449E+02  0.16012060555E+03  0.20028501891E+03  0.89685539227E+02 0.  0.
        -11    1    3    3    0    0  0.22746097086E+02 -0.36462771618E+02 -0.34750680122E+02  0.55267788228E+02  0.00000000000E+00 0.  1.
         11    1    3    3    0    0  0.11290813980E+03  0.44691579037E+02 -0.16246942274E+03  0.20283465827E+03  0.00000000000E+00 0. -1.
        -11    1    4    4    0    0  0.10459937043E+02  0.19478427087E+02  0.90485839283E+02  0.93147767099E+02  0.00000000000E+00 0. -1.
         11    1    4    4    0    0  0.63075500657E+02 -0.51486612536E+02  0.69634766266E+02  0.10713725181E+03  0.00000000000E+00 0.  1.
         21    1    1    2  502  501 -0.20918967459E+03  0.23779378030E+02  0.12350773017E+03  0.24409002066E+03  0.00000000000E+00 0. -1.
<scales pt_clust_5="13000.00000" pt_clust_6="13000.00000" pt_clust_7="13000.00000" pt_clust_8="13000.00000" pt_clust_9="146.14918"></scales>
<clustering>
<clus scale="   89.686">  7  8 -1 -1</clus>
<clus scale="   96.184">  5  6 -1 -1</clus>
<clus scale="  120.314">  1  7  2 -1</clus>
<clus scale="  146.149">  1  9  2 -1</clus>
<clus scale="  120.314">  1  5  2 -1</clus>
</clustering>
</event>
<event>
 9    1  0.5300912E-006  0.9707146E+02  0.7546771E-02  0.1287208E+00
          1   -1    0    0  502    0  0.00000000000E+00  0.00000000000E+00  0.19135768440E+02  0.19135768440E+02  0.00000000000E+00 0. -1.
         -1   -1    0    0    0  501 -0.00000000000E+00 -0.00000000000E+00 -0.69178101628E+03  0.69178101628E+03  0.00000000000E+00 0.  1.
         23    2    1    2    0    0  0.21298495374E+02  0.18175101045E+02 -0.33627514288E+03  0.34941652154E+03  0.90702665930E+02 0.  0.
         23    2    1    2    0    0 -0.42555128691E+02  0.44327843131E+01 -0.25526402551E+03  0.27466042748E+03  0.91913215301E+02 0.  0.
        -11    1    3    3    0    0  0.23780833633E+02  0.53734511862E+02 -0.22654219302E+03  0.23403908014E+03  0.00000000000E+00 0.  1.
         11    1    3    3    0    0 -0.24823382590E+01 -0.35559410817E+02 -0.10973294985E+03  0.11537744140E+03  0.00000000000E+00 0. -1.
        -13    1    4    4    0    0 -0.69419005991E+02 -0.51910399828E+01 -0.20915752872E+03  0.22043778512E+03  0.00000000000E+00 0. -1.
         13    1    4    4    0    0  0.26863877300E+02  0.96238242959E+01 -0.46106496794E+02  0.54222642358E+02  0.00000000000E+00 0.  1.
         21    1    1    2  502  501  0.21256633317E+02 -0.22607885358E+02 -0.81106079454E+02  0.86839835702E+02  0.00000000000E+00 0.  1.
<scales pt_clust_5="13000.00000" pt_clust_6="13000.00000" pt_clust_7="13000.00000" pt_clust_8="13000.00000" pt_clust_9="31.03161"></scales>
<clustering>
<clus scale="   31.032">  1  9  2 -1</clus>
<clus scale="   90.703">  5  6 -1 -1</clus>
<clus scale="   91.913">  7  8 -1 -1</clus>
<clus scale="   95.926">  2  5  1 -1</clus>
<clus scale="   31.032">  1  5  2 -1</clus>
</clustering>
</event>
<event>
 9    1  0.5300912E-006  0.1014950E+03  0.7546771E-02  0.1281709E+00
         -4   -1    0    0    0  501 -0.00000000000E+00  0.00000000000E+00  0.13259980210E+03  0.13259980210E+03  0.00000000000E+00 0.  1.
          4   -1    0    0  502    0  0.00000000000E+00 -0.00000000000E+00 -0.22052534037E+03  0.22052534037E+03  0.00000000000E+00 0. -1.
         23    2    1    2    0    0  0.34577097999E+02  0.62484235254E+02 -0.18810938044E+02  0.11819331216E+03  0.92281917451E+02 0.  0.
         23    2    1    2    0    0  0.34378590023E+01  0.22513748194E+02 -0.92579344813E+02  0.13890897686E+03  0.10102515050E+03 0.  0.
        -13    1    3    3    0    0 -0.31795519612E+02  0.18488288384E+02 -0.21775567536E+01  0.36844451797E+02  0.00000000000E+00 0.  1.
         13    1    3    3    0    0  0.66372617612E+02  0.43995946869E+02 -0.16633381291E+02  0.81348860365E+02  0.00000000000E+00 0. -1.
        -13    1    4    4    0    0  0.49903804793E+02  0.21710493242E+02 -0.34140218454E+02  0.64243986222E+02  0.00000000000E+00 0.  1.
         13    1    4    4    0    0 -0.46465945791E+02  0.80325495216E+00 -0.58439126359E+02  0.74664990634E+02  0.00000000000E+00 0. -1.
         21    1    1    2  502  501 -0.38014957002E+02 -0.84997983448E+02  0.23464744593E+02  0.96022853451E+02  0.00000000000E+00 0. -1.
<scales pt_clust_5="13000.00000" pt_clust_6="13000.00000" pt_clust_7="13000.00000" pt_clust_8="13000.00000" pt_clust_9="93.11173"></scales>
<clustering>
<clus scale="   92.282">  5  6 -1 -1</clus>
<clus scale="   93.112">  1  9  2 -1</clus>
<clus scale="   93.112">  1  5  2 -1</clus>
<clus scale="  101.025">  7  8 -1 -1</clus>
<clus scale="  101.495">  2  5  1 -1</clus>
</clustering>
</event>
<event>
 9    1  0.5300912E-006  0.1553401E+03  0.7546771E-02  0.1194180E+00
         -2   -1    0    0    0  501 -0.00000000000E+00  0.00000000000E+00  0.44176375691E+02  0.44176375691E+02  0.00000000000E+00 0.  1.
          2   -1    0    0  502    0  0.00000000000E+00 -0.00000000000E+00 -0.96406475542E+03  0.96406475542E+03  0.00000000000E+00 0. -1.
         23    2    1    2    0    0 -0.56775247000E+02 -0.16138174959E+03 -0.48407383031E+03  0.52132615430E+03  0.90476451059E+02 0.  0.
         23    2    1    2    0    0  0.52831274119E+02  0.78238734688E+02 -0.30258987112E+03  0.32982541396E+03  0.91168692311E+02 0.  0.
        -11    1    3    3    0    0 -0.18266429774E+02 -0.10357519494E+03 -0.39275528952E+03  0.40659340982E+03  0.00000000000E+00 0. -1.
         11    1    3    3    0    0 -0.38508817226E+02 -0.57806554648E+02 -0.91318540796E+02  0.11473274449E+03  0.00000000000E+00 0.  1.
        -13    1    4    4    0    0 -0.10211257848E+02  0.64659380346E+02 -0.12932459780E+03  0.14494811778E+03  0.00000000000E+00 0. -1.
         13    1    4    4    0    0  0.63042531967E+02  0.13579354341E+02 -0.17326527333E+03  0.18487729618E+03  0.00000000000E+00 0.  1.
         21    1    1    2  502  501  0.39439728812E+01  0.83143014900E+02 -0.13322467829E+03  0.15708956285E+03  0.00000000000E+00 0.  1.
<scales pt_clust_5="13000.00000" pt_clust_6="13000.00000" pt_clust_7="13000.00000" pt_clust_8="13000.00000" pt_clust_9="83.23651"></scales>
<clustering>
<clus scale="   83.237">  1  9  2 -1</clus>
<clus scale="   90.476">  5  6 -1 -1</clus>
<clus scale="   91.169">  7  8 -1 -1</clus>
<clus scale="  154.935">  1  5  2 -1</clus>
<clus scale="  155.340">  2  5  1 -1</clus>
</clustering>
</event>
<event>
 9    1  0.5300912E-006  0.9745758E+02  0.7546771E-02  0.1288066E+00
         -1   -1    0    0    0  501 -0.00000000000E+00  0.00000000000E+00  0.25289475313E+03  0.25289475313E+03  0.00000000000E+00 0.  1.
          1   -1    0    0  502    0  0.00000000000E+00 -0.00000000000E+00 -0.82303716917E+02  0.82303716917E+02  0.00000000000E+00 0. -1.
         23    2    1    2    0    0  0.37721306649E+01 -0.12148809095E+02  0.14739048998E+03  0.17341352288E+03  0.90479118312E+02 0.  0.
         23    2    1    2    0    0  0.21830421147E+01  0.59576426931E+02  0.21048512900E+02  0.11393649615E+03  0.94785911090E+02 0.  0.
        -11    1    3    3    0    0  0.18308116721E+02  0.36159424269E+02  0.57763886322E+02  0.70564563801E+02  0.00000000000E+00 0. -1.
         11    1    3    3    0    0 -0.14535986057E+02 -0.48308233364E+02  0.89626603655E+02  0.10284895908E+03  0.00000000000E+00 0.  1.
        -11    1    4    4    0    0  0.37195937572E+02  0.24228222560E+02  0.40908358965E+02  0.60365870933E+02  0.00000000000E+00 0.  1.
         11    1    4    4    0    0 -0.35012895457E+02  0.35348204372E+02 -0.19859846065E+02  0.53570625219E+02  0.00000000000E+00 0. -1.
         21    1    1    2  502  501 -0.59551727796E+01 -0.47427617837E+02  0.21520333327E+01  0.47848451009E+02  0.00000000000E+00 0.  1.
<scales pt_clust_5="13000.00000" pt_clust_6="13000.00000" pt_clust_7="13000.00000" pt_clust_8="13000.00000" pt_clust_9="47.80003"></scales>
<clustering>
<clus scale="   47.800">  2  9  1 -1</clus>
<clus scale="   90.479">  5  6 -1 -1</clus>
<clus scale="   93.274">  1  5  2 -1</clus>
<clus scale="   94.786">  7  8 -1 -1</clus>
<clus scale="   47.800">  2  5  1 -1</clus>
</clustering>
</event>
<event>
 9    1  0.5300912E-006  0.1402003E+03  0.7546771E-02  0.1216282E+00
         -1   -1    0    0    0  501 -0.00000000000E+00  0.00000000000E+00  0.42046530163E+02  0.42046530163E+02  0.00000000000E+00 0.  1.
          1   -1    0    0  502    0  0.00000000000E+00 -0.00000000000E+00 -0.77456717259E+03  0.77456717259E+03  0.00000000000E+00 0. -1.
         23    2    1    2    0    0 -0.37740751454E+02 -0.10075033685E+03 -0.18225506560E+03  0.23701659539E+03  0.10670034141E+03 0.  0.
         23    2    1    2    0    0  0.33883982519E+02  0.62256835546E+02 -0.24502631971E+03  0.27191605759E+03  0.94214686642E+02 0.  0.
        -11    1    4    4    0    0  0.16145715329E+02  0.79192922187E+02 -0.22842149492E+03  0.24229853980E+03  0.00000000000E+00 0. -1.
         11    1    4    4    0    0  0.17738267189E+02 -0.16936086641E+02 -0.16604824796E+02  0.29617517791E+02  0.00000000000E+00 0.  1.
        -13    1    3    3    0    0 -0.49258113243E+02 -0.11911208338E+03 -0.14581700318E+03  0.19461923991E+03  0.00000000000E+00 0.  1.
         13    1    3    3    0    0  0.11517361788E+02  0.18361746532E+02 -0.36438062423E+02  0.42397355476E+02  0.00000000000E+00 0. -1.
         21    1    1    2  502  501  0.38567689354E+01  0.38493501304E+02 -0.30523925711E+03  0.30768104978E+03  0.00000000000E+00 0. -1.
<scales pt_clust_5="13000.00000" pt_clust_6="13000.00000" pt_clust_7="13000.00000" pt_clust_8="13000.00000" pt_clust_9="38.68623"></scales>
<clustering>
<clus scale="   38.686">  2  9  1 -1</clus>
<clus scale="   94.215">  5  6 -1 -1</clus>
<clus scale="  106.700">  7  8 -1 -1</clus>
<clus scale="  130.949">  2  5  1 -1</clus>
<clus scale="   38.686">  2  5  1 -1</clus>
</clustering>
</event>
<event>
 9    1  0.5300912E-006  0.1308817E+03  0.7546771E-02  0.1227970E+00
          1   -1    0    0  502    0  0.00000000000E+00  0.00000000000E+00  0.79454519904E+03  0.79454519904E+03  0.00000000000E+00 0. -1.
         -1   -1    0    0    0  501 -0.00000000000E+00 -0.00000000000E+00 -0.97696962925E+02  0.97696962925E+02  0.00000000000E+00 0.  1.
         23    2    1    2    0    0 -0.53620348595E+02  0.18389155912E+02  0.22679221381E+03  0.25325096028E+03  0.97406559327E+02 0.  0.
         23    2    1    2    0    0  0.11242979198E+03  0.39097590827E+02  0.52111316720E+03  0.54219187975E+03  0.90796595203E+02 0.  0.
        -13    1    4    4    0    0  0.16318155963E+02 -0.26564154503E+02  0.76845305599E+02  0.82928508434E+02  0.00000000000E+00 0.  1.
         13    1    4    4    0    0  0.96111636017E+02  0.65661745330E+02  0.44426786160E+03  0.45926337131E+03  0.00000000000E+00 0. -1.
        -13    1    3    3    0    0 -0.60165176792E+02 -0.26280599248E+02  0.11092204077E+03  0.12889615015E+03  0.00000000000E+00 0.  1.
         13    1    3    3    0    0  0.65448281964E+01  0.44669755160E+02  0.11587017304E+03  0.12435481013E+03  0.00000000000E+00 0. -1.
         21    1    1    2  502  501 -0.58809443384E+02 -0.57486746739E+02 -0.51057144898E+02  0.96799321934E+02  0.00000000000E+00 0.  1.
<scales pt_clust_5="13000.00000" pt_clust_6="13000.00000" pt_clust_7="13000.00000" pt_clust_8="13000.00000" pt_clust_9="82.23914"></scales>
<clustering>
<clus scale="   82.239">  2  9  1 -1</clus>
<clus scale="   90.797">  5  6 -1 -1</clus>
<clus scale="   97.407">  7  8 -1 -1</clus>
<clus scale="  126.040">  1  5  2 -1</clus>
<clus scale="  126.040">  1  5  2 -1</clus>
</clustering>
</event>
<event>
 9    1  0.5300912E-006  0.1760675E+03  0.7546771E-02  0.1194064E+00
          2   -1    0    0  502    0  0.00000000000E+00  0.00000000000E+00  0.18537343544E+03  0.18537343544E+03  0.00000000000E+00 0. -1.
         -2   -1    0    0    0  501 -0.00000000000E+00 -0.00000000000E+00 -0.30987573900E+03  0.30987573900E+03  0.00000000000E+00 0.  1.
         23    2    1    2    0    0 -0.36590175374E+02 -0.17277554968E+03 -0.20023540666E+02  0.19951076389E+03  0.90627651558E+02 0.  0.
         23    2    1    2    0    0 -0.23537685840E+02  0.43375182742E+02  0.17398609247E+02  0.10808471754E+03  0.94573597956E+02 0.  0.
        -11    1    3    3    0    0 -0.49275225374E+02 -0.44386976165E+02 -0.23748791207E+02  0.70443286214E+02  0.00000000000E+00 0.  1.
         11    1    3    3    0    0  0.12685050000E+02 -0.12838857352E+03  0.37252505412E+01  0.12906747768E+03  0.00000000000E+00 0. -1.
        -13    1    4    4    0    0  0.13045880916E+02 -0.25324444282E+02  0.85931530575E+01  0.29755079676E+02  0.00000000000E+00 0.  1.
         13    1    4    4    0    0 -0.36583566756E+02  0.68699627024E+02  0.88054561895E+01  0.78329637868E+02  0.00000000000E+00 0. -1.
         21    1    1    2  502  501  0.60127861214E+02  0.12940036694E+03 -0.12187737214E+03  0.18765369300E+03  0.00000000000E+00 0. -1.
<scales pt_clust_5="13000.00000" pt_clust_6="13000.00000" pt_clust_7="13000.00000" pt_clust_8="13000.00000" pt_clust_9="150.95165"></scales>
<clustering>
<clus scale="   90.628">  5  6 -1 -1</clus>
<clus scale="   94.574">  7  8 -1 -1</clus>
<clus scale="  106.675">  1  7  2 -1</clus>
<clus scale="  150.952">  2  9  1 -1</clus>
<clus scale="  106.675">  1  5  2 -1</clus>
</clustering>
</event>
<event>
 9    1  0.5300912E-006  0.1327137E+03  0.7546771E-02  0.1236463E+00
          2   -1    0    0  502    0  0.00000000000E+00  0.00000000000E+00  0.31830330401E+03  0.31830330401E+03  0.00000000000E+00 0. -1.
         -2   -1    0    0    0  501 -0.00000000000E+00 -0.00000000000E+00 -0.10371740242E+03  0.10371740242E+03  0.00000000000E+00 0.  1.
         23    2    1    2    0    0 -0.25699112383E+02 -0.39424884366E+02  0.54202308000E+01  0.10165596896E+03  0.89943266778E+02 0.  0.
         23    2    1    2    0    0 -0.74360855943E+02  0.60559787748E+02  0.15699597632E+03  0.20555899536E+03  0.91704630217E+02 0.  0.
        -11    1    4    4    0    0 -0.37364193054E+02  0.81798243654E+02  0.11022532896E+03  0.14225561055E+03  0.00000000000E+00 0. -1.
         11    1    4    4    0    0 -0.36996662889E+02 -0.21238455906E+02  0.46770647356E+02  0.63303384809E+02  0.00000000000E+00 0.  1.
        -13    1    3    3    0    0 -0.57653673712E+01  0.22937992144E+02 -0.20442540129E+02  0.31261612106E+02  0.00000000000E+00 0.  1.
         13    1    3    3    0    0 -0.19933745012E+02 -0.62362876510E+02  0.25862770929E+02  0.70394356854E+02  0.00000000000E+00 0. -1.
         21    1    1    2  502  501  0.10005996833E+03 -0.21134903382E+02  0.52169694471E+02  0.11480574212E+03  0.00000000000E+00 0.  1.
<scales pt_clust_5="13000.00000" pt_clust_6="13000.00000" pt_clust_7="13000.00000" pt_clust_8="13000.00000" pt_clust_9="95.93328"></scales>
<clustering>
<clus scale="   89.943">  7  8 -1 -1</clus>
<clus scale="   91.705">  5  6 -1 -1</clus>
<clus scale="  101.511">  2  7  1 -1</clus>
<clus scale="   95.933">  2  9  1 -1</clus>
<clus scale="  132.714">  1  5  2 -1</clus>
</clustering>
</event>
<event>
 9    1  0.5300912E-006  0.1099118E+03  0.7546771E-02  0.1261090E+00
         -1   -1    0    0    0  501 -0.00000000000E+00  0.00000000000E+00  0.29249738303E+03  0.29249738303E+03  0.00000000000E+00 0.  1.
          1   -1    0    0  502    0  0.00000000000E+00 -0.00000000000E+00 -0.10623277265E+03  0.10623277265E+03  0.00000000000E+00 0. -1.
         23    2    1    2    0    0 -0.15906574939E+02 -0.90619946275E+02  0.35600252114E+02  0.13519549279E+03  0.92441600645E+02 0.  0.
         23    2    1    2    0    0  0.43113005296E+02  0.23003455659E+02  0.89078419736E+01  0.10413864798E+03  0.91529329490E+02 0.  0.
        -11    1    4    4    0    0  0.50186807893E+02  0.50571551704E+02 -0.69023364372E+01  0.71581001505E+02  0.00000000000E+00 0. -1.
         11    1    4    4    0    0 -0.70738025967E+01 -0.27568096045E+02  0.15810178411E+02  0.32557646477E+02  0.00000000000E+00 0.  1.
        -13    1    3    3    0    0  0.21012478754E+02  0.10091456086E+01  0.29483600978E+02  0.36219129819E+02  0.00000000000E+00 0.  1.
         13    1    3    3    0    0 -0.36919053693E+02 -0.91629091884E+02  0.61166511356E+01  0.98976362967E+02  0.00000000000E+00 0. -1.
         21    1    1    2  502  501 -0.27206430357E+02  0.67616490616E+02  0.14175651629E+03  0.15939601490E+03  0.00000000000E+00 0.  1.
<scales pt_clust_5="13000.00000" pt_clust_6="13000.00000" pt_clust_7="13000.00000" pt_clust_8="13000.00000" pt_clust_9="72.88470"></scales>
<clustering>
<clus scale="   72.885">  1  9  2 -1</clus>
<clus scale="   91.529">  5  6 -1 -1</clus>
<clus scale="   92.442">  7  8 -1 -1</clus>
<clus scale="  109.146">  2  5  1 -1</clus>
<clus scale="  109.146">  2  5  1 -1</clus>
</clustering>
</event>
<event>
 9    1  0.5300912E-006  0.9624230E+02  0.7546771E-02  0.1289231E+00
         -1   -1    0    0    0  501 -0.00000000000E+00  0.00000000000E+00  0.15799853918E+03  0.15799853918E+03  0.00000000000E+00 0.  1.
          1   -1    0    0  502    0  0.00000000000E+00 -0.00000000000E+00 -0.38675805140E+03  0.38675805140E+03  0.00000000000E+00 0. -1.
         23    2    1    2    0    0 -0.23268905002E+02  0.60594493904E+02 -0.14242504695E+02  0.11630711381E+03  0.95453450183E+02 0.  0.
         23    2    1    2    0    0 -0.12674587822E+02 -0.18488890647E+01 -0.30232971453E+03  0.31685175154E+03  0.93955907749E+02 0.  0.
        -11    1    4    4    0    0 -0.48108255231E+02  0.10152773253E+02 -0.23239604350E+03  0.23754032092E+03  0.00000000000E+00 0. -1.
         11    1    4    4    0    0  0.35433667409E+02 -0.12001662318E+02 -0.69933671028E+02  0.79311430625E+02  0.00000000000E+00 0.  1.
        -13    1    3    3    0    0  0.24290843970E+02  0.33868270312E+02 -0.38373624619E+02  0.56653683914E+02  0.00000000000E+00 0.  1.
         13    1    3    3    0    0 -0.47559748972E+02  0.26726223593E+02  0.24131119924E+02  0.59653429898E+02  0.00000000000E+00 0. -1.
         21    1    1    2  502  501  0.35943492825E+02 -0.58745604839E+02  0.87812707004E+02  0.11159772523E+03  0.00000000000E+00 0.  1.
<scales pt_clust_5="13000.00000" pt_clust_6="13000.00000" pt_clust_7="13000.00000" pt_clust_8="13000.00000" pt_clust_9="68.86930"></scales>
<clustering>
<clus scale="   68.869">  1  9  2 -1</clus>
<clus scale="   93.956">  5  6 -1 -1</clus>
<clus scale="   94.757">  2  5  1 -1</clus>
<clus scale="   95.453">  7  8 -1 -1</clus>
<clus scale="   94.757">  2  5  1 -1</clus>
</clustering>
</event>
<event>
 9    1  0.5300912E-006  0.9567094E+02  0.7546771E-02  0.1290600E+00
          1   -1    0    0  502    0  0.00000000000E+00  0.00000000000E+00  0.27840799362E+03  0.27840799362E+03  0.00000000000E+00 0. -1.
         -1   -1    0    0    0  501 -0.00000000000E+00 -0.00000000000E+00 -0.75786134833E+02  0.75786134833E+02  0.00000000000E+00 0.  1.
         23    2    1    2    0    0  0.35113620879E+02 -0.18164682203E+02  0.88545730247E+00  0.10066235830E+03  0.92569996722E+02 0.  0.
         23    2    1    2    0    0  0.23034691532E+02  0.60955190811E+01  0.11669208487E+03  0.14980411365E+03  0.90865160700E+02 0.  0.
        -11    1    4    4    0    0 -0.23799312985E+02 -0.19743805716E+02  0.77653339234E+02  0.83583887544E+02  0.00000000000E+00 0. -1.
         11    1    4    4    0    0  0.46834004517E+02  0.25839324797E+02  0.39038745636E+02  0.66220226109E+02  0.00000000000E+00 0.  1.
        -11    1    3    3    0    0  0.40802078248E+02 -0.51988355012E+02  0.40903528921E+01  0.66214270614E+02  0.00000000000E+00 0.  1.
         11    1    3    3    0    0 -0.56884573684E+01  0.33823672809E+02 -0.32048955896E+01  0.34448087687E+02  0.00000000000E+00 0. -1.
         21    1    1    2  502  501 -0.58148312411E+02  0.12069163122E+02  0.85044316612E+02  0.10372765650E+03  0.00000000000E+00 0. -1.
<scales pt_clust_5="13000.00000" pt_clust_6="13000.00000" pt_clust_7="13000.00000" pt_clust_8="13000.00000" pt_clust_9="59.38763"></scales>
<clustering>
<clus scale="   59.388">  1  9  2 -1</clus>
<clus scale="   90.865">  5  6 -1 -1</clus>
<clus scale="   92.570">  7  8 -1 -1</clus>
<clus scale="   94.022">  1  5  2 -1</clus>
<clus scale="   59.388">  1  5  2 -1</clus>
</clustering>
</event>
<event>
 9    1  0.5300912E-006  0.1237658E+03  0.7546771E-02  0.1237287E+00
          1   -1    0    0  502    0  0.00000000000E+00  0.00000000000E+00  0.56556172260E+03  0.56556172260E+03  0.00000000000E+00 0. -1.
         -1   -1    0    0    0  501 -0.00000000000E+00 -0.00000000000E+00 -0.12900826308E+03  0.12900826308E+03  0.00000000000E+00 0.  1.
         23    2    1    2    0    0 -0.85501216605E+02 -0.23726478604E+02 -0.78102006508E+02  0.14948944706E+03  0.91508292159E+02 0.  0.
         23    2    1    2    0    0  0.16315796862E+02  0.22368326261E+02  0.40087719060E+03  0.41191161266E+03  0.90565487104E+02 0.  0.
        -11    1    3    3    0    0 -0.55098331303E+02 -0.63364935064E+01 -0.95457909045E+02  0.11040013434E+03  0.00000000000E+00 0.  1.
         11    1    3    3    0    0 -0.30402885301E+02 -0.17389985098E+02  0.17355902536E+02  0.39089312724E+02  0.00000000000E+00 0. -1.
        -13    1    4    4    0    0  0.40674186039E+02 -0.20345297821E+02  0.19952657464E+03  0.20464401907E+03  0.00000000000E+00 0. -1.
         13    1    4    4    0    0 -0.24358389177E+02  0.42713624082E+02  0.20135061597E+03  0.20726759360E+03  0.00000000000E+00 0.  1.
         21    1    1    2  502  501  0.69185419743E+02  0.13581523431E+01  0.11377827543E+03  0.13316892596E+03  0.00000000000E+00 0. -1.
<scales pt_clust_5="13000.00000" pt_clust_6="13000.00000" pt_clust_7="13000.00000" pt_clust_8="13000.00000" pt_clust_9="69.19875"></scales>
<clustering>
<clus scale="   69.199">  1  9  2 -1</clus>
<clus scale="   90.565">  7  8 -1 -1</clus>
<clus scale="   91.508">  5  6 -1 -1</clus>
<clus scale="  123.070">  1  7  2 -1</clus>
<clus scale="   69.199">  1  5  2 -1</clus>
</clustering>
</event>
<event>
 9    1  0.5300912E-006  0.9833817E+02  0.7546771E-02  0.1283859E+00
          2   -1    0    0  502    0  0.00000000000E+00  0.00000000000E+00  0.10783361569E+04  0.10783361569E+04  0.00000000000E+00 0. -1.
         -2   -1    0    0    0  501 -0.00000000000E+00 -0.00000000000E+00 -0.14974153493E+02  0.14974153493E+02  0.00000000000E+00 0.  1.
         23    2    1    2    0    0  0.11808051024E+01 -0.33528414837E+02  0.30900718565E+03  0.32365624845E+03  0.90235123273E+02 0.  0.
         23    2    1    2    0    0  0.41685909776E+02  0.38337379369E+02  0.46209806040E+03  0.47423115558E+03  0.90294527905E+02 0.  0.
        -11    1    3    3    0    0  0.10278363041E+02 -0.63399409444E+02  0.22678442528E+03  0.23570385108E+03  0.00000000000E+00 0.  1.
         11    1    3    3    0    0 -0.90975579387E+01  0.29870994608E+02  0.82222760373E+02  0.87952397367E+02  0.00000000000E+00 0. -1.
        -11    1    4    4    0    0 -0.27893791841E+02  0.17117854839E+01  0.12391883354E+03  0.12703098496E+03  0.00000000000E+00 0.  1.
         11    1    4    4    0    0  0.69579701616E+02  0.36625593886E+02  0.33817922686E+03  0.34720017062E+03  0.00000000000E+00 0. -1.
         21    1    1    2  502  501 -0.42866714878E+02 -0.48089645329E+01  0.29225675737E+03  0.29542290638E+03  0.00000000000E+00 0. -1.
<scales pt_clust_5="13000.00000" pt_clust_6="13000.00000" pt_clust_7="13000.00000" pt_clust_8="13000.00000" pt_clust_9="43.13562"></scales>
<clustering>
<clus scale="   43.136">  1  9  2 -1</clus>
<clus scale="   90.235">  5  6 -1 -1</clus>
<clus scale="   90.295">  7  8 -1 -1</clus>
<clus scale="   98.284">  2  5  1 -1</clus>
<clus scale="   43.136">  1  5  2 -1</clus>
</clustering>
</event>
<event>
 9    1  0.5300912E-006  0.1022473E+03  0.7546771E-02  0.1276607E+00
          1   -1    0    0  502    0  0.00000000000E+00  0.00000000000E+00  0.46681588405E+03  0.46681588405E+03  0.00000000000E+00 0. -1.
         -1   -1    0    0    0  501 -0.00000000000E+00 -0.00000000000E+00 -0.57458279893E+02  0.57458279893E+02  0.00000000000E+00 0.  1.
         23    2    1    2    0    0  0.43328948975E+02 -0.21493451203E+02  0.55546337693E+02  0.11595871384E+03  0.89563728266E+02 0.  0.
         23    2    1    2    0    0  0.16306925779E+02  0.76572404755E+02  0.23931335100E+03  0.26795911313E+03  0.91662191465E+02 0.  0.
        -11    1    3    3    0    0  0.64353899052E+02  0.87478548014E+01  0.34603992820E+02  0.73589303611E+02  0.00000000000E+00 0.  1.
         11    1    3    3    0    0 -0.21024950077E+02 -0.30241306005E+02  0.20942344873E+02  0.42369410232E+02  0.00000000000E+00 0. -1.
        -13    1    4    4    0    0  0.40127336682E+02  0.20677907533E+00  0.90806993903E+02  0.99278175086E+02  0.00000000000E+00 0. -1.
         13    1    4    4    0    0 -0.23820410903E+02  0.76365625680E+02  0.14850635710E+03  0.16868093804E+03  0.00000000000E+00 0.  1.
         21    1    1    2  502  501 -0.59635874754E+02 -0.55078953552E+02  0.11449791546E+03  0.14035633697E+03  0.00000000000E+00 0. -1.
<scales pt_clust_5="13000.00000" pt_clust_6="13000.00000" pt_clust_7="13000.00000" pt_clust_8="13000.00000" pt_clust_9="81.17961"></scales>
<clustering>
<clus scale="   81.180">  1  9  2 -1</clus>
<clus scale="   89.564">  5  6 -1 -1</clus>
<clus scale="   91.662">  7  8 -1 -1</clus>
<clus scale="  100.370">  2  5  1 -1</clus>
<clus scale="   81.180">  1  5  2 -1</clus>
</clustering>
</event>
<event>
 9    1  0.5300912E-006  0.5623724E+03  0.7546771E-02  0.1036424E+00
          3   -1    0    0  502    0  0.00000000000E+00  0.00000000000E+00  0.11429473327E+04  0.11429473327E+04  0.00000000000E+00 0. -1.
         -3   -1    0    0    0  501 -0.00000000000E+00 -0.00000000000E+00 -0.56959959029E+03  0.56959959029E+03  0.00000000000E+00 0.  1.
         23    2    1    2    0    0  0.12994103334E+03 -0.64170969335E+02 -0.25341885983E+03  0.30984346244E+03  0.10382325004E+03 0.  0.
         23    2    1    2    0    0  0.39059451787E+03  0.35423798818E+03  0.42801214663E+03  0.68569491710E+03  0.94522441879E+02 0.  0.
        -13    1    3    3    0    0  0.13555969469E+03 -0.23945388605E+02 -0.19546561154E+03  0.23907450252E+03  0.00000000000E+00 0.  1.
         13    1    3    3    0    0 -0.56186613588E+01 -0.40225580730E+02 -0.57953248286E+02  0.70768959915E+02  0.00000000000E+00 0. -1.
        -13    1    4    4    0    0  0.36352529848E+03  0.30543147971E+03  0.35040639017E+03  0.59010479552E+03  0.00000000000E+00 0. -1.
         13    1    4    4    0    0  0.27069219395E+02  0.48806508469E+02  0.77605756460E+02  0.95590121578E+02  0.00000000000E+00 0.  1.
         21    1    1    2  502  501 -0.52053555121E+03 -0.29006701884E+03  0.39875445561E+03  0.71700854343E+03  0.00000000000E+00 0.  1.
<scales pt_clust_5="13000.00000" pt_clust_6="13000.00000" pt_clust_7="13000.00000" pt_clust_8="13000.00000" pt_clust_9="554.37196"></scales>
<clustering>
<clus scale="   94.522">  7  8 -1 -1</clus>
<clus scale="  103.823">  5  6 -1 -1</clus>
<clus scale="  178.275">  2  5  1 -1</clus>
<clus scale="  554.372">  2  9  1 -1</clus>
<clus scale="  562.372">  1  5  2 -1</clus>
</clustering>
</event>
<event>
 9    1  0.5300912E-006  0.1004884E+03  0.7546771E-02  0.1282524E+00
          2   -1    0    0  502    0  0.00000000000E+00  0.00000000000E+00  0.60443081506E+03  0.60443081506E+03  0.00000000000E+00 0. -1.
         -2   -1    0    0    0  501 -0.00000000000E+00 -0.00000000000E+00 -0.43979853048E+02  0.43979853048E+02  0.00000000000E+00 0.  1.
         23    2    1    2    0    0 -0.43492778835E+02  0.19141066944E+02  0.83435615875E+02  0.13153935450E+03  0.89906048358E+02 0.  0.
         23    2    1    2    0    0  0.59781090917E+01  0.39144695465E+02  0.14975309684E+03  0.18234902682E+03  0.96213993764E+02 0.  0.
        -11    1    4    4    0    0  0.32502164943E+02  0.48534587629E+02  0.14141276130E+03  0.15300184960E+03  0.00000000000E+00 0. -1.
         11    1    4    4    0    0 -0.26524055851E+02 -0.93898921636E+01  0.83403355401E+01  0.29347177216E+02  0.00000000000E+00 0.  1.
        -11    1    3    3    0    0 -0.31517153718E+00 -0.27725993966E+02  0.15383430184E+01  0.27770426243E+02  0.00000000000E+00 0.  1.
         11    1    3    3    0    0 -0.43177607298E+02  0.46867060910E+02  0.81897272857E+02  0.10376892826E+03  0.00000000000E+00 0. -1.
         21    1    1    2  502  501  0.37514669743E+02 -0.58285762409E+02  0.32726224929E+03  0.33452228679E+03  0.00000000000E+00 0.  1.
<scales pt_clust_5="13000.00000" pt_clust_6="13000.00000" pt_clust_7="13000.00000" pt_clust_8="13000.00000" pt_clust_9="69.31508"></scales>
<clustering>
<clus scale="   69.315">  1  9  2 -1</clus>
<clus scale="   89.906">  7  8 -1 -1</clus>
<clus scale="   94.466">  2  7  1 -1</clus>
<clus scale="   96.214">  5  6 -1 -1</clus>
<clus scale="   69.315">  1  5  2 -1</clus>
</clustering>
</event>
<event>
 9    1  0.5300912E-006  0.5104556E+03  0.7546771E-02  0.1037108E+00
         -2   -1    0    0    0  501 -0.00000000000E+00  0.00000000000E+00  0.38978137106E+03  0.38978137106E+03  0.00000000000E+00 0.  1.
          2   -1    0    0  502    0  0.00000000000E+00 -0.00000000000E+00 -0.11703549219E+04  0.11703549219E+04  0.00000000000E+00 0. -1.
         23    2    1    2    0    0  0.21493660057E+03 -0.46622964890E+00  0.40102076950E+02  0.23707820781E+03  0.91651188797E+02 0.  0.
         23    2    1    2    0    0 -0.54817320238E+03  0.25621596982E+03 -0.55352807643E+03  0.82524047137E+03  0.92130457439E+02 0.  0.
        -13    1    3    3    0    0  0.14602482022E+02 -0.26986785373E+02 -0.16486874230E+01  0.30728443439E+02  0.00000000000E+00 0. -1.
         13    1    3    3    0    0  0.20033411854E+03  0.26520555724E+02  0.41750764373E+02  0.20634976437E+03  0.00000000000E+00 0.  1.
        -13    1    4    4    0    0 -0.52208052899E+03  0.26335899911E+03 -0.53389493998E+03  0.79181427627E+03  0.00000000000E+00 0. -1.
         13    1    4    4    0    0 -0.26092673392E+02 -0.71430292897E+01 -0.19633136451E+02  0.33426195103E+02  0.00000000000E+00 0.  1.
         21    1    1    2  502  501  0.33323660181E+03 -0.25574974017E+03 -0.26714755131E+03  0.49781761375E+03  0.00000000000E+00 0.  1.
<scales pt_clust_5="13000.00000" pt_clust_6="13000.00000" pt_clust_7="13000.00000" pt_clust_8="13000.00000" pt_clust_9="502.07259"></scales>
<clustering>
<clus scale="   91.651">  5  6 -1 -1</clus>
<clus scale="   92.130">  7  8 -1 -1</clus>
<clus scale="  233.662">  1  5  2 -1</clus>
<clus scale="  502.073">  2  9  1 -1</clus>
<clus scale="  502.073">  2  5  1 -1</clus>
</clustering>
</event>
<event>
 9    1  0.5300912E-006  0.3471131E+03  0.7546771E-02  0.1063972E+00
          1   -1    0    0  502    0  0.00000000000E+00  0.00000000000E+00  0.25767076986E+03  0.25767076986E+03  0.00000000000E+00 0. -1.
         -1   -1    0    0    0  501 -0.00000000000E+00 -0.00000000000E+00 -0.66647371407E+03  0.66647371407E+03  0.00000000000E+00 0.  1.
         23    2    1    2    0    0  0.13079234435E+03 -0.34926453755E+03 -0.23337796107E+03  0.44815728116E+03  0.85365809412E+02 0.  0.
         23    2    1    2    0    0 -0.16089945164E+03  0.27058133768E+03 -0.60347274467E+02  0.33336755865E+03  0.91592804233E+02 0.  0.
        -11    1    4    4    0    0 -0.91513964498E+02  0.19575534140E+03 -0.25796336015E+01  0.21610556193E+03  0.00000000000E+00 0. -1.
         11    1    4    4    0    0 -0.69385487142E+02  0.74825996274E+02 -0.57767640866E+02  0.11726199672E+03  0.00000000000E+00 0.  1.
        -13    1    3    3    0    0  0.56895289216E+02 -0.26255168242E+03 -0.16602241681E+03  0.31580674907E+03  0.00000000000E+00 0.  1.
         13    1    3    3    0    0  0.73897055133E+02 -0.86712855129E+02 -0.67355544261E+02  0.13235053209E+03  0.00000000000E+00 0. -1.
         21    1    1    2  502  501  0.30107107291E+02  0.78683199872E+02 -0.11507770868E+03  0.14261964411E+03  0.00000000000E+00 0. -1.
<scales pt_clust_5="13000.00000" pt_clust_6="13000.00000" pt_clust_7="13000.00000" pt_clust_8="13000.00000" pt_clust_9="84.24657"></scales>
<clustering>
<clus scale="   84.247">  2  9  1 -1</clus>
<clus scale="   85.366">  7  8 -1 -1</clus>
<clus scale="   91.593">  5  6 -1 -1</clus>
<clus scale="  345.522">  2  7  1 -1</clus>
<clus scale="  347.113">  1  5  2 -1</clus>
</clustering>
</event>
<event>
 9    1  0.5300912E-006  0.1074367E+03  0.7546771E-02  0.1265751E+00
         -1   -1    0    0    0  501 -0.00000000000E+00  0.00000000000E+00  0.19791271757E+03  0.19791271757E+03  0.00000000000E+00 0.  1.
          1   -1    0    0  502    0  0.00000000000E+00 -0.00000000000E+00 -0.18879728687E+03  0.18879728687E+03  0.00000000000E+00 0. -1.
         23    2    1    2    0    0 -0.14802726353E+02 -0.63030009288E+02  0.14262905696E+03  0.18010120467E+03  0.88890343994E+02 0.  0.
         23    2    1    2    0    0 -0.17194018709E+02  0.21272589896E+02 -0.11989886844E+03  0.15226880161E+03  0.89788038907E+02 0.  0.
        -11    1    3    3    0    0  0.31589160138E+02 -0.82153947525E+01  0.73508369277E+02  0.80429149584E+02  0.00000000000E+00 0.  1.
         11    1    3    3    0    0 -0.46391886491E+02 -0.54814614535E+02  0.69120687686E+02  0.99672055086E+02  0.00000000000E+00 0. -1.
        -11    1    4    4    0    0 -0.50414729890E+01 -0.25792781329E+02 -0.39927506120E+01  0.26582439241E+02  0.00000000000E+00 0.  1.
         11    1    4    4    0    0 -0.12152545720E+02  0.47065371225E+02 -0.11590611783E+03  0.12568636237E+03  0.00000000000E+00 0. -1.
         21    1    1    2  502  501  0.31996745062E+02  0.41757419392E+02 -0.13614757818E+02  0.54339998153E+02  0.00000000000E+00 0.  1.
<scales pt_clust_5="13000.00000" pt_clust_6="13000.00000" pt_clust_7="13000.00000" pt_clust_8="13000.00000" pt_clust_9="52.60678"></scales>
<clustering>
<clus scale="   52.607">  2  9  1 -1</clus>
<clus scale="   88.890">  5  6 -1 -1</clus>
<clus scale="   89.788">  7  8 -1 -1</clus>
<clus scale="  106.688">  1  5  2 -1</clus>
<clus scale="   52.607">  2  5  1 -1</clus>
</clustering>
</event>
<event>
 9    1  0.5300912E-006  0.9486043E+02  0.7546771E-02  0.1292252E+00
         -2   -1    0    0    0  501 -0.00000000000E+00  0.00000000000E+00  0.42317485461E+02  0.42317485461E+02  0.00000000000E+00 0.  1.
          2   -1    0    0  502    0  0.00000000000E+00 -0.00000000000E+00 -0.34093732641E+03  0.34093732641E+03  0.00000000000E+00 0. -1.
         23    2    1    2    0    0  0.28491212132E+02  0.12544359615E+02 -0.10898954038E+03  0.14417739304E+03  0.89102697069E+02 0.  0.
         23    2    1    2    0    0  0.45794608323E+01 -0.37614031929E+02 -0.16140946807E+03  0.18889202985E+03  0.90506329605E+02 0.  0.
        -13    1    3    3    0    0 -0.19646914935E+01  0.27879487610E+02 -0.10636736757E+03  0.10997791927E+03  0.00000000000E+00 0. -1.
         13    1    3    3    0    0  0.30455903625E+02 -0.15335127995E+02 -0.26221728104E+01  0.34199473775E+02  0.00000000000E+00 0.  1.
        -13    1    4    4    0    0  0.43408974703E+02 -0.27752209701E+02 -0.55846234033E+02  0.75982406409E+02  0.00000000000E+00 0.  1.
         13    1    4    4    0    0 -0.38829513871E+02 -0.98618222278E+01 -0.10556323403E+03  0.11290962344E+03  0.00000000000E+00 0. -1.
         21    1    1    2  502  501 -0.33070672964E+02  0.25069672314E+02 -0.28220832497E+02  0.50185388979E+02  0.00000000000E+00 0.  1.
<scales pt_clust_5="13000.00000" pt_clust_6="13000.00000" pt_clust_7="13000.00000" pt_clust_8="13000.00000" pt_clust_9="41.49889"></scales>
<clustering>
<clus scale="   41.499">  1  9  2 -1</clus>
<clus scale="   89.103">  5  6 -1 -1</clus>
<clus scale="   90.506">  7  8 -1 -1</clus>
<clus scale="   93.522">  1  5  2 -1</clus>
<clus scale="   94.860">  2  5  1 -1</clus>
</clustering>
</event>
<event>
 9    1  0.5300912E-006  0.1024059E+03  0.7546771E-02  0.1281142E+00
          4   -1    0    0  502    0  0.00000000000E+00  0.00000000000E+00  0.36939937201E+02  0.36939937201E+02  0.00000000000E+00 0. -1.
         -4   -1    0    0    0  501 -0.00000000000E+00 -0.00000000000E+00 -0.41064702664E+03  0.41064702664E+03  0.00000000000E+00 0.  1.
         23    2    1    2    0    0  0.23882441026E+02 -0.13887111140E+02 -0.17992824557E+03  0.20318129532E+03  0.90250996516E+02 0.  0.
         23    2    1    2    0    0 -0.10760744079E+02 -0.22064649811E+01 -0.81939318753E+02  0.13065479379E+03  0.10117292662E+03 0.  0.
        -13    1    4    4    0    0  0.44426796065E+02  0.76634136780E+01 -0.29409945298E+02  0.53827623022E+02  0.00000000000E+00 0.  1.
         13    1    4    4    0    0 -0.55187540144E+02 -0.98698786590E+01 -0.52529373455E+02  0.76827170763E+02  0.00000000000E+00 0. -1.
        -13    1    3    3    0    0 -0.20740964262E+02 -0.33227999552E+02 -0.44492024303E+02  0.59277548695E+02  0.00000000000E+00 0. -1.
         13    1    3    3    0    0  0.44623405287E+02  0.19340888412E+02 -0.13543622126E+03  0.14390374663E+03  0.00000000000E+00 0.  1.
         21    1    1    2  502  501 -0.13121696947E+02  0.16093576121E+02 -0.11183952512E+03  0.11375087473E+03  0.00000000000E+00 0. -1.
<scales pt_clust_5="13000.00000" pt_clust_6="13000.00000" pt_clust_7="13000.00000" pt_clust_8="13000.00000" pt_clust_9="20.76493"></scales>
<clustering>
<clus scale="   20.765">  2  9  1 -1</clus>
<clus scale="   90.251">  7  8 -1 -1</clus>
<clus scale="   91.631">  2  7  1 -1</clus>
<clus scale="  101.173">  5  6 -1 -1</clus>
<clus scale="  102.406">  1  5  2 -1</clus>
</clustering>
</event>
<event>
 9    1  0.5300912E-006  0.9858618E+02  0.7546771E-02  0.1283751E+00
          1   -1    0    0  502    0  0.00000000000E+00  0.00000000000E+00  0.12838300636E+03  0.12838300636E+03  0.00000000000E+00 0. -1.
         -1   -1    0    0    0  501 -0.00000000000E+00 -0.00000000000E+00 -0.10182201950E+03  0.10182201950E+03  0.00000000000E+00 0.  1.
         23    2    1    2    0    0 -0.21432931709E+02  0.43150959821E+02 -0.20129329296E+02  0.10298766116E+03  0.88768758908E+02 0.  0.
         23    2    1    2    0    0  0.41761001443E+01 -0.30627013658E+02  0.28149732725E+02  0.98961379543E+02  0.89696674467E+02 0.  0.
        -11    1    3    3    0    0  0.30591412411E+02 -0.36254617123E+01 -0.94056763340E+01  0.32209396661E+02  0.00000000000E+00 0. -1.
         11    1    3    3    0    0 -0.52024344120E+02  0.46776421534E+02 -0.10723652962E+02  0.70778264499E+02  0.00000000000E+00 0.  1.
        -13    1    4    4    0    0 -0.33363531131E+02 -0.42571168364E+02  0.78793256605E+01  0.54658149971E+02  0.00000000000E+00 0.  1.
         13    1    4    4    0    0  0.37539631275E+02  0.11944154706E+02  0.20270407065E+02  0.44303229572E+02  0.00000000000E+00 0. -1.
         21    1    1    2  502  501  0.17256831564E+02 -0.12523946164E+02  0.18540583426E+02  0.28255985153E+02  0.00000000000E+00 0. -1.
<scales pt_clust_5="13000.00000" pt_clust_6="13000.00000" pt_clust_7="13000.00000" pt_clust_8="13000.00000" pt_clust_9="21.32246"></scales>
<clustering>
<clus scale="   21.322">  1  9  2 -1</clus>
<clus scale="   88.769">  5  6 -1 -1</clus>
<clus scale="   89.697">  7  8 -1 -1</clus>
<clus scale="   97.743">  2  5  1 -1</clus>
<clus scale="   21.322">  1  5  2 -1</clus>
</clustering>
</event>
<event>
 9    1  0.5300912E-006  0.2566050E+03  0.7546771E-02  0.1109262E+00
         -1   -1    0    0    0  501 -0.00000000000E+00  0.00000000000E+00  0.47571630022E+03  0.47571630022E+03  0.00000000000E+00 0.  1.
          1   -1    0    0  502    0  0.00000000000E+00 -0.00000000000E+00 -0.23183557273E+03  0.23183557273E+03  0.00000000000E+00 0. -1.
         23    2    1    2    0    0 -0.22220108137E+03  0.16805390751E+02  0.17762805518E+03  0.29941608590E+03  0.91883212759E+02 0.  0.
         23    2    1    2    0    0  0.25498743017E+03 -0.10166649814E+03  0.10722154104E+03  0.30836204091E+03  0.90752537291E+02 0.  0.
        -13    1    3    3    0    0 -0.18676979072E+03  0.49050128556E+02  0.14057508319E+03  0.23885188685E+03  0.00000000000E+00 0. -1.
         13    1    3    3    0    0 -0.35431290651E+02 -0.32244737805E+02  0.37052971995E+02  0.60564199053E+02  0.00000000000E+00 0.  1.
        -13    1    4    4    0    0  0.23101898996E+03 -0.61177615331E+02  0.10562487780E+03  0.26128354167E+03  0.00000000000E+00 0.  1.
         13    1    4    4    0    0  0.23968440210E+02 -0.40488882808E+02  0.15966632403E+01  0.47078499239E+02  0.00000000000E+00 0. -1.
         21    1    1    2  502  501 -0.32786348795E+02  0.84861107388E+02 -0.40968868722E+02  0.99773746140E+02  0.00000000000E+00 0.  1.
<scales pt_clust_5="13000.00000" pt_clust_6="13000.00000" pt_clust_7="13000.00000" pt_clust_8="13000.00000" pt_clust_9="90.97446"></scales>
<clustering>
<clus scale="   90.753">  7  8 -1 -1</clus>
<clus scale="   90.974">  2  9  1 -1</clus>
<clus scale="   91.883">  5  6 -1 -1</clus>
<clus scale="  256.202">  2  7  1 -1</clus>
<clus scale="   90.974">  2  5  1 -1</clus>
</clustering>
</event>
<event>
 9    1  0.5300912E-006  0.9448815E+02  0.7546771E-02  0.1292736E+00
         -2   -1    0    0    0  501 -0.00000000000E+00  0.00000000000E+00  0.18489163042E+03  0.18489163042E+03  0.00000000000E+00 0.  1.
          2   -1    0    0  502    0  0.00000000000E+00 -0.00000000000E+00 -0.24880467064E+03  0.24880467064E+03  0.00000000000E+00 0. -1.
         23    2    1    2    0    0  0.12872348800E+02  0.42905923157E+02  0.50826067459E+02  0.11287480629E+03  0.90281876125E+02 0.  0.
         23    2    1    2    0    0 -0.25079422386E+02 -0.47613382888E+01 -0.20298285402E+03  0.22391442193E+03  0.91016380674E+02 0.  0.
        -11    1    3    3    0    0  0.46141104481E+02  0.25320457263E+01  0.35767490950E+02  0.58435658524E+02  0.00000000000E+00 0.  1.
         11    1    3    3    0    0 -0.33268755680E+02  0.40373877431E+02  0.15058576509E+02  0.54439147769E+02  0.00000000000E+00 0. -1.
        -11    1    4    4    0    0  0.28720529312E+02 -0.20596050014E+02 -0.10771872515E+03  0.11336838107E+03  0.00000000000E+00 0.  1.
         11    1    4    4    0    0 -0.53799951698E+02  0.15834711725E+02 -0.95264128872E+02  0.11054604085E+03  0.00000000000E+00 0. -1.
         21    1    1    2  502  501  0.12207073586E+02 -0.38144584868E+02  0.88243746336E+02  0.96907072846E+02  0.00000000000E+00 0.  1.
<scales pt_clust_5="13000.00000" pt_clust_6="13000.00000" pt_clust_7="13000.00000" pt_clust_8="13000.00000" pt_clust_9="40.05024"></scales>
<clustering>
<clus scale="   40.050">  1  9  2 -1</clus>
<clus scale="   90.282">  5  6 -1 -1</clus>
<clus scale="   91.016">  7  8 -1 -1</clus>
<clus scale="   93.781">  1  5  2 -1</clus>
<clus scale="   94.488">  2  5  1 -1</clus>
</clustering>
</event>
<event>
 9    1  0.5300912E-006  0.1143649E+03  0.7546771E-02  0.1253332E+00
          1   -1    0    0  502    0  0.00000000000E+00  0.00000000000E+00  0.65109477732E+03  0.65109477732E+03  0.00000000000E+00 0. -1.
         -1   -1    0    0    0  501 -0.00000000000E+00 -0.00000000000E+00 -0.35707940880E+02  0.35707940880E+02  0.00000000000E+00 0.  1.
         23    2    1    2    0    0  0.27391735812E+02 -0.55713570103E+02  0.13091894428E+03  0.17083741519E+03  0.90506040533E+02 0.  0.
         23    2    1    2    0    0  0.46104860010E+01  0.71749353632E+02  0.45439107659E+03  0.46921165727E+03  0.92298984359E+02 0.  0.
        -11    1    3    3    0    0  0.50203232081E+02 -0.67355788528E+02  0.10383301222E+03  0.13356070225E+03  0.00000000000E+00 0. -1.
         11    1    3    3    0    0 -0.22811496269E+02  0.11642218425E+02  0.27085932064E+02  0.37276712940E+02  0.00000000000E+00 0.  1.
        -11    1    4    4    0    0  0.29155563931E+02 -0.88803604501E+01  0.84173286201E+02  0.89521225526E+02  0.00000000000E+00 0. -1.
         11    1    4    4    0    0 -0.24545077930E+02  0.80629714082E+02  0.37021779038E+03  0.37969043175E+03  0.00000000000E+00 0.  1.
         21    1    1    2  502  501 -0.32002221813E+02 -0.16035783529E+02  0.30076815570E+02  0.46753645732E+02  0.00000000000E+00 0. -1.
<scales pt_clust_5="13000.00000" pt_clust_6="13000.00000" pt_clust_7="13000.00000" pt_clust_8="13000.00000" pt_clust_9="35.79509"></scales>
<clustering>
<clus scale="   35.795">  2  9  1 -1</clus>
<clus scale="   90.506">  5  6 -1 -1</clus>
<clus scale="   92.299">  7  8 -1 -1</clus>
<clus scale="  112.923">  2  5  1 -1</clus>
<clus scale="  114.365">  1  5  2 -1</clus>
</clustering>
</event>
<event>
 9    1  0.5300912E-006  0.1007634E+03  0.7546771E-02  0.1281395E+00
          1   -1    0    0  502    0  0.00000000000E+00  0.00000000000E+00  0.59889634388E+03  0.59889634388E+03  0.00000000000E+00 0. -1.
         -1   -1    0    0    0  501 -0.00000000000E+00 -0.00000000000E+00 -0.71164653982E+02  0.71164653982E+02  0.00000000000E+00 0.  1.
         23    2    1    2    0    0 -0.30048901353E+02 -0.11109631725E+02 -0.20418324773E+02  0.10171929823E+03  0.94358609873E+02 0.  0.
         23    2    1    2    0    0  0.54755350462E+02  0.30855895148E+02  0.32043241370E+03  0.33843817782E+03  0.88956358899E+02 0.  0.
        -11    1    4    4    0    0 -0.21786421980E+02  0.23453791986E+02  0.96210377612E+02  0.10139608129E+03  0.00000000000E+00 0.  1.
         11    1    4    4    0    0  0.76541772442E+02  0.74021031627E+01  0.22422203609E+03  0.23704209653E+03  0.00000000000E+00 0. -1.
        -11    1    3    3    0    0  0.26513954807E+02  0.13852411911E+02  0.11611533406E+02  0.32089045223E+02  0.00000000000E+00 0. -1.
         11    1    3    3    0    0 -0.56562856160E+02 -0.24962043636E+02 -0.32029858180E+02  0.69630253012E+02  0.00000000000E+00 0.  1.
         21    1    1    2  502  501 -0.24706449109E+02 -0.19746263424E+02  0.22771760097E+03  0.22990352181E+03  0.00000000000E+00 0. -1.
<scales pt_clust_5="13000.00000" pt_clust_6="13000.00000" pt_clust_7="13000.00000" pt_clust_8="13000.00000" pt_clust_9="31.62789"></scales>
<clustering>
<clus scale="   31.628">  1  9  2 -1</clus>
<clus scale="   88.956">  5  6 -1 -1</clus>
<clus scale="   94.359">  7  8 -1 -1</clus>
<clus scale="   95.723">  1  5  2 -1</clus>
<clus scale="   31.628">  1  5  2 -1</clus>
</clustering>
</event>
<event>
 9    1  0.5300912E-006  0.9572978E+02  0.7546771E-02  0.1291351E+00
          1   -1    0    0  502    0  0.00000000000E+00  0.00000000000E+00  0.84217192019E+03  0.84217192019E+03  0.00000000000E+00 0. -1.
         -1   -1    0    0    0  501 -0.00000000000E+00 -0.00000000000E+00 -0.15602150563E+02  0.15602150563E+02  0.00000000000E+00 0.  1.
         23    2    1    2    0    0  0.22909063532E+02 -0.16304713190E+02  0.28334486497E+03  0.29826937704E+03  0.88823645004E+02 0.  0.
         23    2    1    2    0    0  0.83091282997E+01  0.32292923918E+02  0.42719702544E+03  0.43829138117E+03  0.92142073494E+02 0.  0.
        -11    1    4    4    0    0  0.36901861769E+02  0.49675387535E+02  0.32228497702E+03  0.32817220775E+03  0.00000000000E+00 0. -1.
         11    1    4    4    0    0 -0.28592733469E+02 -0.17382463616E+02  0.10491204843E+03  0.11011917341E+03  0.00000000000E+00 0.  1.
        -13    1    3    3    0    0 -0.25909803148E+02 -0.17613414242E+02  0.44129695344E+02  0.54120054246E+02  0.00000000000E+00 0.  1.
         13    1    3    3    0    0  0.48818866680E+02  0.13087010516E+01  0.23921516963E+03  0.24414932280E+03  0.00000000000E+00 0. -1.
         21    1    1    2  502  501 -0.31218191832E+02 -0.15988210728E+02  0.11602787921E+03  0.12121331254E+03  0.00000000000E+00 0.  1.
<scales pt_clust_5="13000.00000" pt_clust_6="13000.00000" pt_clust_7="13000.00000" pt_clust_8="13000.00000" pt_clust_9="35.07418"></scales>
<clustering>
<clus scale="   35.074">  2  9  1 -1</clus>
<clus scale="   88.824">  7  8 -1 -1</clus>
<clus scale="   92.142">  5  6 -1 -1</clus>
<clus scale="   92.540">  2  7  1 -1</clus>
<clus scale="   95.730">  1  5  2 -1</clus>
</clustering>
</event>
<event>
 9    1  0.5300912E-006  0.1201927E+03  0.7546771E-02  0.1244942E+00
         -1   -1    0    0    0  501 -0.00000000000E+00  0.00000000000E+00  0.40724308604E+03  0.40724308604E+03  0.00000000000E+00 0.  1.
          1   -1    0    0  502    0  0.00000000000E+00 -0.00000000000E+00 -0.62698745611E+02  0.62698745611E+02  0.00000000000E+00 0. -1.
         23    2    1    2    0    0  0.90931603679E+02  0.13591402881E+02  0.20067033761E+03  0.23828269628E+03  0.89759546416E+02 0.  0.
         23    2    1    2    0    0 -0.50899539967E+02  0.26589977911E+02  0.13296141507E+03  0.17389933915E+03  0.96252024218E+02 0.  0.
        -11    1    3    3    0    0  0.54264173659E+02 -0.14070494530E+02  0.34370572879E+02  0.65756487431E+02  0.00000000000E+00 0. -1.
         11    1    3    3    0    0  0.36667430021E+02  0.27661897410E+02  0.16629976473E+03  0.17252620885E+03  0.00000000000E+00 0.  1.
        -13    1    4    4    0    0  0.49701160131E+01  0.49377367867E+02  0.76987877568E+02  0.91596723757E+02  0.00000000000E+00 0.  1.
         13    1    4    4    0    0 -0.55869655981E+02 -0.22787389956E+02  0.55973537503E+02  0.82302615396E+02  0.00000000000E+00 0. -1.
         21    1    1    2  502  501 -0.40032063712E+02 -0.40181380792E+02  0.10912587753E+02  0.57759796215E+02  0.00000000000E+00 0. -1.
<scales pt_clust_5="13000.00000" pt_clust_6="13000.00000" pt_clust_7="13000.00000" pt_clust_8="13000.00000" pt_clust_9="56.71957"></scales>
<clustering>
<clus scale="   56.720">  2  9  1 -1</clus>
<clus scale="   89.760">  5  6 -1 -1</clus>
<clus scale="   96.252">  7  8 -1 -1</clus>
<clus scale="  115.059">  1  5  2 -1</clus>
<clus scale="   56.720">  2  5  1 -1</clus>
</clustering>
</event>
<event>
 9    1  0.5300912E-006  0.9635293E+02  0.7546771E-02  0.1289261E+00
         -3   -1    0    0    0  501 -0.00000000000E+00  0.00000000000E+00  0.21093343263E+03  0.21093343263E+03  0.00000000000E+00 0.  1.
          3   -1    0    0  502    0  0.00000000000E+00 -0.00000000000E+00 -0.14774488022E+03  0.14774488022E+03  0.00000000000E+00 0. -1.
         23    2    1    2    0    0 -0.27889078194E+02  0.22989238864E+02  0.13376835783E+03  0.16574302204E+03  0.90942124511E+02 0.  0.
         23    2    1    2    0    0 -0.42785927699E+02  0.28706989819E+01 -0.54418385390E+02  0.11596202051E+03  0.92988994028E+02 0.  0.
        -13    1    3    3    0    0 -0.59294582199E+02  0.19274895244E+02  0.10900613905E+03  0.12557749566E+03  0.00000000000E+00 0. -1.
         13    1    3    3    0    0  0.31405504006E+02  0.37143436208E+01  0.24762218785E+02  0.40165526382E+02  0.00000000000E+00 0.  1.
        -13    1    4    4    0    0 -0.50457189717E+02  0.34167165532E+02 -0.11046481426E+02  0.61930186069E+02  0.00000000000E+00 0.  1.
         13    1    4    4    0    0  0.76712620174E+01 -0.31296466551E+02 -0.43371903964E+02  0.54031834440E+02  0.00000000000E+00 0. -1.
         21    1    1    2  502  501  0.70675005893E+02 -0.25859937846E+02 -0.16161420030E+02  0.76973270301E+02  0.00000000000E+00 0.  1.
<scales pt_clust_5="13000.00000" pt_clust_6="13000.00000" pt_clust_7="13000.00000" pt_clust_8="13000.00000" pt_clust_9="75.25751"></scales>
<clustering>
<clus scale="   75.258">  2  9  1 -1</clus>
<clus scale="   90.942">  5  6 -1 -1</clus>
<clus scale="   92.989">  7  8 -1 -1</clus>
<clus scale="   94.379">  1  5  2 -1</clus>
<clus scale="   75.258">  2  5  1 -1</clus>
</clustering>
</event>
<event>
 9    1  0.5300912E-006  0.9311966E+02  0.7546771E-02  0.1304311E+00
          1   -1    0    0  502    0  0.00000000000E+00  0.00000000000E+00  0.16048532309E+03  0.16048532309E+03  0.00000000000E+00 0. -1.
         -1   -1    0    0    0  501 -0.00000000000E+00 -0.00000000000E+00 -0.14921777505E+03  0.14921777505E+03  0.00000000000E+00 0.  1.
         23    2    1    2    0    0 -0.41296768149E+01  0.26885057339E+02 -0.77388376377E+02  0.11112156477E+03  0.74961195424E+02 0.  0.
         23    2    1    2    0    0  0.24291377712E+02  0.21984810811E+02  0.10630226782E+03  0.14284867385E+03  0.89622366287E+02 0.  0.
        -11    1    3    3    0    0  0.12011994505E+02  0.47351180084E+02 -0.30837806446E+02  0.57770170276E+02  0.00000000000E+00 0.  1.
         11    1    3    3    0    0 -0.16141671320E+02 -0.20466122745E+02 -0.46550569931E+02  0.53351394491E+02  0.00000000000E+00 0. -1.
        -13    1    4    4    0    0  0.87570772543E+01 -0.20729184117E+02  0.92719891152E+02  0.95411549046E+02  0.00000000000E+00 0. -1.
         13    1    4    4    0    0  0.15534300458E+02  0.42713994928E+02  0.13582376666E+02  0.47437124800E+02  0.00000000000E+00 0.  1.
         21    1    1    2  502  501 -0.20161700897E+02 -0.48869868150E+02 -0.17646343400E+02  0.55732859530E+02  0.00000000000E+00 0.  1.
<scales pt_clust_5="13000.00000" pt_clust_6="13000.00000" pt_clust_7="13000.00000" pt_clust_8="13000.00000" pt_clust_9="52.86547"></scales>
<clustering>
<clus scale="   52.865">  2  9  1 -1</clus>
<clus scale="   74.961">  5  6 -1 -1</clus>
<clus scale="   79.109">  2  5  1 -1</clus>
<clus scale="   89.622">  7  8 -1 -1</clus>
<clus scale="   93.120">  1  5  2 -1</clus>
</clustering>
</event>
<event>
 9    1  0.5300912E-006  0.1038018E+03  0.7546771E-02  0.1274804E+00
          1   -1    0    0  502    0  0.00000000000E+00  0.00000000000E+00  0.14868569940E+03  0.14868569940E+03  0.00000000000E+00 0. -1.
         -1   -1    0    0    0  501 -0.00000000000E+00 -0.00000000000E+00 -0.13496129088E+03  0.13496129088E+03  0.00000000000E+00 0.  1.
         23    2    1    2    0    0  0.42803016062E+02  0.21385240550E+02 -0.68031731784E+02  0.12275168962E+03  0.90278646854E+02 0.  0.
         23    2    1    2    0    0 -0.66639547252E+01 -0.31175732738E+02  0.52002637436E+02  0.11307107641E+03  0.95207454628E+02 0.  0.
        -11    1    4    4    0    0  0.40084262024E+02 -0.14887648184E+02  0.21487429507E+01  0.42813633655E+02  0.00000000000E+00 0.  1.
         11    1    4    4    0    0 -0.46748216749E+02 -0.16288084554E+02  0.49853894485E+02  0.70257442759E+02  0.00000000000E+00 0. -1.
        -11    1    3    3    0    0  0.30372231142E+02 -0.17882865421E+02 -0.73196578433E+02  0.81240435711E+02  0.00000000000E+00 0.  1.
         11    1    3    3    0    0  0.12430784919E+02  0.39268105970E+02  0.51648466491E+01  0.41511253909E+02  0.00000000000E+00 0. -1.
         21    1    1    2  502  501 -0.36139061336E+02  0.97904921886E+01  0.29753502865E+02  0.47824224242E+02  0.00000000000E+00 0. -1.
<scales pt_clust_5="13000.00000" pt_clust_6="13000.00000" pt_clust_7="13000.00000" pt_clust_8="13000.00000" pt_clust_9="37.44176"></scales>
<clustering>
<clus scale="   37.442">  1  9  2 -1</clus>
<clus scale="   90.279">  7  8 -1 -1</clus>
<clus scale="   95.207">  5  6 -1 -1</clus>
<clus scale="   99.300">  2  7  1 -1</clus>
<clus scale="   37.442">  1  5  2 -1</clus>
</clustering>
</event>
<event>
 9    1  0.5300912E-006  0.9432699E+02  0.7546771E-02  0.1293792E+00
          1   -1    0    0  502    0  0.00000000000E+00  0.00000000000E+00  0.21569353826E+03  0.21569353826E+03  0.00000000000E+00 0. -1.
         -1   -1    0    0    0  501 -0.00000000000E+00 -0.00000000000E+00 -0.19806330450E+03  0.19806330450E+03  0.00000000000E+00 0.  1.
         23    2    1    2    0    0  0.56408664553E+00  0.42590109782E+02  0.61233934915E+02  0.11812895574E+03  0.91600326174E+02 0.  0.
         23    2    1    2    0    0  0.22529665915E+02  0.33624546078E+02  0.92704726816E+02  0.13776090911E+03  0.93518478179E+02 0.  0.
        -13    1    4    4    0    0 -0.35198619517E+02  0.13235476488E+02  0.19600655536E+02  0.42406442332E+02  0.00000000000E+00 0. -1.
         13    1    4    4    0    0  0.57728285432E+02  0.20389069589E+02  0.73104071280E+02  0.95354466782E+02  0.00000000000E+00 0.  1.
        -13    1    3    3    0    0  0.15134747171E+02 -0.26246697067E+02  0.23087102197E+02  0.38091520929E+02  0.00000000000E+00 0.  1.
         13    1    3    3    0    0 -0.14570660525E+02  0.68836806850E+02  0.38146832718E+02  0.80037434815E+02  0.00000000000E+00 0. -1.
         21    1    1    2  502  501 -0.23093752560E+02 -0.76214655860E+02 -0.13630842797E+03  0.15786697790E+03  0.00000000000E+00 0.  1.
<scales pt_clust_5="13000.00000" pt_clust_6="13000.00000" pt_clust_7="13000.00000" pt_clust_8="13000.00000" pt_clust_9="79.63664"></scales>
<clustering>
<clus scale="   79.637">  2  9  1 -1</clus>
<clus scale="   91.600">  7  8 -1 -1</clus>
<clus scale="   92.426">  2  7  1 -1</clus>
<clus scale="   93.518">  5  6 -1 -1</clus>
<clus scale="   94.327">  1  5  2 -1</clus>
</clustering>
</event>
<event>
 9    1  0.5300912E-006  0.1172776E+03  0.7546771E-02  0.1249757E+00
          1   -1    0    0  502    0  0.00000000000E+00  0.00000000000E+00  0.44104221746E+03  0.44104221746E+03  0.00000000000E+00 0. -1.
         -1   -1    0    0    0  501 -0.00000000000E+00 -0.00000000000E+00 -0.50026801293E+03  0.50026801293E+03  0.00000000000E+00 0.  1.
         23    2    1    2    0    0 -0.10027133197E+02  0.37965950126E+02 -0.31274672564E+03  0.32973142041E+03  0.96800508464E+02 0.  0.
         23    2    1    2    0    0 -0.77203204881E+01 -0.66443711534E+02  0.42352106829E+03  0.43829868426E+03  0.90891535284E+02 0.  0.
        -13    1    3    3    0    0 -0.29991068450E+02 -0.15945255125E+02 -0.47922581757E+02  0.58739162320E+02  0.00000000000E+00 0. -1.
         13    1    3    3    0    0  0.19963935253E+02  0.53911205250E+02 -0.26482414388E+03  0.27099225809E+03  0.00000000000E+00 0.  1.
        -13    1    4    4    0    0 -0.48092747154E+02 -0.40449142662E+02  0.19843022892E+03  0.20814322285E+03  0.00000000000E+00 0.  1.
         13    1    4    4    0    0  0.40372426666E+02 -0.25994568872E+02  0.22509083938E+03  0.23015546141E+03  0.00000000000E+00 0. -1.
         21    1    1    2  502  501  0.17747453685E+02  0.28477761409E+02 -0.17000013812E+03  0.17328012572E+03  0.00000000000E+00 0.  1.
<scales pt_clust_5="13000.00000" pt_clust_6="13000.00000" pt_clust_7="13000.00000" pt_clust_8="13000.00000" pt_clust_9="33.55525"></scales>
<clustering>
<clus scale="   33.555">  2  9  1 -1</clus>
<clus scale="   90.892">  7  8 -1 -1</clus>
<clus scale="   96.801">  5  6 -1 -1</clus>
<clus scale="  112.450">  1  7  2 -1</clus>
<clus scale="  112.450">  1  5  2 -1</clus>
</clustering>
</event>
<event>
 9    1  0.5300912E-006  0.9832370E+02  0.7546771E-02  0.1284443E+00
         -4   -1    0    0    0  501 -0.00000000000E+00  0.00000000000E+00  0.19107524467E+03  0.19107524467E+03  0.00000000000E+00 0.  1.
          4   -1    0    0  502    0  0.00000000000E+00 -0.00000000000E+00 -0.11988272772E+03  0.11988272772E+03  0.00000000000E+00 0. -1.
         23    2    1    2    0    0 -0.19648776097E+02  0.14208217494E+02  0.92818588360E+02  0.13207612392E+03  0.90779206422E+02 0.  0.
         23    2    1    2    0    0  0.13049667078E+01 -0.42857983377E+02 -0.68713402951E+02  0.12079121910E+03  0.89612929808E+02 0.  0.
        -11    1    4    4    0    0  0.69993274437E+01 -0.70024762232E+02 -0.57411082574E+02  0.90821199687E+02  0.00000000000E+00 0. -1.
         11    1    4    4    0    0 -0.56943607359E+01  0.27166778855E+02 -0.11302320377E+02  0.29970019410E+02  0.00000000000E+00 0.  1.
        -11    1    3    3    0    0 -0.44394071690E+02  0.11240033447E+01  0.94102993716E+02  0.10405513159E+03  0.00000000000E+00 0.  1.
         11    1    3    3    0    0  0.24745295593E+02  0.13084214149E+02 -0.12844053566E+01  0.28020992327E+02  0.00000000000E+00 0. -1.
         21    1    1    2  502  501  0.18343809389E+02  0.28649765884E+02  0.47087331545E+02  0.58090629366E+02  0.00000000000E+00 0. -1.
<scales pt_clust_5="13000.00000" pt_clust_6="13000.00000" pt_clust_7="13000.00000" pt_clust_8="13000.00000" pt_clust_9="34.01918"></scales>
<clustering>
<clus scale="   34.019">  1  9  2 -1</clus>
<clus scale="   89.613">  5  6 -1 -1</clus>
<clus scale="   90.779">  7  8 -1 -1</clus>
<clus scale="   97.248">  2  5  1 -1</clus>
<clus scale="   97.248">  2  5  1 -1</clus>
</clustering>
</event>
<event>
 9    1  0.5300912E-006  0.1005742E+03  0.7546771E-02  0.1281242E+00
          2   -1    0    0  502    0  0.00000000000E+00  0.00000000000E+00  0.62860391455E+03  0.62860391455E+03  0.00000000000E+00 0. -1.
         -2   -1    0    0    0  501 -0.00000000000E+00 -0.00000000000E+00 -0.41047520998E+02  0.41047520998E+02  0.00000000000E+00 0.  1.
         23    2    1    2    0    0 -0.37693968473E+02  0.36557539235E+02  0.12515969597E+03  0.16360154071E+03  0.91341259528E+02 0.  0.
         23    2    1    2    0    0  0.38728299086E+02  0.34940434564E+02  0.39498515003E+03  0.40777809400E+03  0.86884924387E+02 0.  0.
        -11    1    3    3    0    0 -0.49060362288E+01 -0.27134546420E+02  0.12924325916E+02  0.30453095102E+02  0.00000000000E+00 0.  1.
         11    1    3    3    0    0 -0.32787932244E+02  0.63692085655E+02  0.11223537006E+03  0.13314844561E+03  0.00000000000E+00 0. -1.
        -13    1    4    4    0    0 -0.26571705619E+02  0.12186404850E+01  0.78965267600E+02  0.83324990917E+02  0.00000000000E+00 0.  1.
         13    1    4    4    0    0  0.65300004705E+02  0.33721794079E+02  0.31601988243E+03  0.32445310308E+03  0.00000000000E+00 0. -1.
         21    1    1    2  502  501 -0.10343306129E+01 -0.71497973799E+02  0.67411547554E+02  0.98271800842E+02  0.00000000000E+00 0.  1.
<scales pt_clust_5="13000.00000" pt_clust_6="13000.00000" pt_clust_7="13000.00000" pt_clust_8="13000.00000" pt_clust_9="71.50546"></scales>
<clustering>
<clus scale="   71.505">  2  9  1 -1</clus>
<clus scale="   86.885">  7  8 -1 -1</clus>
<clus scale="   91.341">  5  6 -1 -1</clus>
<clus scale="   96.545">  1  7  2 -1</clus>
<clus scale="   96.545">  1  5  2 -1</clus>
</clustering>
</event>
<event>
 9    1  0.5300912E-006  0.1576309E+03  0.7546771E-02  0.1204506E+00
         -3   -1    0    0    0  501 -0.00000000000E+00  0.00000000000E+00  0.11360697317E+04  0.11360697317E+04  0.00000000000E+00 0.  1.
          3   -1    0    0  502    0  0.00000000000E+00 -0.00000000000E+00 -0.63533356523E+02  0.63533356523E+02  0.00000000000E+00 0. -1.
         23    2    1    2    0    0 -0.72945824774E+02  0.25653524095E+02  0.19839776543E+03  0.23152587286E+03  0.90903024300E+02 0.  0.
         23    2    1    2    0    0 -0.75170905244E+02 -0.90774335197E+00  0.47037578112E+02  0.12745421073E+03  0.91545360809E+02 0.  0.
        -11    1    3    3    0    0  0.18606128982E+02 -0.98390602812E+01  0.38812618531E+02  0.44152174354E+02  0.00000000000E+00 0.  1.
         11    1    3    3    0    0 -0.91551953756E+02  0.35492584376E+02  0.15958514690E+03  0.18737369851E+03  0.00000000000E+00 0. -1.
        -11    1    4    4    0    0 -0.53425029953E+02 -0.38918816081E+01 -0.19796820877E+02  0.57107746276E+02  0.00000000000E+00 0. -1.
         11    1    4    4    0    0 -0.21745875291E+02  0.29841382561E+01  0.66834398989E+02  0.70346464456E+02  0.00000000000E+00 0.  1.
         21    1    1    2  502  501  0.14811673002E+03 -0.24745780743E+02  0.82710103162E+03  0.84062300461E+03  0.00000000000E+00 0.  1.
<scales pt_clust_5="13000.00000" pt_clust_6="13000.00000" pt_clust_7="13000.00000" pt_clust_8="13000.00000" pt_clust_9="128.77942"></scales>
<clustering>
<clus scale="   90.903">  5  6 -1 -1</clus>
<clus scale="   91.545">  7  8 -1 -1</clus>
<clus scale="  118.457">  2  7  1 -1</clus>
<clus scale="  128.779">  1  9  2 -1</clus>
<clus scale="  118.457">  2  5  1 -1</clus>
</clustering>
</event>
<event>
 9    1  0.5300912E-006  0.9843069E+02  0.7546771E-02  0.1283755E+00
          1   -1    0    0  502    0  0.00000000000E+00  0.00000000000E+00  0.49398077097E+02  0.49398077097E+02  0.00000000000E+00 0. -1.
         -1   -1    0    0    0  501 -0.00000000000E+00 -0.00000000000E+00 -0.66065075083E+03  0.66065075083E+03  0.00000000000E+00 0.  1.
         23    2    1    2    0    0  0.56867529412E+02  0.48592869788E+02 -0.13467461226E+03  0.17917158461E+03  0.91487827876E+02 0.  0.
         23    2    1    2    0    0 -0.74948090329E+01 -0.12609824166E+02 -0.61696393539E+02  0.11152149520E+03  0.91735593354E+02 0.  0.
        -13    1    4    4    0    0  0.35509042157E+02 -0.19963595878E+02 -0.53313745044E+02  0.67095399588E+02  0.00000000000E+00 0.  1.
         13    1    4    4    0    0 -0.43003851190E+02  0.73537717119E+01 -0.83826484951E+01  0.44426095612E+02  0.00000000000E+00 0. -1.
        -13    1    3    3    0    0  0.56742906937E+02  0.73683115518E+02 -0.10877140546E+03  0.14310897123E+03  0.00000000000E+00 0.  1.
         13    1    3    3    0    0  0.12462247492E+00 -0.25090245731E+02 -0.25903206799E+02  0.36062613384E+02  0.00000000000E+00 0. -1.
         21    1    1    2  502  501 -0.49372720379E+02 -0.35983045621E+02 -0.41488166794E+03  0.41935574812E+03  0.00000000000E+00 0. -1.
<scales pt_clust_5="13000.00000" pt_clust_6="13000.00000" pt_clust_7="13000.00000" pt_clust_8="13000.00000" pt_clust_9="61.09374"></scales>
<clustering>
<clus scale="   61.094">  2  9  1 -1</clus>
<clus scale="   91.488">  7  8 -1 -1</clus>
<clus scale="   91.736">  5  6 -1 -1</clus>
<clus scale="   98.200">  2  7  1 -1</clus>
<clus scale="   98.431">  1  5  2 -1</clus>
</clustering>
</event>
<event>
 9    1  0.5300912E-006  0.1062662E+03  0.7546771E-02  0.1268309E+00
          1   -1    0    0  502    0  0.00000000000E+00  0.00000000000E+00  0.21885394747E+03  0.21885394747E+03  0.00000000000E+00 0. -1.
         -1   -1    0    0    0  501 -0.00000000000E+00 -0.00000000000E+00 -0.22134650761E+03  0.22134650761E+03  0.00000000000E+00 0.  1.
         23    2    1    2    0    0  0.54245563496E+02  0.71609006377E+02 -0.82550894454E+02  0.15137898744E+03  0.89613150312E+02 0.  0.
         23    2    1    2    0    0 -0.40509132107E+02 -0.34522997744E+02  0.16539815771E+03  0.19476325673E+03  0.87996297886E+02 0.  0.
        -11    1    3    3    0    0 -0.13064784481E+02  0.41525740729E+02 -0.41063833181E+01  0.43725714638E+02  0.00000000000E+00 0. -1.
         11    1    3    3    0    0  0.67310347977E+02  0.30083265648E+02 -0.78444511136E+02  0.10765327280E+03  0.00000000000E+00 0.  1.
        -13    1    4    4    0    0  0.19190783902E+01 -0.23252850102E+02 -0.31487688356E+00  0.23334031954E+02  0.00000000000E+00 0.  1.
         13    1    4    4    0    0 -0.42428210497E+02 -0.11270147642E+02  0.16571303459E+03  0.17142922478E+03  0.00000000000E+00 0. -1.
         21    1    1    2  502  501 -0.13736431389E+02 -0.37086008632E+02 -0.85339823393E+02  0.94058210914E+02  0.00000000000E+00 0. -1.
<scales pt_clust_5="13000.00000" pt_clust_6="13000.00000" pt_clust_7="13000.00000" pt_clust_8="13000.00000" pt_clust_9="39.54822"></scales>
<clustering>
<clus scale="   39.548">  2  9  1 -1</clus>
<clus scale="   87.996">  7  8 -1 -1</clus>
<clus scale="   89.613">  5  6 -1 -1</clus>
<clus scale="  104.906">  1  7  2 -1</clus>
<clus scale="  104.906">  1  5  2 -1</clus>
</clustering>
</event>
<event>
 9    1  0.5300912E-006  0.1038490E+03  0.7546771E-02  0.1276147E+00
          2   -1    0    0  502    0  0.00000000000E+00  0.00000000000E+00  0.28250588637E+03  0.28250588637E+03  0.00000000000E+00 0. -1.
         -2   -1    0    0    0  501 -0.00000000000E+00 -0.00000000000E+00 -0.19728053116E+03  0.19728053116E+03  0.00000000000E+00 0.  1.
         23    2    1    2    0    0  0.54926277002E+02 -0.24419108671E+02 -0.74333454275E+02  0.13237598043E+03  0.91568275059E+02 0.  0.
         23    2    1    2    0    0  0.47128448528E+02  0.58671561907E+02 -0.36776781894E+02  0.12349960217E+03  0.90753386776E+02 0.  0.
        -11    1    4    4    0    0 -0.10398497232E+02  0.29908624419E+02 -0.48697853920E+02  0.58087309593E+02  0.00000000000E+00 0. -1.
         11    1    4    4    0    0  0.57526945759E+02  0.28762937488E+02  0.11921072027E+02  0.65412292572E+02  0.00000000000E+00 0.  1.
        -11    1    3    3    0    0  0.87709538085E+01  0.25654942299E+02  0.52666220520E+01  0.27619612649E+02  0.00000000000E+00 0. -1.
         11    1    3    3    0    0  0.46155323194E+02 -0.50074050970E+02 -0.79600076327E+02  0.10475636778E+03  0.00000000000E+00 0.  1.
         21    1    1    2  502  501 -0.10205472553E+03 -0.34252453236E+02  0.19633559138E+03  0.22391083493E+03  0.00000000000E+00 0. -1.
<scales pt_clust_5="13000.00000" pt_clust_6="13000.00000" pt_clust_7="13000.00000" pt_clust_8="13000.00000" pt_clust_9="107.64942"></scales>
<clustering>
<clus scale="   90.753">  5  6 -1 -1</clus>
<clus scale="   91.568">  7  8 -1 -1</clus>
<clus scale="  107.649">  1  9  2 -1</clus>
<clus scale="  107.649">  1  5  2 -1</clus>
<clus scale="  103.849">  1  5  2 -1</clus>
</clustering>
</event>
<event>
 9    1  0.5300912E-006  0.1043374E+03  0.7546771E-02  0.1271654E+00
          1   -1    0    0  502    0  0.00000000000E+00  0.00000000000E+00  0.36628725612E+03  0.36628725612E+03  0.00000000000E+00 0. -1.
         -1   -1    0    0    0  501 -0.00000000000E+00 -0.00000000000E+00 -0.55665082465E+02  0.55665082465E+02  0.00000000000E+00 0.  1.
         23    2    1    2    0    0  0.80966043687E+01 -0.51065881485E+02  0.61622025690E+02  0.12125594538E+03  0.90732855045E+02 0.  0.
         23    2    1    2    0    0  0.14046203508E+02  0.49505812044E+02  0.25665945204E+03  0.27721442786E+03  0.91244963877E+02 0.  0.
        -13    1    3    3    0    0 -0.31886044706E+02 -0.48469412717E+02  0.15281914856E+02  0.59996172692E+02  0.00000000000E+00 0.  1.
         13    1    3    3    0    0  0.39982649074E+02 -0.25964687684E+01  0.46340110834E+02  0.61259772683E+02  0.00000000000E+00 0. -1.
        -13    1    4    4    0    0 -0.36868461070E+01  0.72376331873E+02  0.14834518172E+03  0.16510063352E+03  0.00000000000E+00 0.  1.
         13    1    4    4    0    0  0.17733049615E+02 -0.22870519829E+02  0.10831427033E+03  0.11211379434E+03  0.00000000000E+00 0. -1.
         21    1    1    2  502  501 -0.22142807877E+02  0.15600694407E+01 -0.76593040816E+01  0.23481965343E+02  0.00000000000E+00 0. -1.
<scales pt_clust_5="13000.00000" pt_clust_6="13000.00000" pt_clust_7="13000.00000" pt_clust_8="13000.00000" pt_clust_9="22.19770"></scales>
<clustering>
<clus scale="   22.198">  2  9  1 -1</clus>
<clus scale="   90.733">  5  6 -1 -1</clus>
<clus scale="   91.245">  7  8 -1 -1</clus>
<clus scale="  103.890">  2  5  1 -1</clus>
<clus scale="  104.337">  1  5  2 -1</clus>
</clustering>
</event>
<event>
 9    1  0.5300912E-006  0.9989884E+02  0.7546771E-02  0.1281430E+00
         -1   -1    0    0    0  501 -0.00000000000E+00  0.00000000000E+00  0.17403612358E+03  0.17403612358E+03  0.00000000000E+00 0.  1.
          1   -1    0    0  502    0  0.00000000000E+00 -0.00000000000E+00 -0.19506905923E+03  0.19506905923E+03  0.00000000000E+00 0. -1.
         23    2    1    2    0    0  0.96095047104E+01 -0.16558334800E+02  0.41451286538E+02  0.10447155906E+03  0.93965826047E+02 0.  0.
         23    2    1    2    0    0  0.75928487241E+02  0.29102471194E+02  0.41234155467E+02  0.12960916194E+03  0.92120520398E+02 0.  0.
        -11    1    4    4    0    0  0.82157052513E+02  0.31718274953E+01  0.55662301863E+02  0.99288134316E+02  0.00000000000E+00 0.  1.
         11    1    4    4    0    0 -0.62285652720E+01  0.25930643699E+02 -0.14428146396E+02  0.30321027628E+02  0.00000000000E+00 0. -1.
        -13    1    3    3    0    0 -0.87392774462E+01  0.35829203496E+02  0.30580804155E+02  0.47909209722E+02  0.00000000000E+00 0.  1.
         13    1    3    3    0    0  0.18348782157E+02 -0.52387538296E+02  0.10870482383E+02  0.56562349337E+02  0.00000000000E+00 0. -1.
         21    1    1    2  502  501 -0.85537991951E+02 -0.12544136394E+02 -0.10371837765E+03  0.13502446181E+03  0.00000000000E+00 0. -1.
<scales pt_clust_5="13000.00000" pt_clust_6="13000.00000" pt_clust_7="13000.00000" pt_clust_8="13000.00000" pt_clust_9="86.45290"></scales>
<clustering>
<clus scale="   86.453">  2  9  1 -1</clus>
<clus scale="   92.121">  5  6 -1 -1</clus>
<clus scale="   93.966">  7  8 -1 -1</clus>
<clus scale="   98.165">  2  5  1 -1</clus>
<clus scale="   86.453">  2  5  1 -1</clus>
</clustering>
</event>
<event>
 9    1  0.5300912E-006  0.9879448E+02  0.7546771E-02  0.1282952E+00
          1   -1    0    0  502    0  0.00000000000E+00  0.00000000000E+00  0.22065054144E+03  0.22065054144E+03  0.00000000000E+00 0. -1.
         -1   -1    0    0    0  501 -0.00000000000E+00 -0.00000000000E+00 -0.12155131511E+03  0.12155131511E+03  0.00000000000E+00 0.  1.
         23    2    1    2    0    0  0.30849746009E+02 -0.25649085611E+02 -0.63762049831E+02  0.11845691190E+03  0.91415855057E+02 0.  0.
         23    2    1    2    0    0 -0.44148577262E+02 -0.22148293044E+02  0.11352187443E+03  0.15377477329E+03  0.91213053702E+02 0.  0.
        -11    1    4    4    0    0  0.58564366168E+00  0.32824500139E+02  0.37481892150E+02  0.49826529350E+02  0.00000000000E+00 0.  1.
         11    1    4    4    0    0 -0.44734220923E+02 -0.54972793183E+02  0.76039982282E+02  0.10394824394E+03  0.00000000000E+00 0. -1.
        -13    1    3    3    0    0 -0.24029401585E+02  0.15139708535E+02 -0.61845569493E+01  0.29066676104E+02  0.00000000000E+00 0. -1.
         13    1    3    3    0    0  0.54879147594E+02 -0.40788794145E+02 -0.57577492882E+02  0.89390235792E+02  0.00000000000E+00 0.  1.
         21    1    1    2  502  501  0.13298831253E+02  0.47797378654E+02  0.49339401725E+02  0.69970171369E+02  0.00000000000E+00 0. -1.
<scales pt_clust_5="13000.00000" pt_clust_6="13000.00000" pt_clust_7="13000.00000" pt_clust_8="13000.00000" pt_clust_9="49.61299"></scales>
<clustering>
<clus scale="   49.613">  1  9  2 -1</clus>
<clus scale="   91.213">  5  6 -1 -1</clus>
<clus scale="   91.416">  7  8 -1 -1</clus>
<clus scale="   98.607">  1  5  2 -1</clus>
<clus scale="   49.613">  1  5  2 -1</clus>
</clustering>
</event>
<event>
 9    1  0.5300912E-006  0.9632258E+02  0.7546771E-02  0.1289937E+00
          2   -1    0    0  502    0  0.00000000000E+00  0.00000000000E+00  0.35047304487E+03  0.35047304487E+03  0.00000000000E+00 0. -1.
         -2   -1    0    0    0  501 -0.00000000000E+00 -0.00000000000E+00 -0.39560010369E+02  0.39560010369E+02  0.00000000000E+00 0.  1.
         23    2    1    2    0    0 -0.35389267286E+01 -0.26612374602E+02  0.11335740953E+03  0.14896650904E+03  0.92845980193E+02 0.  0.
         23    2    1    2    0    0  0.35533459212E+02  0.37616188763E+01  0.15891346612E+03  0.18593920645E+03  0.89683456010E+02 0.  0.
        -11    1    3    3    0    0 -0.41481066077E+02 -0.29248191743E+02  0.92698943628E+02  0.10568457651E+03  0.00000000000E+00 0.  1.
         11    1    3    3    0    0  0.37942139349E+02  0.26358171411E+01  0.20658465899E+02  0.43281932531E+02  0.00000000000E+00 0. -1.
        -13    1    4    4    0    0  0.17412802070E+02  0.37882846064E+02  0.30009508052E+02  0.51370091253E+02  0.00000000000E+00 0.  1.
         13    1    4    4    0    0  0.18120657142E+02 -0.34121227188E+02  0.12890395807E+03  0.13456911520E+03  0.00000000000E+00 0. -1.
         21    1    1    2  502  501 -0.31994532484E+02  0.22850755726E+02  0.38642158860E+02  0.55127339746E+02  0.00000000000E+00 0.  1.
<scales pt_clust_5="13000.00000" pt_clust_6="13000.00000" pt_clust_7="13000.00000" pt_clust_8="13000.00000" pt_clust_9="39.31675"></scales>
<clustering>
<clus scale="   39.317">  2  9  1 -1</clus>
<clus scale="   89.683">  7  8 -1 -1</clus>
<clus scale="   92.846">  5  6 -1 -1</clus>
<clus scale="   93.278">  1  7  2 -1</clus>
<clus scale="   93.278">  1  5  2 -1</clus>
</clustering>
</event>
<event>
 9    1  0.5300912E-006  0.9873026E+02  0.7546771E-02  0.1284362E+00
         -2   -1    0    0    0  501 -0.00000000000E+00  0.00000000000E+00  0.69393398716E+02  0.69393398716E+02  0.00000000000E+00 0.  1.
          2   -1    0    0  502    0  0.00000000000E+00 -0.00000000000E+00 -0.36045030757E+03  0.36045030757E+03  0.00000000000E+00 0. -1.
         23    2    1    2    0    0  0.20842194322E+01  0.11342905773E+02  0.33230383111E+01  0.91123914641E+02  0.90330060079E+02 0.  0.
         23    2    1    2    0    0  0.30891087645E+02 -0.22386363293E+02 -0.28570402747E+03  0.30287846894E+03  0.93022400957E+02 0.  0.
        -13    1    4    4    0    0 -0.26851024523E+02  0.94121777072E+01 -0.44415041691E+02  0.52747156658E+02  0.00000000000E+00 0.  1.
         13    1    4    4    0    0  0.57742112168E+02 -0.31798541000E+02 -0.24128898578E+03  0.25013131228E+03  0.00000000000E+00 0. -1.
        -13    1    3    3    0    0  0.31837316382E+02 -0.21671018859E+02 -0.17190372310E+02  0.42175308807E+02  0.00000000000E+00 0. -1.
         13    1    3    3    0    0 -0.29753096950E+02  0.33013924632E+02  0.20513410621E+02  0.48948605833E+02  0.00000000000E+00 0.  1.
         21    1    1    2  502  501 -0.32975307077E+02  0.11043457520E+02 -0.86759197030E+01  0.35841322709E+02  0.00000000000E+00 0.  1.
<scales pt_clust_5="13000.00000" pt_clust_6="13000.00000" pt_clust_7="13000.00000" pt_clust_8="13000.00000" pt_clust_9="34.77541"></scales>
<clustering>
<clus scale="   34.775">  1  9  2 -1</clus>
<clus scale="   90.330">  7  8 -1 -1</clus>
<clus scale="   93.022">  5  6 -1 -1</clus>
<clus scale="   96.198">  1  7  2 -1</clus>
<clus scale="   98.730">  2  5  1 -1</clus>
</clustering>
</event>
<event>
 9    1  0.5300912E-006  0.3958708E+03  0.7546771E-02  0.1067804E+00
          2   -1    0    0  502    0  0.00000000000E+00  0.00000000000E+00  0.10270905878E+04  0.10270905878E+04  0.00000000000E+00 0. -1.
         -2   -1    0    0    0  501 -0.00000000000E+00 -0.00000000000E+00 -0.28732979425E+03  0.28732979425E+03  0.00000000000E+00 0.  1.
         23    2    1    2    0    0 -0.29827296177E+03 -0.29238538146E+03  0.41636687549E+03  0.59568591129E+03  0.83811448491E+02 0.  0.
         23    2    1    2    0    0 -0.70419981043E+02  0.17568141115E+03  0.24815380755E+03  0.32476064293E+03  0.89812198719E+02 0.  0.
        -13    1    4    4    0    0 -0.32335026478E+02  0.13971123761E+03  0.22648969972E+03  0.26807157240E+03  0.00000000000E+00 0. -1.
         13    1    4    4    0    0 -0.38084954565E+02  0.35970173542E+02  0.21664107831E+02  0.56689070524E+02  0.00000000000E+00 0.  1.
        -13    1    3    3    0    0 -0.93912163483E+02 -0.90442033884E+02  0.78541303229E+02  0.15221035529E+03  0.00000000000E+00 0.  1.
         13    1    3    3    0    0 -0.20436079828E+03 -0.20194334758E+03  0.33782557226E+03  0.44347555601E+03  0.00000000000E+00 0. -1.
         21    1    1    2  502  501  0.36869294281E+03  0.11670397031E+03  0.75240110483E+02  0.39397382780E+03  0.00000000000E+00 0.  1.
<scales pt_clust_5="13000.00000" pt_clust_6="13000.00000" pt_clust_7="13000.00000" pt_clust_8="13000.00000" pt_clust_9="386.89702"></scales>
<clustering>
<clus scale="   83.811">  7  8 -1 -1</clus>
<clus scale="   89.812">  5  6 -1 -1</clus>
<clus scale="  209.497">  1  5  2 -1</clus>
<clus scale="  386.897">  2  9  1 -1</clus>
<clus scale="  209.497">  1  5  2 -1</clus>
</clustering>
</event>
<event>
 9    1  0.5300912E-006  0.1318490E+03  0.7546771E-02  0.1241658E+00
         -1   -1    0    0    0  501 -0.00000000000E+00  0.00000000000E+00  0.24794948898E+03  0.24794948898E+03  0.00000000000E+00 0.  1.
          1   -1    0    0  502    0  0.00000000000E+00 -0.00000000000E+00 -0.13019381216E+03  0.13019381216E+03  0.00000000000E+00 0. -1.
         23    2    1    2    0    0  0.79689923951E+02 -0.35168894870E+02  0.96036293635E+02  0.15856149929E+03  0.91276745203E+02 0.  0.
         23    2    1    2    0    0  0.14675922500E+02 -0.54543030374E+01 -0.38175029387E+02  0.10065956743E+03  0.91814397145E+02 0.  0.
        -11    1    4    4    0    0 -0.23228583031E+02  0.30838109055E+02 -0.59122133714E+01  0.39057781640E+02  0.00000000000E+00 0. -1.
         11    1    4    4    0    0  0.37904505531E+02 -0.36292412092E+02 -0.32262816016E+02  0.61601785788E+02  0.00000000000E+00 0.  1.
        -13    1    3    3    0    0  0.26190676615E+02 -0.60650321612E+02  0.59755440139E+02  0.89079322401E+02  0.00000000000E+00 0.  1.
         13    1    3    3    0    0  0.53499247336E+02  0.25481426742E+02  0.36280853497E+02  0.69482176885E+02  0.00000000000E+00 0. -1.
         21    1    1    2  502  501 -0.94365846451E+02  0.40623197907E+02  0.59894412572E+02  0.11892223443E+03  0.00000000000E+00 0. -1.
<scales pt_clust_5="13000.00000" pt_clust_6="13000.00000" pt_clust_7="13000.00000" pt_clust_8="13000.00000" pt_clust_9="95.14573"></scales>
<clustering>
<clus scale="   91.277">  7  8 -1 -1</clus>
<clus scale="   91.814">  5  6 -1 -1</clus>
<clus scale="   93.140">  2  5  1 -1</clus>
<clus scale="   95.146">  2  9  1 -1</clus>
<clus scale="   93.140">  2  5  1 -1</clus>
</clustering>
</event>
<event>
 9    1  0.5300912E-006  0.9899180E+02  0.7546771E-02  0.1298709E+00
          2   -1    0    0  502    0  0.00000000000E+00  0.00000000000E+00  0.28925462673E+03  0.28925462673E+03  0.00000000000E+00 0. -1.
         -2   -1    0    0    0  501 -0.00000000000E+00 -0.00000000000E+00 -0.52996348790E+02  0.52996348790E+02  0.00000000000E+00 0.  1.
         23    2    1    2    0    0 -0.42963594073E+02  0.88595572800E+01  0.12673714706E+02  0.10204140042E+03  0.91254929645E+02 0.  0.
         23    2    1    2    0    0  0.22033257223E+02 -0.46804083542E+01  0.15853253311E+03  0.17174563635E+03  0.62101762482E+02 0.  0.
        -11    1    3    3    0    0 -0.41497432269E+02 -0.31299671121E+02  0.27990526129E+02  0.59035377954E+02  0.00000000000E+00 0. -1.
         11    1    3    3    0    0 -0.14661618040E+01  0.40159228401E+02 -0.15316811423E+02  0.43006022466E+02  0.00000000000E+00 0.  1.
        -13    1    4    4    0    0  0.22033510850E+02  0.25079379673E+02  0.58222592095E+02  0.67114239289E+02  0.00000000000E+00 0.  1.
         13    1    4    4    0    0 -0.25362671902E-03 -0.29759788027E+02  0.10030994102E+03  0.10463139706E+03  0.00000000000E+00 0. -1.
         21    1    1    2  502  501  0.20930336850E+02 -0.41791489258E+01  0.65052030120E+02  0.68463938750E+02  0.00000000000E+00 0. -1.
<scales pt_clust_5="13000.00000" pt_clust_6="13000.00000" pt_clust_7="13000.00000" pt_clust_8="13000.00000" pt_clust_9="21.34348"></scales>
<clustering>
<clus scale="   21.343">  1  9  2 -1</clus>
<clus scale="   62.102">  7  8 -1 -1</clus>
<clus scale="   72.997">  1  7  2 -1</clus>
<clus scale="   91.255">  5  6 -1 -1</clus>
<clus scale="   21.343">  1  5  2 -1</clus>
</clustering>
</event>
<event>
 9    1  0.5300912E-006  0.9424488E+02  0.7546771E-02  0.1293716E+00
         -1   -1    0    0    0  501 -0.00000000000E+00  0.00000000000E+00  0.53049199638E+03  0.53049199638E+03  0.00000000000E+00 0.  1.
          1   -1    0    0  502    0  0.00000000000E+00 -0.00000000000E+00 -0.37118170927E+02  0.37118170927E+02  0.00000000000E+00 0. -1.
         23    2    1    2    0    0  0.21859008919E+02  0.45402178255E+01  0.33745104235E+03  0.35068164327E+03  0.92768416475E+02 0.  0.
         23    2    1    2    0    0  0.24351069748E+02 -0.84920210968E+01  0.65439341049E+02  0.11525138105E+03  0.91298874348E+02 0.  0.
        -11    1    4    4    0    0  0.41340341619E+02  0.29738463412E+02  0.47816453210E+02  0.69855660106E+02  0.00000000000E+00 0. -1.
         11    1    4    4    0    0 -0.16989271870E+02 -0.38230484509E+02  0.17622887839E+02  0.45395720946E+02  0.00000000000E+00 0.  1.
        -13    1    3    3    0    0  0.46571960470E+02 -0.14712906336E+02  0.28821604912E+03  0.29232500421E+03  0.00000000000E+00 0.  1.
         13    1    3    3    0    0 -0.24712951551E+02  0.19253124162E+02  0.49234993228E+02  0.58356639061E+02  0.00000000000E+00 0. -1.
         21    1    1    2  502  501 -0.46210078667E+02  0.39518032713E+01  0.90483442055E+02  0.10167714298E+03  0.00000000000E+00 0. -1.
<scales pt_clust_5="13000.00000" pt_clust_6="13000.00000" pt_clust_7="13000.00000" pt_clust_8="13000.00000" pt_clust_9="46.37875"></scales>
<clustering>
<clus scale="   46.379">  1  9  2 -1</clus>
<clus scale="   91.299">  5  6 -1 -1</clus>
<clus scale="   92.768">  7  8 -1 -1</clus>
<clus scale="   92.799">  2  5  1 -1</clus>
<clus scale="   92.799">  2  5  1 -1</clus>
</clustering>
</event>
<event>
 9    1  0.5300912E-006  0.1096967E+03  0.7546771E-02  0.1261211E+00
          2   -1    0    0  502    0  0.00000000000E+00  0.00000000000E+00  0.19811981332E+03  0.19811981332E+03  0.00000000000E+00 0. -1.
         -2   -1    0    0    0  501 -0.00000000000E+00 -0.00000000000E+00 -0.10890456708E+03  0.10890456708E+03  0.00000000000E+00 0.  1.
         23    2    1    2    0    0  0.24353456851E+02 -0.19258387143E+02 -0.23751408278E+02  0.99674548056E+02  0.91689202194E+02 0.  0.
         23    2    1    2    0    0 -0.70572782007E+02  0.17510905063E+02  0.11045038511E+03  0.16102908836E+03  0.91890861193E+02 0.  0.
        -11    1    4    4    0    0  0.20406701205E+02 -0.67834386399E+01  0.31521233357E+02  0.38158048249E+02  0.00000000000E+00 0.  1.
         11    1    4    4    0    0 -0.90979483212E+02  0.24294343703E+02  0.78929151758E+02  0.12287104011E+03  0.00000000000E+00 0. -1.
        -13    1    3    3    0    0 -0.27279345814E+02 -0.21067864702E+02  0.12386381576E+02  0.36625675143E+02  0.00000000000E+00 0. -1.
         13    1    3    3    0    0  0.51632802665E+02  0.18094775586E+01 -0.36137789854E+02  0.63048872913E+02  0.00000000000E+00 0.  1.
         21    1    1    2  502  501  0.46219325156E+02  0.17474820804E+01  0.25162694100E+01  0.46320743984E+02  0.00000000000E+00 0.  1.
<scales pt_clust_5="13000.00000" pt_clust_6="13000.00000" pt_clust_7="13000.00000" pt_clust_8="13000.00000" pt_clust_9="46.25235"></scales>
<clustering>
<clus scale="   46.252">  2  9  1 -1</clus>
<clus scale="   91.689">  7  8 -1 -1</clus>
<clus scale="   91.891">  5  6 -1 -1</clus>
<clus scale="  109.528">  2  7  1 -1</clus>
<clus scale="  109.697">  1  5  2 -1</clus>
</clustering>
</event>
<event>
 9    1  0.5300912E-006  0.1107758E+03  0.7546771E-02  0.1263019E+00
          3   -1    0    0  502    0  0.00000000000E+00  0.00000000000E+00  0.17713325653E+03  0.17713325653E+03  0.00000000000E+00 0. -1.
         -3   -1    0    0    0  501 -0.00000000000E+00 -0.00000000000E+00 -0.25399872044E+03  0.25399872044E+03  0.00000000000E+00 0.  1.
         23    2    1    2    0    0  0.46680880421E+02  0.10513370093E+02 -0.19692289894E+03  0.22607445926E+03  0.10020677351E+03 0.  0.
         23    2    1    2    0    0 -0.26474335920E+02 -0.59604547982E+02  0.92044563913E+02  0.14503278001E+03  0.91152141656E+02 0.  0.
        -13    1    4    4    0    0  0.25047091415E+02 -0.26663479140E+02  0.71859499301E+02  0.80635510466E+02  0.00000000000E+00 0.  1.
         13    1    4    4    0    0 -0.51521427336E+02 -0.32941068842E+02  0.20185064611E+02  0.64397269542E+02  0.00000000000E+00 0. -1.
        -13    1    3    3    0    0  0.82271786315E+01  0.36126992378E+02 -0.16692352105E+03  0.17098627993E+03  0.00000000000E+00 0.  1.
         13    1    3    3    0    0  0.38453701789E+02 -0.25613622285E+02 -0.29999377893E+02  0.55088179329E+02  0.00000000000E+00 0. -1.
         21    1    1    2  502  501 -0.20206544501E+02  0.49091177889E+02  0.28012871123E+02  0.60024737698E+02  0.00000000000E+00 0.  1.
<scales pt_clust_5="13000.00000" pt_clust_6="13000.00000" pt_clust_7="13000.00000" pt_clust_8="13000.00000" pt_clust_9="53.08718"></scales>
<clustering>
<clus scale="   53.087">  1  9  2 -1</clus>
<clus scale="   91.152">  5  6 -1 -1</clus>
<clus scale="  100.207">  7  8 -1 -1</clus>
<clus scale="  102.658">  1  5  2 -1</clus>
<clus scale="   53.087">  1  5  2 -1</clus>
</clustering>
</event>
<event>
 9    1  0.5300912E-006  0.1013992E+03  0.7546771E-02  0.1284424E+00
          4   -1    0    0  502    0  0.00000000000E+00  0.00000000000E+00  0.29579522152E+03  0.29579522152E+03  0.00000000000E+00 0. -1.
         -4   -1    0    0    0  501 -0.00000000000E+00 -0.00000000000E+00 -0.52676568595E+02  0.52676568595E+02  0.00000000000E+00 0.  1.
         23    2    1    2    0    0 -0.18844422107E+02  0.62006773703E+01  0.35906528272E+02  0.10844178655E+03  0.10038317415E+03 0.  0.
         23    2    1    2    0    0 -0.92161717904E+01 -0.17307322496E+02  0.16907186974E+03  0.19139428068E+03  0.87532807031E+02 0.  0.
        -11    1    3    3    0    0 -0.55721346911E+02  0.21631916887E+02  0.33201356370E+02  0.68374983690E+02  0.00000000000E+00 0.  1.
         11    1    3    3    0    0  0.36876924805E+02 -0.15431239517E+02  0.27051719024E+01  0.40066802856E+02  0.00000000000E+00 0. -1.
        -13    1    4    4    0    0  0.38383335784E+02  0.13851046761E+01  0.78136659252E+02  0.87066276479E+02  0.00000000000E+00 0. -1.
         13    1    4    4    0    0 -0.47599507574E+02 -0.18692427172E+02  0.90935210488E+02  0.10432800421E+03  0.00000000000E+00 0.  1.
         21    1    1    2  502  501  0.28060593897E+02  0.11106645126E+02  0.38140254916E+02  0.48635722888E+02  0.00000000000E+00 0. -1.
<scales pt_clust_5="13000.00000" pt_clust_6="13000.00000" pt_clust_7="13000.00000" pt_clust_8="13000.00000" pt_clust_9="30.17871"></scales>
<clustering>
<clus scale="   30.179">  1  9  2 -1</clus>
<clus scale="   87.533">  7  8 -1 -1</clus>
<clus scale="   88.696">  1  7  2 -1</clus>
<clus scale="  100.383">  5  6 -1 -1</clus>
<clus scale="   30.179">  1  5  2 -1</clus>
</clustering>
</event>
<event>
 9    1  0.5300912E-006  0.9208508E+02  0.7546771E-02  0.1298040E+00
          1   -1    0    0  502    0  0.00000000000E+00  0.00000000000E+00  0.19538279478E+02  0.19538279478E+02  0.00000000000E+00 0. -1.
         -1   -1    0    0    0  501 -0.00000000000E+00 -0.00000000000E+00 -0.91147704121E+03  0.91147704121E+03  0.00000000000E+00 0.  1.
         23    2    1    2    0    0 -0.19954881000E+02  0.41350389328E+02 -0.35465528823E+03  0.36904793422E+03  0.91147969305E+02 0.  0.
         23    2    1    2    0    0  0.74475103078E+01  0.19856379362E+02 -0.22652682864E+03  0.24499357811E+03  0.90871931936E+02 0.  0.
        -13    1    3    3    0    0 -0.39687375752E+02  0.57833286515E+02 -0.30687804739E+03  0.31479185630E+03  0.00000000000E+00 0.  1.
         13    1    3    3    0    0  0.19732494752E+02 -0.16482897187E+02 -0.47777240841E+02  0.54256077920E+02  0.00000000000E+00 0. -1.
        -13    1    4    4    0    0 -0.39904576008E+02 -0.43358324133E+01 -0.97687130118E+02  0.10561226264E+03  0.00000000000E+00 0.  1.
         13    1    4    4    0    0  0.47352086316E+02  0.24192211775E+02 -0.12883969852E+03  0.13938131547E+03  0.00000000000E+00 0. -1.
         21    1    1    2  502  501  0.12507370692E+02 -0.61206768690E+02 -0.31075664487E+03  0.31697380836E+03  0.00000000000E+00 0. -1.
<scales pt_clust_5="13000.00000" pt_clust_6="13000.00000" pt_clust_7="13000.00000" pt_clust_8="13000.00000" pt_clust_9="62.47162"></scales>
<clustering>
<clus scale="   62.472">  2  9  1 -1</clus>
<clus scale="   90.872">  7  8 -1 -1</clus>
<clus scale="   91.148">  5  6 -1 -1</clus>
<clus scale="   91.812">  1  7  2 -1</clus>
<clus scale="   91.812">  1  5  2 -1</clus>
</clustering>
</event>
<event>
 9    1  0.5300912E-006  0.1328660E+03  0.7546771E-02  0.1224363E+00
         -3   -1    0    0    0  501 -0.00000000000E+00  0.00000000000E+00  0.42468863845E+03  0.42468863845E+03  0.00000000000E+00 0.  1.
          3   -1    0    0  502    0  0.00000000000E+00 -0.00000000000E+00 -0.11426145488E+03  0.11426145488E+03  0.00000000000E+00 0. -1.
         23    2    1    2    0    0 -0.49368529357E+02 -0.29726893571E+02  0.11617412113E+03  0.15953586891E+03  0.92921080253E+02 0.  0.
         23    2    1    2    0    0  0.11523373222E+03 -0.85368026274E+01 -0.24632658968E+02  0.14765293682E+03  0.88560328717E+02 0.  0.
        -11    1    4    4    0    0  0.77376425194E+01  0.30153770822E+02 -0.20709979458E+01  0.31199519852E+02  0.00000000000E+00 0.  1.
         11    1    4    4    0    0  0.10749608970E+03 -0.38690573449E+02 -0.22561661022E+02  0.11645341697E+03  0.00000000000E+00 0. -1.
        -11    1    3    3    0    0 -0.72187622422E+02 -0.11031612348E+02  0.10519898565E+03  0.12806082884E+03  0.00000000000E+00 0.  1.
         11    1    3    3    0    0  0.22819093065E+02 -0.18695281223E+02  0.10975135481E+02  0.31475040066E+02  0.00000000000E+00 0. -1.
         21    1    1    2  502  501 -0.65865202863E+02  0.38263696198E+02  0.21888572141E+03  0.23176128760E+03  0.00000000000E+00 0.  1.
<scales pt_clust_5="13000.00000" pt_clust_6="13000.00000" pt_clust_7="13000.00000" pt_clust_8="13000.00000" pt_clust_9="76.17306"></scales>
<clustering>
<clus scale="   76.173">  1  9  2 -1</clus>
<clus scale="   88.560">  5  6 -1 -1</clus>
<clus scale="   92.921">  7  8 -1 -1</clus>
<clus scale="  129.854">  2  5  1 -1</clus>
<clus scale="  129.854">  2  5  1 -1</clus>
</clustering>
</event>
<event>
 9    1  0.5300912E-006  0.1283712E+03  0.7546771E-02  0.1230218E+00
          2   -1    0    0  502    0  0.00000000000E+00  0.00000000000E+00  0.10480283608E+04  0.10480283608E+04  0.00000000000E+00 0. -1.
         -2   -1    0    0    0  501 -0.00000000000E+00 -0.00000000000E+00 -0.19300581452E+03  0.19300581452E+03  0.00000000000E+00 0.  1.
         23    2    1    2    0    0  0.81609492850E+02  0.33075385352E+02 -0.14203635745E+03  0.19072065413E+03  0.91901853273E+02 0.  0.
         23    2    1    2    0    0 -0.14389936218E+03  0.62320978293E+02  0.35850236637E+03  0.40167267647E+03  0.90697638127E+02 0.  0.
        -11    1    3    3    0    0  0.90909002099E+02  0.89237237471E+01 -0.72805537235E+02  0.11681064061E+03  0.00000000000E+00 0.  1.
         11    1    3    3    0    0 -0.92995092491E+01  0.24151661605E+02 -0.69230820218E+02  0.73910013521E+02  0.00000000000E+00 0. -1.
        -13    1    4    4    0    0 -0.78384885425E+02  0.28821886501E+02  0.28763178990E+03  0.29951116501E+03  0.00000000000E+00 0.  1.
         13    1    4    4    0    0 -0.65514476753E+02  0.33499091791E+02  0.70870576465E+02  0.10216151146E+03  0.00000000000E+00 0. -1.
         21    1    1    2  502  501  0.62289869328E+02 -0.95396363645E+02  0.63855653733E+03  0.64864084468E+03  0.00000000000E+00 0. -1.
<scales pt_clust_5="13000.00000" pt_clust_6="13000.00000" pt_clust_7="13000.00000" pt_clust_8="13000.00000" pt_clust_9="113.93197"></scales>
<clustering>
<clus scale="   90.698">  7  8 -1 -1</clus>
<clus scale="   91.902">  5  6 -1 -1</clus>
<clus scale="  113.932">  1  9  2 -1</clus>
<clus scale="  127.512">  1  7  2 -1</clus>
<clus scale="  113.932">  1  5  2 -1</clus>
</clustering>
</event>
<event>
 9    1  0.5300912E-006  0.1113032E+03  0.7546771E-02  0.1258258E+00
          3   -1    0    0  502    0  0.00000000000E+00  0.00000000000E+00  0.12149640650E+03  0.12149640650E+03  0.00000000000E+00 0. -1.
         -3   -1    0    0    0  501 -0.00000000000E+00 -0.00000000000E+00 -0.13968048303E+03  0.13968048303E+03  0.00000000000E+00 0.  1.
         23    2    1    2    0    0 -0.48168052251E+00 -0.53452397159E+02 -0.21045069726E+02  0.10688734012E+03  0.90136661468E+02 0.  0.
         23    2    1    2    0    0 -0.25453540237E+02  0.72021312423E+02  0.17361878616E+02  0.11925077135E+03  0.89913066257E+02 0.  0.
        -11    1    3    3    0    0  0.43118435115E+02 -0.40826505568E+02 -0.10805746427E+02  0.60355340771E+02  0.00000000000E+00 0. -1.
         11    1    3    3    0    0 -0.43600115638E+02 -0.12625891591E+02 -0.10239323299E+02  0.46531999352E+02  0.00000000000E+00 0.  1.
        -11    1    4    4    0    0  0.17320121220E+02 -0.11867832345E+02  0.13590481326E+02  0.25010662253E+02  0.00000000000E+00 0. -1.
         11    1    4    4    0    0 -0.42773661456E+02  0.83889144769E+02  0.37713972898E+01  0.94240109093E+02  0.00000000000E+00 0.  1.
         21    1    1    2  502  501  0.25935220759E+02 -0.18568915264E+02 -0.14500885415E+02  0.35038778057E+02  0.00000000000E+00 0. -1.
<scales pt_clust_5="13000.00000" pt_clust_6="13000.00000" pt_clust_7="13000.00000" pt_clust_8="13000.00000" pt_clust_9="31.89734"></scales>
<clustering>
<clus scale="   31.897">  2  9  1 -1</clus>
<clus scale="   89.913">  7  8 -1 -1</clus>
<clus scale="   90.137">  5  6 -1 -1</clus>
<clus scale="  111.122">  1  7  2 -1</clus>
<clus scale="  111.122">  1  5  2 -1</clus>
</clustering>
</event>
<event>
 9    1  0.5300912E-006  0.2037735E+03  0.7546771E-02  0.1167689E+00
          2   -1    0    0  502    0  0.00000000000E+00  0.00000000000E+00  0.47254512278E+03  0.47254512278E+03  0.00000000000E+00 0. -1.
         -2   -1    0    0    0  501 -0.00000000000E+00 -0.00000000000E+00 -0.14255908373E+03  0.14255908373E+03  0.00000000000E+00 0.  1.
         23    2    1    2    0    0  0.83027955757E+02 -0.12457130482E+02  0.54713094642E+02  0.13589076446E+03  0.91782109381E+02 0.  0.
         23    2    1    2    0    0 -0.18341886599E+03  0.12168572610E+03  0.19959266811E+03  0.31266997873E+03  0.97341594888E+02 0.  0.
        -11    1    3    3    0    0  0.64585245623E+02  0.17887334465E+02  0.70287383253E+02  0.97116048782E+02  0.00000000000E+00 0.  1.
         11    1    3    3    0    0  0.18442710134E+02 -0.30344464947E+02 -0.15574288611E+02  0.38774715676E+02  0.00000000000E+00 0. -1.
        -13    1    4    4    0    0 -0.11876067741E+03  0.64291430040E+02  0.17822736164E+03  0.22361234070E+03  0.00000000000E+00 0. -1.
         13    1    4    4    0    0 -0.64658188574E+02  0.57394296063E+02  0.21365306473E+02  0.89057638027E+02  0.00000000000E+00 0.  1.
         21    1    1    2  502  501  0.10039091023E+03 -0.10922859562E+03  0.75680276290E+02  0.16654346333E+03  0.00000000000E+00 0.  1.
<scales pt_clust_5="13000.00000" pt_clust_6="13000.00000" pt_clust_7="13000.00000" pt_clust_8="13000.00000" pt_clust_9="179.02023"></scales>
<clustering>
<clus scale="   91.782">  5  6 -1 -1</clus>
<clus scale="   97.342">  7  8 -1 -1</clus>
<clus scale="  124.390">  2  5  1 -1</clus>
<clus scale="  179.020">  1  9  2 -1</clus>
<clus scale="  179.020">  1  5  2 -1</clus>
</clustering>
</event>
<event>
 9    1  0.5300912E-006  0.1830983E+03  0.7546771E-02  0.1184632E+00
         -1   -1    0    0    0  501 -0.00000000000E+00  0.00000000000E+00  0.36358505863E+03  0.36358505863E+03  0.00000000000E+00 0.  1.
          1   -1    0    0  502    0  0.00000000000E+00 -0.00000000000E+00 -0.33197873503E+03  0.33197873503E+03  0.00000000000E+00 0. -1.
         23    2    1    2    0    0  0.12541584780E+03 -0.71912191521E+02  0.20478496638E+03  0.26640972863E+03  0.90204007042E+02 0.  0.
         23    2    1    2    0    0  0.32756659600E+02 -0.64949658040E+02 -0.18592789833E+03  0.21960156211E+03  0.91456032475E+02 0.  0.
        -13    1    4    4    0    0  0.56588354728E+02 -0.43316111671E+02 -0.72358148408E+02  0.10155899302E+03  0.00000000000E+00 0.  1.
         13    1    4    4    0    0 -0.23831695129E+02 -0.21633546369E+02 -0.11356974992E+03  0.11804256909E+03  0.00000000000E+00 0. -1.
        -13    1    3    3    0    0  0.88325017415E+02 -0.89670254981E+02  0.12927114735E+03  0.18042475680E+03  0.00000000000E+00 0. -1.
         13    1    3    3    0    0  0.37090830384E+02  0.17758063460E+02  0.75513819027E+02  0.85984971829E+02  0.00000000000E+00 0.  1.
         21    1    1    2  502  501 -0.15817250740E+03  0.13686184956E+03  0.12749255544E+02  0.20955250292E+03  0.00000000000E+00 0.  1.
<scales pt_clust_5="13000.00000" pt_clust_6="13000.00000" pt_clust_7="13000.00000" pt_clust_8="13000.00000" pt_clust_9="159.33678"></scales>
<clustering>
<clus scale="   90.204">  7  8 -1 -1</clus>
<clus scale="   91.456">  5  6 -1 -1</clus>
<clus scale="  116.857">  2  5  1 -1</clus>
<clus scale="  159.337">  2  9  1 -1</clus>
<clus scale="  116.857">  2  5  1 -1</clus>
</clustering>
</event>
<event>
 9    1  0.5300912E-006  0.1718809E+03  0.7546771E-02  0.1176161E+00
         -2   -1    0    0    0  501 -0.00000000000E+00  0.00000000000E+00  0.89568277015E+02  0.89568277015E+02  0.00000000000E+00 0.  1.
          2   -1    0    0  502    0  0.00000000000E+00 -0.00000000000E+00 -0.48807374624E+03  0.48807374624E+03  0.00000000000E+00 0. -1.
         23    2    1    2    0    0  0.16385369789E+03  0.47539983861E+02 -0.10984003624E+03  0.22125038524E+03  0.88197590832E+02 0.  0.
         23    2    1    2    0    0 -0.11646375916E+03 -0.15020803015E+02 -0.17652270084E+03  0.23037856017E+03  0.90136481812E+02 0.  0.
        -11    1    4    4    0    0  0.30245238152E+01 -0.22283902230E+02 -0.56733179347E+02  0.61027646863E+02  0.00000000000E+00 0.  1.
         11    1    4    4    0    0 -0.11948828297E+03  0.72630992155E+01 -0.11978952149E+03  0.16935091331E+03  0.00000000000E+00 0. -1.
        -11    1    3    3    0    0  0.13057894075E+03  0.14165661231E+01 -0.53271193353E+02  0.14103434499E+03  0.00000000000E+00 0.  1.
         11    1    3    3    0    0  0.33274757141E+02  0.46123417737E+02 -0.56568842887E+02  0.80216040242E+02  0.00000000000E+00 0. -1.
         21    1    1    2  502  501 -0.47389938733E+02 -0.32519180846E+02 -0.11214273214E+03  0.12601307785E+03  0.00000000000E+00 0. -1.
<scales pt_clust_5="13000.00000" pt_clust_6="13000.00000" pt_clust_7="13000.00000" pt_clust_8="13000.00000" pt_clust_9="57.47437"></scales>
<clustering>
<clus scale="   57.474">  2  9  1 -1</clus>
<clus scale="   88.198">  7  8 -1 -1</clus>
<clus scale="   90.136">  5  6 -1 -1</clus>
<clus scale="  170.872">  1  7  2 -1</clus>
<clus scale="   57.474">  2  5  1 -1</clus>
</clustering>
</event>
<event>
 9    1  0.5300912E-006  0.1297199E+03  0.7546771E-02  0.1228002E+00
         -2   -1    0    0    0  501 -0.00000000000E+00  0.00000000000E+00  0.14874520140E+03  0.14874520140E+03  0.00000000000E+00 0.  1.
          2   -1    0    0  502    0  0.00000000000E+00 -0.00000000000E+00 -0.13453770148E+03  0.13453770148E+03  0.00000000000E+00 0. -1.
         23    2    1    2    0    0 -0.60986205593E+02  0.52201872689E+02  0.21938181568E+01  0.12225805649E+03  0.92183874699E+02 0.  0.
         23    2    1    2    0    0  0.79492940092E+02 -0.65381777056E+02  0.10965741943E+02  0.13828045633E+03  0.91691508941E+02 0.  0.
        -13    1    4    4    0    0  0.24898837220E+02 -0.22438848665E+02 -0.39957295275E+02  0.52153997642E+02  0.00000000000E+00 0. -1.
         13    1    4    4    0    0  0.54594102871E+02 -0.42942928391E+02  0.50923037218E+02  0.86126458691E+02  0.00000000000E+00 0.  1.
        -13    1    3    3    0    0 -0.72849166391E+02  0.74665608470E+01  0.13855297212E+02  0.74529992859E+02  0.00000000000E+00 0.  1.
         13    1    3    3    0    0  0.11862960798E+02  0.44735311842E+02 -0.11661479055E+02  0.47728063634E+02  0.00000000000E+00 0. -1.
         21    1    1    2  502  501 -0.18506734499E+02  0.13179904367E+02  0.10479398153E+01  0.22744390051E+02  0.00000000000E+00 0.  1.
<scales pt_clust_5="13000.00000" pt_clust_6="13000.00000" pt_clust_7="13000.00000" pt_clust_8="13000.00000" pt_clust_9="22.72024"></scales>
<clustering>
<clus scale="   22.720">  2  9  1 -1</clus>
<clus scale="   91.692">  5  6 -1 -1</clus>
<clus scale="   92.184">  7  8 -1 -1</clus>
<clus scale="  129.370">  2  5  1 -1</clus>
<clus scale="   22.720">  2  5  1 -1</clus>
</clustering>
</event>
<event>
 9    1  0.5300912E-006  0.9645875E+02  0.7546771E-02  0.1289014E+00
          1   -1    0    0  502    0  0.00000000000E+00  0.00000000000E+00  0.69460967757E+02  0.69460967757E+02  0.00000000000E+00 0. -1.
         -1   -1    0    0    0  501 -0.00000000000E+00 -0.00000000000E+00 -0.36244472924E+03  0.36244472924E+03  0.00000000000E+00 0.  1.
         23    2    1    2    0    0  0.39252761131E+01 -0.38536178282E+02 -0.16090079229E+03  0.18934911734E+03  0.91997708933E+02 0.  0.
         23    2    1    2    0    0  0.30030748560E+02  0.12052154190E+02  0.80767488221E+01  0.95930655284E+02  0.89946408889E+02 0.  0.
        -11    1    3    3    0    0 -0.38955399538E+02 -0.39977490719E+02 -0.76868020259E+02  0.94996923402E+02  0.00000000000E+00 0.  1.
         11    1    3    3    0    0  0.42880675651E+02  0.14413124362E+01 -0.84032772031E+02  0.94352193939E+02  0.00000000000E+00 0. -1.
        -13    1    4    4    0    0 -0.23082982413E+02  0.31466503581E+02  0.41087753547E+01  0.39240883777E+02  0.00000000000E+00 0.  1.
         13    1    4    4    0    0  0.53113730973E+02 -0.19414349391E+02  0.39679734674E+01  0.56689771507E+02  0.00000000000E+00 0. -1.
         21    1    1    2  502  501 -0.33956024673E+02  0.26484024092E+02 -0.14015971801E+03  0.14662592437E+03  0.00000000000E+00 0. -1.
<scales pt_clust_5="13000.00000" pt_clust_6="13000.00000" pt_clust_7="13000.00000" pt_clust_8="13000.00000" pt_clust_9="43.06292"></scales>
<clustering>
<clus scale="   43.063">  2  9  1 -1</clus>
<clus scale="   89.946">  7  8 -1 -1</clus>
<clus scale="   91.998">  5  6 -1 -1</clus>
<clus scale="   94.504">  1  7  2 -1</clus>
<clus scale="   94.504">  1  5  2 -1</clus>
</clustering>
</event>
<event>
 9    1  0.5300912E-006  0.1012032E+03  0.7546771E-02  0.1280482E+00
         -1   -1    0    0    0  501 -0.00000000000E+00  0.00000000000E+00  0.51056959697E+03  0.51056959697E+03  0.00000000000E+00 0.  1.
          1   -1    0    0  502    0  0.00000000000E+00 -0.00000000000E+00 -0.45455371680E+02  0.45455371680E+02  0.00000000000E+00 0. -1.
         23    2    1    2    0    0 -0.32816112898E+02  0.47505748187E+02  0.33223790196E+03  0.34927621707E+03  0.90984388412E+02 0.  0.
         23    2    1    2    0    0  0.22443892965E+02 -0.13186673436E+02  0.40549587369E+02  0.10770528632E+03  0.96325193886E+02 0.  0.
        -13    1    3    3    0    0  0.21203370042E+01 -0.25580437536E+02  0.10285900581E+03  0.10601334676E+03  0.00000000000E+00 0.  1.
         13    1    3    3    0    0 -0.34936449902E+02  0.73086185723E+02  0.22937889615E+03  0.24326287032E+03  0.00000000000E+00 0. -1.
        -13    1    4    4    0    0 -0.34431649629E+02 -0.12822235694E+02  0.34684708928E+02  0.50526995337E+02  0.00000000000E+00 0.  1.
         13    1    4    4    0    0  0.56875542594E+02 -0.36443774179E+00  0.58648784409E+01  0.57178290980E+02  0.00000000000E+00 0. -1.
         21    1    1    2  502  501  0.10372219933E+02 -0.34319074751E+02  0.92326735961E+02  0.99043465263E+02  0.00000000000E+00 0. -1.
<scales pt_clust_5="13000.00000" pt_clust_6="13000.00000" pt_clust_7="13000.00000" pt_clust_8="13000.00000" pt_clust_9="35.85222"></scales>
<clustering>
<clus scale="   35.852">  1  9  2 -1</clus>
<clus scale="   90.984">  5  6 -1 -1</clus>
<clus scale="   96.134">  1  5  2 -1</clus>
<clus scale="   96.325">  7  8 -1 -1</clus>
<clus scale="  101.203">  2  5  1 -1</clus>
</clustering>
</event>
<event>
 9    1  0.5300912E-006  0.1022212E+03  0.7546771E-02  0.1276363E+00
          1   -1    0    0  502    0  0.00000000000E+00  0.00000000000E+00  0.11370922264E+04  0.11370922264E+04  0.00000000000E+00 0. -1.
         -1   -1    0    0    0  501 -0.00000000000E+00 -0.00000000000E+00 -0.24718673432E+02  0.24718673432E+02  0.00000000000E+00 0.  1.
         23    2    1    2    0    0  0.72864636564E+01 -0.56702873032E+01  0.20831201443E+03  0.22848566902E+03  0.93416063293E+02 0.  0.
         23    2    1    2    0    0 -0.24062887330E+02  0.85578633357E+02  0.35146091595E+03  0.37472497996E+03  0.94822519136E+02 0.  0.
        -13    1    3    3    0    0  0.10728380667E+02 -0.44362806821E+02  0.16060260513E+03  0.16696213210E+03  0.00000000000E+00 0.  1.
         13    1    3    3    0    0 -0.34419170110E+01  0.38692519518E+02  0.47709409292E+02  0.61523536914E+02  0.00000000000E+00 0. -1.
        -13    1    4    4    0    0 -0.23160806665E+02  0.10152301531E+02  0.13936207641E+02  0.28874038082E+02  0.00000000000E+00 0.  1.
         13    1    4    4    0    0 -0.90208066478E+00  0.75426331826E+02  0.33752470830E+03  0.34585094188E+03  0.00000000000E+00 0. -1.
         21    1    1    2  502  501  0.16776423673E+02 -0.79908346054E+02  0.55260062259E+03  0.55860025085E+03  0.00000000000E+00 0. -1.
<scales pt_clust_5="13000.00000" pt_clust_6="13000.00000" pt_clust_7="13000.00000" pt_clust_8="13000.00000" pt_clust_9="81.65043"></scales>
<clustering>
<clus scale="   81.650">  1  9  2 -1</clus>
<clus scale="   93.416">  5  6 -1 -1</clus>
<clus scale="   94.823">  7  8 -1 -1</clus>
<clus scale="  100.918">  2  5  1 -1</clus>
<clus scale="   81.650">  1  5  2 -1</clus>
</clustering>
</event>
<event>
 9    1  0.5300912E-006  0.1402857E+03  0.7546771E-02  0.1223034E+00
          1   -1    0    0  502    0  0.00000000000E+00  0.00000000000E+00  0.14278042730E+03  0.14278042730E+03  0.00000000000E+00 0. -1.
         -1   -1    0    0    0  501 -0.00000000000E+00 -0.00000000000E+00 -0.26540716547E+03  0.26540716547E+03  0.00000000000E+00 0.  1.
         23    2    1    2    0    0 -0.57484147810E+02 -0.60189369444E+02 -0.71304125529E+02  0.14523041825E+03  0.95291178096E+02 0.  0.
         23    2    1    2    0    0  0.20808738665E+02 -0.63293551207E+02  0.20819280383E+02  0.11531717297E+03  0.91790689713E+02 0.  0.
        -11    1    3    3    0    0 -0.66606587122E+02 -0.80364384827E+02 -0.58602175885E+02  0.11970416373E+03  0.00000000000E+00 0. -1.
         11    1    3    3    0    0  0.91224393119E+01  0.20175015383E+02 -0.12701949644E+02  0.25526254513E+02  0.00000000000E+00 0.  1.
        -11    1    4    4    0    0 -0.20568030690E+02  0.53618206657E+01 -0.16488240809E+02  0.26900838134E+02  0.00000000000E+00 0.  1.
         11    1    4    4    0    0  0.41376769355E+02 -0.68655371873E+02  0.37307521192E+02  0.88416334841E+02  0.00000000000E+00 0. -1.
         21    1    1    2  502  501  0.36675409145E+02  0.12348292065E+03 -0.72141893030E+02  0.14764000155E+03  0.00000000000E+00 0.  1.
<scales pt_clust_5="13000.00000" pt_clust_6="13000.00000" pt_clust_7="13000.00000" pt_clust_8="13000.00000" pt_clust_9="102.95469"></scales>
<clustering>
<clus scale="   91.791">  7  8 -1 -1</clus>
<clus scale="   95.291">  5  6 -1 -1</clus>
<clus scale="  113.422">  1  7  2 -1</clus>
<clus scale="  102.955">  1  9  2 -1</clus>
<clus scale="  113.422">  1  5  2 -1</clus>
</clustering>
</event>
<event>
 9    1  0.5300912E-006  0.9583817E+02  0.7546771E-02  0.1290315E+00
          1   -1    0    0  502    0  0.00000000000E+00  0.00000000000E+00  0.52681642277E+03  0.52681642277E+03  0.00000000000E+00 0. -1.
         -1   -1    0    0    0  501 -0.00000000000E+00 -0.00000000000E+00 -0.30095795877E+02  0.30095795877E+02  0.00000000000E+00 0.  1.
         23    2    1    2    0    0 -0.69379126695E+00 -0.46932735734E+01  0.10164325919E+03  0.13952866631E+03  0.95469306168E+02 0.  0.
         23    2    1    2    0    0  0.23950577126E+02 -0.20382245662E+02  0.26280004997E+03  0.28075651058E+03  0.93655143396E+02 0.  0.
        -13    1    3    3    0    0 -0.30194295522E+02 -0.39524324212E+02  0.48442310314E+02  0.69430001549E+02  0.00000000000E+00 0. -1.
         13    1    3    3    0    0  0.29500504255E+02  0.34831050639E+02  0.53200948879E+02  0.70098664763E+02  0.00000000000E+00 0.  1.
        -13    1    4    4    0    0  0.56611903788E+02 -0.23612559255E+02  0.20823461418E+03  0.21708089540E+03  0.00000000000E+00 0.  1.
         13    1    4    4    0    0 -0.32661326663E+02  0.32303135933E+01  0.54565435792E+02  0.63675615180E+02  0.00000000000E+00 0. -1.
         21    1    1    2  502  501 -0.23256785859E+02  0.25075519235E+02  0.13227731773E+03  0.13662704176E+03  0.00000000000E+00 0.  1.
<scales pt_clust_5="13000.00000" pt_clust_6="13000.00000" pt_clust_7="13000.00000" pt_clust_8="13000.00000" pt_clust_9="34.20029"></scales>
<clustering>
<clus scale="   34.200">  1  9  2 -1</clus>
<clus scale="   93.655">  7  8 -1 -1</clus>
<clus scale="   94.031">  1  7  2 -1</clus>
<clus scale="   95.469">  5  6 -1 -1</clus>
<clus scale="   34.200">  1  5  2 -1</clus>
</clustering>
</event>
<event>
 9    1  0.5300912E-006  0.1056839E+03  0.7546771E-02  0.1273323E+00
         -1   -1    0    0    0  501 -0.00000000000E+00  0.00000000000E+00  0.79896465520E+03  0.79896465520E+03  0.00000000000E+00 0.  1.
          1   -1    0    0  502    0  0.00000000000E+00 -0.00000000000E+00 -0.21452938730E+02  0.21452938730E+02  0.00000000000E+00 0. -1.
         23    2    1    2    0    0 -0.15738083849E+02 -0.49290411788E+02  0.44714341743E+03  0.46126127399E+03  0.10073477631E+03 0.  0.
         23    2    1    2    0    0 -0.53291022060E+01  0.11942899401E+02  0.26814827758E+03  0.28359181716E+03  0.91377173364E+02 0.  0.
        -11    1    3    3    0    0  0.89981714197E+01 -0.75262139601E+02  0.33724680920E+03  0.34565990086E+03  0.00000000000E+00 0.  1.
         11    1    3    3    0    0 -0.24736255269E+02  0.25971727813E+02  0.10989660823E+03  0.11560137313E+03  0.00000000000E+00 0. -1.
        -13    1    4    4    0    0  0.35831882616E+02 -0.89637136437E+01  0.18342433502E+03  0.18710627636E+03  0.00000000000E+00 0.  1.
         13    1    4    4    0    0 -0.41160984822E+02  0.20906613044E+02  0.84723942557E+02  0.96485540797E+02  0.00000000000E+00 0. -1.
         21    1    1    2  502  501  0.21067186055E+02  0.37347512388E+02  0.62220021458E+02  0.75564502778E+02  0.00000000000E+00 0. -1.
<scales pt_clust_5="13000.00000" pt_clust_6="13000.00000" pt_clust_7="13000.00000" pt_clust_8="13000.00000" pt_clust_9="42.87963"></scales>
<clustering>
<clus scale="   42.880">  2  9  1 -1</clus>
<clus scale="   91.377">  7  8 -1 -1</clus>
<clus scale="   96.806">  2  7  1 -1</clus>
<clus scale="  100.735">  5  6 -1 -1</clus>
<clus scale="   42.880">  2  5  1 -1</clus>
</clustering>
</event>
<event>
 9    1  0.5300912E-006  0.9988127E+02  0.7546771E-02  0.1282868E+00
          1   -1    0    0  502    0  0.00000000000E+00  0.00000000000E+00  0.53038743651E+03  0.53038743651E+03  0.00000000000E+00 0. -1.
         -1   -1    0    0    0  501 -0.00000000000E+00 -0.00000000000E+00 -0.32500670145E+02  0.32500670145E+02  0.00000000000E+00 0.  1.
         23    2    1    2    0    0 -0.63381218659E+01 -0.41746433982E+02  0.13357049605E+03  0.16534574910E+03  0.87836227096E+02 0.  0.
         23    2    1    2    0    0 -0.35442033036E+02  0.27996870894E+02  0.17365493213E+03  0.20187330608E+03  0.92503155451E+02 0.  0.
        -11    1    3    3    0    0 -0.34447594030E+02 -0.46098177528E+02  0.47250475374E+02  0.74459963261E+02  0.00000000000E+00 0.  1.
         11    1    3    3    0    0  0.28109472164E+02  0.43517435464E+01  0.86320020681E+02  0.90885785839E+02  0.00000000000E+00 0. -1.
        -11    1    4    4    0    0  0.13612876692E+02 -0.25011564225E+02  0.69691059952E+02  0.75284344947E+02  0.00000000000E+00 0.  1.
         11    1    4    4    0    0 -0.49054909728E+02  0.53008435120E+02  0.10396387218E+03  0.12658896113E+03  0.00000000000E+00 0. -1.
         21    1    1    2  502  501  0.41780154902E+02  0.13749563087E+02  0.19066133818E+03  0.19566905147E+03  0.00000000000E+00 0. -1.
<scales pt_clust_5="13000.00000" pt_clust_6="13000.00000" pt_clust_7="13000.00000" pt_clust_8="13000.00000" pt_clust_9="43.98445"></scales>
<clustering>
<clus scale="   43.984">  1  9  2 -1</clus>
<clus scale="   87.836">  5  6 -1 -1</clus>
<clus scale="   92.503">  7  8 -1 -1</clus>
<clus scale="   95.575">  2  5  1 -1</clus>
<clus scale="   43.984">  1  5  2 -1</clus>
</clustering>
</event>
<event>
 9    1  0.5300912E-006  0.1772344E+03  0.7546771E-02  0.1201753E+00
          2   -1    0    0  502    0  0.00000000000E+00  0.00000000000E+00  0.51932949500E+03  0.51932949500E+03  0.00000000000E+00 0. -1.
         -2   -1    0    0    0  501 -0.00000000000E+00 -0.00000000000E+00 -0.24130138960E+03  0.24130138960E+03  0.00000000000E+00 0.  1.
         23    2    1    2    0    0 -0.33064449057E+02 -0.93791863094E+01 -0.16698944074E+03  0.18896547628E+03  0.81493870803E+02 0.  0.
         23    2    1    2    0    0  0.84027277264E+02  0.13697763900E+03  0.37392934272E+03  0.41696535127E+03  0.90628328326E+02 0.  0.
        -11    1    4    4    0    0  0.28071338960E+02 -0.76151141103E+01  0.50021810642E+02  0.57863387162E+02  0.00000000000E+00 0.  1.
         11    1    4    4    0    0  0.55955938304E+02  0.14459275311E+03  0.32390753208E+03  0.35910196410E+03  0.00000000000E+00 0. -1.
        -13    1    3    3    0    0 -0.12398356018E+02 -0.44263456191E+02 -0.10810097167E+03  0.11746826321E+03  0.00000000000E+00 0.  1.
         13    1    3    3    0    0 -0.20666093039E+02  0.34884269882E+02 -0.58888469071E+02  0.71497213066E+02  0.00000000000E+00 0. -1.
         21    1    1    2  502  501 -0.50962828207E+02 -0.12759845269E+03  0.71088203412E+02  0.15470005705E+03  0.00000000000E+00 0.  1.
<scales pt_clust_5="13000.00000" pt_clust_6="13000.00000" pt_clust_7="13000.00000" pt_clust_8="13000.00000" pt_clust_9="152.31065"></scales>
<clustering>
<clus scale="   81.494">  7  8 -1 -1</clus>
<clus scale="   88.445">  2  7  1 -1</clus>
<clus scale="   90.628">  5  6 -1 -1</clus>
<clus scale="  152.311">  2  9  1 -1</clus>
<clus scale="  177.234">  1  5  2 -1</clus>
</clustering>
</event>
<event>
 9    1  0.5300912E-006  0.1033044E+03  0.7546771E-02  0.1274835E+00
          3   -1    0    0  502    0  0.00000000000E+00  0.00000000000E+00  0.26855216878E+03  0.26855216878E+03  0.00000000000E+00 0. -1.
         -3   -1    0    0    0  501 -0.00000000000E+00 -0.00000000000E+00 -0.14681144453E+03  0.14681144453E+03  0.00000000000E+00 0.  1.
         23    2    1    2    0    0  0.75411389858E+01  0.50447127687E+02 -0.65345021725E+02  0.12445389649E+03  0.92827899995E+02 0.  0.
         23    2    1    2    0    0  0.62200668201E+02  0.22130379473E+02  0.13303454053E+03  0.17666022218E+03  0.95665920297E+02 0.  0.
        -11    1    4    4    0    0  0.42118397020E+02 -0.34681948090E+02  0.77035324167E+02  0.94399354131E+02  0.00000000000E+00 0.  1.
         11    1    4    4    0    0  0.20082271181E+02  0.56812327563E+02  0.55999216367E+02  0.82260868052E+02  0.00000000000E+00 0. -1.
        -13    1    3    3    0    0 -0.77431726643E+01  0.73377492061E+02 -0.30036435594E+02  0.79664298950E+02  0.00000000000E+00 0.  1.
         13    1    3    3    0    0  0.15284311650E+02 -0.22930364374E+02 -0.35308586131E+02  0.44789597537E+02  0.00000000000E+00 0. -1.
         21    1    1    2  502  501 -0.69741807187E+02 -0.72577507160E+02  0.54051205438E+02  0.11424949464E+03  0.00000000000E+00 0.  1.
<scales pt_clust_5="13000.00000" pt_clust_6="13000.00000" pt_clust_7="13000.00000" pt_clust_8="13000.00000" pt_clust_9="100.65493"></scales>
<clustering>
<clus scale="   92.828">  7  8 -1 -1</clus>
<clus scale="   95.666">  5  6 -1 -1</clus>
<clus scale="  100.655">  1  9  2 -1</clus>
<clus scale="  100.682">  2  7  1 -1</clus>
<clus scale="  100.655">  1  5  2 -1</clus>
</clustering>
</event>
<event>
 9    1  0.5300912E-006  0.2347880E+03  0.7546771E-02  0.1149810E+00
         -1   -1    0    0    0  501 -0.00000000000E+00  0.00000000000E+00  0.30711848265E+03  0.30711848265E+03  0.00000000000E+00 0.  1.
          1   -1    0    0  502    0  0.00000000000E+00 -0.00000000000E+00 -0.38724749903E+03  0.38724749903E+03  0.00000000000E+00 0. -1.
         23    2    1    2    0    0 -0.26603359253E+01 -0.82985304904E+02  0.27920469925E+02  0.12653067896E+03  0.91306198366E+02 0.  0.
         23    2    1    2    0    0  0.21837072943E+03  0.61359683216E+01 -0.21181272955E+03  0.31643203096E+03  0.86839923063E+02 0.  0.
        -11    1    3    3    0    0  0.22886365879E+02 -0.69760985099E+02 -0.14928027741E+02  0.74921470871E+02  0.00000000000E+00 0.  1.
         11    1    3    3    0    0 -0.25546701804E+02 -0.13224319805E+02  0.42848497666E+02  0.51609208090E+02  0.00000000000E+00 0. -1.
        -13    1    4    4    0    0  0.17143839558E+03 -0.31036381875E+02 -0.14453991172E+03  0.22637616164E+03  0.00000000000E+00 0. -1.
         13    1    4    4    0    0  0.46932333850E+02  0.37172350197E+02 -0.67272817826E+02  0.90055869315E+02  0.00000000000E+00 0.  1.
         21    1    1    2  502  501 -0.21571039351E+03  0.76849336582E+02  0.10376324325E+03  0.25140327175E+03  0.00000000000E+00 0.  1.
<scales pt_clust_5="13000.00000" pt_clust_6="13000.00000" pt_clust_7="13000.00000" pt_clust_8="13000.00000" pt_clust_9="218.13812"></scales>
<clustering>
<clus scale="   86.840">  7  8 -1 -1</clus>
<clus scale="   91.306">  5  6 -1 -1</clus>
<clus scale="  123.412">  1  5  2 -1</clus>
<clus scale="  218.138">  1  9  2 -1</clus>
<clus scale="  234.788">  2  5  1 -1</clus>
</clustering>
</event>
<event>
 9    1  0.5300912E-006  0.1507199E+03  0.7546771E-02  0.1231182E+00
          1   -1    0    0  502    0  0.00000000000E+00  0.00000000000E+00  0.54488115515E+03  0.54488115515E+03  0.00000000000E+00 0. -1.
         -1   -1    0    0    0  501 -0.00000000000E+00 -0.00000000000E+00 -0.73352119808E+02  0.73352119808E+02  0.00000000000E+00 0.  1.
         23    2    1    2    0    0  0.39708819285E+01  0.30217161904E+02  0.67404786435E+02  0.10251044151E+03  0.70965770674E+02 0.  0.
         23    2    1    2    0    0 -0.63949150894E+02 -0.12837846114E+03  0.11587107419E+03  0.20536348342E+03  0.90429703650E+02 0.  0.
        -11    1    3    3    0    0 -0.30245581099E+02  0.52912175587E+00  0.16841704416E+02  0.34622509347E+02  0.00000000000E+00 0.  1.
         11    1    3    3    0    0  0.34216463028E+02  0.29688040148E+02  0.50563082019E+02  0.67887932162E+02  0.00000000000E+00 0. -1.
        -13    1    4    4    0    0 -0.44339098707E+02 -0.13856460762E+03  0.11030886636E+03  0.18257642826E+03  0.00000000000E+00 0.  1.
         13    1    4    4    0    0 -0.19610052188E+02  0.10186146476E+02  0.55622078302E+01  0.22787055158E+02  0.00000000000E+00 0. -1.
         21    1    1    2  502  501  0.59978268966E+02  0.98161299238E+02  0.28825317472E+03  0.31035935004E+03  0.00000000000E+00 0. -1.
<scales pt_clust_5="13000.00000" pt_clust_6="13000.00000" pt_clust_7="13000.00000" pt_clust_8="13000.00000" pt_clust_9="120.57755"></scales>
<clustering>
<clus scale="   70.966">  5  6 -1 -1</clus>
<clus scale="   77.233">  2  5  1 -1</clus>
<clus scale="   90.430">  7  8 -1 -1</clus>
<clus scale="  120.578">  1  9  2 -1</clus>
<clus scale="  120.578">  1  5  2 -1</clus>
</clustering>
</event>
<event>
 9    1  0.5300912E-006  0.1924317E+03  0.7546771E-02  0.1174615E+00
         -1   -1    0    0    0  501 -0.00000000000E+00  0.00000000000E+00  0.89276263388E+02  0.89276263388E+02  0.00000000000E+00 0.  1.
          1   -1    0    0  502    0  0.00000000000E+00 -0.00000000000E+00 -0.98033130673E+03  0.98033130673E+03  0.00000000000E+00 0. -1.
         23    2    1    2    0    0 -0.28318100467E+02  0.81800726798E+02 -0.38430356691E+02  0.13183214593E+03  0.91703591347E+02 0.  0.
         23    2    1    2    0    0 -0.11832449823E+03  0.41498102225E+02 -0.17796598747E+03  0.23644025940E+03  0.92245998284E+02 0.  0.
        -11    1    4    4    0    0 -0.95504665362E+02 -0.10837903847E+02 -0.90695404442E+02  0.13215240313E+03  0.00000000000E+00 0.  1.
         11    1    4    4    0    0 -0.22819832865E+02  0.52336006071E+02 -0.87270583023E+02  0.10428785627E+03  0.00000000000E+00 0. -1.
        -11    1    3    3    0    0  0.28367499662E+02  0.14056459223E+02  0.71159947143E+01  0.32448982476E+02  0.00000000000E+00 0.  1.
         11    1    3    3    0    0 -0.56685600129E+02  0.67744267575E+02 -0.45546351405E+02  0.99383163452E+02  0.00000000000E+00 0. -1.
         21    1    1    2  502  501  0.14664259869E+03 -0.12329882902E+03 -0.67465869919E+03  0.70133516480E+03  0.00000000000E+00 0.  1.
<scales pt_clust_5="13000.00000" pt_clust_6="13000.00000" pt_clust_7="13000.00000" pt_clust_8="13000.00000" pt_clust_9="168.88052"></scales>
<clustering>
<clus scale="   91.704">  7  8 -1 -1</clus>
<clus scale="   92.246">  5  6 -1 -1</clus>
<clus scale="  126.106">  1  7  2 -1</clus>
<clus scale="  168.881">  2  9  1 -1</clus>
<clus scale="  168.881">  2  5  1 -1</clus>
</clustering>
</event>
<event>
 9    1  0.5300912E-006  0.1387631E+03  0.7546771E-02  0.1219409E+00
          1   -1    0    0  502    0  0.00000000000E+00  0.00000000000E+00  0.25100152408E+03  0.25100152408E+03  0.00000000000E+00 0. -1.
         -1   -1    0    0    0  501 -0.00000000000E+00 -0.00000000000E+00 -0.13955744801E+03  0.13955744801E+03  0.00000000000E+00 0.  1.
         23    2    1    2    0    0 -0.11488631649E+03 -0.46213998972E+02  0.17755478630E-01  0.15392235201E+03  0.91419312601E+02 0.  0.
         23    2    1    2    0    0  0.41797744526E+02 -0.88806080673E+01  0.75092144677E+02  0.13816059551E+03  0.10781281608E+03 0.  0.
        -11    1    3    3    0    0 -0.72049687226E+02 -0.51826423269E+01 -0.39805253617E+02  0.82477120623E+02  0.00000000000E+00 0.  1.
         11    1    3    3    0    0 -0.42836629261E+02 -0.41031356645E+02  0.39823009096E+02  0.71445231388E+02  0.00000000000E+00 0. -1.
        -11    1    4    4    0    0 -0.32597867418E+02  0.14071640446E+02  0.37713041051E+02  0.51796771042E+02  0.00000000000E+00 0.  1.
         11    1    4    4    0    0  0.74395611944E+02 -0.22952248513E+02  0.37379103625E+02  0.86363824465E+02  0.00000000000E+00 0. -1.
         21    1    1    2  502  501  0.73088571961E+02  0.55094607039E+02  0.36334175913E+02  0.98476024572E+02  0.00000000000E+00 0. -1.
<scales pt_clust_5="13000.00000" pt_clust_6="13000.00000" pt_clust_7="13000.00000" pt_clust_8="13000.00000" pt_clust_9="91.52789"></scales>
<clustering>
<clus scale="   91.419">  5  6 -1 -1</clus>
<clus scale="   91.528">  1  9  2 -1</clus>
<clus scale="  107.813">  7  8 -1 -1</clus>
<clus scale="  126.448">  2  5  1 -1</clus>
<clus scale="   91.528">  1  5  2 -1</clus>
</clustering>
</event>
<event>
 9    1  0.5300912E-006  0.1198397E+03  0.7546771E-02  0.1260178E+00
         -1   -1    0    0    0  501 -0.00000000000E+00  0.00000000000E+00  0.34930161668E+03  0.34930161668E+03  0.00000000000E+00 0.  1.
          1   -1    0    0  502    0  0.00000000000E+00 -0.00000000000E+00 -0.75131743864E+02  0.75131743864E+02  0.00000000000E+00 0. -1.
         23    2    1    2    0    0  0.47810591586E+02  0.32214438869E+01  0.58781701929E+02  0.11843556756E+03  0.90969581807E+02 0.  0.
         23    2    1    2    0    0  0.38214152138E+02  0.11088261261E+02  0.14427203739E+02  0.86930829448E+02  0.75931244816E+02 0.  0.
        -11    1    4    4    0    0 -0.10832898715E+02  0.30720443805E+02  0.18665596325E+01  0.32627923731E+02  0.00000000000E+00 0. -1.
         11    1    4    4    0    0  0.49047050853E+02 -0.19632182544E+02  0.12560644107E+02  0.54302905716E+02  0.00000000000E+00 0.  1.
        -13    1    3    3    0    0  0.12840640771E+02 -0.42618890935E+02  0.32257446610E+02  0.54970853929E+02  0.00000000000E+00 0.  1.
         13    1    3    3    0    0  0.34969950815E+02  0.45840334822E+02  0.26524255319E+02  0.63464713635E+02  0.00000000000E+00 0. -1.
         21    1    1    2  502  501 -0.86024743724E+02 -0.14309705148E+02  0.20096096714E+03  0.21906696353E+03  0.00000000000E+00 0. -1.
<scales pt_clust_5="13000.00000" pt_clust_6="13000.00000" pt_clust_7="13000.00000" pt_clust_8="13000.00000" pt_clust_9="78.01334"></scales>
<clustering>
<clus scale="   75.931">  5  6 -1 -1</clus>
<clus scale="   85.725">  2  5  1 -1</clus>
<clus scale="   78.013">  1  9  2 -1</clus>
<clus scale="   90.970">  7  8 -1 -1</clus>
<clus scale="   85.725">  2  5  1 -1</clus>
</clustering>
</event>
<event>
 9    1  0.5300912E-006  0.1084353E+03  0.7546771E-02  0.1266407E+00
          2   -1    0    0  502    0  0.00000000000E+00  0.00000000000E+00  0.11353666360E+03  0.11353666360E+03  0.00000000000E+00 0. -1.
         -2   -1    0    0    0  501 -0.00000000000E+00 -0.00000000000E+00 -0.30444426440E+03  0.30444426440E+03  0.00000000000E+00 0.  1.
         23    2    1    2    0    0  0.67669806098E+02 -0.34089828327E+02 -0.20973397923E+03  0.24098983208E+03  0.91358842316E+02 0.  0.
         23    2    1    2    0    0 -0.30805082951E+02 -0.88545180120E+01 -0.37115167178E+02  0.97412950553E+02  0.84168828410E+02 0.  0.
        -11    1    4    4    0    0  0.20521516665E+02  0.14676981697E+02  0.65138777135E+01  0.26057187892E+02  0.00000000000E+00 0. -1.
         11    1    4    4    0    0 -0.51326599616E+02 -0.23531499709E+02 -0.43629044891E+02  0.71355762660E+02  0.00000000000E+00 0.  1.
        -13    1    3    3    0    0  0.32517318787E+02 -0.39279245109E+02 -0.19660218672E+03  0.20310749602E+03  0.00000000000E+00 0.  1.
         13    1    3    3    0    0  0.35152487311E+02  0.51894167819E+01 -0.13131792512E+02  0.37882336059E+02  0.00000000000E+00 0. -1.
         21    1    1    2  502  501 -0.36864723147E+02  0.42944346339E+02  0.55941545610E+02  0.79578145369E+02  0.00000000000E+00 0. -1.
<scales pt_clust_5="13000.00000" pt_clust_6="13000.00000" pt_clust_7="13000.00000" pt_clust_8="13000.00000" pt_clust_9="56.59704"></scales>
<clustering>
<clus scale="   56.597">  1  9  2 -1</clus>
<clus scale="   84.169">  5  6 -1 -1</clus>
<clus scale="   91.359">  7  8 -1 -1</clus>
<clus scale="  102.451">  1  5  2 -1</clus>
<clus scale="   56.597">  1  5  2 -1</clus>
</clustering>
</event>
<event>
 9    1  0.5300912E-006  0.1764164E+03  0.7546771E-02  0.1195144E+00
          2   -1    0    0  502    0  0.00000000000E+00  0.00000000000E+00  0.61279083302E+03  0.61279083302E+03  0.00000000000E+00 0. -1.
         -2   -1    0    0    0  501 -0.00000000000E+00 -0.00000000000E+00 -0.17407267620E+03  0.17407267620E+03  0.00000000000E+00 0.  1.
         23    2    1    2    0    0 -0.16505153314E+03  0.33821151008E+02  0.17559146302E+02  0.19211997790E+03  0.90641510592E+02 0.  0.
         23    2    1    2    0    0  0.37976724610E+02  0.32339109224E+02  0.43837935038E+03  0.45044617479E+03  0.90759307753E+02 0.  0.
        -13    1    4    4    0    0  0.22681930331E+02 -0.30899543703E+02  0.15023485762E+03  0.15504761917E+03  0.00000000000E+00 0.  1.
         13    1    4    4    0    0  0.15294794279E+02  0.63238652927E+02  0.28814449276E+03  0.29539855562E+03  0.00000000000E+00 0. -1.
        -13    1    3    3    0    0 -0.15792626014E+03  0.15573542579E+01  0.10159859232E+02  0.15826039218E+03  0.00000000000E+00 0.  1.
         13    1    3    3    0    0 -0.71252730031E+01  0.32263796750E+02  0.73992870700E+01  0.33859585722E+02  0.00000000000E+00 0. -1.
         21    1    1    2  502  501  0.12707480853E+03 -0.66160260232E+02 -0.17220339857E+02  0.14429735653E+03  0.00000000000E+00 0.  1.
<scales pt_clust_5="13000.00000" pt_clust_6="13000.00000" pt_clust_7="13000.00000" pt_clust_8="13000.00000" pt_clust_9="151.35019"></scales>
<clustering>
<clus scale="   90.642">  7  8 -1 -1</clus>
<clus scale="   90.759">  5  6 -1 -1</clus>
<clus scale="  103.563">  1  5  2 -1</clus>
<clus scale="  151.350">  2  9  1 -1</clus>
<clus scale="  103.563">  1  5  2 -1</clus>
</clustering>
</event>
<event>
 9    1  0.5300912E-006  0.1574690E+03  0.7546771E-02  0.1193817E+00
         -2   -1    0    0    0  501 -0.00000000000E+00  0.00000000000E+00  0.70351085326E+03  0.70351085326E+03  0.00000000000E+00 0.  1.
          2   -1    0    0  502    0  0.00000000000E+00 -0.00000000000E+00 -0.17193944348E+03  0.17193944348E+03  0.00000000000E+00 0. -1.
         23    2    1    2    0    0  0.12531836972E+03  0.78505465615E+01  0.52409227906E+03  0.54715924249E+03  0.94573753267E+02 0.  0.
         23    2    1    2    0    0 -0.98467538542E+01  0.11876701646E+03  0.36954905199E+02  0.15441028298E+03  0.90963221750E+02 0.  0.
        -11    1    4    4    0    0 -0.22154018398E+01  0.49973717880E+02  0.63011126626E+02  0.80452983554E+02  0.00000000000E+00 0.  1.
         11    1    4    4    0    0 -0.76313520144E+01  0.68793298584E+02 -0.26056221427E+02  0.73957299428E+02  0.00000000000E+00 0. -1.
        -13    1    3    3    0    0  0.10509175284E+03 -0.32040775919E+02  0.41395402409E+03  0.42828591139E+03  0.00000000000E+00 0.  1.
         13    1    3    3    0    0  0.20226616879E+02  0.39891322481E+02  0.11013825497E+03  0.11887333110E+03  0.00000000000E+00 0. -1.
         21    1    1    2  502  501 -0.11547161587E+03 -0.12661756302E+03 -0.29475774475E+02  0.17388077127E+03  0.00000000000E+00 0. -1.
<scales pt_clust_5="13000.00000" pt_clust_6="13000.00000" pt_clust_7="13000.00000" pt_clust_8="13000.00000" pt_clust_9="125.90583"></scales>
<clustering>
<clus scale="   90.963">  5  6 -1 -1</clus>
<clus scale="   94.574">  7  8 -1 -1</clus>
<clus scale="  149.923">  2  5  1 -1</clus>
<clus scale="  125.906">  2  9  1 -1</clus>
<clus scale="  149.923">  2  5  1 -1</clus>
</clustering>
</event>
<event>
 9    1  0.5300912E-006  0.9760991E+02  0.7546771E-02  0.1286844E+00
          1   -1    0    0  502    0  0.00000000000E+00  0.00000000000E+00  0.39024564936E+03  0.39024564936E+03  0.00000000000E+00 0. -1.
         -1   -1    0    0    0  501 -0.00000000000E+00 -0.00000000000E+00 -0.71226060401E+02  0.71226060401E+02  0.00000000000E+00 0.  1.
         23    2    1    2    0    0 -0.44408585594E+02  0.23837396373E+02  0.11126758887E+02  0.10707765912E+03  0.93816183998E+02 0.  0.
         23    2    1    2    0    0  0.75878117778E+01 -0.23943708667E+02  0.30282566266E+03  0.31722609572E+03  0.91094114895E+02 0.  0.
        -13    1    4    4    0    0 -0.17847052833E+01 -0.54795802513E+02  0.12490975458E+03  0.13641192006E+03  0.00000000000E+00 0.  1.
         13    1    4    4    0    0  0.93725170611E+01  0.30852093846E+02  0.17791590809E+03  0.18081417566E+03  0.00000000000E+00 0. -1.
        -13    1    3    3    0    0 -0.33956391143E+02  0.48785768742E+02 -0.22821943120E+02  0.63670470541E+02  0.00000000000E+00 0. -1.
         13    1    3    3    0    0 -0.10452194451E+02 -0.24948372369E+02  0.33948702007E+02  0.43407188583E+02  0.00000000000E+00 0.  1.
         21    1    1    2  502  501  0.36820773816E+02  0.10631229425E+00  0.50671674069E+01  0.37167954911E+02  0.00000000000E+00 0. -1.
<scales pt_clust_5="13000.00000" pt_clust_6="13000.00000" pt_clust_7="13000.00000" pt_clust_8="13000.00000" pt_clust_9="36.82093"></scales>
<clustering>
<clus scale="   36.821">  2  9  1 -1</clus>
<clus scale="   91.094">  5  6 -1 -1</clus>
<clus scale="   93.816">  7  8 -1 -1</clus>
<clus scale="   94.997">  1  5  2 -1</clus>
<clus scale="   94.997">  1  5  2 -1</clus>
</clustering>
</event>
<event>
 9    1  0.5300912E-006  0.1086593E+03  0.7546771E-02  0.1263376E+00
          2   -1    0    0  502    0  0.00000000000E+00  0.00000000000E+00  0.81560144321E+03  0.81560144321E+03  0.00000000000E+00 0. -1.
         -2   -1    0    0    0  501 -0.00000000000E+00 -0.00000000000E+00 -0.32018276921E+02  0.32018276921E+02  0.00000000000E+00 0.  1.
         23    2    1    2    0    0 -0.21214017549E+02  0.46778627997E+02  0.14493233728E+03  0.17902864865E+03  0.91692966305E+02 0.  0.
         23    2    1    2    0    0 -0.10417342840E+02 -0.61471371727E+02  0.61862592388E+03  0.62837395443E+03  0.90931525537E+02 0.  0.
        -11    1    4    4    0    0  0.37466392704E+02 -0.46731030815E+02  0.35805010160E+03  0.36302533669E+03  0.00000000000E+00 0. -1.
         11    1    4    4    0    0 -0.47883735544E+02 -0.14740340912E+02  0.26057582229E+03  0.26534861775E+03  0.00000000000E+00 0.  1.
        -11    1    3    3    0    0  0.17927050725E+02  0.33786497878E+02  0.12368863954E+02  0.40198201229E+02  0.00000000000E+00 0.  1.
         11    1    3    3    0    0 -0.39141068274E+02  0.12992130119E+02  0.13256347332E+03  0.13883044742E+03  0.00000000000E+00 0. -1.
         21    1    1    2  502  501  0.31631360389E+02  0.14692743730E+02  0.20024905126E+02  0.40217117049E+02  0.00000000000E+00 0.  1.
<scales pt_clust_5="13000.00000" pt_clust_6="13000.00000" pt_clust_7="13000.00000" pt_clust_8="13000.00000" pt_clust_9="34.87721"></scales>
<clustering>
<clus scale="   34.877">  2  9  1 -1</clus>
<clus scale="   90.932">  5  6 -1 -1</clus>
<clus scale="   91.693">  7  8 -1 -1</clus>
<clus scale="  108.018">  1  5  2 -1</clus>
<clus scale="  108.018">  1  5  2 -1</clus>
</clustering>
</event>
<event>
 9    1  0.5300912E-006  0.1181880E+03  0.7546771E-02  0.1247293E+00
         -2   -1    0    0    0  501 -0.00000000000E+00  0.00000000000E+00  0.54776149039E+02  0.54776149039E+02  0.00000000000E+00 0.  1.
          2   -1    0    0  502    0  0.00000000000E+00 -0.00000000000E+00 -0.56855107961E+03  0.56855107961E+03  0.00000000000E+00 0. -1.
         23    2    1    2    0    0  0.62879112283E+02 -0.81449060488E+01 -0.65744680135E+02  0.12908006255E+03  0.91209524311E+02 0.  0.
         23    2    1    2    0    0 -0.77265338389E+02  0.46438761335E+02 -0.17644478366E+03  0.21959821086E+03  0.94679044458E+02 0.  0.
        -11    1    4    4    0    0 -0.16622642066E+00  0.26687554537E+02 -0.72882072748E+00  0.26698021987E+02  0.00000000000E+00 0.  1.
         11    1    4    4    0    0 -0.77099111968E+02  0.19751206799E+02 -0.17571596293E+03  0.19290018887E+03  0.00000000000E+00 0. -1.
        -13    1    3    3    0    0  0.26041069790E+02 -0.45117864416E+02 -0.10616397390E+02  0.53164526696E+02  0.00000000000E+00 0. -1.
         13    1    3    3    0    0  0.36838042493E+02  0.36972958367E+02 -0.55128282745E+02  0.75915535851E+02  0.00000000000E+00 0.  1.
         21    1    1    2  502  501  0.14386226106E+02 -0.38293855286E+02 -0.27158546677E+03  0.27464895524E+03  0.00000000000E+00 0. -1.
<scales pt_clust_5="13000.00000" pt_clust_6="13000.00000" pt_clust_7="13000.00000" pt_clust_8="13000.00000" pt_clust_9="40.90700"></scales>
<clustering>
<clus scale="   40.907">  2  9  1 -1</clus>
<clus scale="   91.210">  7  8 -1 -1</clus>
<clus scale="   94.679">  5  6 -1 -1</clus>
<clus scale="  115.427">  1  7  2 -1</clus>
<clus scale="   40.907">  2  5  1 -1</clus>
</clustering>
</event>
<event>
 9    1  0.5300912E-006  0.9310526E+02  0.7546771E-02  0.1298387E+00
         -1   -1    0    0    0  501 -0.00000000000E+00  0.00000000000E+00  0.97684418289E+02  0.97684418289E+02  0.00000000000E+00 0.  1.
          1   -1    0    0  502    0  0.00000000000E+00 -0.00000000000E+00 -0.23032388778E+03  0.23032388778E+03  0.00000000000E+00 0. -1.
         23    2    1    2    0    0  0.56833452996E+01  0.13262378516E+02  0.22527151303E+02  0.95837800505E+02  0.92028367160E+02 0.  0.
         23    2    1    2    0    0  0.43904707344E+02  0.19628462985E-01 -0.38815093331E+02  0.10499714115E+03  0.87121549954E+02 0.  0.
        -13    1    3    3    0    0 -0.29606748373E+02  0.29293360440E+02 -0.12615285975E+02  0.43517880869E+02  0.00000000000E+00 0. -1.
         13    1    3    3    0    0  0.35290093672E+02 -0.16030981924E+02  0.35142437279E+02  0.52319919636E+02  0.00000000000E+00 0.  1.
        -13    1    4    4    0    0  0.51869519957E+02 -0.34364680333E+02 -0.23246048952E+02  0.66421059513E+02  0.00000000000E+00 0.  1.
         13    1    4    4    0    0 -0.79648126124E+01  0.34384308796E+02 -0.15569044380E+02  0.38576081634E+02  0.00000000000E+00 0. -1.
         21    1    1    2  502  501 -0.49588052644E+02 -0.13282006979E+02 -0.11635152746E+03  0.12717336442E+03  0.00000000000E+00 0. -1.
<scales pt_clust_5="13000.00000" pt_clust_6="13000.00000" pt_clust_7="13000.00000" pt_clust_8="13000.00000" pt_clust_9="51.33602"></scales>
<clustering>
<clus scale="   51.336">  2  9  1 -1</clus>
<clus scale="   87.122">  7  8 -1 -1</clus>
<clus scale="   88.258">  2  7  1 -1</clus>
<clus scale="   92.028">  5  6 -1 -1</clus>
<clus scale="   51.336">  2  5  1 -1</clus>
</clustering>
</event>
<event>
 9    1  0.5300912E-006  0.1088585E+03  0.7546771E-02  0.1262806E+00
          1   -1    0    0  502    0  0.00000000000E+00  0.00000000000E+00  0.56355847901E+03  0.56355847901E+03  0.00000000000E+00 0. -1.
         -1   -1    0    0    0  501 -0.00000000000E+00 -0.00000000000E+00 -0.28876818818E+02  0.28876818818E+02  0.00000000000E+00 0.  1.
         23    2    1    2    0    0  0.65254375575E+02  0.89054831462E+01  0.21618277654E+03  0.24375728233E+03  0.91351949367E+02 0.  0.
         23    2    1    2    0    0 -0.50007172252E+02 -0.23442229933E+02  0.30604672498E+03  0.32420659397E+03  0.91624572470E+02 0.  0.
        -11    1    4    4    0    0 -0.53818095441E+01  0.32762829047E+02  0.12810476538E+03  0.13233743897E+03  0.00000000000E+00 0.  1.
         11    1    4    4    0    0 -0.44625362708E+02 -0.56205058980E+02  0.17794195960E+03  0.19186915499E+03  0.00000000000E+00 0. -1.
        -13    1    3    3    0    0 -0.80477117393E+01 -0.18894258107E+02  0.93491848410E+01  0.22564704980E+02  0.00000000000E+00 0.  1.
         13    1    3    3    0    0  0.73302087314E+02  0.27799741253E+02  0.20683359170E+03  0.22119257735E+03  0.00000000000E+00 0. -1.
         21    1    1    2  502  501 -0.15247203323E+02  0.14536746787E+02  0.12452158673E+02  0.24471421534E+02  0.00000000000E+00 0. -1.
<scales pt_clust_5="13000.00000" pt_clust_6="13000.00000" pt_clust_7="13000.00000" pt_clust_8="13000.00000" pt_clust_9="21.06642"></scales>
<clustering>
<clus scale="   21.066">  2  9  1 -1</clus>
<clus scale="   91.352">  7  8 -1 -1</clus>
<clus scale="   91.625">  5  6 -1 -1</clus>
<clus scale="  108.629">  2  7  1 -1</clus>
<clus scale="  108.859">  1  5  2 -1</clus>
</clustering>
</event>
<event>
 9    1  0.5300912E-006  0.1757643E+03  0.7546771E-02  0.1171982E+00
          2   -1    0    0  502    0  0.00000000000E+00  0.00000000000E+00  0.30153523088E+03  0.30153523088E+03  0.00000000000E+00 0. -1.
         -2   -1    0    0    0  501 -0.00000000000E+00 -0.00000000000E+00 -0.19506088263E+03  0.19506088263E+03  0.00000000000E+00 0.  1.
         23    2    1    2    0    0  0.16483339108E+03 -0.68984589647E+02  0.17481559560E+02  0.20193627593E+03  0.92432322203E+02 0.  0.
         23    2    1    2    0    0 -0.11938919245E+03  0.69277142208E+02  0.14644564308E+03  0.22140622842E+03  0.92310833047E+02 0.  0.
        -11    1    3    3    0    0  0.40313431660E+02 -0.63631662934E+02 -0.41358321432E+01  0.75440482551E+02  0.00000000000E+00 0.  1.
         11    1    3    3    0    0  0.12451995942E+03 -0.53529267130E+01  0.21617391703E+02  0.12649579338E+03  0.00000000000E+00 0. -1.
        -13    1    4    4    0    0 -0.59485740222E+02 -0.12601507303E+02  0.32886276348E+02  0.69129287919E+02  0.00000000000E+00 0.  1.
         13    1    4    4    0    0 -0.59903452230E+02  0.81878649511E+02  0.11355936674E+03  0.15227694050E+03  0.00000000000E+00 0. -1.
         21    1    1    2  502  501 -0.45444198632E+02 -0.29255256142E+00 -0.57452854392E+02  0.73253609154E+02  0.00000000000E+00 0.  1.
<scales pt_clust_5="13000.00000" pt_clust_6="13000.00000" pt_clust_7="13000.00000" pt_clust_8="13000.00000" pt_clust_9="45.44514"></scales>
<clustering>
<clus scale="   45.445">  2  9  1 -1</clus>
<clus scale="   92.311">  7  8 -1 -1</clus>
<clus scale="   92.432">  5  6 -1 -1</clus>
<clus scale="  175.700">  1  7  2 -1</clus>
<clus scale="  175.700">  1  5  2 -1</clus>
</clustering>
</event>
<event>
 9    1  0.5300912E-006  0.1124309E+03  0.7546771E-02  0.1258362E+00
          1   -1    0    0  502    0  0.00000000000E+00  0.00000000000E+00  0.26740215451E+03  0.26740215451E+03  0.00000000000E+00 0. -1.
         -1   -1    0    0    0  501 -0.00000000000E+00 -0.00000000000E+00 -0.10038298533E+03  0.10038298533E+03  0.00000000000E+00 0.  1.
         23    2    1    2    0    0 -0.58951570811E+02  0.49690165199E+02 -0.30000758478E+02  0.12433599268E+03  0.92816988470E+02 0.  0.
         23    2    1    2    0    0  0.23337307112E+02 -0.12828825024E+02  0.11277287869E+03  0.14483525646E+03  0.86892581327E+02 0.  0.
        -13    1    4    4    0    0  0.52505819573E+02 -0.10153299476E+02  0.41224672407E+02  0.67523508457E+02  0.00000000000E+00 0. -1.
         13    1    4    4    0    0 -0.29168512461E+02 -0.26755255488E+01  0.71548206284E+02  0.77311747999E+02  0.00000000000E+00 0.  1.
        -13    1    3    3    0    0 -0.47670448098E+02  0.75004816326E+02 -0.85349814102E+01  0.89280681010E+02  0.00000000000E+00 0. -1.
         13    1    3    3    0    0 -0.11281122713E+02 -0.25314651127E+02 -0.21465777067E+02  0.35055311673E+02  0.00000000000E+00 0.  1.
         21    1    1    2  502  501  0.35614263699E+02 -0.36861340175E+02  0.84247048967E+02  0.98613890695E+02  0.00000000000E+00 0. -1.
<scales pt_clust_5="13000.00000" pt_clust_6="13000.00000" pt_clust_7="13000.00000" pt_clust_8="13000.00000" pt_clust_9="51.25558"></scales>
<clustering>
<clus scale="   51.256">  1  9  2 -1</clus>
<clus scale="   86.893">  5  6 -1 -1</clus>
<clus scale="   92.817">  7  8 -1 -1</clus>
<clus scale="  107.592">  1  5  2 -1</clus>
<clus scale="   51.256">  1  5  2 -1</clus>
</clustering>
</event>
<event>
 9    1  0.5300912E-006  0.9180483E+02  0.7546771E-02  0.1299032E+00
         -2   -1    0    0    0  501 -0.00000000000E+00  0.00000000000E+00  0.56734214080E+02  0.56734214080E+02  0.00000000000E+00 0.  1.
          2   -1    0    0  502    0  0.00000000000E+00 -0.00000000000E+00 -0.63794427927E+03  0.63794427927E+03  0.00000000000E+00 0. -1.
         23    2    1    2    0    0 -0.44370667503E+00 -0.68501609235E+01 -0.97679616839E+01  0.90131080360E+02  0.89336873636E+02 0.  0.
         23    2    1    2    0    0  0.18354778784E+02  0.54066639668E+02 -0.17559561354E+03  0.20549272252E+03  0.90185032486E+02 0.  0.
        -13    1    4    4    0    0 -0.32318637987E+02  0.35636801700E+02 -0.53087864482E+02  0.71643543687E+02  0.00000000000E+00 0.  1.
         13    1    4    4    0    0  0.50673416771E+02  0.18429837969E+02 -0.12250774906E+03  0.13384917884E+03  0.00000000000E+00 0. -1.
        -13    1    3    3    0    0 -0.11242727091E+02  0.39073517283E+02 -0.13413194399E+02  0.42814161784E+02  0.00000000000E+00 0.  1.
         13    1    3    3    0    0  0.10799020416E+02 -0.45923678206E+02  0.36452327155E+01  0.47316918576E+02  0.00000000000E+00 0. -1.
         21    1    1    2  502  501 -0.17911072109E+02 -0.47216478745E+02 -0.39584648996E+03  0.39905469047E+03  0.00000000000E+00 0. -1.
<scales pt_clust_5="13000.00000" pt_clust_6="13000.00000" pt_clust_7="13000.00000" pt_clust_8="13000.00000" pt_clust_9="50.49953"></scales>
<clustering>
<clus scale="   50.500">  2  9  1 -1</clus>
<clus scale="   89.337">  7  8 -1 -1</clus>
<clus scale="   90.185">  5  6 -1 -1</clus>
<clus scale="   90.972">  1  7  2 -1</clus>
<clus scale="   50.500">  2  5  1 -1</clus>
</clustering>
</event>
<event>
 9    1  0.5300912E-006  0.1033592E+03  0.7546771E-02  0.1274075E+00
         -1   -1    0    0    0  501 -0.00000000000E+00  0.00000000000E+00  0.15372684534E+02  0.15372684534E+02  0.00000000000E+00 0.  1.
          1   -1    0    0  502    0  0.00000000000E+00 -0.00000000000E+00 -0.88207742989E+03  0.88207742989E+03  0.00000000000E+00 0. -1.
         23    2    1    2    0    0  0.27416042439E+02  0.22639358245E+02 -0.37406025899E+03  0.38700467283E+03  0.92668006971E+02 0.  0.
         23    2    1    2    0    0 -0.47746035778E+02 -0.28929829635E+02 -0.45311635488E+03  0.46555277138E+03  0.91150057083E+02 0.  0.
        -13    1    4    4    0    0 -0.73147017367E+01 -0.53710281235E+02 -0.31221161016E+03  0.31688229470E+03  0.00000000000E+00 0. -1.
         13    1    4    4    0    0 -0.40431334042E+02  0.24780451600E+02 -0.14090474472E+03  0.14867047668E+03  0.00000000000E+00 0.  1.
        -13    1    3    3    0    0  0.58992663051E+02  0.29810851590E+02 -0.22733623823E+03  0.23675005043E+03  0.00000000000E+00 0.  1.
         13    1    3    3    0    0 -0.31576620612E+02 -0.71714933454E+01 -0.14672402075E+03  0.15025462240E+03  0.00000000000E+00 0. -1.
         21    1    1    2  502  501  0.20329993339E+02  0.62904713897E+01 -0.39528131489E+02  0.44892670209E+02  0.00000000000E+00 0.  1.
<scales pt_clust_5="13000.00000" pt_clust_6="13000.00000" pt_clust_7="13000.00000" pt_clust_8="13000.00000" pt_clust_9="21.28095"></scales>
<clustering>
<clus scale="   21.281">  1  9  2 -1</clus>
<clus scale="   91.150">  5  6 -1 -1</clus>
<clus scale="   92.668">  7  8 -1 -1</clus>
<clus scale="  102.000">  2  5  1 -1</clus>
<clus scale="  102.000">  2  5  1 -1</clus>
</clustering>
</event>
<event>
 9    1  0.5300912E-006  0.9968872E+02  0.7546771E-02  0.1281060E+00
          1   -1    0    0  502    0  0.00000000000E+00  0.00000000000E+00  0.24516823398E+03  0.24516823398E+03  0.00000000000E+00 0. -1.
         -1   -1    0    0    0  501 -0.00000000000E+00 -0.00000000000E+00 -0.94061240096E+02  0.94061240096E+02  0.00000000000E+00 0.  1.
         23    2    1    2    0    0 -0.87397884543E+02  0.55692002502E+01  0.36931809480E+02  0.13209674798E+03  0.91739773600E+02 0.  0.
         23    2    1    2    0    0  0.14493906983E+02  0.17661131459E+02  0.78461760934E+02  0.12269288437E+03  0.91516703622E+02 0.  0.
        -11    1    3    3    0    0 -0.49521966545E+02  0.39841929648E+02  0.48223869334E+02  0.79783119155E+02  0.00000000000E+00 0. -1.
         11    1    3    3    0    0 -0.37875917998E+02 -0.34272729398E+02 -0.11292059854E+02  0.52313628820E+02  0.00000000000E+00 0.  1.
        -13    1    4    4    0    0  0.53475130040E+02  0.12600267825E+02  0.43274195994E+02  0.69935772827E+02  0.00000000000E+00 0.  1.
         13    1    4    4    0    0 -0.38981223058E+02  0.50608636338E+01  0.35187564940E+02  0.52757111541E+02  0.00000000000E+00 0. -1.
         21    1    1    2  502  501  0.72903977561E+02 -0.23230331709E+02  0.35713423466E+02  0.84439841728E+02  0.00000000000E+00 0.  1.
<scales pt_clust_5="13000.00000" pt_clust_6="13000.00000" pt_clust_7="13000.00000" pt_clust_8="13000.00000" pt_clust_9="76.51561"></scales>
<clustering>
<clus scale="   76.516">  2  9  1 -1</clus>
<clus scale="   91.517">  7  8 -1 -1</clus>
<clus scale="   91.740">  5  6 -1 -1</clus>
<clus scale="   99.483">  1  7  2 -1</clus>
<clus scale="   99.483">  1  5  2 -1</clus>
</clustering>
</event>
<event>
 9    1  0.5300912E-006  0.1107779E+03  0.7546771E-02  0.1261853E+00
          1   -1    0    0  502    0  0.00000000000E+00  0.00000000000E+00  0.14241142145E+03  0.14241142145E+03  0.00000000000E+00 0. -1.
         -1   -1    0    0    0  501 -0.00000000000E+00 -0.00000000000E+00 -0.12003364025E+03  0.12003364025E+03  0.00000000000E+00 0.  1.
         23    2    1    2    0    0 -0.31360070231E+02 -0.42260314076E+02 -0.23184400562E+02  0.10214751807E+03  0.84422810115E+02 0.  0.
         23    2    1    2    0    0  0.47197948653E+02  0.65674752303E+02  0.23286865114E+02  0.12430776671E+03  0.91484005879E+02 0.  0.
        -13    1    3    3    0    0 -0.57041106980E+02 -0.45914512658E+02 -0.20671286061E+02  0.76086348483E+02  0.00000000000E+00 0. -1.
         13    1    3    3    0    0  0.25681036748E+02  0.36541985818E+01 -0.25131145014E+01  0.26061169587E+02  0.00000000000E+00 0.  1.
        -13    1    4    4    0    0  0.62332214359E+02  0.43589500902E+02 -0.15061240037E+02  0.77538316252E+02  0.00000000000E+00 0.  1.
         13    1    4    4    0    0 -0.15134265706E+02  0.22085251401E+02  0.38348105151E+02  0.46769450463E+02  0.00000000000E+00 0. -1.
         21    1    1    2  502  501 -0.15837878421E+02 -0.23414438227E+02  0.22275316650E+02  0.35989776913E+02  0.00000000000E+00 0. -1.
<scales pt_clust_5="13000.00000" pt_clust_6="13000.00000" pt_clust_7="13000.00000" pt_clust_8="13000.00000" pt_clust_9="28.26790"></scales>
<clustering>
<clus scale="   28.268">  1  9  2 -1</clus>
<clus scale="   84.423">  5  6 -1 -1</clus>
<clus scale="   91.484">  7  8 -1 -1</clus>
<clus scale="  105.022">  2  5  1 -1</clus>
<clus scale="   28.268">  1  5  2 -1</clus>
</clustering>
</event>
<event>
 9    1  0.5300912E-006  0.1717060E+03  0.7546771E-02  0.1195012E+00
         -1   -1    0    0    0  501 -0.00000000000E+00  0.00000000000E+00  0.12215459266E+03  0.12215459266E+03  0.00000000000E+00 0.  1.
          1   -1    0    0  502    0  0.00000000000E+00 -0.00000000000E+00 -0.48038897837E+03  0.48038897837E+03  0.00000000000E+00 0. -1.
         23    2    1    2    0    0  0.82602905490E+02  0.95536548396E+02 -0.45940797443E+02  0.16272151434E+03  0.91745639046E+02 0.  0.
         23    2    1    2    0    0  0.63368698079E+02  0.45267272461E+01 -0.20201411037E+03  0.23129884114E+03  0.93023491482E+02 0.  0.
        -11    1    3    3    0    0  0.10061282850E+03  0.62541070255E+02 -0.33207519871E+02  0.12303278467E+03  0.00000000000E+00 0.  1.
         11    1    3    3    0    0 -0.18009923014E+02  0.32995478141E+02 -0.12733277572E+02  0.39688729666E+02  0.00000000000E+00 0. -1.
        -13    1    4    4    0    0  0.44441559942E+02 -0.35735862398E+02 -0.61324368670E+02  0.83742356691E+02  0.00000000000E+00 0. -1.
         13    1    4    4    0    0  0.18927138137E+02  0.40262589644E+02 -0.14068974170E+03  0.14755648445E+03  0.00000000000E+00 0.  1.
         21    1    1    2  502  501 -0.14597160357E+03 -0.10006327564E+03 -0.11027947790E+03  0.20852321556E+03  0.00000000000E+00 0. -1.
<scales pt_clust_5="13000.00000" pt_clust_6="13000.00000" pt_clust_7="13000.00000" pt_clust_8="13000.00000" pt_clust_9="145.14026"></scales>
<clustering>
<clus scale="   91.746">  5  6 -1 -1</clus>
<clus scale="   93.023">  7  8 -1 -1</clus>
<clus scale="  112.647">  2  7  1 -1</clus>
<clus scale="  145.140">  2  9  1 -1</clus>
<clus scale="  112.647">  2  5  1 -1</clus>
</clustering>
</event>
<event>
 9    1  0.5300912E-006  0.1084257E+03  0.7546771E-02  0.1265216E+00
          2   -1    0    0  502    0  0.00000000000E+00  0.00000000000E+00  0.45762771954E+03  0.45762771954E+03  0.00000000000E+00 0. -1.
         -2   -1    0    0    0  501 -0.00000000000E+00 -0.00000000000E+00 -0.63779446046E+02  0.63779446046E+02  0.00000000000E+00 0.  1.
         23    2    1    2    0    0 -0.46489696710E+02 -0.99534369440E+02  0.11436028022E+03  0.18176060999E+03  0.88827152668E+02 0.  0.
         23    2    1    2    0    0  0.32187638913E+02  0.24239754786E+02  0.22136475882E+03  0.24345851977E+03  0.92984324429E+02 0.  0.
        -11    1    3    3    0    0 -0.72354976049E+02 -0.84103742700E+02  0.85761127964E+02  0.14022714846E+03  0.00000000000E+00 0.  1.
         11    1    3    3    0    0  0.25865279338E+02 -0.15430626740E+02  0.28599152257E+02  0.41533461530E+02  0.00000000000E+00 0. -1.
        -11    1    4    4    0    0  0.57651884673E+02  0.36361897372E+02  0.18680561458E+03  0.19885236993E+03  0.00000000000E+00 0. -1.
         11    1    4    4    0    0 -0.25464245760E+02 -0.12122142587E+02  0.34559144233E+02  0.44606149836E+02  0.00000000000E+00 0.  1.
         21    1    1    2  502  501  0.14302057797E+02  0.75294614654E+02  0.58123234452E+02  0.96188035827E+02  0.00000000000E+00 0. -1.
<scales pt_clust_5="13000.00000" pt_clust_6="13000.00000" pt_clust_7="13000.00000" pt_clust_8="13000.00000" pt_clust_9="76.64090"></scales>
<clustering>
<clus scale="   76.641">  2  9  1 -1</clus>
<clus scale="   88.827">  5  6 -1 -1</clus>
<clus scale="   92.984">  7  8 -1 -1</clus>
<clus scale="  104.882">  2  5  1 -1</clus>
<clus scale="  108.426">  1  5  2 -1</clus>
</clustering>
</event>
<event>
 9    1  0.5300912E-006  0.1615497E+03  0.7546771E-02  0.1197910E+00
          1   -1    0    0  502    0  0.00000000000E+00  0.00000000000E+00  0.27586126595E+03  0.27586126595E+03  0.00000000000E+00 0. -1.
         -1   -1    0    0    0  501 -0.00000000000E+00 -0.00000000000E+00 -0.17476056303E+03  0.17476056303E+03  0.00000000000E+00 0.  1.
         23    2    1    2    0    0  0.10222014784E+02 -0.87713055912E+02  0.23480150106E+02  0.12910849775E+03  0.91211934407E+02 0.  0.
         23    2    1    2    0    0  0.12227860711E+03  0.23849302649E+02 -0.58770589971E+00  0.15492543998E+03  0.92090713761E+02 0.  0.
        -11    1    3    3    0    0 -0.33013034898E+02 -0.33774518723E+02  0.35318644517E+02  0.58974445641E+02  0.00000000000E+00 0. -1.
         11    1    3    3    0    0  0.43235049682E+02 -0.53938537189E+02 -0.11838494410E+02  0.70134052108E+02  0.00000000000E+00 0.  1.
        -11    1    4    4    0    0  0.97995855252E+02  0.29436887757E+02  0.37866907649E+02  0.10910371535E+03  0.00000000000E+00 0. -1.
         11    1    4    4    0    0  0.24282751856E+02 -0.55875851088E+01 -0.38454613549E+02  0.45821724632E+02  0.00000000000E+00 0.  1.
         21    1    1    2  502  501 -0.13250062189E+03  0.63863753264E+02  0.78208258714E+02  0.16658789126E+03  0.00000000000E+00 0. -1.
<scales pt_clust_5="13000.00000" pt_clust_6="13000.00000" pt_clust_7="13000.00000" pt_clust_8="13000.00000" pt_clust_9="132.73130"></scales>
<clustering>
<clus scale="   91.212">  5  6 -1 -1</clus>
<clus scale="   92.091">  7  8 -1 -1</clus>
<clus scale="  126.955">  2  5  1 -1</clus>
<clus scale="  132.731">  1  9  2 -1</clus>
<clus scale="  132.731">  1  5  2 -1</clus>
</clustering>
</event>
<event>
 9    1  0.5300912E-006  0.9297612E+02  0.7546771E-02  0.1295975E+00
          1   -1    0    0  502    0  0.00000000000E+00  0.00000000000E+00  0.23170348435E+02  0.23170348435E+02  0.00000000000E+00 0. -1.
         -1   -1    0    0    0  501 -0.00000000000E+00 -0.00000000000E+00 -0.62106344233E+03  0.62106344233E+03  0.00000000000E+00 0.  1.
         23    2    1    2    0    0  0.26948645768E+01 -0.59934902589E+01 -0.24289136469E+03  0.25943136955E+03  0.90913344708E+02 0.  0.
         23    2    1    2    0    0  0.35884728334E+02 -0.13929611339E+02 -0.18759549699E+03  0.21185687617E+03  0.90606388790E+02 0.  0.
        -11    1    4    4    0    0 -0.23024816874E+02  0.15128218857E+02 -0.90726144607E+02  0.94816868294E+02  0.00000000000E+00 0.  1.
         11    1    4    4    0    0  0.58909545208E+02 -0.29057830195E+02 -0.96869352385E+02  0.11704000788E+03  0.00000000000E+00 0. -1.
        -13    1    3    3    0    0  0.52237961428E+01 -0.42315621709E+02 -0.64200890374E+02  0.77069152140E+02  0.00000000000E+00 0. -1.
         13    1    3    3    0    0 -0.25289315660E+01  0.36322131451E+02 -0.17869047432E+03  0.18236221741E+03  0.00000000000E+00 0.  1.
         21    1    1    2  502  501 -0.38579592911E+02  0.19923101598E+02 -0.16740623222E+03  0.17294554505E+03  0.00000000000E+00 0.  1.
<scales pt_clust_5="13000.00000" pt_clust_6="13000.00000" pt_clust_7="13000.00000" pt_clust_8="13000.00000" pt_clust_9="43.42021"></scales>
<clustering>
<clus scale="   43.420">  2  9  1 -1</clus>
<clus scale="   90.606">  5  6 -1 -1</clus>
<clus scale="   90.913">  7  8 -1 -1</clus>
<clus scale="   92.676">  1  5  2 -1</clus>
<clus scale="   92.676">  1  5  2 -1</clus>
</clustering>
</event>
<event>
 9    1  0.5300912E-006  0.9904351E+02  0.7546771E-02  0.1282424E+00
          2   -1    0    0  502    0  0.00000000000E+00  0.00000000000E+00  0.36814894628E+03  0.36814894628E+03  0.00000000000E+00 0. -1.
         -2   -1    0    0    0  501 -0.00000000000E+00 -0.00000000000E+00 -0.68334098819E+02  0.68334098819E+02  0.00000000000E+00 0.  1.
         23    2    1    2    0    0  0.73815071490E+02 -0.40423165764E+02  0.11934967104E+03  0.17186609788E+03  0.90614096657E+02 0.  0.
         23    2    1    2    0    0 -0.21347253219E+02 -0.24355139480E+02  0.14525011183E+03  0.17412273990E+03  0.90400528340E+02 0.  0.
        -11    1    4    4    0    0 -0.53730373040E+02 -0.13607095639E+02  0.56995715607E+02  0.79502312145E+02  0.00000000000E+00 0.  1.
         11    1    4    4    0    0  0.32383119821E+02 -0.10748043841E+02  0.88254396220E+02  0.94620427751E+02  0.00000000000E+00 0. -1.
        -13    1    3    3    0    0 -0.20161496281E+02 -0.15183771552E+02  0.15833108378E+02  0.29794633271E+02  0.00000000000E+00 0.  1.
         13    1    3    3    0    0  0.93976567772E+02 -0.25239394212E+02  0.10351656266E+03  0.14207146461E+03  0.00000000000E+00 0. -1.
         21    1    1    2  502  501 -0.52467818272E+02  0.64778305244E+02  0.35215064592E+02  0.90494207321E+02  0.00000000000E+00 0.  1.
<scales pt_clust_5="13000.00000" pt_clust_6="13000.00000" pt_clust_7="13000.00000" pt_clust_8="13000.00000" pt_clust_9="83.36127"></scales>
<clustering>
<clus scale="   83.361">  2  9  1 -1</clus>
<clus scale="   90.401">  5  6 -1 -1</clus>
<clus scale="   90.614">  7  8 -1 -1</clus>
<clus scale="   98.848">  1  5  2 -1</clus>
<clus scale="   98.848">  1  5  2 -1</clus>
</clustering>
</event>
<event>
 9    1  0.5300912E-006  0.2159695E+03  0.7546771E-02  0.1153633E+00
         -1   -1    0    0    0  501 -0.00000000000E+00  0.00000000000E+00  0.18773708716E+03  0.18773708716E+03  0.00000000000E+00 0.  1.
          1   -1    0    0  502    0  0.00000000000E+00 -0.00000000000E+00 -0.48054156052E+03  0.48054156052E+03  0.00000000000E+00 0. -1.
         23    2    1    2    0    0 -0.88286251505E+02  0.95539369473E+02 -0.13181435834E+03  0.20685836368E+03  0.92158147958E+02 0.  0.
         23    2    1    2    0    0 -0.53554737185E+02  0.99815308358E+02 -0.16551161639E+03  0.21996063893E+03  0.90318225512E+02 0.  0.
        -11    1    3    3    0    0 -0.17053963716E+02 -0.16711208343E+02 -0.35122772502E+02  0.42470122568E+02  0.00000000000E+00 0.  1.
         11    1    3    3    0    0 -0.71232287789E+02  0.11225057782E+03 -0.96691585841E+02  0.16438824111E+03  0.00000000000E+00 0. -1.
        -13    1    4    4    0    0 -0.82460967824E+01  0.52674864353E+02 -0.14273503777E+02  0.55193952176E+02  0.00000000000E+00 0.  1.
         13    1    4    4    0    0 -0.45308640403E+02  0.47140444005E+02 -0.15123811261E+03  0.16476668675E+03  0.00000000000E+00 0. -1.
         21    1    1    2  502  501  0.14184098869E+03 -0.19535467783E+03  0.45215013659E+01  0.24145964507E+03  0.00000000000E+00 0.  1.
<scales pt_clust_5="13000.00000" pt_clust_6="13000.00000" pt_clust_7="13000.00000" pt_clust_8="13000.00000" pt_clust_9="195.31950"></scales>
<clustering>
<clus scale="   90.318">  7  8 -1 -1</clus>
<clus scale="   92.158">  5  6 -1 -1</clus>
<clus scale="  144.874">  2  7  1 -1</clus>
<clus scale="  195.320">  1  9  2 -1</clus>
<clus scale="  144.874">  2  5  1 -1</clus>
</clustering>
</event>
<event>
 9    1  0.5300912E-006  0.1627456E+03  0.7546771E-02  0.1186836E+00
          2   -1    0    0  502    0  0.00000000000E+00  0.00000000000E+00  0.14629723469E+04  0.14629723469E+04  0.00000000000E+00 0. -1.
         -2   -1    0    0    0  501 -0.00000000000E+00 -0.00000000000E+00 -0.36173003650E+02  0.36173003650E+02  0.00000000000E+00 0.  1.
         23    2    1    2    0    0 -0.85800576956E+02  0.30395986904E+02  0.38768457446E+03  0.40871806969E+03  0.92008022420E+02 0.  0.
         23    2    1    2    0    0  0.16173932537E+03 -0.25986534598E+02  0.96640181783E+03  0.98519748461E+03  0.99230543811E+02 0.  0.
        -11    1    4    4    0    0  0.10461881232E+02 -0.37195098498E+02  0.15542473317E+03  0.16015546820E+03  0.00000000000E+00 0.  1.
         11    1    4    4    0    0  0.15127744414E+03  0.11208563900E+02  0.81097708466E+03  0.82504201642E+03  0.00000000000E+00 0. -1.
        -13    1    3    3    0    0 -0.21659188146E+02 -0.32058322748E+02  0.92756431000E+02  0.10050180088E+03  0.00000000000E+00 0.  1.
         13    1    3    3    0    0 -0.64141388810E+02  0.62454309651E+02  0.29492814346E+03  0.30821626881E+03  0.00000000000E+00 0. -1.
         21    1    1    2  502  501 -0.75938748413E+02 -0.44094523058E+01  0.72712950932E+02  0.10522979622E+03  0.00000000000E+00 0.  1.
<scales pt_clust_5="13000.00000" pt_clust_6="13000.00000" pt_clust_7="13000.00000" pt_clust_8="13000.00000" pt_clust_9="76.06666"></scales>
<clustering>
<clus scale="   76.067">  2  9  1 -1</clus>
<clus scale="   92.008">  7  8 -1 -1</clus>
<clus scale="   99.231">  5  6 -1 -1</clus>
<clus scale="  158.445">  2  7  1 -1</clus>
<clus scale="  162.746">  1  5  2 -1</clus>
</clustering>
</event>
<event>
 9    1  0.5300912E-006  0.1095104E+03  0.7546771E-02  0.1266932E+00
         -1   -1    0    0    0  501 -0.00000000000E+00  0.00000000000E+00  0.10543891472E+03  0.10543891472E+03  0.00000000000E+00 0.  1.
          1   -1    0    0  502    0  0.00000000000E+00 -0.00000000000E+00 -0.16929455034E+03  0.16929455034E+03  0.00000000000E+00 0. -1.
         23    2    1    2    0    0  0.51502003088E+02  0.13012960387E+02  0.13596454078E+02  0.10629695642E+03  0.91062538512E+02 0.  0.
         23    2    1    2    0    0 -0.11875826682E+02 -0.65879003520E+01 -0.33897830137E+02  0.10920401098E+03  0.10291752735E+03 0.  0.
        -11    1    4    4    0    0  0.11939242684E+02 -0.47519437131E+02  0.31218910480E+01  0.49095708823E+02  0.00000000000E+00 0.  1.
         11    1    4    4    0    0 -0.23815069366E+02  0.40931536779E+02 -0.37019721185E+02  0.60108302161E+02  0.00000000000E+00 0. -1.
        -13    1    3    3    0    0  0.73334096599E+02 -0.95687700160E+01  0.79235352481E+01  0.74378985570E+02  0.00000000000E+00 0.  1.
         13    1    3    3    0    0 -0.21832093511E+02  0.22581730403E+02  0.56729188298E+01  0.31917970849E+02  0.00000000000E+00 0. -1.
         21    1    1    2  502  501 -0.39626176407E+02 -0.64250600353E+01 -0.43554259555E+02  0.59232497655E+02  0.00000000000E+00 0. -1.
<scales pt_clust_5="13000.00000" pt_clust_6="13000.00000" pt_clust_7="13000.00000" pt_clust_8="13000.00000" pt_clust_9="40.14368"></scales>
<clustering>
<clus scale="   40.144">  2  9  1 -1</clus>
<clus scale="   91.063">  7  8 -1 -1</clus>
<clus scale="   98.452">  1  7  2 -1</clus>
<clus scale="  102.918">  5  6 -1 -1</clus>
<clus scale="   40.144">  2  5  1 -1</clus>
</clustering>
</event>
<event>
 9    1  0.5300912E-006  0.1127477E+03  0.7546771E-02  0.1259262E+00
          2   -1    0    0  502    0  0.00000000000E+00  0.00000000000E+00  0.57520699520E+03  0.57520699520E+03  0.00000000000E+00 0. -1.
         -2   -1    0    0    0  501 -0.00000000000E+00 -0.00000000000E+00 -0.54178490358E+02  0.54178490358E+02  0.00000000000E+00 0.  1.
         23    2    1    2    0    0 -0.70651868210E+02 -0.50847956374E+02  0.11934698374E+03  0.17039043996E+03  0.84923485286E+02 0.  0.
         23    2    1    2    0    0  0.54113548450E+02 -0.47984206766E+02  0.25422822226E+03  0.28071496306E+03  0.94541743507E+02 0.  0.
        -11    1    3    3    0    0 -0.53360965758E+02  0.13807200299E+01  0.97577601063E+02  0.11122359140E+03  0.00000000000E+00 0.  1.
         11    1    3    3    0    0 -0.17290902452E+02 -0.52228676404E+02  0.21769382676E+02  0.59166848561E+02  0.00000000000E+00 0. -1.
        -11    1    4    4    0    0  0.68233011510E+02 -0.65145129376E+02  0.17988392893E+03  0.20312030826E+03  0.00000000000E+00 0.  1.
         11    1    4    4    0    0 -0.14119463060E+02  0.17160922610E+02  0.74344293334E+02  0.77594654798E+02  0.00000000000E+00 0. -1.
         21    1    1    2  502  501  0.16538319760E+02  0.98832163140E+02  0.14745329884E+03  0.17828008254E+03  0.00000000000E+00 0.  1.
<scales pt_clust_5="13000.00000" pt_clust_6="13000.00000" pt_clust_7="13000.00000" pt_clust_8="13000.00000" pt_clust_9="100.20635"></scales>
<clustering>
<clus scale="   84.923">  5  6 -1 -1</clus>
<clus scale="   94.542">  7  8 -1 -1</clus>
<clus scale="  100.206">  2  9  1 -1</clus>
<clus scale="  104.814">  2  5  1 -1</clus>
<clus scale="  112.748">  1  5  2 -1</clus>
</clustering>
</event>
<event>
 9    1  0.5300912E-006  0.9341790E+02  0.7546771E-02  0.1295752E+00
          2   -1    0    0  502    0  0.00000000000E+00  0.00000000000E+00  0.30370620591E+03  0.30370620591E+03  0.00000000000E+00 0. -1.
         -2   -1    0    0    0  501 -0.00000000000E+00 -0.00000000000E+00 -0.21679524412E+03  0.21679524412E+03  0.00000000000E+00 0.  1.
         23    2    1    2    0    0  0.75039998299E+02 -0.49579660888E+01 -0.14422696294E+03  0.18756398903E+03  0.93398342448E+02 0.  0.
         23    2    1    2    0    0  0.51598153707E+01  0.13201584649E+01  0.23524385101E+03  0.25255025811E+03  0.91725661210E+02 0.  0.
        -11    1    4    4    0    0  0.58361713718E+01  0.37577468826E+02  0.45161743913E+02  0.59039903226E+02  0.00000000000E+00 0. -1.
         11    1    4    4    0    0 -0.67635600113E+00 -0.36257310361E+02  0.19008210709E+03  0.19351035489E+03  0.00000000000E+00 0.  1.
        -13    1    3    3    0    0  0.30408663872E+02 -0.13012020700E+02  0.32843446897E+01  0.33238327895E+02  0.00000000000E+00 0. -1.
         13    1    3    3    0    0  0.44631334426E+02  0.80540546117E+01 -0.14751130763E+03  0.15432566114E+03  0.00000000000E+00 0.  1.
         21    1    1    2  502  501 -0.80199813669E+02  0.36378076239E+01 -0.41059262795E+01  0.80387202884E+02  0.00000000000E+00 0. -1.
<scales pt_clust_5="13000.00000" pt_clust_6="13000.00000" pt_clust_7="13000.00000" pt_clust_8="13000.00000" pt_clust_9="80.28228"></scales>
<clustering>
<clus scale="   80.282">  2  9  1 -1</clus>
<clus scale="   91.726">  5  6 -1 -1</clus>
<clus scale="   91.746">  1  5  2 -1</clus>
<clus scale="   93.398">  7  8 -1 -1</clus>
<clus scale="   91.746">  1  5  2 -1</clus>
</clustering>
</event>
<event>
 9    1  0.5300912E-006  0.1008044E+03  0.7546771E-02  0.1279361E+00
          1   -1    0    0  502    0  0.00000000000E+00  0.00000000000E+00  0.94222695001E+02  0.94222695001E+02  0.00000000000E+00 0. -1.
         -1   -1    0    0    0  501 -0.00000000000E+00 -0.00000000000E+00 -0.25278724370E+03  0.25278724370E+03  0.00000000000E+00 0.  1.
         23    2    1    2    0    0  0.14545351435E+01  0.13261244548E+02 -0.58305533871E+02  0.11002619995E+03  0.92348541495E+02 0.  0.
         23    2    1    2    0    0 -0.21402981520E+02 -0.43971069939E+02  0.23064614676E+02  0.10833790134E+03  0.93880678564E+02 0.  0.
        -11    1    3    3    0    0  0.23873259977E+02  0.44901264244E+02 -0.47938823694E+02  0.69886957938E+02  0.00000000000E+00 0.  1.
         11    1    3    3    0    0 -0.22418724833E+02 -0.31640019696E+02 -0.10366710177E+02  0.40139242013E+02  0.00000000000E+00 0. -1.
        -11    1    4    4    0    0 -0.29212965364E+02  0.23712451711E+02  0.10421938714E+02  0.39042214564E+02  0.00000000000E+00 0.  1.
         11    1    4    4    0    0  0.78099838432E+01 -0.67683521651E+02  0.12642675962E+02  0.69295686779E+02  0.00000000000E+00 0. -1.
         21    1    1    2  502  501  0.19948446377E+02  0.30709825391E+02 -0.12332362950E+03  0.12864583741E+03  0.00000000000E+00 0. -1.
<scales pt_clust_5="13000.00000" pt_clust_6="13000.00000" pt_clust_7="13000.00000" pt_clust_8="13000.00000" pt_clust_9="36.62013"></scales>
<clustering>
<clus scale="   36.620">  2  9  1 -1</clus>
<clus scale="   92.349">  5  6 -1 -1</clus>
<clus scale="   93.881">  7  8 -1 -1</clus>
<clus scale="   99.379">  2  5  1 -1</clus>
<clus scale="  100.804">  1  5  2 -1</clus>
</clustering>
</event>
<event>
 9    1  0.5300912E-006  0.1455013E+03  0.7546771E-02  0.1214573E+00
         -3   -1    0    0    0  501 -0.00000000000E+00  0.00000000000E+00  0.12693547258E+03  0.12693547258E+03  0.00000000000E+00 0.  1.
          3   -1    0    0  502    0  0.00000000000E+00 -0.00000000000E+00 -0.38903456832E+03  0.38903456832E+03  0.00000000000E+00 0. -1.
         23    2    1    2    0    0 -0.78313258989E+02  0.28425730384E+02  0.19632127000E+02  0.12304252875E+03  0.88391485953E+02 0.  0.
         23    2    1    2    0    0  0.58920470549E+02  0.96880268588E+02 -0.16802635689E+03  0.22261465256E+03  0.92016404153E+02 0.  0.
        -11    1    3    3    0    0 -0.43806973833E+02  0.53319440955E+02  0.35534879750E+02  0.77619207797E+02  0.00000000000E+00 0.  1.
         11    1    3    3    0    0 -0.34506285156E+02 -0.24893710571E+02 -0.15902752750E+02  0.45423320952E+02  0.00000000000E+00 0. -1.
        -11    1    4    4    0    0 -0.24540084247E+02  0.24708253882E+02 -0.51191756705E+02  0.61913726259E+02  0.00000000000E+00 0. -1.
         11    1    4    4    0    0  0.83460554796E+02  0.72172014706E+02 -0.11683460018E+03  0.16070092630E+03  0.00000000000E+00 0.  1.
         21    1    1    2  502  501  0.19392788439E+02 -0.12530599897E+03 -0.11370486585E+03  0.17031285958E+03  0.00000000000E+00 0.  1.
<scales pt_clust_5="13000.00000" pt_clust_6="13000.00000" pt_clust_7="13000.00000" pt_clust_8="13000.00000" pt_clust_9="112.71034"></scales>
<clustering>
<clus scale="   88.391">  5  6 -1 -1</clus>
<clus scale="   92.016">  7  8 -1 -1</clus>
<clus scale="  121.466">  1  5  2 -1</clus>
<clus scale="  112.710">  1  9  2 -1</clus>
<clus scale="  145.501">  2  5  1 -1</clus>
</clustering>
</event>
<event>
 9    1  0.5300912E-006  0.9927031E+02  0.7546771E-02  0.1283781E+00
         -1   -1    0    0    0  501 -0.00000000000E+00  0.00000000000E+00  0.33271162201E+03  0.33271162201E+03  0.00000000000E+00 0.  1.
          1   -1    0    0  502    0  0.00000000000E+00 -0.00000000000E+00 -0.25875960984E+03  0.25875960984E+03  0.00000000000E+00 0. -1.
         23    2    1    2    0    0  0.10522223258E+02 -0.45968927643E+02  0.29649194456E+03  0.31327740253E+03  0.89506414623E+02 0.  0.
         23    2    1    2    0    0 -0.17844516123E+02 -0.37536095086E+00 -0.52757264292E+02  0.10204740319E+03  0.85508922983E+02 0.  0.
        -11    1    3    3    0    0  0.34109882253E+02  0.11573238551E+02  0.74685247687E+02  0.82917489952E+02  0.00000000000E+00 0. -1.
         11    1    3    3    0    0 -0.23587658995E+02 -0.57542166195E+02  0.22180669687E+03  0.23035991258E+03  0.00000000000E+00 0.  1.
        -13    1    4    4    0    0 -0.25633599335E+02 -0.38875064335E+02 -0.19138335451E+02  0.50345088398E+02  0.00000000000E+00 0.  1.
         13    1    4    4    0    0  0.77890832117E+01  0.38499703384E+02 -0.33618928841E+02  0.51702314787E+02  0.00000000000E+00 0. -1.
         21    1    1    2  502  501  0.73222928649E+01  0.46344288594E+02 -0.16978266809E+03  0.17614642614E+03  0.00000000000E+00 0. -1.
<scales pt_clust_5="13000.00000" pt_clust_6="13000.00000" pt_clust_7="13000.00000" pt_clust_8="13000.00000" pt_clust_9="46.91918"></scales>
<clustering>
<clus scale="   46.919">  2  9  1 -1</clus>
<clus scale="   85.509">  7  8 -1 -1</clus>
<clus scale="   89.506">  5  6 -1 -1</clus>
<clus scale="   95.682">  2  7  1 -1</clus>
<clus scale="   46.919">  2  5  1 -1</clus>
</clustering>
</event>
<event>
 9    1  0.5300912E-006  0.1044066E+03  0.7546771E-02  0.1271296E+00
         -1   -1    0    0    0  501 -0.00000000000E+00  0.00000000000E+00  0.45341959431E+02  0.45341959431E+02  0.00000000000E+00 0.  1.
          1   -1    0    0  502    0  0.00000000000E+00 -0.00000000000E+00 -0.52264106309E+03  0.52264106309E+03  0.00000000000E+00 0. -1.
         23    2    1    2    0    0  0.72679131072E+01 -0.17759130751E+02 -0.14342287778E+03  0.17098019544E+03  0.91081809801E+02 0.  0.
         23    2    1    2    0    0 -0.80332190600E+02  0.39274824495E+02 -0.14404971157E+03  0.19246574179E+03  0.91087703204E+02 0.  0.
        -11    1    4    4    0    0 -0.53453367600E+02  0.61715889875E+02 -0.13242444400E+03  0.15557103503E+03  0.00000000000E+00 0. -1.
         11    1    4    4    0    0 -0.26878823000E+02 -0.22441065380E+02 -0.11625267570E+02  0.36894706766E+02  0.00000000000E+00 0.  1.
        -11    1    3    3    0    0  0.14235316672E+02 -0.40738418142E+02 -0.14027443976E+03  0.14676232965E+03  0.00000000000E+00 0.  1.
         11    1    3    3    0    0 -0.69674035645E+01  0.22979287390E+02 -0.31484380124E+01  0.24217865788E+02  0.00000000000E+00 0. -1.
         21    1    1    2  502  501  0.73064277492E+02 -0.21515693744E+02 -0.18982651432E+03  0.20453708529E+03  0.00000000000E+00 0.  1.
<scales pt_clust_5="13000.00000" pt_clust_6="13000.00000" pt_clust_7="13000.00000" pt_clust_8="13000.00000" pt_clust_9="76.16636"></scales>
<clustering>
<clus scale="   76.166">  2  9  1 -1</clus>
<clus scale="   91.082">  7  8 -1 -1</clus>
<clus scale="   91.088">  5  6 -1 -1</clus>
<clus scale="  104.402">  1  7  2 -1</clus>
<clus scale="   76.166">  2  5  1 -1</clus>
</clustering>
</event>
<event>
 9    1  0.5300912E-006  0.1141700E+03  0.7546771E-02  0.1265801E+00
          1   -1    0    0  502    0  0.00000000000E+00  0.00000000000E+00  0.87310461226E+03  0.87310461226E+03  0.00000000000E+00 0. -1.
         -1   -1    0    0    0  501 -0.00000000000E+00 -0.00000000000E+00 -0.83672294034E+02  0.83672294034E+02  0.00000000000E+00 0.  1.
         23    2    1    2    0    0  0.59843762677E+02 -0.28136666677E+02 -0.23626569969E+02  0.11482870399E+03  0.90854105627E+02 0.  0.
         23    2    1    2    0    0  0.28447677485E+02 -0.41404985784E+02  0.20235403419E+03  0.22098778606E+03  0.73244817107E+02 0.  0.
        -11    1    4    4    0    0  0.17312965312E+01 -0.57453029507E+02  0.13765985255E+03  0.14917802449E+03  0.00000000000E+00 0.  1.
         11    1    4    4    0    0  0.26716380954E+02  0.16048043722E+02  0.64694181641E+02  0.71809761570E+02  0.00000000000E+00 0. -1.
        -13    1    3    3    0    0  0.85929545717E+01 -0.40779391250E+02 -0.41775847200E+02  0.59008635200E+02  0.00000000000E+00 0.  1.
         13    1    3    3    0    0  0.51250808105E+02  0.12642724573E+02  0.18149277231E+02  0.55820068793E+02  0.00000000000E+00 0. -1.
         21    1    1    2  502  501 -0.88291440162E+02  0.69541652461E+02  0.61070485401E+03  0.62096041624E+03  0.00000000000E+00 0. -1.
<scales pt_clust_5="13000.00000" pt_clust_6="13000.00000" pt_clust_7="13000.00000" pt_clust_8="13000.00000" pt_clust_9="69.13984"></scales>
<clustering>
<clus scale="   73.245">  5  6 -1 -1</clus>
<clus scale="   88.817">  1  5  2 -1</clus>
<clus scale="   69.140">  1  9  2 -1</clus>
<clus scale="   90.854">  7  8 -1 -1</clus>
<clus scale="   88.817">  1  5  2 -1</clus>
</clustering>
</event>
<event>
 9    1  0.5300912E-006  0.9526258E+02  0.7546771E-02  0.1291394E+00
         -1   -1    0    0    0  501 -0.00000000000E+00  0.00000000000E+00  0.35454510374E+03  0.35454510374E+03  0.00000000000E+00 0.  1.
          1   -1    0    0  502    0  0.00000000000E+00 -0.00000000000E+00 -0.89357624338E+02  0.89357624338E+02  0.00000000000E+00 0. -1.
         23    2    1    2    0    0 -0.17933580111E+02 -0.22401388914E+02  0.25530835872E+03  0.27283858908E+03  0.91842812119E+02 0.  0.
         23    2    1    2    0    0 -0.49694685609E+01 -0.41961185772E+02  0.41363873024E+01  0.10250708506E+03  0.93301425806E+02 0.  0.
        -11    1    4    4    0    0  0.27204894532E+02 -0.16431150487E+02 -0.33941873874E+02  0.46498814984E+02  0.00000000000E+00 0. -1.
         11    1    4    4    0    0 -0.32174363093E+02 -0.25530035285E+02  0.38078261177E+02  0.56008270071E+02  0.00000000000E+00 0.  1.
        -13    1    3    3    0    0 -0.43193588695E+02  0.18461222153E+02  0.14780535188E+03  0.15509005408E+03  0.00000000000E+00 0.  1.
         13    1    3    3    0    0  0.25260008584E+02 -0.40862611067E+02  0.10750300684E+03  0.11774853501E+03  0.00000000000E+00 0. -1.
         21    1    1    2  502  501  0.22903048672E+02  0.64362574686E+02  0.57427333806E+01  0.68557053943E+02  0.00000000000E+00 0.  1.
<scales pt_clust_5="13000.00000" pt_clust_6="13000.00000" pt_clust_7="13000.00000" pt_clust_8="13000.00000" pt_clust_9="68.31611"></scales>
<clustering>
<clus scale="   68.316">  2  9  1 -1</clus>
<clus scale="   91.843">  7  8 -1 -1</clus>
<clus scale="   93.301">  5  6 -1 -1</clus>
<clus scale="   93.834">  1  7  2 -1</clus>
<clus scale="   68.316">  2  5  1 -1</clus>
</clustering>
</event>
<event>
 9    1  0.5300912E-006  0.1067907E+03  0.7546771E-02  0.1266720E+00
         -1   -1    0    0    0  501 -0.00000000000E+00  0.00000000000E+00  0.14201159256E+03  0.14201159256E+03  0.00000000000E+00 0.  1.
          1   -1    0    0  502    0  0.00000000000E+00 -0.00000000000E+00 -0.12834137870E+03  0.12834137870E+03  0.00000000000E+00 0. -1.
         23    2    1    2    0    0  0.43928312265E+02 -0.28216229007E+02 -0.19036456388E+01  0.10404436659E+03  0.89976408883E+02 0.  0.
         23    2    1    2    0    0 -0.65091052627E+02  0.51179406604E+01 -0.26247491493E+02  0.11405520379E+03  0.89758677871E+02 0.  0.
        -11    1    4    4    0    0 -0.75287471052E+02 -0.13755534817E+02 -0.42130451289E+02  0.87363567700E+02  0.00000000000E+00 0. -1.
         11    1    4    4    0    0  0.10196418425E+02  0.18873475478E+02  0.15882959796E+02  0.26691636090E+02  0.00000000000E+00 0.  1.
        -11    1    3    3    0    0  0.70729030949E+01  0.29929051557E+02 -0.14597449787E+02  0.34042027342E+02  0.00000000000E+00 0. -1.
         11    1    3    3    0    0  0.36855409170E+02 -0.58145280564E+02  0.12693804149E+02  0.70002339252E+02  0.00000000000E+00 0.  1.
         21    1    1    2  502  501  0.21162740362E+02  0.23098288347E+02  0.41821350989E+02  0.52253400873E+02  0.00000000000E+00 0.  1.
<scales pt_clust_5="13000.00000" pt_clust_6="13000.00000" pt_clust_7="13000.00000" pt_clust_8="13000.00000" pt_clust_9="31.32718"></scales>
<clustering>
<clus scale="   31.327">  1  9  2 -1</clus>
<clus scale="   89.759">  5  6 -1 -1</clus>
<clus scale="   89.976">  7  8 -1 -1</clus>
<clus scale="  106.607">  2  5  1 -1</clus>
<clus scale="  106.607">  2  5  1 -1</clus>
</clustering>
</event>
<event>
 9    1  0.5300912E-006  0.9477245E+02  0.7546771E-02  0.1292505E+00
         -1   -1    0    0    0  501 -0.00000000000E+00  0.00000000000E+00  0.63200641188E+03  0.63200641188E+03  0.00000000000E+00 0.  1.
          1   -1    0    0  502    0  0.00000000000E+00 -0.00000000000E+00 -0.49061489286E+02  0.49061489286E+02  0.00000000000E+00 0. -1.
         23    2    1    2    0    0 -0.32293695345E+01 -0.10597759644E+02  0.30916702404E+03  0.32274734168E+03  0.91972041778E+02 0.  0.
         23    2    1    2    0    0  0.50988260463E+02 -0.45084188095E+02  0.26012597974E+03  0.28370309602E+03  0.90496047624E+02 0.  0.
        -11    1    4    4    0    0  0.73088511644E+02 -0.51828956529E+02  0.19501543177E+03  0.21461404870E+03  0.00000000000E+00 0.  1.
         11    1    4    4    0    0 -0.22100251181E+02  0.67447684337E+01  0.65110547969E+02  0.69089047326E+02  0.00000000000E+00 0. -1.
        -13    1    3    3    0    0  0.15040097713E+02 -0.46881656411E+02  0.20757548396E+03  0.21333465679E+03  0.00000000000E+00 0.  1.
         13    1    3    3    0    0 -0.18269467247E+02  0.36283896767E+02  0.10159154008E+03  0.10941268489E+03  0.00000000000E+00 0. -1.
         21    1    1    2  502  501 -0.47758890928E+02  0.55681947739E+02  0.13651918811E+02  0.74617463465E+02  0.00000000000E+00 0. -1.
<scales pt_clust_5="13000.00000" pt_clust_6="13000.00000" pt_clust_7="13000.00000" pt_clust_8="13000.00000" pt_clust_9="73.35796"></scales>
<clustering>
<clus scale="   73.358">  2  9  1 -1</clus>
<clus scale="   90.496">  5  6 -1 -1</clus>
<clus scale="   91.972">  7  8 -1 -1</clus>
<clus scale="   93.341">  2  5  1 -1</clus>
<clus scale="   73.358">  2  5  1 -1</clus>
</clustering>
</event>
<event>
 9    1  0.5300912E-006  0.1025053E+03  0.7546771E-02  0.1276063E+00
          2   -1    0    0  502    0  0.00000000000E+00  0.00000000000E+00  0.30349332595E+03  0.30349332595E+03  0.00000000000E+00 0. -1.
         -2   -1    0    0    0  501 -0.00000000000E+00 -0.00000000000E+00 -0.83037530912E+02  0.83037530912E+02  0.00000000000E+00 0.  1.
         23    2    1    2    0    0  0.29950319949E+02  0.32066726916E+02 -0.15998849293E+02  0.10081609730E+03  0.89345540769E+02 0.  0.
         23    2    1    2    0    0 -0.67433163703E+02 -0.13786383493E+02  0.19952087675E+03  0.23000804795E+03  0.91421145943E+02 0.  0.
        -11    1    3    3    0    0  0.18174678832E+02  0.93014156258E+01 -0.52434197491E+02  0.56268822182E+02  0.00000000000E+00 0.  1.
         11    1    3    3    0    0  0.11775641116E+02  0.22765311290E+02  0.36435348198E+02  0.44547275115E+02  0.00000000000E+00 0. -1.
        -13    1    4    4    0    0  0.22976444382E+02 -0.11434806198E+01  0.35745644373E+02  0.42508536037E+02  0.00000000000E+00 0.  1.
         13    1    4    4    0    0 -0.90409608085E+02 -0.12642902874E+02  0.16377523238E+03  0.18749951191E+03  0.00000000000E+00 0. -1.
         21    1    1    2  502  501  0.37482843754E+02 -0.18280343423E+02  0.36933767585E+02  0.55706711620E+02  0.00000000000E+00 0. -1.
<scales pt_clust_5="13000.00000" pt_clust_6="13000.00000" pt_clust_7="13000.00000" pt_clust_8="13000.00000" pt_clust_9="41.70293"></scales>
<clustering>
<clus scale="   41.703">  1  9  2 -1</clus>
<clus scale="   89.346">  5  6 -1 -1</clus>
<clus scale="   91.421">  7  8 -1 -1</clus>
<clus scale="  100.658">  2  5  1 -1</clus>
<clus scale="   41.703">  1  5  2 -1</clus>
</clustering>
</event>
<event>
 9    1  0.5300912E-006  0.1010758E+03  0.7546771E-02  0.1278242E+00
         -1   -1    0    0    0  501 -0.00000000000E+00  0.00000000000E+00  0.37999572548E+03  0.37999572548E+03  0.00000000000E+00 0.  1.
          1   -1    0    0  502    0  0.00000000000E+00 -0.00000000000E+00 -0.48069374396E+02  0.48069374396E+02  0.00000000000E+00 0. -1.
         23    2    1    2    0    0  0.42306047560E+01  0.35884867795E+02  0.13991877985E+03  0.17084799683E+03  0.91138089250E+02 0.  0.
         23    2    1    2    0    0 -0.61301381734E+02 -0.30889189485E+02  0.12360738820E+03  0.16799482206E+03  0.90727462158E+02 0.  0.
        -13    1    3    3    0    0  0.23478721557E+02 -0.23556935135E+01 -0.95170346859E+00  0.23615787037E+02  0.00000000000E+00 0. -1.
         13    1    3    3    0    0 -0.19248116801E+02  0.38240561309E+02  0.14087048332E+03  0.14723220979E+03  0.00000000000E+00 0.  1.
        -13    1    4    4    0    0  0.11124194322E+02 -0.26928941934E+02  0.75580765757E+02  0.81002270125E+02  0.00000000000E+00 0. -1.
         13    1    4    4    0    0 -0.72425576057E+02 -0.39602475509E+01  0.48026622445E+02  0.86992551930E+02  0.00000000000E+00 0.  1.
         21    1    1    2  502  501  0.57070776978E+02 -0.49956783100E+01  0.68400183030E+02  0.89222280991E+02  0.00000000000E+00 0.  1.
<scales pt_clust_5="13000.00000" pt_clust_6="13000.00000" pt_clust_7="13000.00000" pt_clust_8="13000.00000" pt_clust_9="57.28901"></scales>
<clustering>
<clus scale="   57.289">  2  9  1 -1</clus>
<clus scale="   90.727">  7  8 -1 -1</clus>
<clus scale="   91.138">  5  6 -1 -1</clus>
<clus scale="  100.706">  2  7  1 -1</clus>
<clus scale="   57.289">  2  5  1 -1</clus>
</clustering>
</event>
<event>
 9    1  0.5300912E-006  0.1399146E+03  0.7546771E-02  0.1232779E+00
         -2   -1    0    0    0  501 -0.00000000000E+00  0.00000000000E+00  0.36111153002E+02  0.36111153002E+02  0.00000000000E+00 0.  1.
          2   -1    0    0  502    0  0.00000000000E+00 -0.00000000000E+00 -0.84378361698E+03  0.84378361698E+03  0.00000000000E+00 0. -1.
         23    2    1    2    0    0 -0.79756579629E+02 -0.53517739858E+02 -0.24714064045E+03  0.28043945322E+03  0.91337452807E+02 0.  0.
         23    2    1    2    0    0 -0.61131934977E+01 -0.28954148102E+02 -0.24843697237E+03  0.26542174605E+03  0.88611851423E+02 0.  0.
        -11    1    3    3    0    0 -0.70507236281E+02 -0.27973242678E+02 -0.24090598028E+03  0.25256576176E+03  0.00000000000E+00 0.  1.
         11    1    3    3    0    0 -0.92493433477E+01 -0.25544497180E+02 -0.62346601699E+01  0.27873691467E+02  0.00000000000E+00 0. -1.
        -11    1    4    4    0    0  0.25531468294E+02  0.21547261764E+02 -0.77529122594E+02  0.84420999834E+02  0.00000000000E+00 0. -1.
         11    1    4    4    0    0 -0.31644661791E+02 -0.50501409866E+02 -0.17090784977E+03  0.18100074622E+03  0.00000000000E+00 0.  1.
         21    1    1    2  502  501  0.85869773127E+02  0.82471887959E+02 -0.31209485115E+03  0.33403357070E+03  0.00000000000E+00 0. -1.
<scales pt_clust_5="13000.00000" pt_clust_6="13000.00000" pt_clust_7="13000.00000" pt_clust_8="13000.00000" pt_clust_9="105.98853"></scales>
<clustering>
<clus scale="   88.612">  7  8 -1 -1</clus>
<clus scale="   91.337">  5  6 -1 -1</clus>
<clus scale="   93.423">  2  7  1 -1</clus>
<clus scale="  105.989">  2  9  1 -1</clus>
<clus scale="   93.423">  2  5  1 -1</clus>
</clustering>
</event>
<event>
 9    1  0.5300912E-006  0.1703564E+03  0.7546771E-02  0.1200108E+00
          1   -1    0    0  502    0  0.00000000000E+00  0.00000000000E+00  0.16291078173E+03  0.16291078173E+03  0.00000000000E+00 0. -1.
         -1   -1    0    0    0  501 -0.00000000000E+00 -0.00000000000E+00 -0.30864823432E+03  0.30864823432E+03  0.00000000000E+00 0.  1.
         23    2    1    2    0    0 -0.15738933961E+03  0.14945963094E+02 -0.55554323925E+02  0.19081623311E+03  0.91267551058E+02 0.  0.
         23    2    1    2    0    0  0.21291288909E+02 -0.42664748859E+02  0.17897695338E+02  0.10475279741E+03  0.91538086550E+02 0.  0.
        -11    1    4    4    0    0  0.70596199380E+01 -0.68225345861E+02  0.27594202679E+02  0.73932239740E+02  0.00000000000E+00 0.  1.
         11    1    4    4    0    0  0.14231668971E+02  0.25560597002E+02 -0.96965073412E+01  0.30820557675E+02  0.00000000000E+00 0. -1.
        -11    1    3    3    0    0 -0.33646810312E+02  0.36557318430E+02  0.75267653279E+01  0.50251343974E+02  0.00000000000E+00 0.  1.
         11    1    3    3    0    0 -0.12374252930E+03 -0.21611355336E+02 -0.63081089253E+02  0.14056488913E+03  0.00000000000E+00 0. -1.
         21    1    1    2  502  501  0.13609805070E+03  0.27718785765E+02 -0.10808082400E+03  0.17598998553E+03  0.00000000000E+00 0. -1.
<scales pt_clust_5="13000.00000" pt_clust_6="13000.00000" pt_clust_7="13000.00000" pt_clust_8="13000.00000" pt_clust_9="143.84555"></scales>
<clustering>
<clus scale="   91.268">  7  8 -1 -1</clus>
<clus scale="   91.538">  5  6 -1 -1</clus>
<clus scale="  103.213">  1  5  2 -1</clus>
<clus scale="  143.846">  2  9  1 -1</clus>
<clus scale="  103.213">  1  5  2 -1</clus>
</clustering>
</event>
<event>
 9    1  0.5300912E-006  0.1137172E+03  0.7546771E-02  0.1253952E+00
         -1   -1    0    0    0  501 -0.00000000000E+00  0.00000000000E+00  0.13671922535E+03  0.13671922535E+03  0.00000000000E+00 0.  1.
          1   -1    0    0  502    0  0.00000000000E+00 -0.00000000000E+00 -0.17846687682E+03  0.17846687682E+03  0.00000000000E+00 0. -1.
         23    2    1    2    0    0 -0.59520672863E+02  0.26938662454E+02  0.38606258295E+02  0.11886863600E+03  0.91492663162E+02 0.  0.
         23    2    1    2    0    0  0.31071756138E+02 -0.65718144424E+02 -0.89958549072E+02  0.14727219951E+03  0.91171441048E+02 0.  0.
        -11    1    3    3    0    0 -0.66846733015E+02 -0.15412880392E+02  0.30745011364E+02  0.75175117695E+02  0.00000000000E+00 0. -1.
         11    1    3    3    0    0  0.73260601516E+01  0.42351542845E+02  0.78612469308E+01  0.43693518307E+02  0.00000000000E+00 0.  1.
        -13    1    4    4    0    0 -0.82620643111E+01 -0.48300554066E+02 -0.91967512190E+02  0.10420762222E+03  0.00000000000E+00 0. -1.
         13    1    4    4    0    0  0.39333820449E+02 -0.17417590358E+02  0.20089631180E+01  0.43064577297E+02  0.00000000000E+00 0.  1.
         21    1    1    2  502  501  0.28448916725E+02  0.38779481970E+02  0.96046393110E+01  0.49045266652E+02  0.00000000000E+00 0.  1.
<scales pt_clust_5="13000.00000" pt_clust_6="13000.00000" pt_clust_7="13000.00000" pt_clust_8="13000.00000" pt_clust_9="48.09562"></scales>
<clustering>
<clus scale="   48.096">  1  9  2 -1</clus>
<clus scale="   91.171">  7  8 -1 -1</clus>
<clus scale="   91.493">  5  6 -1 -1</clus>
<clus scale="  113.459">  2  7  1 -1</clus>
<clus scale="  113.459">  2  5  1 -1</clus>
</clustering>
</event>
<event>
 9    1  0.5300912E-006  0.9082135E+02  0.7546771E-02  0.1300969E+00
          2   -1    0    0  502    0  0.00000000000E+00  0.00000000000E+00  0.16721399484E+03  0.16721399484E+03  0.00000000000E+00 0.  1.
         -2   -1    0    0    0  501 -0.00000000000E+00 -0.00000000000E+00 -0.15341387178E+03  0.15341387178E+03  0.00000000000E+00 0. -1.
         23    2    1    2    0    0  0.64206996148E+01  0.28886260837E+02 -0.88971939019E+02  0.13017418699E+03  0.90297683118E+02 0.  0.
         23    2    1    2    0    0  0.10197526720E+02  0.40972734063E+01  0.11919412855E+03  0.15003384236E+03  0.90455162213E+02 0.  0.
        -11    1    3    3    0    0 -0.29301326073E+02  0.33701273883E+02 -0.82128907403E+02  0.93485298322E+02  0.00000000000E+00 0.  1.
         11    1    3    3    0    0  0.35722025688E+02 -0.48150130461E+01 -0.68430316158E+01  0.36688888667E+02  0.00000000000E+00 0. -1.
        -11    1    4    4    0    0  0.72265085521E+01  0.46495045998E+02  0.48695174920E+02  0.67714339609E+02  0.00000000000E+00 0.  1.
         11    1    4    4    0    0  0.29710181676E+01 -0.42397772591E+02  0.70498953633E+02  0.82319502750E+02  0.00000000000E+00 0. -1.
         21    1    1    2  502  501 -0.16618226334E+02 -0.32983534244E+02 -0.16422066474E+02  0.40419837271E+02  0.00000000000E+00 0.  1.
<scales pt_clust_5="13000.00000" pt_clust_6="13000.00000" pt_clust_7="13000.00000" pt_clust_8="13000.00000" pt_clust_9="36.93344"></scales>
<clustering>
<clus scale="   36.933">  2  9  1 -1</clus>
<clus scale="   90.298">  5  6 -1 -1</clus>
<clus scale="   90.455">  7  8 -1 -1</clus>
<clus scale="   90.665">  2  5  1 -1</clus>
<clus scale="   90.821">  1  5  2 -1</clus>
</clustering>
</event>
<event>
 9    1  0.5300912E-006  0.1131441E+03  0.7546771E-02  0.1258156E+00
         -3   -1    0    0    0  501 -0.00000000000E+00  0.00000000000E+00  0.19763731554E+03  0.19763731554E+03  0.00000000000E+00 0.  1.
          3   -1    0    0  502    0  0.00000000000E+00 -0.00000000000E+00 -0.35303182444E+03  0.35303182444E+03  0.00000000000E+00 0. -1.
         23    2    1    2    0    0  0.52929755655E+02 -0.15679189157E+02  0.16332609821E+03  0.19531689700E+03  0.91792591705E+02 0.  0.
         23    2    1    2    0    0 -0.11903343939E+02  0.61031807450E+01 -0.28191417258E+03  0.29940959361E+03  0.99957819255E+02 0.  0.
        -13    1    3    3    0    0  0.34384255278E+02 -0.52339741904E+02  0.73632895355E+02  0.96661930831E+02  0.00000000000E+00 0.  1.
         13    1    3    3    0    0  0.18545500377E+02  0.36660552747E+02  0.89693202854E+02  0.98654966171E+02  0.00000000000E+00 0. -1.
        -13    1    4    4    0    0  0.10329063930E+02 -0.43337637332E+02 -0.97572594784E+02  0.10726253598E+03  0.00000000000E+00 0.  1.
         13    1    4    4    0    0 -0.22232407869E+02  0.49440818077E+02 -0.18434157780E+03  0.19214705763E+03  0.00000000000E+00 0. -1.
         21    1    1    2  502  501 -0.41026411715E+02  0.95760084118E+01 -0.36806434532E+02  0.55942649368E+02  0.00000000000E+00 0.  1.
<scales pt_clust_5="13000.00000" pt_clust_6="13000.00000" pt_clust_7="13000.00000" pt_clust_8="13000.00000" pt_clust_9="42.12916"></scales>
<clustering>
<clus scale="   42.129">  2  9  1 -1</clus>
<clus scale="   91.793">  5  6 -1 -1</clus>
<clus scale="   99.958">  7  8 -1 -1</clus>
<clus scale="  106.000">  1  5  2 -1</clus>
<clus scale="   42.129">  2  5  1 -1</clus>
</clustering>
</event>
<event>
 9    1  0.5300912E-006  0.1934785E+03  0.7546771E-02  0.1185590E+00
         -1   -1    0    0    0  501 -0.00000000000E+00  0.00000000000E+00  0.54274910203E+03  0.54274910203E+03  0.00000000000E+00 0.  1.
          1   -1    0    0  502    0  0.00000000000E+00 -0.00000000000E+00 -0.20429709219E+03  0.20429709219E+03  0.00000000000E+00 0. -1.
         23    2    1    2    0    0  0.69750001840E+01 -0.31148666070E+02  0.17323995050E+03  0.19852251727E+03  0.91543538222E+02 0.  0.
         23    2    1    2    0    0 -0.12219100600E+03 -0.11582240124E+03 -0.10649955113E+03  0.21882317362E+03  0.90531521293E+02 0.  0.
        -11    1    4    4    0    0 -0.60243214662E+02 -0.64296589481E+01 -0.58610076214E+02  0.84295471176E+02  0.00000000000E+00 0.  1.
         11    1    4    4    0    0 -0.61947791334E+02 -0.10939274229E+03 -0.47889474918E+02  0.13452770245E+03  0.00000000000E+00 0. -1.
        -13    1    3    3    0    0  0.31925231268E+02 -0.48381904976E+02  0.14841639461E+03  0.15933441345E+03  0.00000000000E+00 0. -1.
         13    1    3    3    0    0 -0.24950231084E+02  0.17233238906E+02  0.24823555891E+02  0.39188103825E+02  0.00000000000E+00 0.  1.
         21    1    1    2  502  501  0.11521600581E+03  0.14697106731E+03  0.27171161048E+03  0.32970050333E+03  0.00000000000E+00 0.  1.
<scales pt_clust_5="13000.00000" pt_clust_6="13000.00000" pt_clust_7="13000.00000" pt_clust_8="13000.00000" pt_clust_9="170.99115"></scales>
<clustering>
<clus scale="   90.532">  5  6 -1 -1</clus>
<clus scale="   91.544">  7  8 -1 -1</clus>
<clus scale="   96.949">  1  7  2 -1</clus>
<clus scale="  170.991">  1  9  2 -1</clus>
<clus scale="  193.478">  2  5  1 -1</clus>
</clustering>
</event>
<event>
 9    1  0.5300912E-006  0.1916937E+03  0.7546771E-02  0.1184656E+00
         -1   -1    0    0    0  501 -0.00000000000E+00  0.00000000000E+00  0.49663396037E+02  0.49663396037E+02  0.00000000000E+00 0.  1.
          1   -1    0    0  502    0  0.00000000000E+00 -0.00000000000E+00 -0.13453906125E+04  0.13453906125E+04  0.00000000000E+00 0. -1.
         23    2    1    2    0    0 -0.37799620121E+02  0.33383808268E+02 -0.90093922193E+02  0.13592418901E+03  0.88403509008E+02 0.  0.
         23    2    1    2    0    0 -0.58322849186E+02  0.12970056532E+03 -0.47737169298E+03  0.50666653011E+03  0.92754773970E+02 0.  0.
        -11    1    4    4    0    0  0.12243911951E+02  0.84906523919E+02 -0.25953137585E+03  0.27334148283E+03  0.00000000000E+00 0. -1.
         11    1    4    4    0    0 -0.70566761136E+02  0.44794041403E+02 -0.21784031713E+03  0.23332504728E+03  0.00000000000E+00 0.  1.
        -11    1    3    3    0    0 -0.38739034163E+02  0.60708057017E+02 -0.77589804688E+02  0.10586009043E+03  0.00000000000E+00 0.  1.
         11    1    3    3    0    0  0.93941404191E+00 -0.27324248749E+02 -0.12504117504E+02  0.30064098573E+02  0.00000000000E+00 0. -1.
         21    1    1    2  502  501  0.96122469307E+02 -0.16308437359E+03 -0.72826160133E+03  0.75246328946E+03  0.00000000000E+00 0. -1.
<scales pt_clust_5="13000.00000" pt_clust_6="13000.00000" pt_clust_7="13000.00000" pt_clust_8="13000.00000" pt_clust_9="167.75888"></scales>
<clustering>
<clus scale="   88.404">  7  8 -1 -1</clus>
<clus scale="   92.755">  5  6 -1 -1</clus>
<clus scale="  101.777">  1  7  2 -1</clus>
<clus scale="  167.759">  2  9  1 -1</clus>
<clus scale="  167.759">  2  5  1 -1</clus>
</clustering>
</event>
<event>
 9    1  0.5300912E-006  0.1013033E+03  0.7546771E-02  0.1279064E+00
         -1   -1    0    0    0  501 -0.00000000000E+00  0.00000000000E+00  0.96324395554E+02  0.96324395554E+02  0.00000000000E+00 0.  1.
          1   -1    0    0  502    0  0.00000000000E+00 -0.00000000000E+00 -0.15439593873E+03  0.15439593873E+03  0.00000000000E+00 0. -1.
         23    2    1    2    0    0 -0.25914929344E+02  0.30016887383E+02  0.13474938579E+02  0.10054791643E+03  0.91409586142E+02 0.  0.
         23    2    1    2    0    0 -0.28005080262E+01 -0.38228714088E+02 -0.59007767368E+02  0.11778060099E+03  0.94451447493E+02 0.  0.
        -13    1    4    4    0    0 -0.18743166422E+02 -0.96758870883E+01  0.21965256821E+02  0.30453268883E+02  0.00000000000E+00 0.  1.
         13    1    4    4    0    0  0.15942658395E+02 -0.28552827000E+02 -0.80973024189E+02  0.87327332106E+02  0.00000000000E+00 0. -1.
        -13    1    3    3    0    0 -0.57391327355E+02  0.31685005666E+02  0.19628471978E+02  0.68432309268E+02  0.00000000000E+00 0.  1.
         13    1    3    3    0    0  0.31476398011E+02 -0.16681182823E+01 -0.61535333987E+01  0.32115607166E+02  0.00000000000E+00 0. -1.
         21    1    1    2  502  501  0.28715437370E+02  0.82118267047E+01 -0.12538714392E+02  0.32391816864E+02  0.00000000000E+00 0. -1.
<scales pt_clust_5="13000.00000" pt_clust_6="13000.00000" pt_clust_7="13000.00000" pt_clust_8="13000.00000" pt_clust_9="29.86654"></scales>
<clustering>
<clus scale="   29.867">  2  9  1 -1</clus>
<clus scale="   91.410">  7  8 -1 -1</clus>
<clus scale="   94.451">  5  6 -1 -1</clus>
<clus scale="   98.473">  1  7  2 -1</clus>
<clus scale="   29.867">  2  5  1 -1</clus>
</clustering>
</event>
<event>
 9    1  0.5300912E-006  0.1369427E+03  0.7546771E-02  0.1219852E+00
         -4   -1    0    0    0  501 -0.00000000000E+00  0.00000000000E+00  0.34628725868E+03  0.34628725868E+03  0.00000000000E+00 0.  1.
          4   -1    0    0  502    0  0.00000000000E+00 -0.00000000000E+00 -0.19965220464E+03  0.19965220464E+03  0.00000000000E+00 0. -1.
         23    2    1    2    0    0  0.84374410514E+02  0.60683615808E+02  0.24015045393E+03  0.27702609891E+03  0.90937762096E+02 0.  0.
         23    2    1    2    0    0  0.35200776898E+01 -0.89510201994E+02  0.40803949057E+01  0.13444644548E+03  0.10017349885E+03 0.  0.
        -11    1    4    4    0    0  0.24084197052E+02 -0.10328485049E+03 -0.90263564302E+01  0.10643910935E+03  0.00000000000E+00 0. -1.
         11    1    4    4    0    0 -0.20564119362E+02  0.13774648498E+02  0.13106751336E+02  0.28007336127E+02  0.00000000000E+00 0.  1.
        -13    1    3    3    0    0  0.48581585633E+02 -0.16706225262E+02  0.71452877746E+02  0.88004443998E+02  0.00000000000E+00 0.  1.
         13    1    3    3    0    0  0.35792824881E+02  0.77389841070E+02  0.16869757618E+03  0.18902165491E+03  0.00000000000E+00 0. -1.
         21    1    1    2  502  501 -0.87894488204E+02  0.28826586186E+02 -0.97595794794E+02  0.13446691894E+03  0.00000000000E+00 0. -1.
<scales pt_clust_5="13000.00000" pt_clust_6="13000.00000" pt_clust_7="13000.00000" pt_clust_8="13000.00000" pt_clust_9="92.50088"></scales>
<clustering>
<clus scale="   90.938">  7  8 -1 -1</clus>
<clus scale="   92.501">  2  9  1 -1</clus>
<clus scale="  100.173">  5  6 -1 -1</clus>
<clus scale="  130.339">  1  7  2 -1</clus>
<clus scale="   92.501">  2  5  1 -1</clus>
</clustering>
</event>
<event>
 9    1  0.5300912E-006  0.2067358E+03  0.7546771E-02  0.1174906E+00
         -1   -1    0    0    0  501 -0.00000000000E+00  0.00000000000E+00  0.10944985197E+04  0.10944985197E+04  0.00000000000E+00 0.  1.
          1   -1    0    0  502    0  0.00000000000E+00 -0.00000000000E+00 -0.22228369135E+03  0.22228369135E+03  0.00000000000E+00 0. -1.
         23    2    1    2    0    0 -0.35706496707E+02  0.18264489199E+03  0.96849061592E+03  0.99041828846E+03  0.91215144168E+02 0.  0.
         23    2    1    2    0    0  0.42609345287E+02 -0.18658298280E+01  0.30409233796E+02  0.10550692524E+03  0.91585763892E+02 0.  0.
        -11    1    3    3    0    0 -0.53444417697E+02  0.56620741970E+02  0.43872959764E+03  0.44558486740E+03  0.00000000000E+00 0. -1.
         11    1    3    3    0    0  0.17737920990E+02  0.12602415002E+03  0.52976101827E+03  0.54483342107E+03  0.00000000000E+00 0.  1.
        -13    1    4    4    0    0  0.53929995707E+02 -0.35851465315E+02  0.14781527752E+02  0.66424886638E+02  0.00000000000E+00 0. -1.
         13    1    4    4    0    0 -0.11320650420E+02  0.33985635487E+02  0.15627706044E+02  0.39082038606E+02  0.00000000000E+00 0.  1.
         21    1    1    2  502  501 -0.69028485797E+01 -0.18077906216E+03 -0.12668502138E+03  0.22085699734E+03  0.00000000000E+00 0. -1.
<scales pt_clust_5="13000.00000" pt_clust_6="13000.00000" pt_clust_7="13000.00000" pt_clust_8="13000.00000" pt_clust_9="185.52487"></scales>
<clustering>
<clus scale="   91.215">  5  6 -1 -1</clus>
<clus scale="   91.586">  7  8 -1 -1</clus>
<clus scale="  101.030">  2  7  1 -1</clus>
<clus scale="  185.525">  2  9  1 -1</clus>
<clus scale="  101.030">  2  5  1 -1</clus>
</clustering>
</event>
<event>
 9    1  0.5300912E-006  0.9252325E+02  0.7546771E-02  0.1297371E+00
         -1   -1    0    0    0  501 -0.00000000000E+00  0.00000000000E+00  0.37480045773E+03  0.37480045773E+03  0.00000000000E+00 0.  1.
          1   -1    0    0  502    0  0.00000000000E+00 -0.00000000000E+00 -0.62421264110E+02  0.62421264110E+02  0.00000000000E+00 0. -1.
         23    2    1    2    0    0 -0.12358459108E+02 -0.38882193051E+01  0.12103566955E+03  0.15004385781E+03  0.87725003294E+02 0.  0.
         23    2    1    2    0    0 -0.35867652093E+02 -0.22497562463E+02  0.11249011981E+02  0.98880225790E+02  0.88646094095E+02 0.  0.
        -13    1    4    4    0    0 -0.22275665538E+02 -0.48463969674E+01 -0.38289975242E+02  0.44562484701E+02  0.00000000000E+00 0. -1.
         13    1    4    4    0    0 -0.13591986554E+02 -0.17651165496E+02  0.49538987223E+02  0.54317741089E+02  0.00000000000E+00 0.  1.
        -13    1    3    3    0    0  0.10635295717E+02  0.38751836144E+02  0.52449797704E+02  0.66074167408E+02  0.00000000000E+00 0.  1.
         13    1    3    3    0    0 -0.22993754825E+02 -0.42640055449E+02  0.68585871843E+02  0.83969690402E+02  0.00000000000E+00 0. -1.
         21    1    1    2  502  501  0.48226111201E+02  0.26385781768E+02  0.18009451209E+03  0.18829763824E+03  0.00000000000E+00 0.  1.
<scales pt_clust_5="13000.00000" pt_clust_6="13000.00000" pt_clust_7="13000.00000" pt_clust_8="13000.00000" pt_clust_9="54.97242"></scales>
<clustering>
<clus scale="   54.972">  1  9  2 -1</clus>
<clus scale="   87.725">  7  8 -1 -1</clus>
<clus scale="   88.646">  5  6 -1 -1</clus>
<clus scale="   91.641">  1  7  2 -1</clus>
<clus scale="   92.523">  2  5  1 -1</clus>
</clustering>
</event>
<event>
 9    1  0.5300912E-006  0.1046419E+03  0.7546771E-02  0.1270935E+00
          1   -1    0    0  502    0  0.00000000000E+00  0.00000000000E+00  0.76631735015E+02  0.76631735015E+02  0.00000000000E+00 0. -1.
         -1   -1    0    0    0  501 -0.00000000000E+00 -0.00000000000E+00 -0.63307404176E+03  0.63307404176E+03  0.00000000000E+00 0.  1.
         23    2    1    2    0    0 -0.37778726382E+01 -0.42724217612E+02 -0.39674981496E+03  0.40901719828E+03  0.89694045083E+02 0.  0.
         23    2    1    2    0    0  0.67204012605E+02  0.83591626356E+02 -0.17459251740E+03  0.22377933919E+03  0.89948352998E+02 0.  0.
        -11    1    3    3    0    0  0.42303834318E+02 -0.25415343966E+02 -0.17201699835E+03  0.17895642438E+03  0.00000000000E+00 0. -1.
         11    1    3    3    0    0 -0.46081706956E+02 -0.17308873646E+02 -0.22473281661E+03  0.23006077389E+03  0.00000000000E+00 0.  1.
        -13    1    4    4    0    0  0.28043933822E+02  0.80080598620E+02 -0.63630375828E+02  0.10605748077E+03  0.00000000000E+00 0. -1.
         13    1    4    4    0    0  0.39160078783E+02  0.35110277361E+01 -0.11096214158E+03  0.11772185842E+03  0.00000000000E+00 0.  1.
         21    1    1    2  502  501 -0.63426139967E+02 -0.40867408744E+02  0.14900025614E+02  0.76909239314E+02  0.00000000000E+00 0. -1.
<scales pt_clust_5="13000.00000" pt_clust_6="13000.00000" pt_clust_7="13000.00000" pt_clust_8="13000.00000" pt_clust_9="75.45211"></scales>
<clustering>
<clus scale="   75.452">  1  9  2 -1</clus>
<clus scale="   89.694">  5  6 -1 -1</clus>
<clus scale="   89.948">  7  8 -1 -1</clus>
<clus scale="  104.423">  2  5  1 -1</clus>
<clus scale="   75.452">  1  5  2 -1</clus>
</clustering>
</event>
<event>
 9    1  0.5300912E-006  0.1994981E+03  0.7546771E-02  0.1150267E+00
          1   -1    0    0  502    0  0.00000000000E+00  0.00000000000E+00  0.96110203210E+03  0.96110203210E+03  0.00000000000E+00 0. -1.
         -1   -1    0    0    0  501 -0.00000000000E+00 -0.00000000000E+00 -0.11119394334E+03  0.11119394334E+03  0.00000000000E+00 0.  1.
         23    2    1    2    0    0  0.95579204659E+01 -0.19684798152E+03  0.11049803152E+03  0.24365691503E+03  0.91205238880E+02 0.  0.
         23    2    1    2    0    0  0.57092167196E+02  0.15205306622E+03  0.16440908918E+03  0.24805751413E+03  0.90125086470E+02 0.  0.
        -13    1    3    3    0    0 -0.39285287090E+02 -0.77570046008E+02  0.31488224443E+02  0.92476775993E+02  0.00000000000E+00 0. -1.
         13    1    3    3    0    0  0.48843207556E+02 -0.11927793551E+03  0.79009807080E+02  0.15118013903E+03  0.00000000000E+00 0.  1.
        -13    1    4    4    0    0  0.66824147080E+02  0.52427486118E+02  0.64706795593E+02  0.10677582746E+03  0.00000000000E+00 0.  1.
         13    1    4    4    0    0 -0.97319798838E+01  0.99625580106E+02  0.99702293585E+02  0.14128168668E+03  0.00000000000E+00 0. -1.
         21    1    1    2  502  501 -0.66650087662E+02  0.44794915292E+02  0.57500096806E+03  0.58058154629E+03  0.00000000000E+00 0. -1.
<scales pt_clust_5="13000.00000" pt_clust_6="13000.00000" pt_clust_7="13000.00000" pt_clust_8="13000.00000" pt_clust_9="80.30454"></scales>
<clustering>
<clus scale="   80.305">  1  9  2 -1</clus>
<clus scale="   90.125">  7  8 -1 -1</clus>
<clus scale="   91.205">  5  6 -1 -1</clus>
<clus scale="  199.007">  1  7  2 -1</clus>
<clus scale="   80.305">  1  5  2 -1</clus>
</clustering>
</event>
<event>
 9    1  0.5300912E-006  0.1229892E+03  0.7546771E-02  0.1239451E+00
         -2   -1    0    0    0  501 -0.00000000000E+00  0.00000000000E+00  0.78192577469E+02  0.78192577469E+02  0.00000000000E+00 0.  1.
          2   -1    0    0  502    0  0.00000000000E+00 -0.00000000000E+00 -0.60918171630E+03  0.60918171630E+03  0.00000000000E+00 0. -1.
         23    2    1    2    0    0  0.37382997795E+02  0.87585545199E+02 -0.43590184537E+02  0.13911730306E+03  0.91568573060E+02 0.  0.
         23    2    1    2    0    0 -0.51437123134E+02 -0.34987581566E+02 -0.84867887625E+02  0.14206082645E+03  0.95440094106E+02 0.  0.
        -11    1    3    3    0    0 -0.10661063197E+02  0.75393346627E+02 -0.46919713156E+02  0.89438663154E+02  0.00000000000E+00 0.  1.
         11    1    3    3    0    0  0.48044060992E+02  0.12192198572E+02  0.33295286193E+01  0.49678639911E+02  0.00000000000E+00 0. -1.
        -13    1    4    4    0    0 -0.55730606167E+02  0.84731681013E+01 -0.12820392908E+02  0.57810531184E+02  0.00000000000E+00 0.  1.
         13    1    4    4    0    0  0.42934830330E+01 -0.43460749667E+02 -0.72047494717E+02  0.84250295271E+02  0.00000000000E+00 0. -1.
         21    1    1    2  502  501  0.14054125340E+02 -0.52597963632E+02 -0.40253106667E+03  0.40619616425E+03  0.00000000000E+00 0. -1.
<scales pt_clust_5="13000.00000" pt_clust_6="13000.00000" pt_clust_7="13000.00000" pt_clust_8="13000.00000" pt_clust_9="54.44322"></scales>
<clustering>
<clus scale="   54.443">  2  9  1 -1</clus>
<clus scale="   91.569">  5  6 -1 -1</clus>
<clus scale="   95.440">  7  8 -1 -1</clus>
<clus scale="  120.010">  1  5  2 -1</clus>
<clus scale="   54.443">  2  5  1 -1</clus>
</clustering>
</event>
<event>
 9    1  0.5300912E-006  0.2958868E+03  0.7546771E-02  0.1131132E+00
         -2   -1    0    0    0  501 -0.00000000000E+00  0.00000000000E+00  0.80512052320E+02  0.80512052320E+02  0.00000000000E+00 0.  1.
          2   -1    0    0  502    0  0.00000000000E+00 -0.00000000000E+00 -0.14793206174E+04  0.14793206174E+04  0.00000000000E+00 0. -1.
         23    2    1    2    0    0  0.74626256757E+01  0.31234207573E+02 -0.14464546568E+03  0.17400461246E+03  0.91236110778E+02 0.  0.
         23    2    1    2    0    0  0.56167408857E+02  0.26249641806E+03 -0.70585349190E+03  0.76055220821E+03  0.90284893958E+02 0.  0.
        -13    1    3    3    0    0  0.27787209053E+02  0.50988609438E+02 -0.54984059439E+02  0.79970082354E+02  0.00000000000E+00 0. -1.
         13    1    3    3    0    0 -0.20324583377E+02 -0.19754401866E+02 -0.89661406241E+02  0.94034530103E+02  0.00000000000E+00 0.  1.
        -13    1    4    4    0    0  0.35582297280E+02  0.25999101418E+03 -0.64984467493E+03  0.70082774550E+03  0.00000000000E+00 0. -1.
         13    1    4    4    0    0  0.20585111577E+02  0.25054038776E+01 -0.56008816975E+02  0.59724462712E+02  0.00000000000E+00 0.  1.
         21    1    1    2  502  501 -0.63630034533E+02 -0.29373062563E+03 -0.54830960749E+03  0.62527584904E+03  0.00000000000E+00 0.  1.
<scales pt_clust_5="13000.00000" pt_clust_6="13000.00000" pt_clust_7="13000.00000" pt_clust_8="13000.00000" pt_clust_9="281.77589"></scales>
<clustering>
<clus scale="   90.285">  7  8 -1 -1</clus>
<clus scale="   91.236">  5  6 -1 -1</clus>
<clus scale="   96.723">  1  5  2 -1</clus>
<clus scale="  281.776">  1  9  2 -1</clus>
<clus scale="  295.887">  2  5  1 -1</clus>
</clustering>
</event>
<event>
 9    1  0.5300912E-006  0.1109392E+03  0.7546771E-02  0.1259082E+00
          1   -1    0    0  502    0  0.00000000000E+00  0.00000000000E+00  0.54922112681E+03  0.54922112681E+03  0.00000000000E+00 0. -1.
         -1   -1    0    0    0  501 -0.00000000000E+00 -0.00000000000E+00 -0.76238451016E+02  0.76238451016E+02  0.00000000000E+00 0.  1.
         23    2    1    2    0    0 -0.42448060267E+02 -0.33034893170E+02 -0.16744350654E+02  0.10780996986E+03  0.91921022269E+02 0.  0.
         23    2    1    2    0    0  0.63986560081E+02  0.26241183445E+01  0.44815836554E+03  0.46182241236E+03  0.91284467936E+02 0.  0.
        -13    1    3    3    0    0 -0.30185654754E+02  0.15533849596E+02 -0.40099691153E+02  0.52540074865E+02  0.00000000000E+00 0.  1.
         13    1    3    3    0    0 -0.12262405513E+02 -0.48568742766E+02  0.23355340500E+02  0.55269894994E+02  0.00000000000E+00 0. -1.
        -13    1    4    4    0    0  0.41539297351E+02 -0.40090969503E+02  0.17066471754E+03  0.18016449393E+03  0.00000000000E+00 0.  1.
         13    1    4    4    0    0  0.22447262730E+02  0.42715087847E+02  0.27749364800E+03  0.28165791843E+03  0.00000000000E+00 0. -1.
         21    1    1    2  502  501 -0.21538499814E+02  0.30410774825E+02  0.41568660909E+02  0.55827195609E+02  0.00000000000E+00 0. -1.
<scales pt_clust_5="13000.00000" pt_clust_6="13000.00000" pt_clust_7="13000.00000" pt_clust_8="13000.00000" pt_clust_9="37.26556"></scales>
<clustering>
<clus scale="   37.266">  2  9  1 -1</clus>
<clus scale="   91.284">  7  8 -1 -1</clus>
<clus scale="   91.921">  5  6 -1 -1</clus>
<clus scale="  110.412">  1  7  2 -1</clus>
<clus scale="  110.412">  1  5  2 -1</clus>
</clustering>
</event>
<event>
 9    1  0.5300912E-006  0.1046175E+03  0.7546771E-02  0.1272078E+00
          1   -1    0    0  502    0  0.00000000000E+00  0.00000000000E+00  0.22366218116E+03  0.22366218116E+03  0.00000000000E+00 0. -1.
         -1   -1    0    0    0  501 -0.00000000000E+00 -0.00000000000E+00 -0.23629007785E+03  0.23629007785E+03  0.00000000000E+00 0.  1.
         23    2    1    2    0    0  0.26154568593E+02  0.43184827975E+02 -0.19730106973E+03  0.22257422447E+03  0.89791884136E+02 0.  0.
         23    2    1    2    0    0  0.11905891129E+02 -0.36106850244E+02  0.16735616182E+03  0.19496842194E+03  0.92515651513E+02 0.  0.
        -13    1    4    4    0    0  0.32333874519E+02 -0.20761815083E+02  0.16488102684E+03  0.16929939580E+03  0.00000000000E+00 0. -1.
         13    1    4    4    0    0 -0.20427983391E+02 -0.15345035161E+02  0.24751349806E+01  0.25669026134E+02  0.00000000000E+00 0.  1.
        -13    1    3    3    0    0 -0.85769844554E+01  0.37240194899E+02 -0.22690734583E+02  0.44443967131E+02  0.00000000000E+00 0. -1.
         13    1    3    3    0    0  0.34731553049E+02  0.59446330759E+01 -0.17461033515E+03  0.17813025734E+03  0.00000000000E+00 0.  1.
         21    1    1    2  502  501 -0.38060459722E+02 -0.70779777306E+01  0.17317011220E+02  0.42409612597E+02  0.00000000000E+00 0.  1.
<scales pt_clust_5="13000.00000" pt_clust_6="13000.00000" pt_clust_7="13000.00000" pt_clust_8="13000.00000" pt_clust_9="38.71300"></scales>
<clustering>
<clus scale="   38.713">  1  9  2 -1</clus>
<clus scale="   89.792">  7  8 -1 -1</clus>
<clus scale="   92.516">  5  6 -1 -1</clus>
<clus scale="  102.217">  2  7  1 -1</clus>
<clus scale="   38.713">  1  5  2 -1</clus>
</clustering>
</event>
<event>
 9    1  0.5300912E-006  0.1469459E+03  0.7546771E-02  0.1206682E+00
          1   -1    0    0  502    0  0.00000000000E+00  0.00000000000E+00  0.11496289098E+04  0.11496289098E+04  0.00000000000E+00 0. -1.
         -1   -1    0    0    0  501 -0.00000000000E+00 -0.00000000000E+00 -0.49369460834E+02  0.49369460834E+02  0.00000000000E+00 0.  1.
         23    2    1    2    0    0 -0.10076402848E+03 -0.17474099747E+02  0.10032248815E+03  0.17499660283E+03  0.10050112325E+03 0.  0.
         23    2    1    2    0    0  0.12437668988E+03  0.65891394956E+02  0.77032702985E+03  0.78815751274E+03  0.89315704381E+02 0.  0.
        -13    1    4    4    0    0 -0.98340368669E+01  0.24172889713E+02  0.12831196735E+03  0.13093890882E+03  0.00000000000E+00 0.  1.
         13    1    4    4    0    0  0.13421072675E+03  0.41718505242E+02  0.64201506250E+03  0.65721860391E+03  0.00000000000E+00 0. -1.
        -13    1    3    3    0    0 -0.15304177286E+02 -0.27021487414E+02  0.81156525668E+02  0.86895110812E+02  0.00000000000E+00 0. -1.
         13    1    3    3    0    0 -0.85459851196E+02  0.95473876677E+01  0.19165962486E+02  0.88101492018E+02  0.00000000000E+00 0.  1.
         21    1    1    2  502  501 -0.23612661397E+02 -0.48417295209E+02  0.22960993100E+03  0.23584425511E+03  0.00000000000E+00 0.  1.
<scales pt_clust_5="13000.00000" pt_clust_6="13000.00000" pt_clust_7="13000.00000" pt_clust_8="13000.00000" pt_clust_9="53.86829"></scales>
<clustering>
<clus scale="   53.868">  1  9  2 -1</clus>
<clus scale="   89.316">  5  6 -1 -1</clus>
<clus scale="  100.501">  7  8 -1 -1</clus>
<clus scale="  139.535">  1  5  2 -1</clus>
<clus scale="   53.868">  1  5  2 -1</clus>
</clustering>
</event>
<event>
 9    1  0.5300912E-006  0.9702361E+02  0.7546771E-02  0.1290456E+00
          2   -1    0    0  502    0  0.00000000000E+00  0.00000000000E+00  0.35900209673E+03  0.35900209673E+03  0.00000000000E+00 0. -1.
         -2   -1    0    0    0  501 -0.00000000000E+00 -0.00000000000E+00 -0.88820298089E+02  0.88820298089E+02  0.00000000000E+00 0.  1.
         23    2    1    2    0    0 -0.80241931389E+01  0.17359402131E+01 -0.42046909948E+02  0.10409829936E+03  0.94874191064E+02 0.  0.
         23    2    1    2    0    0 -0.17389371543E+02 -0.14513599858E+02  0.29867740958E+03  0.31221607171E+03  0.88077497769E+02 0.  0.
        -11    1    3    3    0    0 -0.42772337353E+02 -0.21271394660E+02 -0.44599718756E+01  0.47977457441E+02  0.00000000000E+00 0.  1.
         11    1    3    3    0    0  0.34748144214E+02  0.23007334873E+02 -0.37586938072E+02  0.56120841921E+02  0.00000000000E+00 0. -1.
        -11    1    4    4    0    0  0.10401545564E+02 -0.43711601348E+02  0.21078820326E+03  0.21552392645E+03  0.00000000000E+00 0.  1.
         11    1    4    4    0    0 -0.27790917107E+02  0.29198001490E+02  0.87889206327E+02  0.96692145252E+02  0.00000000000E+00 0. -1.
         21    1    1    2  502  501  0.25413564682E+02  0.12777659645E+02  0.13551299006E+02  0.31508023750E+02  0.00000000000E+00 0.  1.
<scales pt_clust_5="13000.00000" pt_clust_6="13000.00000" pt_clust_7="13000.00000" pt_clust_8="13000.00000" pt_clust_9="28.44500"></scales>
<clustering>
<clus scale="   28.445">  2  9  1 -1</clus>
<clus scale="   88.077">  7  8 -1 -1</clus>
<clus scale="   90.389">  1  7  2 -1</clus>
<clus scale="   94.874">  5  6 -1 -1</clus>
<clus scale="   90.389">  1  5  2 -1</clus>
</clustering>
</event>
<event>
 9    1  0.5300912E-006  0.1679545E+03  0.7546771E-02  0.1182815E+00
          1   -1    0    0  502    0  0.00000000000E+00  0.00000000000E+00  0.33196757159E+03  0.33196757159E+03  0.00000000000E+00 0. -1.
         -1   -1    0    0    0  501 -0.00000000000E+00 -0.00000000000E+00 -0.12826870028E+03  0.12826870028E+03  0.00000000000E+00 0.  1.
         23    2    1    2    0    0  0.30182729725E+01  0.15246205889E+03  0.10794338532E+03  0.20768400320E+03  0.90703260035E+02 0.  0.
         23    2    1    2    0    0 -0.65453244442E+01 -0.11152909378E+03  0.12738056154E+03  0.20070544497E+03  0.10758851309E+03 0.  0.
        -11    1    4    4    0    0  0.45294509435E+02 -0.62855898344E+02  0.94957652752E+02  0.12255371213E+03  0.00000000000E+00 0. -1.
         11    1    4    4    0    0 -0.51839833879E+02 -0.48673195434E+02  0.32422908792E+02  0.78151732834E+02  0.00000000000E+00 0.  1.
        -11    1    3    3    0    0  0.33341220337E+02  0.10377596225E+03  0.10324439516E+03  0.15013491415E+03  0.00000000000E+00 0. -1.
         11    1    3    3    0    0 -0.30322947364E+02  0.48686096639E+02  0.46989901590E+01  0.57549089057E+02  0.00000000000E+00 0.  1.
         21    1    1    2  502  501  0.35270514717E+01 -0.40932965110E+02 -0.31625075541E+02  0.51846823700E+02  0.00000000000E+00 0. -1.
<scales pt_clust_5="13000.00000" pt_clust_6="13000.00000" pt_clust_7="13000.00000" pt_clust_8="13000.00000" pt_clust_9="41.08464"></scales>
<clustering>
<clus scale="   41.085">  2  9  1 -1</clus>
<clus scale="   90.703">  7  8 -1 -1</clus>
<clus scale="  107.589">  5  6 -1 -1</clus>
<clus scale="  157.672">  2  7  1 -1</clus>
<clus scale="  167.954">  1  5  2 -1</clus>
</clustering>
</event>
<event>
 9    1  0.5300912E-006  0.9158355E+02  0.7546771E-02  0.1299091E+00
         -1   -1    0    0    0  501 -0.00000000000E+00  0.00000000000E+00  0.22729236490E+03  0.22729236490E+03  0.00000000000E+00 0.  1.
          1   -1    0    0  502    0  0.00000000000E+00 -0.00000000000E+00 -0.56537527976E+02  0.56537527976E+02  0.00000000000E+00 0. -1.
         23    2    1    2    0    0  0.67870799188E+01 -0.27231750730E+01  0.11987277283E+03  0.15040796071E+03  0.90551603200E+02 0.  0.
         23    2    1    2    0    0 -0.25136259491E+02 -0.17886236018E+02  0.40787324510E+02  0.10403921644E+03  0.90602448842E+02 0.  0.
        -11    1    4    4    0    0 -0.18613076565E+02 -0.37436619995E+02  0.61795216343E+02  0.74609623365E+02  0.00000000000E+00 0.  1.
         11    1    4    4    0    0 -0.65231829256E+01  0.19550383977E+02 -0.21007891833E+02  0.29429593072E+02  0.00000000000E+00 0. -1.
        -13    1    3    3    0    0 -0.35599989873E+01 -0.40772462615E+02  0.95882791853E+02  0.10425246795E+03  0.00000000000E+00 0.  1.
         13    1    3    3    0    0  0.10347078906E+02  0.38049287542E+02  0.23989980978E+02  0.46155492757E+02  0.00000000000E+00 0. -1.
         21    1    1    2  502  501  0.18349179572E+02  0.20609411091E+02  0.10094739584E+02  0.29382715731E+02  0.00000000000E+00 0. -1.
<scales pt_clust_5="13000.00000" pt_clust_6="13000.00000" pt_clust_7="13000.00000" pt_clust_8="13000.00000" pt_clust_9="27.59421"></scales>
<clustering>
<clus scale="   27.594">  2  9  1 -1</clus>
<clus scale="   90.552">  7  8 -1 -1</clus>
<clus scale="   90.602">  5  6 -1 -1</clus>
<clus scale="   91.533">  1  7  2 -1</clus>
<clus scale="   27.594">  2  5  1 -1</clus>
</clustering>
</event>
<event>
 9    1  0.5300912E-006  0.1094494E+03  0.7546771E-02  0.1263842E+00
          4   -1    0    0  502    0  0.00000000000E+00  0.00000000000E+00  0.14998961807E+03  0.14998961807E+03  0.00000000000E+00 0. -1.
         -4   -1    0    0    0  501 -0.00000000000E+00 -0.00000000000E+00 -0.14122008907E+03  0.14122008907E+03  0.00000000000E+00 0.  1.
         23    2    1    2    0    0  0.20846059474E+02 -0.21687025299E+01 -0.49571722812E+02  0.10943842683E+03  0.95289832080E+02 0.  0.
         23    2    1    2    0    0 -0.63991581344E+02  0.17853416972E+02  0.73132636763E+02  0.13353922257E+03  0.89836932412E+02 0.  0.
        -13    1    4    4    0    0 -0.71175958093E+02 -0.81262822695E+00  0.84538700779E+02  0.11051456603E+03  0.00000000000E+00 0. -1.
         13    1    4    4    0    0  0.71843767491E+01  0.18666045199E+02 -0.11406064017E+02  0.23024656545E+02  0.00000000000E+00 0.  1.
        -13    1    3    3    0    0 -0.23782644849E+02  0.32998253994E+02 -0.22769504822E+02  0.46614904403E+02  0.00000000000E+00 0.  1.
         13    1    3    3    0    0  0.44628704323E+02 -0.35166956524E+02 -0.26802217990E+02  0.62823522425E+02  0.00000000000E+00 0. -1.
         21    1    1    2  502  501  0.43145521870E+02 -0.15684714442E+02 -0.14791384958E+02  0.48232057737E+02  0.00000000000E+00 0. -1.
<scales pt_clust_5="13000.00000" pt_clust_6="13000.00000" pt_clust_7="13000.00000" pt_clust_8="13000.00000" pt_clust_9="45.90802"></scales>
<clustering>
<clus scale="   45.908">  2  9  1 -1</clus>
<clus scale="   89.837">  5  6 -1 -1</clus>
<clus scale="   95.290">  7  8 -1 -1</clus>
<clus scale="  104.736">  1  5  2 -1</clus>
<clus scale="  104.736">  1  5  2 -1</clus>
</clustering>
</event>
<event>
 9    1  0.5300912E-006  0.1100784E+03  0.7546771E-02  0.1260628E+00
          1   -1    0    0  502    0  0.00000000000E+00  0.00000000000E+00  0.19077954718E+03  0.19077954718E+03  0.00000000000E+00 0. -1.
         -1   -1    0    0    0  501 -0.00000000000E+00 -0.00000000000E+00 -0.20504519743E+03  0.20504519743E+03  0.00000000000E+00 0.  1.
         23    2    1    2    0    0 -0.41316705288E+02  0.41551918925E+02 -0.78442013136E+01  0.11080858632E+03  0.93719684198E+02 0.  0.
         23    2    1    2    0    0 -0.51641297309E+02 -0.61251266372E+02  0.87919852070E+02  0.15111494242E+03  0.93205601835E+02 0.  0.
        -11    1    4    4    0    0  0.54639330338E+01 -0.55795355034E+02  0.14435579190E+02  0.57890950537E+02  0.00000000000E+00 0.  1.
         11    1    4    4    0    0 -0.57105230343E+02 -0.54559113381E+01  0.73484272880E+02  0.93223991879E+02  0.00000000000E+00 0. -1.
        -13    1    3    3    0    0 -0.32071446357E+02 -0.18548442080E+02  0.21982920110E+02  0.43079823022E+02  0.00000000000E+00 0. -1.
         13    1    3    3    0    0 -0.92452589303E+01  0.60100361005E+02 -0.29827121423E+02  0.67728763299E+02  0.00000000000E+00 0.  1.
         21    1    1    2  502  501  0.92958002597E+02  0.19699347447E+02 -0.94341301005E+02  0.13390121587E+03  0.00000000000E+00 0.  1.
<scales pt_clust_5="13000.00000" pt_clust_6="13000.00000" pt_clust_7="13000.00000" pt_clust_8="13000.00000" pt_clust_9="95.02239"></scales>
<clustering>
<clus scale="   93.206">  5  6 -1 -1</clus>
<clus scale="   93.720">  7  8 -1 -1</clus>
<clus scale="   95.022">  2  9  1 -1</clus>
<clus scale="  109.641">  1  5  2 -1</clus>
<clus scale="  109.641">  1  5  2 -1</clus>
</clustering>
</event>
<event>
 9    1  0.5300912E-006  0.9504439E+02  0.7546771E-02  0.1293105E+00
          1   -1    0    0  502    0  0.00000000000E+00  0.00000000000E+00  0.87059270317E+02  0.87059270317E+02  0.00000000000E+00 0. -1.
         -1   -1    0    0    0  501 -0.00000000000E+00 -0.00000000000E+00 -0.21386138297E+03  0.21386138297E+03  0.00000000000E+00 0.  1.
         23    2    1    2    0    0  0.26290627690E+02 -0.13749358335E+02 -0.13864594849E+03  0.16664707433E+03  0.87568866554E+02 0.  0.
         23    2    1    2    0    0 -0.24688834496E+02 -0.20672507246E+02 -0.28544730329E+01  0.96810652551E+02  0.91253840064E+02 0.  0.
        -11    1    4    4    0    0 -0.35680234569E+02 -0.51290947988E+02  0.68687526745E+01  0.62857141581E+02  0.00000000000E+00 0. -1.
         11    1    4    4    0    0  0.10991400072E+02  0.30618440742E+02 -0.97232257074E+01  0.33953510970E+02  0.00000000000E+00 0.  1.
        -11    1    3    3    0    0 -0.11489176011E+02 -0.42914712315E+02 -0.60101624008E+02  0.74738737659E+02  0.00000000000E+00 0. -1.
         11    1    3    3    0    0  0.37779803700E+02  0.29165353980E+02 -0.78544324482E+02  0.91908336666E+02  0.00000000000E+00 0.  1.
         21    1    1    2  502  501 -0.16017931933E+01  0.34421865581E+02  0.14698308871E+02  0.37462926409E+02  0.00000000000E+00 0. -1.
<scales pt_clust_5="13000.00000" pt_clust_6="13000.00000" pt_clust_7="13000.00000" pt_clust_8="13000.00000" pt_clust_9="34.45911"></scales>
<clustering>
<clus scale="   34.459">  1  9  2 -1</clus>
<clus scale="   87.569">  7  8 -1 -1</clus>
<clus scale="   91.254">  5  6 -1 -1</clus>
<clus scale="   91.512">  2  7  1 -1</clus>
<clus scale="   34.459">  1  5  2 -1</clus>
</clustering>
</event>
<event>
 9    1  0.5992429E-006  0.1012231E+03  0.7546771E-02  0.1277983E+00
          2   -1    0    0  502    0  0.00000000000E+00  0.00000000000E+00  0.24922208181E+03  0.24922208181E+03  0.00000000000E+00 0. -1.
         -2   -1    0    0    0  501 -0.00000000000E+00 -0.00000000000E+00 -0.59548253432E+03  0.59548253432E+03  0.00000000000E+00 0.  1.
         23    2    1    2    0    0 -0.10243455206E+03 -0.22044108392E+02 -0.81411840542E+02  0.16147415822E+03  0.92017584302E+02 0.  0.
         23    2    1    2    0    0  0.21854859247E+02 -0.35662791435E+02  0.19145627386E+03  0.21628579094E+03  0.91512671233E+02 0.  0.
        -11    1    3    3    0    0 -0.34492662760E+02  0.25724423779E+02 -0.63183189662E+02  0.76443477282E+02  0.00000000000E+00 0.  1.
         11    1    3    3    0    0 -0.67941889298E+02 -0.47768532171E+02 -0.18228650880E+02  0.85030680933E+02  0.00000000000E+00 0. -1.
        -11    1    4    4    0    0  0.55535294398E+02 -0.62733530670E+01  0.10376487662E+03  0.11785870143E+03  0.00000000000E+00 0.  1.
         11    1    4    4    0    0 -0.33680435151E+02 -0.29389438368E+02  0.87691397241E+02  0.98427089511E+02  0.00000000000E+00 0. -1.
         21    1    1    2  502  501  0.80579692811E+02  0.57706899827E+02 -0.45630488583E+03  0.46694466697E+03  0.00000000000E+00 0.  1.
<scales pt_clust_5="13000.00000" pt_clust_6="13000.00000" pt_clust_7="13000.00000" pt_clust_8="13000.00000" pt_clust_9="99.11192"></scales>
<clustering>
<clus scale="   91.513">  7  8 -1 -1</clus>
<clus scale="   92.018">  5  6 -1 -1</clus>
<clus scale="   99.112">  2  9  1 -1</clus>
<clus scale="  100.764">  1  7  2 -1</clus>
<clus scale="  100.764">  1  5  2 -1</clus>
</clustering>
</event>
<event>
 9    1  0.5300912E-006  0.9893293E+02  0.7546771E-02  0.1283253E+00
         -1   -1    0    0    0  501 -0.00000000000E+00  0.00000000000E+00  0.10060355913E+03  0.10060355913E+03  0.00000000000E+00 0.  1.
          1   -1    0    0  502    0  0.00000000000E+00 -0.00000000000E+00 -0.22097122543E+03  0.22097122543E+03  0.00000000000E+00 0. -1.
         23    2    1    2    0    0  0.70229136429E+02  0.18689778307E+02 -0.75762228624E+01  0.11572921423E+03  0.89746378518E+02 0.  0.
         23    2    1    2    0    0 -0.24271935616E+02  0.23808922167E+02 -0.10437465682E+03  0.14268667432E+03  0.91156055246E+02 0.  0.
        -11    1    3    3    0    0  0.39544528919E+02 -0.23687856095E+01  0.39349794984E+02  0.55837149623E+02  0.00000000000E+00 0.  1.
         11    1    3    3    0    0  0.30684607509E+02  0.21058563917E+02 -0.46926017846E+02  0.59892064609E+02  0.00000000000E+00 0. -1.
        -11    1    4    4    0    0 -0.15498471939E+02 -0.34556373500E+02 -0.47170865484E+02  0.60493273448E+02  0.00000000000E+00 0. -1.
         11    1    4    4    0    0 -0.87734636770E+01  0.58365295667E+02 -0.57203791334E+02  0.82193400868E+02  0.00000000000E+00 0.  1.
         21    1    1    2  502  501 -0.45957200813E+02 -0.42498700474E+02 -0.84167866129E+01  0.63158896012E+02  0.00000000000E+00 0.  1.
<scales pt_clust_5="13000.00000" pt_clust_6="13000.00000" pt_clust_7="13000.00000" pt_clust_8="13000.00000" pt_clust_9="62.59556"></scales>
<clustering>
<clus scale="   62.596">  1  9  2 -1</clus>
<clus scale="   89.746">  5  6 -1 -1</clus>
<clus scale="   91.156">  7  8 -1 -1</clus>
<clus scale="   97.636">  1  5  2 -1</clus>
<clus scale="   98.933">  2  5  1 -1</clus>
</clustering>
</event>
<event>
 9    1  0.5300912E-006  0.1666084E+03  0.7546771E-02  0.1201211E+00
          1   -1    0    0  502    0  0.00000000000E+00  0.00000000000E+00  0.31756877423E+03  0.31756877423E+03  0.00000000000E+00 0. -1.
         -1   -1    0    0    0  501 -0.00000000000E+00 -0.00000000000E+00 -0.16036525477E+03  0.16036525477E+03  0.00000000000E+00 0.  1.
         23    2    1    2    0    0  0.11605370736E+03 -0.11232460684E+03  0.10835595063E+02  0.18598111117E+03  0.91576652574E+02 0.  0.
         23    2    1    2    0    0 -0.21265488305E+01  0.59348316693E+02  0.12413285876E+03  0.16435870593E+03  0.89878099025E+02 0.  0.
        -11    1    4    4    0    0 -0.35834947992E+02 -0.31382152411E+01  0.32843574060E+02  0.48710288950E+02  0.00000000000E+00 0. -1.
         11    1    4    4    0    0  0.33708399162E+02  0.62486531934E+02  0.91289284705E+02  0.11564841698E+03  0.00000000000E+00 0.  1.
        -13    1    3    3    0    0  0.12375976881E+03 -0.83209965011E+02  0.27371236868E+02  0.15162309607E+03  0.00000000000E+00 0.  1.
         13    1    3    3    0    0 -0.77060614463E+01 -0.29114641829E+02 -0.16535641805E+02  0.34358015102E+02  0.00000000000E+00 0. -1.
         21    1    1    2  502  501 -0.11392715853E+03  0.52976290147E+02  0.22235065630E+02  0.12759421191E+03  0.00000000000E+00 0. -1.
<scales pt_clust_5="13000.00000" pt_clust_6="13000.00000" pt_clust_7="13000.00000" pt_clust_8="13000.00000" pt_clust_9="139.18355"></scales>
<clustering>
<clus scale="   89.878">  5  6 -1 -1</clus>
<clus scale="   91.577">  7  8 -1 -1</clus>
<clus scale="  107.726">  1  5  2 -1</clus>
<clus scale="  139.184">  2  9  1 -1</clus>
<clus scale="  107.726">  1  5  2 -1</clus>
</clustering>
</event>
<event>
 9    1  0.5300912E-006  0.1185491E+03  0.7546771E-02  0.1246515E+00
         -1   -1    0    0    0  501 -0.00000000000E+00  0.00000000000E+00  0.29562160283E+03  0.29562160283E+03  0.00000000000E+00 0.  1.
          1   -1    0    0  502    0  0.00000000000E+00 -0.00000000000E+00 -0.25482701393E+03  0.25482701393E+03  0.00000000000E+00 0. -1.
         23    2    1    2    0    0  0.28824241475E+02  0.95992327455E+02  0.23726448302E+03  0.27314370599E+03  0.90926813389E+02 0.  0.
         23    2    1    2    0    0 -0.41156159593E+01 -0.70662442961E+02 -0.20895275001E+03  0.23978237201E+03  0.93937293169E+02 0.  0.
        -13    1    3    3    0    0  0.24886415285E+02  0.62218320424E+02  0.52095721619E+02  0.84878838783E+02  0.00000000000E+00 0. -1.
         13    1    3    3    0    0  0.39378261898E+01  0.33774007031E+02  0.18516876141E+03  0.18826486721E+03  0.00000000000E+00 0.  1.
        -13    1    4    4    0    0  0.29974616006E+02  0.75123413841E+01 -0.40213651214E+02  0.50715388412E+02  0.00000000000E+00 0.  1.
         13    1    4    4    0    0 -0.34090231965E+02 -0.78174784345E+02 -0.16873909880E+03  0.18906698359E+03  0.00000000000E+00 0. -1.
         21    1    1    2  502  501 -0.24708625515E+02 -0.25329884494E+02  0.12482855885E+02  0.37522538752E+02  0.00000000000E+00 0. -1.
<scales pt_clust_5="13000.00000" pt_clust_6="13000.00000" pt_clust_7="13000.00000" pt_clust_8="13000.00000" pt_clust_9="35.38530"></scales>
<clustering>
<clus scale="   35.385">  1  9  2 -1</clus>
<clus scale="   90.927">  5  6 -1 -1</clus>
<clus scale="   93.937">  7  8 -1 -1</clus>
<clus scale="  116.178">  1  5  2 -1</clus>
<clus scale="  118.549">  2  5  1 -1</clus>
</clustering>
</event>
<event>
 9    1  0.5300912E-006  0.1119630E+03  0.7546771E-02  0.1266377E+00
          2   -1    0    0  502    0  0.00000000000E+00  0.00000000000E+00  0.78536230414E+03  0.78536230414E+03  0.00000000000E+00 0. -1.
         -2   -1    0    0    0  501 -0.00000000000E+00 -0.00000000000E+00 -0.27411928846E+02  0.27411928846E+02  0.00000000000E+00 0.  1.
         23    2    1    2    0    0 -0.26719512712E+02  0.29135278952E+02  0.31078504122E+03  0.32595949003E+03  0.89996946935E+02 0.  0.
         23    2    1    2    0    0 -0.41350785537E-01 -0.12522514998E+02  0.44123642281E+03  0.45476353813E+03  0.10937769295E+03 0.  0.
        -11    1    4    4    0    0  0.54077975803E+02 -0.12319207824E+02  0.20145841963E+03  0.20895378720E+03  0.00000000000E+00 0.  1.
         11    1    4    4    0    0 -0.54119326588E+02 -0.20330717432E+00  0.23977800318E+03  0.24580975093E+03  0.00000000000E+00 0. -1.
        -11    1    3    3    0    0 -0.17588005194E+01 -0.32108075325E+02  0.10000281090E+03  0.10504562851E+03  0.00000000000E+00 0.  1.
         11    1    3    3    0    0 -0.24960712193E+02  0.61243354278E+02  0.21078223032E+03  0.22091386152E+03  0.00000000000E+00 0. -1.
         21    1    1    2  502  501  0.26760863498E+02 -0.16612763954E+02  0.59289112653E+01  0.32051204815E+02  0.00000000000E+00 0.  1.
<scales pt_clust_5="13000.00000" pt_clust_6="13000.00000" pt_clust_7="13000.00000" pt_clust_8="13000.00000" pt_clust_9="31.49806"></scales>
<clustering>
<clus scale="   31.498">  2  9  1 -1</clus>
<clus scale="   89.997">  7  8 -1 -1</clus>
<clus scale="   93.122">  2  7  1 -1</clus>
<clus scale="  109.378">  5  6 -1 -1</clus>
<clus scale="  111.963">  1  5  2 -1</clus>
</clustering>
</event>
<event>
 9    1  0.5300912E-006  0.9425055E+02  0.7546771E-02  0.1299761E+00
         -1   -1    0    0    0  501 -0.00000000000E+00  0.00000000000E+00  0.30335733976E+03  0.30335733976E+03  0.00000000000E+00 0.  1.
          1   -1    0    0  502    0  0.00000000000E+00 -0.00000000000E+00 -0.80424952702E+02  0.80424952702E+02  0.00000000000E+00 0. -1.
         23    2    1    2    0    0  0.74077438490E+01 -0.58203517940E+01  0.24308501872E+03  0.26062753724E+03  0.93528795978E+02 0.  0.
         23    2    1    2    0    0 -0.83395844155E+01  0.31250093928E+02 -0.33511092052E+02  0.94414738247E+02  0.82128146631E+02 0.  0.
        -13    1    3    3    0    0 -0.31365071286E+02 -0.29976153873E+02  0.16038239728E+03  0.16614707597E+03  0.00000000000E+00 0.  1.
         13    1    3    3    0    0  0.38772815135E+02  0.24155802079E+02  0.82702621440E+02  0.94480461264E+02  0.00000000000E+00 0. -1.
        -13    1    4    4    0    0 -0.18905210438E+02 -0.22758969574E+02  0.73603535012E+00  0.29595935968E+02  0.00000000000E+00 0.  1.
         13    1    4    4    0    0  0.10565626022E+02  0.54009063503E+02 -0.34247127402E+02  0.64818802280E+02  0.00000000000E+00 0. -1.
         21    1    1    2  502  501  0.93184056648E+00 -0.25429742134E+02  0.13358460395E+02  0.28740016980E+02  0.00000000000E+00 0. -1.
<scales pt_clust_5="13000.00000" pt_clust_6="13000.00000" pt_clust_7="13000.00000" pt_clust_8="13000.00000" pt_clust_9="25.44681"></scales>
<clustering>
<clus scale="   25.447">  2  9  1 -1</clus>
<clus scale="   82.128">  7  8 -1 -1</clus>
<clus scale="   82.949">  2  7  1 -1</clus>
<clus scale="   93.529">  5  6 -1 -1</clus>
<clus scale="   25.447">  2  5  1 -1</clus>
</clustering>
</event>
<event>
 9    1  0.5300912E-006  0.1240423E+03  0.7546771E-02  0.1236595E+00
          2   -1    0    0  502    0  0.00000000000E+00  0.00000000000E+00  0.57674487093E+03  0.57674487093E+03  0.00000000000E+00 0. -1.
         -2   -1    0    0    0  501 -0.00000000000E+00 -0.00000000000E+00 -0.49039636156E+02  0.49039636156E+02  0.00000000000E+00 0.  1.
         23    2    1    2    0    0  0.31114732386E+02  0.53114910042E+02  0.12403951696E+03  0.16569859357E+03  0.90999461015E+02 0.  0.
         23    2    1    2    0    0 -0.66378702857E+02 -0.70225030745E+02  0.39915676197E+03  0.42063170554E+03  0.90924275896E+02 0.  0.
        -13    1    4    4    0    0 -0.62354239899E+02 -0.56970910250E+01  0.25610601837E+03  0.26364901048E+03  0.00000000000E+00 0. -1.
         13    1    4    4    0    0 -0.40244629578E+01 -0.64527939720E+02  0.14305074359E+03  0.15698269506E+03  0.00000000000E+00 0.  1.
        -13    1    3    3    0    0  0.60644761262E+02  0.52205025100E+02  0.84993910975E+02  0.11673524154E+03  0.00000000000E+00 0.  1.
         13    1    3    3    0    0 -0.29530028876E+02  0.90988494189E+00  0.39045605981E+02  0.48963352034E+02  0.00000000000E+00 0. -1.
         21    1    1    2  502  501  0.35263970471E+02  0.17110120703E+02  0.45089558525E+01  0.39454207973E+02  0.00000000000E+00 0.  1.
<scales pt_clust_5="13000.00000" pt_clust_6="13000.00000" pt_clust_7="13000.00000" pt_clust_8="13000.00000" pt_clust_9="39.19571"></scales>
<clustering>
<clus scale="   39.196">  2  9  1 -1</clus>
<clus scale="   90.924">  5  6 -1 -1</clus>
<clus scale="   90.999">  7  8 -1 -1</clus>
<clus scale="  123.987">  1  5  2 -1</clus>
<clus scale="  123.987">  1  5  2 -1</clus>
</clustering>
</event>
<event>
 9    1  0.5300912E-006  0.3239211E+03  0.7546771E-02  0.1120831E+00
         -2   -1    0    0    0  501 -0.00000000000E+00  0.00000000000E+00  0.32555428907E+03  0.32555428907E+03  0.00000000000E+00 0.  1.
          2   -1    0    0  502    0  0.00000000000E+00 -0.00000000000E+00 -0.58999081620E+03  0.58999081620E+03  0.00000000000E+00 0. -1.
         23    2    1    2    0    0  0.17175992970E+03 -0.27941566072E+03 -0.17827953496E+03  0.38433620564E+03  0.91411932892E+02 0.  0.
         23    2    1    2    0    0 -0.39861567030E+01  0.25785730341E+02 -0.18784866804E+03  0.21055741057E+03  0.91468616063E+02 0.  0.
        -13    1    3    3    0    0  0.10785958547E+03 -0.10985666068E+03 -0.48355869622E+02  0.16137058654E+03  0.00000000000E+00 0.  1.
         13    1    3    3    0    0  0.63900344238E+02 -0.16955900004E+03 -0.12992366533E+03  0.22296561910E+03  0.00000000000E+00 0. -1.
        -13    1    4    4    0    0  0.39443116108E+02 -0.70108222639E+01 -0.67839676226E+02  0.78785358459E+02  0.00000000000E+00 0.  1.
         13    1    4    4    0    0 -0.43429272811E+02  0.32796552605E+02 -0.12000899182E+03  0.13177205211E+03  0.00000000000E+00 0. -1.
         21    1    1    2  502  501 -0.16777377300E+03  0.25362993038E+03  0.10169167587E+03  0.32065148905E+03  0.00000000000E+00 0.  1.
<scales pt_clust_5="13000.00000" pt_clust_6="13000.00000" pt_clust_7="13000.00000" pt_clust_8="13000.00000" pt_clust_9="310.75510"></scales>
<clustering>
<clus scale="   91.412">  5  6 -1 -1</clus>
<clus scale="   91.469">  7  8 -1 -1</clus>
<clus scale="   95.117">  2  7  1 -1</clus>
<clus scale="  310.755">  1  9  2 -1</clus>
<clus scale="   95.117">  2  5  1 -1</clus>
</clustering>
</event>
<event>
 9    1  0.7182398E-006  0.2680385E+03  0.7546771E-02  0.1102437E+00
          2   -1    0    0  502    0  0.00000000000E+00  0.00000000000E+00  0.36302737380E+03  0.36302737380E+03  0.00000000000E+00 0. -1.
         -2   -1    0    0    0  501 -0.00000000000E+00 -0.00000000000E+00 -0.53528473555E+03  0.53528473555E+03  0.00000000000E+00 0.  1.
         23    2    1    2    0    0  0.83203771266E+02 -0.26274678379E+03 -0.40101671077E+03  0.49514743202E+03  0.91639713969E+02 0.  0.
         23    2    1    2    0    0 -0.34842145090E+01  0.18107051929E+03  0.85495183107E+02  0.21999579037E+03  0.91049704774E+02 0.  0.
        -11    1    4    4    0    0 -0.15089286975E+02  0.13871690238E+02  0.42167109601E+02  0.46884704367E+02  0.00000000000E+00 0.  1.
         11    1    4    4    0    0  0.11605072466E+02  0.16719882905E+03  0.43328073506E+02  0.17311108600E+03  0.00000000000E+00 0. -1.
        -13    1    3    3    0    0  0.77575684484E+02 -0.22641465767E+03 -0.27838798807E+03  0.36712594015E+03  0.00000000000E+00 0.  1.
         13    1    3    3    0    0  0.56280867828E+01 -0.36332126119E+02 -0.12262872270E+03  0.12802149187E+03  0.00000000000E+00 0. -1.
         21    1    1    2  502  501 -0.79719556757E+02  0.81676264500E+02  0.14326416592E+03  0.18316888695E+03  0.00000000000E+00 0. -1.
<scales pt_clust_5="13000.00000" pt_clust_6="13000.00000" pt_clust_7="13000.00000" pt_clust_8="13000.00000" pt_clust_9="114.13247"></scales>
<clustering>
<clus scale="   91.050">  5  6 -1 -1</clus>
<clus scale="   91.640">  7  8 -1 -1</clus>
<clus scale="  114.132">  1  9  2 -1</clus>
<clus scale="  267.837">  1  5  2 -1</clus>
<clus scale="  114.132">  1  5  2 -1</clus>
</clustering>
</event>
<event>
 9    1  0.5300912E-006  0.3231019E+03  0.7546771E-02  0.1115839E+00
         -1   -1    0    0    0  501 -0.00000000000E+00  0.00000000000E+00  0.17794816059E+03  0.17794816059E+03  0.00000000000E+00 0.  1.
          1   -1    0    0  502    0  0.00000000000E+00 -0.00000000000E+00 -0.11593201049E+04  0.11593201049E+04  0.00000000000E+00 0. -1.
         23    2    1    2    0    0 -0.30167159654E+03 -0.13426669943E+03 -0.61162633575E+03  0.70143792821E+03  0.94313804972E+02 0.  0.
         23    2    1    2    0    0  0.41338383451E+02 -0.21846300900E+02 -0.30728038748E+03  0.32591655164E+03  0.98052227355E+02 0.  0.
        -11    1    3    3    0    0 -0.10604047432E+03 -0.37966459823E+02 -0.30544060014E+03  0.32554568723E+03  0.00000000000E+00 0.  1.
         11    1    3    3    0    0 -0.19563112222E+03 -0.96300239606E+02 -0.30618573561E+03  0.37589224097E+03  0.00000000000E+00 0. -1.
        -13    1    4    4    0    0  0.21795473414E+02 -0.60799574261E+02 -0.19793280744E+03  0.20820429187E+03  0.00000000000E+00 0. -1.
         13    1    4    4    0    0  0.19542910037E+02  0.38953273361E+02 -0.10934758005E+03  0.11771225977E+03  0.00000000000E+00 0.  1.
         21    1    1    2  502  501  0.26033321309E+03  0.15611300033E+03 -0.62465221109E+02  0.30991378569E+03  0.00000000000E+00 0.  1.
<scales pt_clust_5="13000.00000" pt_clust_6="13000.00000" pt_clust_7="13000.00000" pt_clust_8="13000.00000" pt_clust_9="309.03028"></scales>
<clustering>
<clus scale="   94.314">  5  6 -1 -1</clus>
<clus scale="   98.052">  7  8 -1 -1</clus>
<clus scale="  108.629">  2  7  1 -1</clus>
<clus scale="  309.030">  1  9  2 -1</clus>
<clus scale="  108.629">  2  5  1 -1</clus>
</clustering>
</event>
<event>
 9    1  0.5300912E-006  0.1275559E+03  0.7546771E-02  0.1236704E+00
         -2   -1    0    0    0  501 -0.00000000000E+00  0.00000000000E+00  0.14824831407E+03  0.14824831407E+03  0.00000000000E+00 0.  1.
          2   -1    0    0  502    0  0.00000000000E+00 -0.00000000000E+00 -0.23730634952E+03  0.23730634952E+03  0.00000000000E+00 0. -1.
         23    2    1    2    0    0  0.21002814823E+02  0.13610062213E+02  0.76235062996E+02  0.12322224316E+03  0.93517829081E+02 0.  0.
         23    2    1    2    0    0 -0.41490564031E+02 -0.62133336429E+02 -0.16205323852E+03  0.20956166431E+03  0.10987638798E+03 0.  0.
        -13    1    4    4    0    0 -0.20655951151E+02  0.32278854507E+01  0.10844198110E+02  0.23551734439E+02  0.00000000000E+00 0.  1.
         13    1    4    4    0    0 -0.20834612880E+02 -0.65361221880E+02 -0.17289743663E+03  0.18600992988E+03  0.00000000000E+00 0. -1.
        -13    1    3    3    0    0  0.34866183364E+02  0.47843107631E+02  0.39753510343E+02  0.71308872343E+02  0.00000000000E+00 0.  1.
         13    1    3    3    0    0 -0.13863368541E+02 -0.34233045418E+02  0.36481552653E+02  0.51913370820E+02  0.00000000000E+00 0. -1.
         21    1    1    2  502  501  0.20487749208E+02  0.48523274216E+02 -0.32398599285E+01  0.52770756112E+02  0.00000000000E+00 0.  1.
<scales pt_clust_5="13000.00000" pt_clust_6="13000.00000" pt_clust_7="13000.00000" pt_clust_8="13000.00000" pt_clust_9="52.67121"></scales>
<clustering>
<clus scale="   52.671">  1  9  2 -1</clus>
<clus scale="   93.518">  7  8 -1 -1</clus>
<clus scale="  109.876">  5  6 -1 -1</clus>
<clus scale="  113.769">  1  7  2 -1</clus>
<clus scale="  127.556">  2  5  1 -1</clus>
</clustering>
</event>
<event>
 9    1  0.5300912E-006  0.2583263E+03  0.7546771E-02  0.1129150E+00
          1   -1    0    0  502    0  0.00000000000E+00  0.00000000000E+00  0.13803455049E+04  0.13803455049E+04  0.00000000000E+00 0. -1.
         -1   -1    0    0    0  501 -0.00000000000E+00 -0.00000000000E+00 -0.13374339746E+03  0.13374339746E+03  0.00000000000E+00 0.  1.
         23    2    1    2    0    0 -0.20892614982E+03  0.16543131677E+03  0.77972302726E+03  0.83309436765E+03  0.12272151210E+03 0.  0.
         23    2    1    2    0    0 -0.11624389848E+02 -0.12150548242E+03  0.42589864594E+03  0.45240884954E+03  0.91571839768E+02 0.  0.
        -13    1    3    3    0    0 -0.15853528195E+03  0.49980219224E+02  0.40594062970E+03  0.43865618972E+03  0.00000000000E+00 0.  1.
         13    1    3    3    0    0 -0.50390867874E+02  0.11545109754E+03  0.37378239756E+03  0.39443817794E+03  0.00000000000E+00 0. -1.
        -13    1    4    4    0    0 -0.44009880636E+02 -0.10516378033E+03  0.35355458133E+03  0.37147965256E+03  0.00000000000E+00 0. -1.
         13    1    4    4    0    0  0.32385490788E+02 -0.16341702090E+02  0.72344064605E+02  0.80929196983E+02  0.00000000000E+00 0.  1.
         21    1    1    2  502  501  0.22055053967E+03 -0.43925834353E+02  0.40980434236E+02  0.22858568516E+03  0.00000000000E+00 0.  1.
<scales pt_clust_5="13000.00000" pt_clust_6="13000.00000" pt_clust_7="13000.00000" pt_clust_8="13000.00000" pt_clust_9="227.31454"></scales>
<clustering>
<clus scale="   91.572">  7  8 -1 -1</clus>
<clus scale="  122.722">  5  6 -1 -1</clus>
<clus scale="  152.591">  1  7  2 -1</clus>
<clus scale="  227.315">  2  9  1 -1</clus>
<clus scale="  152.591">  1  5  2 -1</clus>
</clustering>
</event>
<event>
 9    1  0.5300912E-006  0.1156178E+03  0.7546771E-02  0.1252088E+00
          1   -1    0    0  502    0  0.00000000000E+00  0.00000000000E+00  0.10620304815E+03  0.10620304815E+03  0.00000000000E+00 0. -1.
         -1   -1    0    0    0  501 -0.00000000000E+00 -0.00000000000E+00 -0.23228930665E+03  0.23228930665E+03  0.00000000000E+00 0.  1.
         23    2    1    2    0    0  0.62711880767E+02  0.40072358243E+02 -0.49982671912E+02  0.12705431622E+03  0.90033093329E+02 0.  0.
         23    2    1    2    0    0 -0.69100159317E+02  0.19282428689E+02 -0.51697887720E+01  0.11872663416E+03  0.94459742060E+02 0.  0.
        -13    1    4    4    0    0 -0.51537577658E+02 -0.34074906385E+02 -0.89388092261E+01  0.62426945035E+02  0.00000000000E+00 0.  1.
         13    1    4    4    0    0 -0.17562581658E+02  0.53357335074E+02  0.37690204541E+01  0.56299689128E+02  0.00000000000E+00 0. -1.
        -13    1    3    3    0    0  0.31240042826E+02 -0.25816267302E+02 -0.32557848781E+02  0.51984934841E+02  0.00000000000E+00 0.  1.
         13    1    3    3    0    0  0.31471837941E+02  0.65888625545E+02 -0.17424823131E+02  0.75069381380E+02  0.00000000000E+00 0. -1.
         21    1    1    2  502  501  0.63882785498E+01 -0.59354786931E+02 -0.70933797816E+02  0.92711404407E+02  0.00000000000E+00 0.  1.
<scales pt_clust_5="13000.00000" pt_clust_6="13000.00000" pt_clust_7="13000.00000" pt_clust_8="13000.00000" pt_clust_9="59.69758"></scales>
<clustering>
<clus scale="   59.698">  2  9  1 -1</clus>
<clus scale="   90.033">  7  8 -1 -1</clus>
<clus scale="   94.460">  5  6 -1 -1</clus>
<clus scale="  112.030">  2  7  1 -1</clus>
<clus scale="  115.618">  1  5  2 -1</clus>
</clustering>
</event>
<event>
 9    1  0.5300912E-006  0.9155375E+02  0.7546771E-02  0.1302541E+00
         -1   -1    0    0    0  501 -0.00000000000E+00  0.00000000000E+00  0.33400979360E+02  0.33400979360E+02  0.00000000000E+00 0.  1.
          1   -1    0    0  502    0  0.00000000000E+00 -0.00000000000E+00 -0.57446445441E+03  0.57446445441E+03  0.00000000000E+00 0. -1.
         23    2    1    2    0    0  0.26613942787E+01 -0.81736012033E+01 -0.45983391724E+02  0.97269492144E+02  0.85281832834E+02 0.  0.
         23    2    1    2    0    0 -0.21332917219E+01 -0.14101959925E+02 -0.45945358208E+03  0.46857538585E+03  0.90894895014E+02 0.  0.
        -11    1    4    4    0    0  0.27601465695E+02 -0.42639068134E+02 -0.25261526011E+03  0.25767110951E+03  0.00000000000E+00 0.  1.
         11    1    4    4    0    0 -0.29734757417E+02  0.28537108210E+02 -0.20683832197E+03  0.21090427634E+03  0.00000000000E+00 0. -1.
        -11    1    3    3    0    0 -0.25360179806E+02 -0.24737567800E+02 -0.53210940388E+02  0.63925661181E+02  0.00000000000E+00 0.  1.
         11    1    3    3    0    0  0.28021574085E+02  0.16563966597E+02  0.72275486642E+01  0.33343830963E+02  0.00000000000E+00 0. -1.
         21    1    1    2  502  501 -0.52810255681E+00  0.22275561128E+02 -0.35626501251E+02  0.42020555771E+02  0.00000000000E+00 0.  1.
<scales pt_clust_5="13000.00000" pt_clust_6="13000.00000" pt_clust_7="13000.00000" pt_clust_8="13000.00000" pt_clust_9="22.28182"></scales>
<clustering>
<clus scale="   22.282">  1  9  2 -1</clus>
<clus scale="   85.282">  7  8 -1 -1</clus>
<clus scale="   85.984">  1  7  2 -1</clus>
<clus scale="   90.895">  5  6 -1 -1</clus>
<clus scale="   91.554">  2  5  1 -1</clus>
</clustering>
</event>
<event>
 9    1  0.6452915E-006  0.2666438E+03  0.7546771E-02  0.1144202E+00
         -1   -1    0    0    0  501 -0.00000000000E+00  0.00000000000E+00  0.16673843121E+03  0.16673843121E+03  0.00000000000E+00 0.  1.
          1   -1    0    0  502    0  0.00000000000E+00 -0.00000000000E+00 -0.91064598331E+03  0.91064598331E+03  0.00000000000E+00 0. -1.
         23    2    1    2    0    0 -0.24463643045E+02 -0.24572206347E+03 -0.16072628297E+02  0.26361504250E+03  0.90866709776E+02 0.  0.
         23    2    1    2    0    0  0.22275396490E+02 -0.21466128011E+02 -0.17482597847E+03  0.19959251498E+03  0.91192441286E+02 0.  0.
        -11    1    4    4    0    0  0.18782100259E+02  0.34807757210E+02 -0.80712288997E+02  0.89882261027E+02  0.00000000000E+00 0.  1.
         11    1    4    4    0    0  0.34932962311E+01 -0.56273885221E+02 -0.94113689476E+02  0.10971025396E+03  0.00000000000E+00 0. -1.
        -13    1    3    3    0    0  0.21291944970E+02 -0.11703127314E+02  0.25997814105E+01  0.24434994841E+02  0.00000000000E+00 0.  1.
         13    1    3    3    0    0 -0.45755588014E+02 -0.23401893616E+03 -0.18672409707E+02  0.23918004766E+03  0.00000000000E+00 0. -1.
         21    1    1    2  502  501  0.21882465543E+01  0.26718819148E+03 -0.55300894534E+03  0.61417685703E+03  0.00000000000E+00 0.  1.
<scales pt_clust_5="13000.00000" pt_clust_6="13000.00000" pt_clust_7="13000.00000" pt_clust_8="13000.00000" pt_clust_9="250.68334"></scales>
<clustering>
<clus scale="   90.867">  7  8 -1 -1</clus>
<clus scale="   91.192">  5  6 -1 -1</clus>
<clus scale="   96.297">  2  5  1 -1</clus>
<clus scale="  250.683">  2  9  1 -1</clus>
<clus scale="   96.297">  2  5  1 -1</clus>
</clustering>
</event>
<event>
 9    1  0.5300912E-006  0.1025269E+03  0.7546771E-02  0.1275277E+00
         -1   -1    0    0    0  501 -0.00000000000E+00  0.00000000000E+00  0.63661438286E+02  0.63661438286E+02  0.00000000000E+00 0.  1.
          1   -1    0    0  502    0  0.00000000000E+00 -0.00000000000E+00 -0.31792899951E+03  0.31792899951E+03  0.00000000000E+00 0. -1.
         23    2    1    2    0    0  0.46850515228E+02 -0.35529143543E+02 -0.34493573840E+02  0.11349959178E+03  0.90747230702E+02 0.  0.
         23    2    1    2    0    0 -0.32201083769E+02 -0.16593638446E+02 -0.15750481264E+03  0.18557514831E+03  0.91203678834E+02 0.  0.
        -13    1    4    4    0    0  0.29466724065E+02 -0.19974277337E+02 -0.46703291297E+02  0.58723564267E+02  0.00000000000E+00 0.  1.
         13    1    4    4    0    0 -0.61667807834E+02  0.33806388914E+01 -0.11080152134E+03  0.12685158404E+03  0.00000000000E+00 0. -1.
        -13    1    3    3    0    0 -0.25839672329E+02  0.25038367915E+01 -0.59197926731E+01  0.26627087900E+02  0.00000000000E+00 0. -1.
         13    1    3    3    0    0  0.72690187557E+02 -0.38032980334E+02 -0.28573781167E+02  0.86872503880E+02  0.00000000000E+00 0.  1.
         21    1    1    2  502  501 -0.14649431459E+02  0.52122781989E+02 -0.62269174738E+02  0.82515697700E+02  0.00000000000E+00 0. -1.
<scales pt_clust_5="13000.00000" pt_clust_6="13000.00000" pt_clust_7="13000.00000" pt_clust_8="13000.00000" pt_clust_9="54.14231"></scales>
<clustering>
<clus scale="   54.142">  2  9  1 -1</clus>
<clus scale="   90.747">  7  8 -1 -1</clus>
<clus scale="   91.204">  5  6 -1 -1</clus>
<clus scale="  102.121">  1  7  2 -1</clus>
<clus scale="   54.142">  2  5  1 -1</clus>
</clustering>
</event>
<event>
 9    1  0.5300912E-006  0.1029492E+03  0.7546771E-02  0.1276966E+00
         -1   -1    0    0    0  501 -0.00000000000E+00  0.00000000000E+00  0.79800447453E+02  0.79800447453E+02  0.00000000000E+00 0.  1.
          1   -1    0    0  502    0  0.00000000000E+00 -0.00000000000E+00 -0.16437345164E+03  0.16437345164E+03  0.00000000000E+00 0. -1.
         23    2    1    2    0    0 -0.21191942824E+02  0.64453040937E+01 -0.11894827339E+02  0.10015322740E+03  0.96946076020E+02 0.  0.
         23    2    1    2    0    0  0.42920958056E+02  0.40078892955E+00 -0.64816550189E+02  0.11992037571E+03  0.91309046978E+02 0.  0.
        -11    1    4    4    0    0  0.46956720423E+01 -0.40931372046E+02 -0.12469284147E+02  0.43045436467E+02  0.00000000000E+00 0.  1.
         11    1    4    4    0    0  0.38225286014E+02  0.41332160975E+02 -0.52347266042E+02  0.76874939244E+02  0.00000000000E+00 0. -1.
        -13    1    3    3    0    0 -0.15697698535E+02  0.38869989000E+02 -0.39211806874E+02  0.57400867437E+02  0.00000000000E+00 0. -1.
         13    1    3    3    0    0 -0.54942442884E+01 -0.32424684906E+02  0.27316979535E+02  0.42752359964E+02  0.00000000000E+00 0.  1.
         21    1    1    2  502  501 -0.21729015232E+02 -0.68460930233E+01 -0.78616266563E+01  0.24100295980E+02  0.00000000000E+00 0. -1.
<scales pt_clust_5="13000.00000" pt_clust_6="13000.00000" pt_clust_7="13000.00000" pt_clust_8="13000.00000" pt_clust_9="22.78199"></scales>
<clustering>
<clus scale="   22.782">  1  9  2 -1</clus>
<clus scale="   91.309">  5  6 -1 -1</clus>
<clus scale="   96.946">  7  8 -1 -1</clus>
<clus scale="   97.659">  2  5  1 -1</clus>
<clus scale="   97.659">  2  5  1 -1</clus>
</clustering>
</event>
<event>
 9    1  0.5300912E-006  0.2737251E+03  0.7546771E-02  0.1114824E+00
          1   -1    0    0  502    0  0.00000000000E+00  0.00000000000E+00  0.74632353181E+03  0.74632353181E+03  0.00000000000E+00 0. -1.
         -1   -1    0    0    0  501 -0.00000000000E+00 -0.00000000000E+00 -0.41888547616E+03  0.41888547616E+03  0.00000000000E+00 0.  1.
         23    2    1    2    0    0 -0.21109101410E+03 -0.44196032290E+01  0.38628652309E+03  0.44933696725E+03  0.90041563126E+02 0.  0.
         23    2    1    2    0    0 -0.29288835723E+01 -0.15806369143E+03  0.24775372597E+03  0.30818313647E+03  0.92748196545E+02 0.  0.
        -11    1    4    4    0    0 -0.42098328776E+02 -0.11716944294E+03  0.14730235519E+03  0.19287024522E+03  0.00000000000E+00 0. -1.
         11    1    4    4    0    0  0.39169445204E+02 -0.40894248490E+02  0.10045137078E+03  0.11531289125E+03  0.00000000000E+00 0.  1.
        -11    1    3    3    0    0 -0.94805510458E+02 -0.28544283599E+02  0.24811427125E+03  0.26713957501E+03  0.00000000000E+00 0.  1.
         11    1    3    3    0    0 -0.11628550364E+03  0.24124680370E+02  0.13817225184E+03  0.18219739224E+03  0.00000000000E+00 0. -1.
         21    1    1    2  502  501  0.21401989767E+03  0.16248329466E+03 -0.30660219341E+03  0.40768890425E+03  0.00000000000E+00 0.  1.
<scales pt_clust_5="13000.00000" pt_clust_6="13000.00000" pt_clust_7="13000.00000" pt_clust_8="13000.00000" pt_clust_9="258.49163"></scales>
<clustering>
<clus scale="   90.042">  7  8 -1 -1</clus>
<clus scale="   92.748">  5  6 -1 -1</clus>
<clus scale="  183.289">  1  5  2 -1</clus>
<clus scale="  258.492">  2  9  1 -1</clus>
<clus scale="  183.289">  1  5  2 -1</clus>
</clustering>
</event>
<event>
 9    1  0.5300912E-006  0.1112006E+03  0.7546771E-02  0.1259062E+00
         -3   -1    0    0    0  501 -0.00000000000E+00  0.00000000000E+00  0.35844184485E+03  0.35844184485E+03  0.00000000000E+00 0.  1.
          3   -1    0    0  502    0  0.00000000000E+00 -0.00000000000E+00 -0.64374779904E+02  0.64374779904E+02  0.00000000000E+00 0. -1.
         23    2    1    2    0    0  0.28338820374E+02  0.24846578182E+02  0.16793023669E+03  0.19510808997E+03  0.91902998814E+02 0.  0.
         23    2    1    2    0    0 -0.23069006364E+02 -0.71153902511E+02  0.29971252147E+02  0.12084433472E+03  0.90055651578E+02 0.  0.
        -11    1    3    3    0    0 -0.26656198032E+02 -0.14931324159E+02  0.64879569646E+02  0.71713707839E+02  0.00000000000E+00 0.  1.
         11    1    3    3    0    0  0.54995018406E+02  0.39777902341E+02  0.10305066704E+03  0.12339438213E+03  0.00000000000E+00 0. -1.
        -13    1    4    4    0    0  0.18968147916E+02 -0.44554496892E+02 -0.18072039334E+02  0.51686482124E+02  0.00000000000E+00 0. -1.
         13    1    4    4    0    0 -0.42037154280E+02 -0.26599405620E+02  0.48043291481E+02  0.69157852595E+02  0.00000000000E+00 0.  1.
         21    1    1    2  502  501 -0.52698140101E+01  0.46307324329E+02  0.96165576118E+02  0.10686420007E+03  0.00000000000E+00 0.  1.
<scales pt_clust_5="13000.00000" pt_clust_6="13000.00000" pt_clust_7="13000.00000" pt_clust_8="13000.00000" pt_clust_9="46.60621"></scales>
<clustering>
<clus scale="   46.606">  1  9  2 -1</clus>
<clus scale="   90.056">  7  8 -1 -1</clus>
<clus scale="   91.903">  5  6 -1 -1</clus>
<clus scale="  109.679">  2  7  1 -1</clus>
<clus scale="  109.679">  2  5  1 -1</clus>
</clustering>
</event>
<event>
 9    1  0.5300912E-006  0.1065556E+03  0.7546771E-02  0.1269021E+00
          1   -1    0    0  502    0  0.00000000000E+00  0.00000000000E+00  0.31309846205E+03  0.31309846205E+03  0.00000000000E+00 0. -1.
         -1   -1    0    0    0  501 -0.00000000000E+00 -0.00000000000E+00 -0.49873757772E+03  0.49873757772E+03  0.00000000000E+00 0.  1.
         23    2    1    2    0    0  0.12824851302E+02  0.35282104307E+02 -0.44672929328E+03  0.45923796105E+03  0.99614957192E+02 0.  0.
         23    2    1    2    0    0 -0.17058056219E+02  0.19094761692E+02  0.27610204893E+03  0.29602847682E+03  0.10365775639E+03 0.  0.
        -13    1    4    4    0    0 -0.41629911224E+02  0.39943007999E+02  0.24329657476E+03  0.25004342960E+03  0.00000000000E+00 0. -1.
         13    1    4    4    0    0  0.24571855005E+02 -0.20848246307E+02  0.32805474172E+02  0.45985047223E+02  0.00000000000E+00 0.  1.
        -13    1    3    3    0    0  0.45382523265E+02 -0.12047025726E+02 -0.15710910894E+03  0.16397553585E+03  0.00000000000E+00 0.  1.
         13    1    3    3    0    0 -0.32557671962E+02  0.47329130032E+02 -0.28962018435E+03  0.29526242520E+03  0.00000000000E+00 0. -1.
         21    1    1    2  502  501  0.42332049168E+01 -0.54376865998E+02 -0.15011871316E+02  0.56569601908E+02  0.00000000000E+00 0.  1.
<scales pt_clust_5="13000.00000" pt_clust_6="13000.00000" pt_clust_7="13000.00000" pt_clust_8="13000.00000" pt_clust_9="54.54139"></scales>
<clustering>
<clus scale="   54.541">  2  9  1 -1</clus>
<clus scale="   99.615">  7  8 -1 -1</clus>
<clus scale="  102.627">  2  7  1 -1</clus>
<clus scale="  103.658">  5  6 -1 -1</clus>
<clus scale="  106.556">  1  5  2 -1</clus>
</clustering>
</event>
<event>
 9    1  0.5300912E-006  0.1446292E+03  0.7546771E-02  0.1207461E+00
         -1   -1    0    0    0  501 -0.00000000000E+00  0.00000000000E+00  0.15225133757E+03  0.15225133757E+03  0.00000000000E+00 0.  1.
          1   -1    0    0  502    0  0.00000000000E+00 -0.00000000000E+00 -0.42896653228E+03  0.42896653228E+03  0.00000000000E+00 0. -1.
         23    2    1    2    0    0 -0.18775091236E+03 -0.63824066770E+02 -0.52016627797E+02  0.22380970543E+03  0.89783840910E+02 0.  0.
         23    2    1    2    0    0  0.87683997732E+02  0.34563724272E+02 -0.21624923210E+03  0.25280918592E+03  0.90915453066E+02 0.  0.
        -11    1    3    3    0    0 -0.98268383068E+02 -0.20235392005E+02  0.18243660799E+02  0.10197537624E+03  0.00000000000E+00 0.  1.
         11    1    3    3    0    0 -0.89482529290E+02 -0.43588674765E+02 -0.70260288596E+02  0.12183432919E+03  0.00000000000E+00 0. -1.
        -11    1    4    4    0    0  0.85198920798E+02  0.60052513827E+02 -0.15937644336E+03  0.19043637053E+03  0.00000000000E+00 0. -1.
         11    1    4    4    0    0  0.24850769343E+01 -0.25488789555E+02 -0.56872788742E+02  0.62372815390E+02  0.00000000000E+00 0.  1.
         21    1    1    2  502  501  0.10006691463E+03  0.29260342497E+02 -0.84493348111E+01  0.10459897851E+03  0.00000000000E+00 0. -1.
<scales pt_clust_5="13000.00000" pt_clust_6="13000.00000" pt_clust_7="13000.00000" pt_clust_8="13000.00000" pt_clust_9="104.25716"></scales>
<clustering>
<clus scale="   89.784">  5  6 -1 -1</clus>
<clus scale="   90.915">  7  8 -1 -1</clus>
<clus scale="  104.257">  1  9  2 -1</clus>
<clus scale="  143.921">  1  5  2 -1</clus>
<clus scale="  144.629">  2  5  1 -1</clus>
</clustering>
</event>
<event>
 9    1  0.5300912E-006  0.1233497E+03  0.7546771E-02  0.1238118E+00
         -3   -1    0    0    0  501 -0.00000000000E+00  0.00000000000E+00  0.47435283855E+03  0.47435283855E+03  0.00000000000E+00 0.  1.
          3   -1    0    0  502    0  0.00000000000E+00 -0.00000000000E+00 -0.12226885678E+03  0.12226885678E+03  0.00000000000E+00 0. -1.
         23    2    1    2    0    0  0.21379864623E+02  0.30025640972E+02  0.18999603581E+03  0.21412864868E+03  0.91618485223E+02 0.  0.
         23    2    1    2    0    0 -0.91437957531E+02 -0.19515914493E+02 -0.64572517577E+02  0.14501977140E+03  0.90107452930E+02 0.  0.
        -13    1    4    4    0    0 -0.69655705971E+02 -0.11070047009E+02 -0.87432377329E+02  0.11233380578E+03  0.00000000000E+00 0. -1.
         13    1    4    4    0    0 -0.21782251559E+02 -0.84458674841E+01  0.22859859751E+02  0.32685965619E+02  0.00000000000E+00 0.  1.
        -13    1    3    3    0    0 -0.21734093030E+02  0.27895512710E+02  0.15374484216E+03  0.15775933227E+03  0.00000000000E+00 0. -1.
         13    1    3    3    0    0  0.43113957653E+02  0.21301282616E+01  0.36251193655E+02  0.56369316408E+02  0.00000000000E+00 0.  1.
         21    1    1    2  502  501  0.70058092907E+02 -0.10509726478E+02  0.22666046354E+03  0.23747327526E+03  0.00000000000E+00 0.  1.
<scales pt_clust_5="13000.00000" pt_clust_6="13000.00000" pt_clust_7="13000.00000" pt_clust_8="13000.00000" pt_clust_9="70.84201"></scales>
<clustering>
<clus scale="   70.842">  1  9  2 -1</clus>
<clus scale="   90.107">  5  6 -1 -1</clus>
<clus scale="   91.618">  7  8 -1 -1</clus>
<clus scale="  122.232">  2  5  1 -1</clus>
<clus scale="  122.232">  2  5  1 -1</clus>
</clustering>
</event>
<event>
 9    1  0.5300912E-006  0.9693148E+02  0.7546771E-02  0.1292160E+00
         -2   -1    0    0    0  501 -0.00000000000E+00  0.00000000000E+00  0.19794736625E+03  0.19794736625E+03  0.00000000000E+00 0.  1.
          2   -1    0    0  502    0  0.00000000000E+00 -0.00000000000E+00 -0.38182517631E+03  0.38182517631E+03  0.00000000000E+00 0. -1.
         23    2    1    2    0    0  0.25091320485E+01 -0.50559993377E+02  0.10379079699E+03  0.14650139066E+03  0.90152755096E+02 0.  0.
         23    2    1    2    0    0 -0.23643081486E+02 -0.49068105985E+02  0.22502162127E+02  0.10680781850E+03  0.89077990911E+02 0.  0.
        -11    1    4    4    0    0  0.29200139953E+01 -0.69332931709E+02  0.23827103567E+02  0.73371062181E+02  0.00000000000E+00 0.  1.
         11    1    4    4    0    0 -0.26563095481E+02  0.20264825724E+02 -0.13249414407E+01  0.33436756317E+02  0.00000000000E+00 0. -1.
        -13    1    3    3    0    0 -0.75816075600E+01 -0.70468287693E+02  0.10186936717E+03  0.12409926797E+03  0.00000000000E+00 0.  1.
         13    1    3    3    0    0  0.10090739609E+02  0.19908294316E+02  0.19214298222E+01  0.22402122689E+02  0.00000000000E+00 0. -1.
         21    1    1    2  502  501  0.21133949437E+02  0.99628099362E+02 -0.31017076918E+03  0.32646333340E+03  0.00000000000E+00 0. -1.
<scales pt_clust_5="13000.00000" pt_clust_6="13000.00000" pt_clust_7="13000.00000" pt_clust_8="13000.00000" pt_clust_9="101.84499"></scales>
<clustering>
<clus scale="   89.078">  5  6 -1 -1</clus>
<clus scale="   90.153">  7  8 -1 -1</clus>
<clus scale="  101.845">  2  9  1 -1</clus>
<clus scale="  101.845">  2  5  1 -1</clus>
<clus scale="   96.931">  2  5  1 -1</clus>
</clustering>
</event>
<event>
 9    1  0.5300912E-006  0.2208977E+03  0.7546771E-02  0.1157064E+00
          1   -1    0    0  502    0  0.00000000000E+00  0.00000000000E+00  0.10430505931E+04  0.10430505931E+04  0.00000000000E+00 0. -1.
         -1   -1    0    0    0  501 -0.00000000000E+00 -0.00000000000E+00 -0.12971861868E+03  0.12971861868E+03  0.00000000000E+00 0.  1.
         23    2    1    2    0    0  0.77616618576E+02 -0.22850538008E+02 -0.23946238294E+02  0.12719304509E+03  0.95174375876E+02 0.  0.
         23    2    1    2    0    0 -0.25571964448E+03  0.86948620601E+01  0.44156519646E+03  0.51864878510E+03  0.92458652189E+02 0.  0.
        -11    1    4    4    0    0 -0.15977561395E+03 -0.34480406310E+02  0.30735323062E+03  0.34811370787E+03  0.00000000000E+00 0. -1.
         11    1    4    4    0    0 -0.95944030528E+02  0.43175268370E+02  0.13421196584E+03  0.17053507723E+03  0.00000000000E+00 0.  1.
        -11    1    3    3    0    0  0.59016026126E+02 -0.12853043539E+02 -0.60174972885E+02  0.85259131063E+02  0.00000000000E+00 0.  1.
         11    1    3    3    0    0  0.18600592450E+02 -0.99974944689E+01  0.36228734592E+02  0.41933914023E+02  0.00000000000E+00 0. -1.
         21    1    1    2  502  501  0.17810302590E+03  0.14155675948E+02  0.49571301627E+03  0.52692738162E+03  0.00000000000E+00 0.  1.
<scales pt_clust_5="13000.00000" pt_clust_6="13000.00000" pt_clust_7="13000.00000" pt_clust_8="13000.00000" pt_clust_9="200.61707"></scales>
<clustering>
<clus scale="   92.459">  5  6 -1 -1</clus>
<clus scale="   95.174">  7  8 -1 -1</clus>
<clus scale="  124.919">  2  7  1 -1</clus>
<clus scale="  200.617">  1  9  2 -1</clus>
<clus scale="  200.617">  1  5  2 -1</clus>
</clustering>
</event>
<event>
 9    1  0.5300912E-006  0.9851675E+02  0.7546771E-02  0.1283551E+00
         -1   -1    0    0    0  501 -0.00000000000E+00  0.00000000000E+00  0.89657484498E+02  0.89657484498E+02  0.00000000000E+00 0.  1.
          1   -1    0    0  502    0  0.00000000000E+00 -0.00000000000E+00 -0.31405022346E+03  0.31405022346E+03  0.00000000000E+00 0. -1.
         23    2    1    2    0    0 -0.87761506926E+01  0.18121305043E+02  0.40565549658E+02  0.10123901513E+03  0.90544860974E+02 0.  0.
         23    2    1    2    0    0 -0.50460476031E+01 -0.40821518127E+02 -0.25552736217E+03  0.27426771388E+03  0.90756196042E+02 0.  0.
        -11    1    4    4    0    0  0.23062704241E+02 -0.60859502338E+02 -0.17060817296E+03  0.18260042725E+03  0.00000000000E+00 0. -1.
         11    1    4    4    0    0 -0.28108751844E+02  0.20037984211E+02 -0.84919189212E+02  0.91667286629E+02  0.00000000000E+00 0.  1.
        -13    1    3    3    0    0  0.14980988107E+02  0.38790398960E+02  0.53015082496E+02  0.67377474189E+02  0.00000000000E+00 0.  1.
         13    1    3    3    0    0 -0.23757138799E+02 -0.20669093917E+02 -0.12449532837E+02  0.33861540945E+02  0.00000000000E+00 0. -1.
         21    1    1    2  502  501  0.13822198296E+02  0.22700213084E+02 -0.94309264510E+01  0.28200978946E+02  0.00000000000E+00 0.  1.
<scales pt_clust_5="13000.00000" pt_clust_6="13000.00000" pt_clust_7="13000.00000" pt_clust_8="13000.00000" pt_clust_9="26.57730"></scales>
<clustering>
<clus scale="   26.577">  1  9  2 -1</clus>
<clus scale="   90.545">  7  8 -1 -1</clus>
<clus scale="   90.756">  5  6 -1 -1</clus>
<clus scale="   98.322">  1  7  2 -1</clus>
<clus scale="   98.517">  2  5  1 -1</clus>
</clustering>
</event>
<event>
 9    1  0.5300912E-006  0.9388489E+02  0.7546771E-02  0.1295665E+00
          2   -1    0    0  502    0  0.00000000000E+00  0.00000000000E+00  0.22706663374E+03  0.22706663374E+03  0.00000000000E+00 0. -1.
         -2   -1    0    0    0  501 -0.00000000000E+00 -0.00000000000E+00 -0.15314380079E+03  0.15314380079E+03  0.00000000000E+00 0.  1.
         23    2    1    2    0    0  0.48725042694E+02  0.17781201784E+02  0.83938767006E+02  0.13533744374E+03  0.92629402190E+02 0.  0.
         23    2    1    2    0    0  0.18580776817E+02 -0.60508021877E+01  0.87046794523E+02  0.12617653383E+03  0.89227326407E+02 0.  0.
        -11    1    4    4    0    0 -0.25848869805E+02  0.25561818364E+02  0.28708351384E+02  0.46322133667E+02  0.00000000000E+00 0.  1.
         11    1    4    4    0    0  0.44429646622E+02 -0.31612620552E+02  0.58338443139E+02  0.79854400160E+02  0.00000000000E+00 0. -1.
        -13    1    3    3    0    0  0.58789988034E+01 -0.26207204530E+02 -0.49397090350E+01  0.27308989757E+02  0.00000000000E+00 0.  1.
         13    1    3    3    0    0  0.42846043891E+02  0.43988406314E+02  0.88878476041E+02  0.10802845399E+03  0.00000000000E+00 0. -1.
         21    1    1    2  502  501 -0.67305819511E+02 -0.11730399596E+02 -0.97062728579E+02  0.11869645696E+03  0.00000000000E+00 0.  1.
<scales pt_clust_5="13000.00000" pt_clust_6="13000.00000" pt_clust_7="13000.00000" pt_clust_8="13000.00000" pt_clust_9="68.32039"></scales>
<clustering>
<clus scale="   68.320">  2  9  1 -1</clus>
<clus scale="   89.227">  5  6 -1 -1</clus>
<clus scale="   90.530">  1  5  2 -1</clus>
<clus scale="   92.629">  7  8 -1 -1</clus>
<clus scale="   90.530">  1  5  2 -1</clus>
</clustering>
</event>
<event>
 9    1  0.5300912E-006  0.1612520E+03  0.7546771E-02  0.1192140E+00
         -2   -1    0    0    0  501 -0.00000000000E+00  0.00000000000E+00  0.31290250011E+03  0.31290250011E+03  0.00000000000E+00 0.  1.
          2   -1    0    0  502    0  0.00000000000E+00 -0.00000000000E+00 -0.29265805113E+03  0.29265805113E+03  0.00000000000E+00 0. -1.
         23    2    1    2    0    0  0.57649304214E+02 -0.95382373722E+02  0.18945409647E+03  0.23849049016E+03  0.92539827835E+02 0.  0.
         23    2    1    2    0    0 -0.87438740512E+02 -0.77692007001E+02 -0.96464689362E+02  0.17698065919E+03  0.91296966752E+02 0.  0.
        -13    1    3    3    0    0  0.34587495932E+02 -0.11120951680E+03  0.15966815211E+03  0.19763038810E+03  0.00000000000E+00 0. -1.
         13    1    3    3    0    0  0.23061808283E+02  0.15827143078E+02  0.29785944361E+02  0.40860102065E+02  0.00000000000E+00 0.  1.
        -13    1    4    4    0    0 -0.54782402674E+02 -0.24107034231E+02  0.23799434644E+01  0.59899289420E+02  0.00000000000E+00 0.  1.
         13    1    4    4    0    0 -0.32656337839E+02 -0.53584972770E+02 -0.98844632826E+02  0.11708136977E+03  0.00000000000E+00 0. -1.
         21    1    1    2  502  501  0.29789436298E+02  0.17307438072E+03 -0.72744958132E+02  0.19008940189E+03  0.00000000000E+00 0.  1.
<scales pt_clust_5="13000.00000" pt_clust_6="13000.00000" pt_clust_7="13000.00000" pt_clust_8="13000.00000" pt_clust_9="132.91750"></scales>
<clustering>
<clus scale="   91.297">  7  8 -1 -1</clus>
<clus scale="   92.540">  5  6 -1 -1</clus>
<clus scale="  144.862">  1  5  2 -1</clus>
<clus scale="  132.918">  1  9  2 -1</clus>
<clus scale="  161.252">  2  5  1 -1</clus>
</clustering>
</event>
<event>
 9    1  0.5300912E-006  0.1772225E+03  0.7546771E-02  0.1187865E+00
         -2   -1    0    0    0  501 -0.00000000000E+00  0.00000000000E+00  0.86763772106E+02  0.86763772106E+02  0.00000000000E+00 0.  1.
          2   -1    0    0  502    0  0.00000000000E+00 -0.00000000000E+00 -0.10424653042E+04  0.10424653042E+04  0.00000000000E+00 0. -1.
         23    2    1    2    0    0 -0.12928367651E+03  0.50366841297E+02 -0.64431479404E+03  0.66537230545E+03  0.91256031749E+02 0.  0.
         23    2    1    2    0    0 -0.25554748856E+02 -0.69031599926E+02 -0.28023130657E+03  0.30481598336E+03  0.94682583162E+02 0.  0.
        -13    1    4    4    0    0 -0.35477865576E+02  0.10501545500E+02 -0.60427610593E+02  0.70855187007E+02  0.00000000000E+00 0.  1.
         13    1    4    4    0    0  0.99231167201E+01 -0.79533145426E+02 -0.21980369597E+03  0.23396079635E+03  0.00000000000E+00 0. -1.
        -13    1    3    3    0    0 -0.81533760888E+02 -0.78800432436E+01 -0.44126711967E+03  0.44880565966E+03  0.00000000000E+00 0.  1.
         13    1    3    3    0    0 -0.47749915618E+02  0.58246884540E+02 -0.20304767438E+03  0.21656664579E+03  0.00000000000E+00 0. -1.
         21    1    1    2  502  501  0.15483842536E+03  0.18664758630E+02 -0.31155431518E+02  0.15904078752E+03  0.00000000000E+00 0.  1.
<scales pt_clust_5="13000.00000" pt_clust_6="13000.00000" pt_clust_7="13000.00000" pt_clust_8="13000.00000" pt_clust_9="151.92153"></scales>
<clustering>
<clus scale="   91.256">  7  8 -1 -1</clus>
<clus scale="   94.683">  5  6 -1 -1</clus>
<clus scale="  119.930">  2  5  1 -1</clus>
<clus scale="  151.922">  1  9  2 -1</clus>
<clus scale="  119.930">  2  5  1 -1</clus>
</clustering>
</event>
<event>
 9    1  0.5300912E-006  0.1043524E+03  0.7546771E-02  0.1277748E+00
          1   -1    0    0  502    0  0.00000000000E+00  0.00000000000E+00  0.22670114425E+03  0.22670114425E+03  0.00000000000E+00 0. -1.
         -1   -1    0    0    0  501 -0.00000000000E+00 -0.00000000000E+00 -0.77323540793E+02  0.77323540793E+02  0.00000000000E+00 0.  1.
         23    2    1    2    0    0  0.31468518989E+02 -0.23916165528E+02  0.39562146840E+02  0.10715131323E+03  0.91400163035E+02 0.  0.
         23    2    1    2    0    0  0.69557186731E+00 -0.22341259405E+02  0.82726705111E+02  0.13435874504E+03  0.10348405162E+03 0.  0.
        -11    1    3    3    0    0 -0.13139352673E+02 -0.46545930000E+02  0.11179907611E+02  0.49640271176E+02  0.00000000000E+00 0.  1.
         11    1    3    3    0    0  0.44607871661E+02  0.22629764472E+02  0.28382239229E+02  0.57511042052E+02  0.00000000000E+00 0. -1.
        -13    1    4    4    0    0 -0.40281559947E+02 -0.36526609634E+02  0.19657188992E+02  0.57820432048E+02  0.00000000000E+00 0.  1.
         13    1    4    4    0    0  0.40977131814E+02  0.14185350229E+02  0.63069516119E+02  0.76538312996E+02  0.00000000000E+00 0. -1.
         21    1    1    2  502  501 -0.32164090856E+02  0.46257424933E+02  0.27088751504E+02  0.62514626769E+02  0.00000000000E+00 0. -1.
<scales pt_clust_5="13000.00000" pt_clust_6="13000.00000" pt_clust_7="13000.00000" pt_clust_8="13000.00000" pt_clust_9="56.34073"></scales>
<clustering>
<clus scale="   56.341">  2  9  1 -1</clus>
<clus scale="   91.400">  5  6 -1 -1</clus>
<clus scale="   92.382">  2  5  1 -1</clus>
<clus scale="  103.484">  7  8 -1 -1</clus>
<clus scale="  104.352">  1  5  2 -1</clus>
</clustering>
</event>
<event>
 9    1  0.5300912E-006  0.1511943E+03  0.7546771E-02  0.1209266E+00
         -1   -1    0    0    0  501 -0.00000000000E+00  0.00000000000E+00  0.77474034452E+03  0.77474034452E+03  0.00000000000E+00 0.  1.
          1   -1    0    0  502    0  0.00000000000E+00 -0.00000000000E+00 -0.20305322408E+03  0.20305322408E+03  0.00000000000E+00 0. -1.
         23    2    1    2    0    0 -0.12720172441E+02 -0.62560249652E-01  0.63478883015E+03  0.64625549952E+03  0.12053010027E+03 0.  0.
         23    2    1    2    0    0 -0.82560406889E+02  0.77623872770E+02  0.60542162689E+02  0.15723387184E+03  0.90639122797E+02 0.  0.
        -11    1    4    4    0    0 -0.46093062776E+02 -0.77451286020E+01  0.62210689405E+00  0.46743389588E+02  0.00000000000E+00 0. -1.
         11    1    4    4    0    0 -0.36467344112E+02  0.85369001372E+02  0.59920055795E+02  0.11049048225E+03  0.00000000000E+00 0.  1.
        -13    1    3    3    0    0 -0.65847560750E+02  0.75872043256E+01  0.39594448915E+03  0.40145423826E+03  0.00000000000E+00 0.  1.
         13    1    3    3    0    0  0.53127388309E+02 -0.76497645753E+01  0.23884434100E+03  0.24480126126E+03  0.00000000000E+00 0. -1.
         21    1    1    2  502  501  0.95280579330E+02 -0.77561312520E+02 -0.12364387240E+03  0.17430419725E+03  0.00000000000E+00 0. -1.
<scales pt_clust_5="13000.00000" pt_clust_6="13000.00000" pt_clust_7="13000.00000" pt_clust_8="13000.00000" pt_clust_9="121.01355"></scales>
<clustering>
<clus scale="   90.639">  5  6 -1 -1</clus>
<clus scale="  120.530">  7  8 -1 -1</clus>
<clus scale="  121.199">  1  7  2 -1</clus>
<clus scale="  121.014">  2  9  1 -1</clus>
<clus scale="  121.014">  2  5  1 -1</clus>
</clustering>
</event>
<event>
 9    1  0.5300912E-006  0.9839526E+02  0.7546771E-02  0.1284307E+00
          3   -1    0    0  502    0  0.00000000000E+00  0.00000000000E+00  0.36454969616E+03  0.36454969616E+03  0.00000000000E+00 0. -1.
         -3   -1    0    0    0  501 -0.00000000000E+00 -0.00000000000E+00 -0.81058855328E+02  0.81058855328E+02  0.00000000000E+00 0.  1.
         23    2    1    2    0    0 -0.37000760836E+02 -0.21934161777E+02 -0.34221369696E+02  0.10462230298E+03  0.89019999895E+02 0.  0.
         23    2    1    2    0    0  0.66723550883E+01  0.17442335744E+02  0.21819532711E+03  0.23685364659E+03  0.90231334549E+02 0.  0.
        -13    1    4    4    0    0  0.20295389612E+02  0.42804875077E+02  0.61996916405E+02  0.78024212996E+02  0.00000000000E+00 0. -1.
         13    1    4    4    0    0 -0.13623034524E+02 -0.25362539333E+02  0.15619841070E+03  0.15882943360E+03  0.00000000000E+00 0.  1.
        -13    1    3    3    0    0 -0.32128811225E+02  0.11421745171E+02 -0.55225418949E+02  0.64904265434E+02  0.00000000000E+00 0.  1.
         13    1    3    3    0    0 -0.48719496114E+01 -0.33355906948E+02  0.21004049253E+02  0.39718037544E+02  0.00000000000E+00 0. -1.
         21    1    1    2  502  501  0.30328405748E+02  0.44918260334E+01  0.99516883426E+02  0.10413260192E+03  0.00000000000E+00 0. -1.
<scales pt_clust_5="13000.00000" pt_clust_6="13000.00000" pt_clust_7="13000.00000" pt_clust_8="13000.00000" pt_clust_9="30.65924"></scales>
<clustering>
<clus scale="   30.659">  1  9  2 -1</clus>
<clus scale="   89.020">  7  8 -1 -1</clus>
<clus scale="   90.231">  5  6 -1 -1</clus>
<clus scale="   97.286">  2  7  1 -1</clus>
<clus scale="   30.659">  1  5  2 -1</clus>
</clustering>
</event>
<event>
 9    1  0.5300912E-006  0.1484731E+03  0.7546771E-02  0.1216846E+00
          2   -1    0    0  502    0  0.00000000000E+00  0.00000000000E+00  0.14290582980E+04  0.14290582980E+04  0.00000000000E+00 0. -1.
         -2   -1    0    0    0  501 -0.00000000000E+00 -0.00000000000E+00 -0.31721996187E+02  0.31721996187E+02  0.00000000000E+00 0.  1.
         23    2    1    2    0    0  0.55998983094E+02 -0.16712142720E+02  0.31695792616E+03  0.33516080933E+03  0.91952484085E+02 0.  0.
         23    2    1    2    0    0  0.49693607442E+01  0.11378324508E+03  0.28410209849E+03  0.32113465130E+03  0.97170677110E+02 0.  0.
        -11    1    3    3    0    0  0.30274655943E+02  0.28590842732E+02  0.23041127184E+03  0.23414385594E+03  0.00000000000E+00 0. -1.
         11    1    3    3    0    0  0.25724327151E+02 -0.45302985452E+02  0.86546654317E+02  0.10101695339E+03  0.00000000000E+00 0.  1.
        -13    1    4    4    0    0  0.33773792999E+02  0.11455405469E+03  0.20933411262E+03  0.24100637180E+03  0.00000000000E+00 0.  1.
         13    1    4    4    0    0 -0.28804432255E+02 -0.77080960742E+00  0.74767985867E+02  0.80128279500E+02  0.00000000000E+00 0. -1.
         21    1    1    2  502  501 -0.60968343838E+02 -0.97071102364E+02  0.79627627716E+03  0.80448483356E+03  0.00000000000E+00 0. -1.
<scales pt_clust_5="13000.00000" pt_clust_6="13000.00000" pt_clust_7="13000.00000" pt_clust_8="13000.00000" pt_clust_9="112.25918"></scales>
<clustering>
<clus scale="   91.952">  5  6 -1 -1</clus>
<clus scale="   97.171">  7  8 -1 -1</clus>
<clus scale="  108.952">  2  5  1 -1</clus>
<clus scale="  112.259">  1  9  2 -1</clus>
<clus scale="  112.259">  1  5  2 -1</clus>
</clustering>
</event>
<event>
 9    1  0.5300912E-006  0.1034977E+03  0.7546771E-02  0.1274574E+00
         -2   -1    0    0    0  501 -0.00000000000E+00  0.00000000000E+00  0.62797981077E+02  0.62797981077E+02  0.00000000000E+00 0.  1.
          2   -1    0    0  502    0  0.00000000000E+00 -0.00000000000E+00 -0.33819298692E+03  0.33819298692E+03  0.00000000000E+00 0. -1.
         23    2    1    2    0    0 -0.46951112582E+02  0.23030788344E+02 -0.87456966130E+01  0.10703072820E+03  0.92974541596E+02 0.  0.
         23    2    1    2    0    0  0.17727260750E+02 -0.11083848990E+02 -0.19899947806E+03  0.21930595302E+03  0.89761914437E+02 0.  0.
        -11    1    4    4    0    0  0.15079659539E+02  0.39010798275E+02 -0.83764792234E+02  0.93625738618E+02  0.00000000000E+00 0.  1.
         11    1    4    4    0    0  0.26476012111E+01 -0.50094647265E+02 -0.11523468582E+03  0.12568021441E+03  0.00000000000E+00 0. -1.
        -13    1    3    3    0    0 -0.43790345207E+02 -0.70605340517E+01  0.33133572523E+02  0.55364962770E+02  0.00000000000E+00 0.  1.
         13    1    3    3    0    0 -0.31607673748E+01  0.30091322396E+02 -0.41879269136E+02  0.51665765428E+02  0.00000000000E+00 0. -1.
         21    1    1    2  502  501  0.29223851832E+02 -0.11946939355E+02 -0.67649831178E+02  0.74654286778E+02  0.00000000000E+00 0. -1.
<scales pt_clust_5="13000.00000" pt_clust_6="13000.00000" pt_clust_7="13000.00000" pt_clust_8="13000.00000" pt_clust_9="31.57155"></scales>
<clustering>
<clus scale="   31.572">  2  9  1 -1</clus>
<clus scale="   89.762">  5  6 -1 -1</clus>
<clus scale="   92.975">  7  8 -1 -1</clus>
<clus scale="  100.622">  2  5  1 -1</clus>
<clus scale="   31.572">  2  5  1 -1</clus>
</clustering>
</event>
<event>
 9    1  0.5300912E-006  0.1068729E+03  0.7546771E-02  0.1273244E+00
          4   -1    0    0  502    0  0.00000000000E+00  0.00000000000E+00  0.16977000919E+03  0.16977000919E+03  0.00000000000E+00 0. -1.
         -4   -1    0    0    0  501 -0.00000000000E+00 -0.00000000000E+00 -0.85106624569E+02  0.85106624569E+02  0.00000000000E+00 0.  1.
         23    2    1    2    0    0 -0.57973388775E+01  0.78128178044E+02  0.44698506743E+02  0.12647029593E+03  0.88651891714E+02 0.  0.
         23    2    1    2    0    0  0.11709126915E+02 -0.46129427654E+02  0.41160112171E+02  0.95844122779E+02  0.72297394756E+02 0.  0.
        -11    1    4    4    0    0 -0.29957699349E+02 -0.28351212690E+02  0.18940084599E+02  0.45387022549E+02  0.00000000000E+00 0.  1.
         11    1    4    4    0    0  0.41666826264E+02 -0.17778214964E+02  0.22220027572E+02  0.50457100229E+02  0.00000000000E+00 0. -1.
        -13    1    3    3    0    0 -0.33808829864E+02  0.39736081829E+02 -0.10929893649E+02  0.53305306970E+02  0.00000000000E+00 0.  1.
         13    1    3    3    0    0  0.28011490987E+02  0.38392096214E+02  0.55628400392E+02  0.73164988958E+02  0.00000000000E+00 0. -1.
         21    1    1    2  502  501 -0.59117880379E+01 -0.31998750390E+02 -0.11952342904E+01  0.32562215055E+02  0.00000000000E+00 0. -1.
<scales pt_clust_5="13000.00000" pt_clust_6="13000.00000" pt_clust_7="13000.00000" pt_clust_8="13000.00000" pt_clust_9="32.54027"></scales>
<clustering>
<clus scale="   32.540">  2  9  1 -1</clus>
<clus scale="   72.297">  5  6 -1 -1</clus>
<clus scale="   88.652">  7  8 -1 -1</clus>
<clus scale="   93.753">  1  5  2 -1</clus>
<clus scale="   93.753">  1  5  2 -1</clus>
</clustering>
</event>
<event>
 9    1  0.5300912E-006  0.1981995E+03  0.7546771E-02  0.1151482E+00
         -1   -1    0    0    0  501 -0.00000000000E+00  0.00000000000E+00  0.14367449065E+03  0.14367449065E+03  0.00000000000E+00 0.  1.
          1   -1    0    0  502    0  0.00000000000E+00 -0.00000000000E+00 -0.69595993772E+03  0.69595993772E+03  0.00000000000E+00 0. -1.
         23    2    1    2    0    0  0.42523412455E+02 -0.18148243596E+03 -0.48694161276E+02  0.21391112454E+03  0.92966298683E+02 0.  0.
         23    2    1    2    0    0  0.10806204018E+03  0.15603719543E+03 -0.35484909294E+03  0.41253869195E+03  0.90803539094E+02 0.  0.
        -13    1    3    3    0    0  0.39870410376E+02 -0.96099370798E+02  0.17932846633E+02  0.10557616057E+03  0.00000000000E+00 0. -1.
         13    1    3    3    0    0  0.26530020789E+01 -0.85383065159E+02 -0.66627007909E+02  0.10833496397E+03  0.00000000000E+00 0.  1.
        -13    1    4    4    0    0  0.73099613344E+02  0.30504992523E+02 -0.15285608060E+03  0.17216006917E+03  0.00000000000E+00 0.  1.
         13    1    4    4    0    0  0.34962426833E+02  0.12553220290E+03 -0.20199301233E+03  0.24037862278E+03  0.00000000000E+00 0. -1.
         21    1    1    2  502  501 -0.15058545263E+03  0.25445240529E+02 -0.14874219285E+03  0.21318461188E+03  0.00000000000E+00 0. -1.
<scales pt_clust_5="13000.00000" pt_clust_6="13000.00000" pt_clust_7="13000.00000" pt_clust_8="13000.00000" pt_clust_9="152.72013"></scales>
<clustering>
<clus scale="   90.804">  7  8 -1 -1</clus>
<clus scale="   92.966">  5  6 -1 -1</clus>
<clus scale="  152.720">  2  9  1 -1</clus>
<clus scale="  197.194">  2  7  1 -1</clus>
<clus scale="  152.720">  2  5  1 -1</clus>
</clustering>
</event>
<event>
 9    1  0.5300912E-006  0.9707677E+02  0.7546771E-02  0.1287317E+00
          1   -1    0    0  502    0  0.00000000000E+00  0.00000000000E+00  0.43498119462E+03  0.43498119462E+03  0.00000000000E+00 0. -1.
         -1   -1    0    0    0  501 -0.00000000000E+00 -0.00000000000E+00 -0.89169451826E+02  0.89169451826E+02  0.00000000000E+00 0.  1.
         23    2    1    2    0    0  0.13097369739E+02  0.26574697074E+02 -0.46283393221E+02  0.10667915545E+03  0.91435956280E+02 0.  0.
         23    2    1    2    0    0 -0.18242967492E+02 -0.55329652036E+02  0.24381405628E+03  0.26634041140E+03  0.89987468292E+02 0.  0.
        -13    1    4    4    0    0  0.22749963454E+02 -0.55357478346E+02  0.97605175119E+02  0.11449358697E+03  0.00000000000E+00 0.  1.
         13    1    4    4    0    0 -0.40992930946E+02  0.27826310916E-01  0.14620888116E+03  0.15184682444E+03  0.00000000000E+00 0. -1.
        -13    1    3    3    0    0  0.52005407720E+02  0.20614531197E+02 -0.20284969058E+02  0.59506313096E+02  0.00000000000E+00 0.  1.
         13    1    3    3    0    0 -0.38908037981E+02  0.59601658770E+01 -0.25998424163E+02  0.47172842354E+02  0.00000000000E+00 0. -1.
         21    1    1    2  502  501  0.51455977527E+01  0.28754954961E+02  0.14828107973E+03  0.15113107959E+03  0.00000000000E+00 0. -1.
<scales pt_clust_5="13000.00000" pt_clust_6="13000.00000" pt_clust_7="13000.00000" pt_clust_8="13000.00000" pt_clust_9="29.21172"></scales>
<clustering>
<clus scale="   29.212">  1  9  2 -1</clus>
<clus scale="   89.987">  5  6 -1 -1</clus>
<clus scale="   91.436">  7  8 -1 -1</clus>
<clus scale="   95.714">  1  5  2 -1</clus>
<clus scale="   29.212">  1  5  2 -1</clus>
</clustering>
</event>
<event>
 9    1  0.5300912E-006  0.1472067E+03  0.7546771E-02  0.1222071E+00
         -1   -1    0    0    0  501 -0.00000000000E+00  0.00000000000E+00  0.89139996740E+03  0.89139996740E+03  0.00000000000E+00 0.  1.
          1   -1    0    0  502    0  0.00000000000E+00 -0.00000000000E+00 -0.46924298663E+02  0.46924298663E+02  0.00000000000E+00 0. -1.
         23    2    1    2    0    0  0.71069899989E+02  0.61689006259E+02  0.37251822846E+03  0.39508182980E+03  0.91996508240E+02 0.  0.
         23    2    1    2    0    0  0.45131453522E+02  0.11104194837E+02  0.80613794723E+02  0.12857214121E+03  0.88724632175E+02 0.  0.
        -11    1    4    4    0    0  0.72086900823E+02  0.69740925479E+01  0.52855427314E+02  0.89659664475E+02  0.00000000000E+00 0.  1.
         11    1    4    4    0    0 -0.26955447301E+02  0.41301022893E+01  0.27758367409E+02  0.38912476731E+02  0.00000000000E+00 0. -1.
        -13    1    3    3    0    0  0.51642882796E+02  0.66794481899E+02  0.36329850705E+03  0.37298028820E+03  0.00000000000E+00 0. -1.
         13    1    3    3    0    0  0.19427017194E+02 -0.51054756396E+01  0.92197214037E+01  0.22101541605E+02  0.00000000000E+00 0.  1.
         21    1    1    2  502  501 -0.11620135351E+03 -0.72793201097E+02  0.39134364556E+03  0.41467029506E+03  0.00000000000E+00 0.  1.
<scales pt_clust_5="13000.00000" pt_clust_6="13000.00000" pt_clust_7="13000.00000" pt_clust_8="13000.00000" pt_clust_9="114.91938"></scales>
<clustering>
<clus scale="   88.725">  5  6 -1 -1</clus>
<clus scale="   91.997">  7  8 -1 -1</clus>
<clus scale="  100.161">  2  5  1 -1</clus>
<clus scale="  114.919">  2  9  1 -1</clus>
<clus scale="  100.161">  2  5  1 -1</clus>
</clustering>
</event>
<event>
 9    1  0.5300912E-006  0.1703848E+03  0.7546771E-02  0.1196845E+00
          1   -1    0    0  502    0  0.00000000000E+00  0.00000000000E+00  0.62982888675E+03  0.62982888675E+03  0.00000000000E+00 0. -1.
         -1   -1    0    0    0  501 -0.00000000000E+00 -0.00000000000E+00 -0.14777698338E+03  0.14777698338E+03  0.00000000000E+00 0.  1.
         23    2    1    2    0    0  0.59552221214E+02 -0.10620995443E+03  0.67679646389E+00  0.15301925277E+03  0.92668291210E+02 0.  0.
         23    2    1    2    0    0 -0.14078257387E+02 -0.69435257779E+02  0.41796143736E+03  0.43238772182E+03  0.85134754999E+02 0.  0.
        -11    1    4    4    0    0  0.30325766413E+02 -0.35589601216E+02  0.11191002098E+03  0.12128530257E+03  0.00000000000E+00 0.  1.
         11    1    4    4    0    0 -0.44404023799E+02 -0.33845656563E+02  0.30605141638E+03  0.31110241925E+03  0.00000000000E+00 0. -1.
        -13    1    3    3    0    0 -0.17727418521E+02 -0.60157501689E+02  0.53067930639E+01  0.62939243954E+02  0.00000000000E+00 0.  1.
         13    1    3    3    0    0  0.77279639735E+02 -0.46052452737E+02 -0.46299966000E+01  0.90080008821E+02  0.00000000000E+00 0. -1.
         21    1    1    2  502  501 -0.45473963827E+02  0.17564521220E+03  0.63413669548E+02  0.19219889553E+03  0.00000000000E+00 0. -1.
<scales pt_clust_5="13000.00000" pt_clust_6="13000.00000" pt_clust_7="13000.00000" pt_clust_8="13000.00000" pt_clust_9="142.98102"></scales>
<clustering>
<clus scale="   85.135">  5  6 -1 -1</clus>
<clus scale="   92.668">  7  8 -1 -1</clus>
<clus scale="  110.758">  1  5  2 -1</clus>
<clus scale="  142.981">  1  9  2 -1</clus>
<clus scale="  110.758">  1  5  2 -1</clus>
</clustering>
</event>
<event>
 9    1  0.5300912E-006  0.9296412E+02  0.7546771E-02  0.1301734E+00
          1   -1    0    0  502    0  0.00000000000E+00  0.00000000000E+00  0.60145943109E+03  0.60145943109E+03  0.00000000000E+00 0. -1.
         -1   -1    0    0    0  501 -0.00000000000E+00 -0.00000000000E+00 -0.37799504077E+02  0.37799504077E+02  0.00000000000E+00 0.  1.
         23    2    1    2    0    0 -0.43100790075E+02 -0.51502450345E+02  0.83445563972E+02  0.13915420332E+03  0.88828765945E+02 0.  0.
         23    2    1    2    0    0  0.11457601932E+02  0.18222112178E+02  0.39461308081E+03  0.40296333087E+03  0.78718742762E+02 0.  0.
        -11    1    3    3    0    0 -0.25866786612E+02  0.12607391880E+02 -0.43318554650E+01  0.29099861708E+02  0.00000000000E+00 0.  1.
         11    1    3    3    0    0 -0.17234003463E+02 -0.64109842225E+02  0.87777419437E+02  0.11005434162E+03  0.00000000000E+00 0. -1.
        -13    1    4    4    0    0  0.45084306308E+02  0.14362367966E+02  0.25040345688E+03  0.25483477687E+03  0.00000000000E+00 0. -1.
         13    1    4    4    0    0 -0.33626704377E+02  0.38597442119E+01  0.14420962393E+03  0.14812855399E+03  0.00000000000E+00 0.  1.
         21    1    1    2  502  501  0.31643188143E+02  0.33280338167E+02  0.85601282229E+02  0.97141400976E+02  0.00000000000E+00 0.  1.
<scales pt_clust_5="13000.00000" pt_clust_6="13000.00000" pt_clust_7="13000.00000" pt_clust_8="13000.00000" pt_clust_9="45.92246"></scales>
<clustering>
<clus scale="   45.922">  2  9  1 -1</clus>
<clus scale="   78.719">  7  8 -1 -1</clus>
<clus scale="   83.357">  1  7  2 -1</clus>
<clus scale="   88.829">  5  6 -1 -1</clus>
<clus scale="   83.357">  1  5  2 -1</clus>
</clustering>
</event>
<event>
 9    1  0.5300912E-006  0.7758883E+03  0.7546771E-02  0.1012943E+00
         -2   -1    0    0    0  501 -0.00000000000E+00  0.00000000000E+00  0.40857877105E+03  0.40857877105E+03  0.00000000000E+00 0.  1.
          2   -1    0    0  502    0  0.00000000000E+00 -0.00000000000E+00 -0.24390949906E+04  0.24390949906E+04  0.00000000000E+00 0. -1.
         23    2    1    2    0    0 -0.69584823466E+03 -0.21731425221E+03 -0.14647338092E+04  0.16383903748E+04  0.86299701201E+02 0.  0.
         23    2    1    2    0    0 -0.75971737020E+02  0.69927156001E+02 -0.37691457970E+03  0.40113730954E+03  0.90471148676E+02 0.  0.
        -11    1    3    3    0    0 -0.67280830177E+03 -0.20260016576E+03 -0.13684668975E+04  0.15383170959E+04  0.00000000000E+00 0. -1.
         11    1    3    3    0    0 -0.23039932895E+02 -0.14714086448E+02 -0.96266911739E+02  0.10007327887E+03  0.00000000000E+00 0.  1.
        -13    1    4    4    0    0 -0.22801118420E+02  0.48400090112E+02 -0.30242030161E+03  0.30711642507E+03  0.00000000000E+00 0. -1.
         13    1    4    4    0    0 -0.53170618600E+02  0.21527065889E+02 -0.74494278098E+02  0.94020884475E+02  0.00000000000E+00 0.  1.
         21    1    1    2  502  501  0.77181997168E+03  0.14738709621E+03 -0.18886783061E+03  0.80814607730E+03  0.00000000000E+00 0.  1.
<scales pt_clust_5="13000.00000" pt_clust_6="13000.00000" pt_clust_7="13000.00000" pt_clust_8="13000.00000" pt_clust_9="771.07389"></scales>
<clustering>
<clus scale="   86.300">  5  6 -1 -1</clus>
<clus scale="   90.471">  7  8 -1 -1</clus>
<clus scale="  137.283">  2  7  1 -1</clus>
<clus scale="  771.074">  1  9  2 -1</clus>
<clus scale="  137.283">  2  5  1 -1</clus>
</clustering>
</event>
<event>
 9    1  0.5300912E-006  0.1521651E+03  0.7546771E-02  0.1218933E+00
         -1   -1    0    0    0  501 -0.00000000000E+00  0.00000000000E+00  0.33456534236E+02  0.33456534236E+02  0.00000000000E+00 0.  1.
          1   -1    0    0  502    0  0.00000000000E+00 -0.00000000000E+00 -0.14029429006E+04  0.14029429006E+04  0.00000000000E+00 0. -1.
         23    2    1    2    0    0  0.44627384260E+01 -0.29128778124E+02 -0.11356849675E+03  0.14926177535E+03  0.92265228432E+02 0.  0.
         23    2    1    2    0    0  0.55438828329E+02 -0.94124652709E+02 -0.72069948965E+03  0.73465388582E+03  0.91518651824E+02 0.  0.
        -11    1    3    3    0    0 -0.35523362262E+02 -0.38875354240E+02 -0.81733964594E+02  0.97229848308E+02  0.00000000000E+00 0.  1.
         11    1    3    3    0    0  0.39986100688E+02  0.97465761157E+01 -0.31834532155E+02  0.52031927042E+02  0.00000000000E+00 0. -1.
        -13    1    4    4    0    0  0.10135926212E+02 -0.96302815227E+02 -0.46735562725E+03  0.47728215087E+03  0.00000000000E+00 0.  1.
         13    1    4    4    0    0  0.45302902117E+02  0.21781625186E+01 -0.25334386241E+03  0.25737173495E+03  0.00000000000E+00 0. -1.
         21    1    1    2  502  501 -0.59901566755E+02  0.12325343083E+03 -0.53521837991E+03  0.55248377362E+03  0.00000000000E+00 0. -1.
<scales pt_clust_5="13000.00000" pt_clust_6="13000.00000" pt_clust_7="13000.00000" pt_clust_8="13000.00000" pt_clust_9="121.56702"></scales>
<clustering>
<clus scale="   91.519">  7  8 -1 -1</clus>
<clus scale="   92.265">  5  6 -1 -1</clus>
<clus scale="   96.857">  1  5  2 -1</clus>
<clus scale="  121.567">  1  9  2 -1</clus>
<clus scale="  152.165">  2  5  1 -1</clus>
</clustering>
</event>
<event>
 9    1  0.5300912E-006  0.1529318E+03  0.7546771E-02  0.1197136E+00
         -2   -1    0    0    0  501 -0.00000000000E+00  0.00000000000E+00  0.93498412381E+02  0.93498412381E+02  0.00000000000E+00 0.  1.
          2   -1    0    0  502    0  0.00000000000E+00 -0.00000000000E+00 -0.77385055081E+03  0.77385055081E+03  0.00000000000E+00 0. -1.
         23    2    1    2    0    0 -0.12257374846E+03  0.30108443397E+01 -0.20342816505E+02  0.15470837902E+03  0.92127430013E+02 0.  0.
         23    2    1    2    0    0  0.11553104869E+03  0.92048848388E+02 -0.42958568243E+03  0.46327940346E+03  0.90903979157E+02 0.  0.
        -11    1    3    3    0    0 -0.71709518006E+02 -0.35224765887E+02 -0.38286550926E+02  0.88594012699E+02  0.00000000000E+00 0. -1.
         11    1    3    3    0    0 -0.50864230459E+02  0.38235610227E+02  0.17943734421E+02  0.66114366325E+02  0.00000000000E+00 0.  1.
        -13    1    4    4    0    0  0.37791319886E+02  0.86280793051E+02 -0.20657606410E+03  0.22703794698E+03  0.00000000000E+00 0.  1.
         13    1    4    4    0    0  0.77739728808E+02  0.57680553374E+01 -0.22300961833E+03  0.23624145649E+03  0.00000000000E+00 0. -1.
         21    1    1    2  502  501  0.70426997703E+01 -0.95059692728E+02 -0.23042363949E+03  0.24936118070E+03  0.00000000000E+00 0.  1.
<scales pt_clust_5="13000.00000" pt_clust_6="13000.00000" pt_clust_7="13000.00000" pt_clust_8="13000.00000" pt_clust_9="95.32022"></scales>
<clustering>
<clus scale="   90.904">  7  8 -1 -1</clus>
<clus scale="   92.127">  5  6 -1 -1</clus>
<clus scale="   95.320">  2  9  1 -1</clus>
<clus scale="  152.198">  2  7  1 -1</clus>
<clus scale="   95.320">  2  5  1 -1</clus>
</clustering>
</event>
<event>
 9    1  0.5300912E-006  0.1100774E+03  0.7546771E-02  0.1260920E+00
          1   -1    0    0  502    0  0.00000000000E+00  0.00000000000E+00  0.76395652999E+02  0.76395652999E+02  0.00000000000E+00 0. -1.
         -1   -1    0    0    0  501 -0.00000000000E+00 -0.00000000000E+00 -0.39623240294E+03  0.39623240294E+03  0.00000000000E+00 0.  1.
         23    2    1    2    0    0 -0.65882904795E+02  0.28697541265E+02 -0.68877771376E+02  0.13438927297E+03  0.90289663205E+02 0.  0.
         23    2    1    2    0    0  0.57177809780E+02  0.83509032036E+01 -0.27706352938E+02  0.11176560405E+03  0.91568928905E+02 0.  0.
        -13    1    4    4    0    0  0.79007166464E+02 -0.57923174227E+01 -0.31934341082E+02  0.85413613869E+02  0.00000000000E+00 0. -1.
         13    1    4    4    0    0 -0.21829356684E+02  0.14143220626E+02  0.42279881446E+01  0.26351990184E+02  0.00000000000E+00 0.  1.
        -13    1    3    3    0    0 -0.88212920798E+02  0.25770190706E+02 -0.48003341381E+02  0.10368193145E+03  0.00000000000E+00 0.  1.
         13    1    3    3    0    0  0.22330016004E+02  0.29273505591E+01 -0.20874429995E+02  0.30707341527E+02  0.00000000000E+00 0. -1.
         21    1    1    2  502  501  0.87050950145E+01 -0.37048444469E+02 -0.22325262563E+03  0.22647317891E+03  0.00000000000E+00 0.  1.
<scales pt_clust_5="13000.00000" pt_clust_6="13000.00000" pt_clust_7="13000.00000" pt_clust_8="13000.00000" pt_clust_9="38.05740"></scales>
<clustering>
<clus scale="   38.057">  2  9  1 -1</clus>
<clus scale="   90.290">  7  8 -1 -1</clus>
<clus scale="   91.569">  5  6 -1 -1</clus>
<clus scale="  109.016">  2  7  1 -1</clus>
<clus scale="  110.077">  1  5  2 -1</clus>
</clustering>
</event>
<event>
 9    1  0.5300912E-006  0.1442309E+03  0.7546771E-02  0.1225681E+00
         -2   -1    0    0    0  501 -0.00000000000E+00  0.00000000000E+00  0.10716911073E+03  0.10716911073E+03  0.00000000000E+00 0.  1.
          2   -1    0    0  502    0  0.00000000000E+00 -0.00000000000E+00 -0.31034226869E+03  0.31034226869E+03  0.00000000000E+00 0. -1.
         23    2    1    2    0    0 -0.49495991054E+01  0.32839765189E+02 -0.23154254769E+02  0.10144389622E+03  0.93015030280E+02 0.  0.
         23    2    1    2    0    0  0.73299002837E+02  0.65488392973E+02 -0.62878494219E+02  0.14855048975E+03  0.91935137676E+02 0.  0.
        -13    1    4    4    0    0  0.18233001006E+02  0.70255669760E+02 -0.12277400116E+02  0.73614101996E+02  0.00000000000E+00 0.  1.
         13    1    4    4    0    0  0.55066001831E+02 -0.47672767870E+01 -0.50601094103E+02  0.74936387757E+02  0.00000000000E+00 0. -1.
        -13    1    3    3    0    0 -0.72742549285E+01  0.53184615700E+02  0.17052265204E+02  0.56323155811E+02  0.00000000000E+00 0.  1.
         13    1    3    3    0    0  0.23246558230E+01 -0.20344850511E+02 -0.40206519974E+02  0.45120740413E+02  0.00000000000E+00 0. -1.
         21    1    1    2  502  501 -0.68349403732E+02 -0.98328158162E+02 -0.11714040897E+03  0.16751699344E+03  0.00000000000E+00 0. -1.
<scales pt_clust_5="13000.00000" pt_clust_6="13000.00000" pt_clust_7="13000.00000" pt_clust_8="13000.00000" pt_clust_9="111.13272"></scales>
<clustering>
<clus scale="   91.935">  5  6 -1 -1</clus>
<clus scale="   93.015">  7  8 -1 -1</clus>
<clus scale="   98.766">  1  7  2 -1</clus>
<clus scale="  111.133">  2  9  1 -1</clus>
<clus scale="  111.133">  2  5  1 -1</clus>
</clustering>
</event>
<event>
 9    1  0.5300912E-006  0.9905067E+02  0.7546771E-02  0.1284000E+00
         -1   -1    0    0    0  501 -0.00000000000E+00  0.00000000000E+00  0.69913893242E+02  0.69913893242E+02  0.00000000000E+00 0.  1.
          1   -1    0    0  502    0  0.00000000000E+00 -0.00000000000E+00 -0.22342442353E+03  0.22342442353E+03  0.00000000000E+00 0. -1.
         23    2    1    2    0    0  0.17447479126E+02  0.35599213087E+02 -0.50272746582E+00  0.99052617928E+02  0.90771415563E+02 0.  0.
         23    2    1    2    0    0 -0.36062633156E+02 -0.24834393375E+02 -0.13195857887E+03  0.16419458501E+03  0.87347207188E+02 0.  0.
        -11    1    4    4    0    0 -0.28767788005E+02 -0.56668195218E+02 -0.72940990455E+02  0.96743258496E+02  0.00000000000E+00 0.  1.
         11    1    4    4    0    0 -0.72948451504E+01  0.31833801843E+02 -0.59017588420E+02  0.67451326513E+02  0.00000000000E+00 0. -1.
        -13    1    3    3    0    0 -0.14332836537E+02  0.32644978604E+02 -0.36445243235E+02  0.50984120918E+02  0.00000000000E+00 0. -1.
         13    1    3    3    0    0  0.31780315663E+02  0.29542344825E+01  0.35942515770E+02  0.48068497010E+02  0.00000000000E+00 0.  1.
         21    1    1    2  502  501  0.18615154030E+02 -0.10764819712E+02 -0.21049223945E+02  0.30091113832E+02  0.00000000000E+00 0.  1.
<scales pt_clust_5="13000.00000" pt_clust_6="13000.00000" pt_clust_7="13000.00000" pt_clust_8="13000.00000" pt_clust_9="21.50361"></scales>
<clustering>
<clus scale="   21.504">  2  9  1 -1</clus>
<clus scale="   87.347">  5  6 -1 -1</clus>
<clus scale="   90.771">  7  8 -1 -1</clus>
<clus scale="   95.922">  2  5  1 -1</clus>
<clus scale="   21.504">  2  5  1 -1</clus>
</clustering>
</event>
<event>
 9    1  0.5300912E-006  0.9347369E+02  0.7546771E-02  0.1295549E+00
         -1   -1    0    0    0  501 -0.00000000000E+00  0.00000000000E+00  0.36245209279E+03  0.36245209279E+03  0.00000000000E+00 0.  1.
          1   -1    0    0  502    0  0.00000000000E+00 -0.00000000000E+00 -0.35843778350E+02  0.35843778350E+02  0.00000000000E+00 0. -1.
         23    2    1    2    0    0 -0.29482159674E+01  0.86314194909E+01  0.18027826270E+03  0.20118203283E+03  0.88829977776E+02 0.  0.
         23    2    1    2    0    0 -0.20344875141E+02 -0.26838535798E+02  0.83232270609E+02  0.12743315834E+03  0.90428856153E+02 0.  0.
        -13    1    4    4    0    0 -0.40505950070E+01 -0.58387203920E+02  0.65176026130E+02  0.87597872598E+02  0.00000000000E+00 0.  1.
         13    1    4    4    0    0 -0.16294280134E+02  0.31548668122E+02  0.18056244478E+02  0.39835285741E+02  0.00000000000E+00 0. -1.
        -13    1    3    3    0    0  0.34992492942E+02 -0.19353204864E+02  0.61147536140E+02  0.73061907153E+02  0.00000000000E+00 0. -1.
         13    1    3    3    0    0 -0.37940708909E+02  0.27984624355E+02  0.11913072656E+03  0.12812012567E+03  0.00000000000E+00 0.  1.
         21    1    1    2  502  501  0.23293091108E+02  0.18207116307E+02  0.63097781136E+02  0.69680679976E+02  0.00000000000E+00 0. -1.
<scales pt_clust_5="13000.00000" pt_clust_6="13000.00000" pt_clust_7="13000.00000" pt_clust_8="13000.00000" pt_clust_9="29.56463"></scales>
<clustering>
<clus scale="   29.565">  1  9  2 -1</clus>
<clus scale="   88.830">  7  8 -1 -1</clus>
<clus scale="   90.429">  5  6 -1 -1</clus>
<clus scale="   91.928">  1  7  2 -1</clus>
<clus scale="   93.474">  2  5  1 -1</clus>
</clustering>
</event>
<event>
 9    1  0.5300912E-006  0.1214121E+03  0.7546771E-02  0.1246591E+00
         -2   -1    0    0    0  501 -0.00000000000E+00  0.00000000000E+00  0.26294825467E+03  0.26294825467E+03  0.00000000000E+00 0.  1.
          2   -1    0    0  502    0  0.00000000000E+00 -0.00000000000E+00 -0.12608092173E+03  0.12608092173E+03  0.00000000000E+00 0. -1.
         23    2    1    2    0    0  0.20019495706E+02  0.79879974163E+02  0.20411591427E+03  0.23154844578E+03  0.71901222549E+02 0.  0.
         23    2    1    2    0    0 -0.35886127970E+02 -0.62555777735E+02 -0.42929123871E+02  0.12366780687E+03  0.90828284532E+02 0.  0.
        -11    1    3    3    0    0 -0.20101733620E+02  0.46530210620E+02  0.61538072929E+02  0.79724993663E+02  0.00000000000E+00 0. -1.
         11    1    3    3    0    0  0.40121229325E+02  0.33349763543E+02  0.14257784134E+03  0.15182345211E+03  0.00000000000E+00 0.  1.
        -11    1    4    4    0    0  0.23667295548E+02 -0.64388831156E+01  0.97009444244E+01  0.26376285126E+02  0.00000000000E+00 0.  1.
         11    1    4    4    0    0 -0.59553423518E+02 -0.56116894619E+02 -0.52630068296E+02  0.97291521744E+02  0.00000000000E+00 0. -1.
         21    1    1    2  502  501  0.15866632264E+02 -0.17324196428E+02 -0.24319457461E+02  0.33812923750E+02  0.00000000000E+00 0. -1.
<scales pt_clust_5="13000.00000" pt_clust_6="13000.00000" pt_clust_7="13000.00000" pt_clust_8="13000.00000" pt_clust_9="23.49208"></scales>
<clustering>
<clus scale="   23.492">  2  9  1 -1</clus>
<clus scale="   71.901">  5  6 -1 -1</clus>
<clus scale="   90.828">  7  8 -1 -1</clus>
<clus scale="  107.986">  1  5  2 -1</clus>
<clus scale="   23.492">  2  5  1 -1</clus>
</clustering>
</event>
<event>
 9    1  0.5300912E-006  0.1259381E+03  0.7546771E-02  0.1234502E+00
         -1   -1    0    0    0  501 -0.00000000000E+00  0.00000000000E+00  0.18039654904E+03  0.18039654904E+03  0.00000000000E+00 0.  1.
          1   -1    0    0  502    0  0.00000000000E+00 -0.00000000000E+00 -0.28840286109E+03  0.28840286109E+03  0.00000000000E+00 0. -1.
         23    2    1    2    0    0 -0.69228225550E+02 -0.12597891858E+02  0.10026685190E+03  0.15049188746E+03  0.87424896402E+02 0.  0.
         23    2    1    2    0    0  0.66891995610E+02  0.61774682022E+02 -0.23081730068E+03  0.26415908999E+03  0.90624213737E+02 0.  0.
        -11    1    3    3    0    0 -0.15313947578E+00 -0.38143868881E+02  0.28070850322E+02  0.47359801760E+02  0.00000000000E+00 0. -1.
         11    1    3    3    0    0 -0.69075086074E+02  0.25545977023E+02  0.72196001576E+02  0.10313208570E+03  0.00000000000E+00 0.  1.
        -13    1    4    4    0    0 -0.16823634322E+02  0.36711672225E+02 -0.60634883429E+02  0.72851703053E+02  0.00000000000E+00 0.  1.
         13    1    4    4    0    0  0.83715629932E+02  0.25063009797E+02 -0.17018241725E+03  0.19130738693E+03  0.00000000000E+00 0. -1.
         21    1    1    2  502  501  0.23362299406E+01 -0.49176790164E+02  0.22544136721E+02  0.54148432680E+02  0.00000000000E+00 0.  1.
<scales pt_clust_5="13000.00000" pt_clust_6="13000.00000" pt_clust_7="13000.00000" pt_clust_8="13000.00000" pt_clust_9="49.23225"></scales>
<clustering>
<clus scale="   49.232">  1  9  2 -1</clus>
<clus scale="   87.425">  5  6 -1 -1</clus>
<clus scale="   90.624">  7  8 -1 -1</clus>
<clus scale="  123.656">  1  5  2 -1</clus>
<clus scale="  125.938">  2  5  1 -1</clus>
</clustering>
</event>
<event>
 9    1  0.5300912E-006  0.1402996E+03  0.7546771E-02  0.1213259E+00
          1   -1    0    0  502    0  0.00000000000E+00  0.00000000000E+00  0.54365369092E+03  0.54365369092E+03  0.00000000000E+00 0. -1.
         -1   -1    0    0    0  501 -0.00000000000E+00 -0.00000000000E+00 -0.45270606293E+02  0.45270606293E+02  0.00000000000E+00 0.  1.
         23    2    1    2    0    0 -0.95014581957E+02  0.43996952161E+02  0.17225592155E+03  0.22185530027E+03  0.92650791494E+02 0.  0.
         23    2    1    2    0    0  0.10559296016E+03 -0.21935470539E+02  0.25019390338E+03  0.28729136233E+03  0.91149873707E+02 0.  0.
        -13    1    3    3    0    0 -0.19467692098E+02  0.53710361060E+02  0.10810029333E+03  0.12226801437E+03  0.00000000000E+00 0. -1.
         13    1    3    3    0    0 -0.75546889860E+02 -0.97134088991E+01  0.64155628220E+02  0.99587285897E+02  0.00000000000E+00 0.  1.
        -13    1    4    4    0    0 -0.16587026116E+01  0.22705489222E+02  0.24440887729E+02  0.33401310276E+02  0.00000000000E+00 0.  1.
         13    1    4    4    0    0  0.10725166277E+03 -0.44640959761E+02  0.22575301565E+03  0.25389005205E+03  0.00000000000E+00 0. -1.
         21    1    1    2  502  501 -0.10578378200E+02 -0.22061481622E+02  0.75933259700E+02  0.79777634619E+02  0.00000000000E+00 0. -1.
<scales pt_clust_5="13000.00000" pt_clust_6="13000.00000" pt_clust_7="13000.00000" pt_clust_8="13000.00000" pt_clust_9="24.46653"></scales>
<clustering>
<clus scale="   24.467">  1  9  2 -1</clus>
<clus scale="   91.150">  7  8 -1 -1</clus>
<clus scale="   92.651">  5  6 -1 -1</clus>
<clus scale="  139.313">  1  7  2 -1</clus>
<clus scale="   24.467">  1  5  2 -1</clus>
</clustering>
</event>
<event>
 9    1  0.5300912E-006  0.1132693E+03  0.7546771E-02  0.1254642E+00
         -1   -1    0    0    0  501 -0.00000000000E+00  0.00000000000E+00  0.35685784193E+03  0.35685784193E+03  0.00000000000E+00 0.  1.
          1   -1    0    0  502    0  0.00000000000E+00 -0.00000000000E+00 -0.16321335301E+03  0.16321335301E+03  0.00000000000E+00 0. -1.
         23    2    1    2    0    0 -0.49791548585E+02 -0.58309193561E+02  0.38980618525E+02  0.12171069091E+03  0.86109484363E+02 0.  0.
         23    2    1    2    0    0  0.75234774991E+02  0.15355171064E+02 -0.91468775195E+02  0.14721575484E+03  0.86080712073E+02 0.  0.
        -11    1    4    4    0    0  0.16516006497E+01 -0.20857805207E+02  0.40591728675E+01  0.21313204994E+02  0.00000000000E+00 0. -1.
         11    1    4    4    0    0  0.73583174341E+02  0.36212976271E+02 -0.95527948062E+02  0.12590254985E+03  0.00000000000E+00 0.  1.
        -13    1    3    3    0    0 -0.54870358890E+02 -0.20982283597E+02  0.55279567968E+02  0.80665005699E+02  0.00000000000E+00 0.  1.
         13    1    3    3    0    0  0.50788103048E+01 -0.37326909964E+02 -0.16298949443E+02  0.41045685212E+02  0.00000000000E+00 0. -1.
         21    1    1    2  502  501 -0.25443226406E+02  0.42954022497E+02  0.24613264559E+03  0.25114474919E+03  0.00000000000E+00 0.  1.
<scales pt_clust_5="13000.00000" pt_clust_6="13000.00000" pt_clust_7="13000.00000" pt_clust_8="13000.00000" pt_clust_9="49.92400"></scales>
<clustering>
<clus scale="   49.924">  1  9  2 -1</clus>
<clus scale="   86.081">  5  6 -1 -1</clus>
<clus scale="   86.109">  7  8 -1 -1</clus>
<clus scale="  113.247">  2  5  1 -1</clus>
<clus scale="  113.247">  2  5  1 -1</clus>
</clustering>
</event>
<event>
 9    1  0.5300912E-006  0.9511567E+02  0.7546771E-02  0.1292117E+00
          1   -1    0    0  502    0  0.00000000000E+00  0.00000000000E+00  0.53312454011E+02  0.53312454011E+02  0.00000000000E+00 0. -1.
         -1   -1    0    0    0  501 -0.00000000000E+00 -0.00000000000E+00 -0.34096461334E+03  0.34096461334E+03  0.00000000000E+00 0.  1.
         23    2    1    2    0    0  0.73556651825E+01  0.15179470219E+02 -0.17417196474E+03  0.19678338741E+03  0.90018365532E+02 0.  0.
         23    2    1    2    0    0 -0.27672495807E+02 -0.46270653471E+02 -0.12170605257E+03  0.15945291205E+03  0.87784551782E+02 0.  0.
        -13    1    4    4    0    0 -0.18242478634E+01 -0.63790671870E+02 -0.49434550078E+02  0.80723927304E+02  0.00000000000E+00 0. -1.
         13    1    4    4    0    0 -0.25848247944E+02  0.17520018399E+02 -0.72271502489E+02  0.78728984742E+02  0.00000000000E+00 0.  1.
        -13    1    3    3    0    0 -0.55437973920E+01  0.41790105277E+02 -0.35859443461E+02  0.55344794461E+02  0.00000000000E+00 0.  1.
         13    1    3    3    0    0  0.12899462575E+02 -0.26610635059E+02 -0.13831252128E+03  0.14143859295E+03  0.00000000000E+00 0. -1.
         21    1    1    2  502  501  0.20316830625E+02  0.31091183252E+02  0.82258579770E+01  0.38040767896E+02  0.00000000000E+00 0. -1.
<scales pt_clust_5="13000.00000" pt_clust_6="13000.00000" pt_clust_7="13000.00000" pt_clust_8="13000.00000" pt_clust_9="37.14075"></scales>
<clustering>
<clus scale="   37.141">  1  9  2 -1</clus>
<clus scale="   87.785">  5  6 -1 -1</clus>
<clus scale="   90.018">  7  8 -1 -1</clus>
<clus scale="   93.004">  1  5  2 -1</clus>
<clus scale="   37.141">  1  5  2 -1</clus>
</clustering>
</event>
<event>
 9    1  0.5300912E-006  0.1354048E+03  0.7546771E-02  0.1236913E+00
          1   -1    0    0  502    0  0.00000000000E+00  0.00000000000E+00  0.38064084138E+03  0.38064084138E+03  0.00000000000E+00 0. -1.
         -1   -1    0    0    0  501 -0.00000000000E+00 -0.00000000000E+00 -0.21683016215E+03  0.21683016215E+03  0.00000000000E+00 0.  1.
         23    2    1    2    0    0  0.43805538501E+01  0.16399045195E+02 -0.53314430375E+01  0.94854286979E+02  0.93170776202E+02 0.  0.
         23    2    1    2    0    0 -0.31565235969E+02  0.80521104533E+02 -0.13364419026E+03  0.18353667421E+03  0.91350581775E+02 0.  0.
        -11    1    3    3    0    0 -0.31604611356E+02  0.35544983381E+02  0.14223556642E+02  0.49644807040E+02  0.00000000000E+00 0.  1.
         11    1    3    3    0    0  0.35985165206E+02 -0.19145938186E+02 -0.19554999679E+02  0.45209479939E+02  0.00000000000E+00 0. -1.
        -13    1    4    4    0    0 -0.44824260141E+00  0.42261288869E+02 -0.12691066100E+03  0.13376297445E+03  0.00000000000E+00 0.  1.
         13    1    4    4    0    0 -0.31116993367E+02  0.38259815664E+02 -0.67335292600E+01  0.49773699754E+02  0.00000000000E+00 0. -1.
         21    1    1    2  502  501  0.27184682119E+02 -0.96920149728E+02  0.30278631253E+03  0.31908004235E+03  0.00000000000E+00 0. -1.
<scales pt_clust_5="13000.00000" pt_clust_6="13000.00000" pt_clust_7="13000.00000" pt_clust_8="13000.00000" pt_clust_9="99.94763"></scales>
<clustering>
<clus scale="   91.351">  7  8 -1 -1</clus>
<clus scale="   93.171">  5  6 -1 -1</clus>
<clus scale="   94.704">  2  5  1 -1</clus>
<clus scale="   99.948">  1  9  2 -1</clus>
<clus scale="   99.948">  1  5  2 -1</clus>
</clustering>
</event>
<event>
 9    1  0.5300912E-006  0.1015134E+03  0.7546771E-02  0.1277934E+00
         -1   -1    0    0    0  501 -0.00000000000E+00  0.00000000000E+00  0.48876270022E+02  0.48876270022E+02  0.00000000000E+00 0.  1.
          1   -1    0    0  502    0  0.00000000000E+00 -0.00000000000E+00 -0.41295612502E+03  0.41295612502E+03  0.00000000000E+00 0. -1.
         23    2    1    2    0    0 -0.33575255067E+02 -0.24500165800E+02 -0.11292943322E+03  0.15027939758E+03  0.90018245786E+02 0.  0.
         23    2    1    2    0    0  0.54373402866E+02 -0.11347518221E+02 -0.24909558740E+03  0.27005791647E+03  0.88303077397E+02 0.  0.
        -13    1    3    3    0    0  0.24542693990E+02 -0.20481285959E+02 -0.72885950949E+02  0.79587616804E+02  0.00000000000E+00 0. -1.
         13    1    3    3    0    0 -0.58117949057E+02 -0.40188798415E+01 -0.40043482269E+02  0.70691780781E+02  0.00000000000E+00 0.  1.
        -13    1    4    4    0    0 -0.12499865091E+02 -0.29918548061E+02 -0.54024321268E+02  0.63007883902E+02  0.00000000000E+00 0. -1.
         13    1    4    4    0    0  0.66873267957E+02  0.18571029840E+02 -0.19507126613E+03  0.20705003257E+03  0.00000000000E+00 0.  1.
         21    1    1    2  502  501 -0.20798147799E+02  0.35847684021E+02 -0.20548343773E+01  0.41495080984E+02  0.00000000000E+00 0.  1.
<scales pt_clust_5="13000.00000" pt_clust_6="13000.00000" pt_clust_7="13000.00000" pt_clust_8="13000.00000" pt_clust_9="41.44417"></scales>
<clustering>
<clus scale="   41.444">  1  9  2 -1</clus>
<clus scale="   88.303">  7  8 -1 -1</clus>
<clus scale="   90.018">  5  6 -1 -1</clus>
<clus scale="   99.996">  2  7  1 -1</clus>
<clus scale="   99.996">  2  5  1 -1</clus>
</clustering>
</event>
<event>
 9    1  0.5300912E-006  0.2717584E+03  0.7546771E-02  0.1133599E+00
         -1   -1    0    0    0  501 -0.00000000000E+00  0.00000000000E+00  0.16855290202E+03  0.16855290202E+03  0.00000000000E+00 0.  1.
          1   -1    0    0  502    0  0.00000000000E+00 -0.00000000000E+00 -0.11509182933E+04  0.11509182933E+04  0.00000000000E+00 0. -1.
         23    2    1    2    0    0  0.67726082996E+02 -0.35068432909E+02 -0.28666877192E+02  0.12097663922E+03  0.89425612018E+02 0.  0.
         23    2    1    2    0    0 -0.22586134914E+03  0.22228311536E+03 -0.15788133844E+03  0.36579948779E+03  0.91976169902E+02 0.  0.
        -11    1    4    4    0    0 -0.10395126046E+03  0.96588593793E+02 -0.20788618702E+02  0.14341334550E+03  0.00000000000E+00 0.  1.
         11    1    4    4    0    0 -0.12191008868E+03  0.12569452157E+03 -0.13709271974E+03  0.22238614229E+03  0.00000000000E+00 0. -1.
        -11    1    3    3    0    0  0.17562476280E+01  0.24837480379E+02  0.55703967995E+01  0.25514979087E+02  0.00000000000E+00 0. -1.
         11    1    3    3    0    0  0.65969835369E+02 -0.59905913288E+02 -0.34237273992E+02  0.95461660135E+02  0.00000000000E+00 0.  1.
         21    1    1    2  502  501  0.15813526614E+03 -0.18721468246E+03 -0.79581717568E+03  0.83269506834E+03  0.00000000000E+00 0. -1.
<scales pt_clust_5="13000.00000" pt_clust_6="13000.00000" pt_clust_7="13000.00000" pt_clust_8="13000.00000" pt_clust_9="255.72062"></scales>
<clustering>
<clus scale="   89.426">  7  8 -1 -1</clus>
<clus scale="   91.976">  5  6 -1 -1</clus>
<clus scale="  117.531">  1  7  2 -1</clus>
<clus scale="  255.721">  2  9  1 -1</clus>
<clus scale="  255.721">  2  5  1 -1</clus>
</clustering>
</event>
<event>
 9    1  0.5300912E-006  0.1482693E+03  0.7546771E-02  0.1203609E+00
          1   -1    0    0  502    0  0.00000000000E+00  0.00000000000E+00  0.14080378669E+04  0.14080378669E+04  0.00000000000E+00 0. -1.
         -1   -1    0    0    0  501 -0.00000000000E+00 -0.00000000000E+00 -0.10510818090E+03  0.10510818090E+03  0.00000000000E+00 0.  1.
         23    2    1    2    0    0  0.10925586081E+03 -0.56156355890E+02  0.51019917269E+00  0.15555807256E+03  0.95434135445E+02 0.  0.
         23    2    1    2    0    0  0.21164603484E+01  0.14050280002E+03  0.28316940735E+03  0.32880770664E+03  0.90465896716E+02 0.  0.
        -13    1    4    4    0    0  0.39490961930E+02  0.36543796149E+02  0.12280034065E+03  0.13407053657E+03  0.00000000000E+00 0. -1.
         13    1    4    4    0    0 -0.37374501581E+02  0.10395900387E+03  0.16036906670E+03  0.19473717007E+03  0.00000000000E+00 0.  1.
        -13    1    3    3    0    0  0.90562421346E+02 -0.82606363851E+02  0.59177739418E+01  0.12272075439E+03  0.00000000000E+00 0.  1.
         13    1    3    3    0    0  0.18693439461E+02  0.26450007961E+02 -0.54075747691E+01  0.32837318174E+02  0.00000000000E+00 0. -1.
         21    1    1    2  502  501 -0.11137232116E+03 -0.84346444129E+02  0.10192500795E+04  0.10287802686E+04  0.00000000000E+00 0. -1.
<scales pt_clust_5="13000.00000" pt_clust_6="13000.00000" pt_clust_7="13000.00000" pt_clust_8="13000.00000" pt_clust_9="139.70725"></scales>
<clustering>
<clus scale="   90.466">  5  6 -1 -1</clus>
<clus scale="   95.434">  7  8 -1 -1</clus>
<clus scale="  139.707">  1  9  2 -1</clus>
<clus scale="  145.121">  1  5  2 -1</clus>
<clus scale="  139.707">  1  5  2 -1</clus>
</clustering>
</event>
<event>
 9    1  0.5300912E-006  0.1310937E+03  0.7546771E-02  0.1239596E+00
          2   -1    0    0  502    0  0.00000000000E+00  0.00000000000E+00  0.34254828082E+03  0.34254828082E+03  0.00000000000E+00 0. -1.
         -2   -1    0    0    0  501 -0.00000000000E+00 -0.00000000000E+00 -0.15599622631E+03  0.15599622631E+03  0.00000000000E+00 0.  1.
         23    2    1    2    0    0 -0.19885501378E+02  0.34292231740E+02 -0.95227115417E+02  0.13722614453E+03  0.90506468881E+02 0.  0.
         23    2    1    2    0    0 -0.75334463055E+02  0.78122823242E+01  0.13049925094E+03  0.17767401714E+03  0.93817316052E+02 0.  0.
        -11    1    4    4    0    0  0.21740237810E+02 -0.41304383890E+01  0.31617510508E+02  0.38592297574E+02  0.00000000000E+00 0.  1.
         11    1    4    4    0    0 -0.97074700865E+02  0.11942720713E+02  0.98881740432E+02  0.13908171956E+03  0.00000000000E+00 0. -1.
        -13    1    3    3    0    0  0.14310899070E+02  0.56321877188E+02 -0.54746856253E+02  0.79838424031E+02  0.00000000000E+00 0.  1.
         13    1    3    3    0    0 -0.34196400448E+02 -0.22029645448E+02 -0.40480259164E+02  0.57387720500E+02  0.00000000000E+00 0. -1.
         21    1    1    2  502  501  0.95219964433E+02 -0.42104514064E+02  0.15127991899E+03  0.18364434546E+03  0.00000000000E+00 0.  1.
<scales pt_clust_5="13000.00000" pt_clust_6="13000.00000" pt_clust_7="13000.00000" pt_clust_8="13000.00000" pt_clust_9="91.56347"></scales>
<clustering>
<clus scale="   90.506">  7  8 -1 -1</clus>
<clus scale="   93.817">  5  6 -1 -1</clus>
<clus scale="   98.807">  2  7  1 -1</clus>
<clus scale="   91.563">  1  9  2 -1</clus>
<clus scale="   91.563">  1  5  2 -1</clus>
</clustering>
</event>
<event>
 9    1  0.5300912E-006  0.9763844E+02  0.7546771E-02  0.1285712E+00
          1   -1    0    0  502    0  0.00000000000E+00  0.00000000000E+00  0.41972861840E+03  0.41972861840E+03  0.00000000000E+00 0. -1.
         -1   -1    0    0    0  501 -0.00000000000E+00 -0.00000000000E+00 -0.10199914880E+03  0.10199914880E+03  0.00000000000E+00 0.  1.
         23    2    1    2    0    0 -0.46514216157E+02  0.52592049792E+02  0.86244342846E+01  0.11619108840E+03  0.92176418631E+02 0.  0.
         23    2    1    2    0    0 -0.41653746915E+02 -0.12252269372E+02  0.20436107691E+02  0.10101962284E+03  0.88894189706E+02 0.  0.
        -11    1    3    3    0    0 -0.27719261086E+02  0.76852734007E+02  0.18846033178E+02  0.83844338665E+02  0.00000000000E+00 0.  1.
         11    1    3    3    0    0 -0.18794955072E+02 -0.24260684215E+02 -0.10221598893E+02  0.32346749739E+02  0.00000000000E+00 0. -1.
        -11    1    4    4    0    0 -0.65281667316E+02  0.95706606110E+01  0.19660192331E+02  0.68846327386E+02  0.00000000000E+00 0.  1.
         11    1    4    4    0    0  0.23627920400E+02 -0.21822929983E+02  0.77591536057E+00  0.32173295450E+02  0.00000000000E+00 0. -1.
         21    1    1    2  502  501  0.88167963073E+02 -0.40339780420E+02  0.28866892762E+03  0.30451705596E+03  0.00000000000E+00 0. -1.
<scales pt_clust_5="13000.00000" pt_clust_6="13000.00000" pt_clust_7="13000.00000" pt_clust_8="13000.00000" pt_clust_9="96.95817"></scales>
<clustering>
<clus scale="   88.894">  7  8 -1 -1</clus>
<clus scale="   92.176">  5  6 -1 -1</clus>
<clus scale="   96.958">  1  9  2 -1</clus>
<clus scale="   96.958">  1  7  2 -1</clus>
<clus scale="   96.958">  1  5  2 -1</clus>
</clustering>
</event>
<event>
 9    1  0.5300912E-006  0.2950669E+03  0.7546771E-02  0.1130235E+00
          3   -1    0    0  502    0  0.00000000000E+00  0.00000000000E+00  0.27065861875E+03  0.27065861875E+03  0.00000000000E+00 0. -1.
         -3   -1    0    0    0  501 -0.00000000000E+00 -0.00000000000E+00 -0.78322653518E+03  0.78322653518E+03  0.00000000000E+00 0.  1.
         23    2    1    2    0    0  0.25270691812E+03  0.27779756837E+02 -0.38370185663E+03  0.47424611539E+03  0.11423555413E+03 0.  0.
         23    2    1    2    0    0  0.43432597538E+02  0.39979413321E+01  0.14437166614E+03  0.17545184216E+03  0.89653761051E+02 0.  0.
        -11    1    4    4    0    0  0.52148034085E+02 -0.22760628331E+02  0.13378925743E+03  0.14538579389E+03  0.00000000000E+00 0.  1.
         11    1    4    4    0    0 -0.87154365472E+01  0.26758569663E+02  0.10582408707E+02  0.30066048272E+02  0.00000000000E+00 0. -1.
        -13    1    3    3    0    0  0.22870783228E+03  0.45607094476E+02 -0.37747954401E+03  0.44370946098E+03  0.00000000000E+00 0.  1.
         13    1    3    3    0    0  0.23999085836E+02 -0.17827337639E+02 -0.62223126146E+01  0.30536654410E+02  0.00000000000E+00 0. -1.
         21    1    1    2  502  501 -0.29613951566E+03 -0.31777698169E+02 -0.27323772594E+03  0.40418719637E+03  0.00000000000E+00 0. -1.
<scales pt_clust_5="13000.00000" pt_clust_6="13000.00000" pt_clust_7="13000.00000" pt_clust_8="13000.00000" pt_clust_9="272.05646"></scales>
<clustering>
<clus scale="   89.654">  5  6 -1 -1</clus>
<clus scale="   99.700">  1  5  2 -1</clus>
<clus scale="  114.236">  7  8 -1 -1</clus>
<clus scale="  272.056">  1  9  2 -1</clus>
<clus scale="   99.700">  1  5  2 -1</clus>
</clustering>
</event>
<event>
 9    1  0.5300912E-006  0.2831727E+03  0.7546771E-02  0.1117764E+00
         -1   -1    0    0    0  501 -0.00000000000E+00  0.00000000000E+00  0.23602223899E+03  0.23602223899E+03  0.00000000000E+00 0.  1.
          1   -1    0    0  502    0  0.00000000000E+00 -0.00000000000E+00 -0.10748756168E+04  0.10748756168E+04  0.00000000000E+00 0. -1.
         23    2    1    2    0    0  0.82934782666E+02 -0.91491693703E+02  0.48749689743E+02  0.16127955572E+03  0.91573220153E+02 0.  0.
         23    2    1    2    0    0  0.23448976670E+03 -0.68587791786E+02 -0.69834616824E+03  0.74687525523E+03  0.10220342611E+03 0.  0.
        -11    1    4    4    0    0  0.10636594168E+02 -0.31504126570E+02 -0.50700251590E+02  0.60631366781E+02  0.00000000000E+00 0.  1.
         11    1    4    4    0    0  0.22385317254E+03 -0.37083665217E+02 -0.64764591665E+03  0.68624388845E+03  0.00000000000E+00 0. -1.
        -13    1    3    3    0    0  0.20214707066E+01 -0.69612455423E+02  0.17336305276E+02  0.71767177557E+02  0.00000000000E+00 0. -1.
         13    1    3    3    0    0  0.80913311959E+02 -0.21879238280E+02  0.31413384467E+02  0.89512378158E+02  0.00000000000E+00 0.  1.
         21    1    1    2  502  501 -0.31742454937E+03  0.16007948549E+03 -0.18925689928E+03  0.40274304481E+03  0.00000000000E+00 0.  1.
<scales pt_clust_5="13000.00000" pt_clust_6="13000.00000" pt_clust_7="13000.00000" pt_clust_8="13000.00000" pt_clust_9="264.08567"></scales>
<clustering>
<clus scale="   91.573">  7  8 -1 -1</clus>
<clus scale="  102.203">  5  6 -1 -1</clus>
<clus scale="  153.735">  1  7  2 -1</clus>
<clus scale="  264.086">  1  9  2 -1</clus>
<clus scale="  283.173">  2  5  1 -1</clus>
</clustering>
</event>
<event>
 9    1  0.5300912E-006  0.1285035E+03  0.7546771E-02  0.1239906E+00
          2   -1    0    0  502    0  0.00000000000E+00  0.00000000000E+00  0.95520533663E+02  0.95520533663E+02  0.00000000000E+00 0. -1.
         -2   -1    0    0    0  501 -0.00000000000E+00 -0.00000000000E+00 -0.46383577168E+03  0.46383577168E+03  0.00000000000E+00 0.  1.
         23    2    1    2    0    0 -0.14110629502E+01  0.67401200917E+02 -0.20934476578E+03  0.23821201565E+03  0.91514045115E+02 0.  0.
         23    2    1    2    0    0 -0.47657574246E+01  0.50663229446E+02  0.20491700196E+02  0.10623958021E+03  0.90980565861E+02 0.  0.
        -13    1    4    4    0    0 -0.38408418578E+02  0.25225541007E+02 -0.17794912825E+02  0.49276703006E+02  0.00000000000E+00 0.  1.
         13    1    4    4    0    0  0.33642661153E+02  0.25437688439E+02  0.38286613021E+02  0.56962877203E+02  0.00000000000E+00 0. -1.
        -13    1    3    3    0    0  0.21284938437E+02  0.52693260495E+02 -0.47336778084E+02  0.73962144812E+02  0.00000000000E+00 0. -1.
         13    1    3    3    0    0 -0.22696001387E+02  0.14707940422E+02 -0.16200798770E+03  0.16424987083E+03  0.00000000000E+00 0.  1.
         21    1    1    2  502  501  0.61768203748E+01 -0.11806443036E+03 -0.17946217243E+03  0.21490470949E+03  0.00000000000E+00 0.  1.
<scales pt_clust_5="13000.00000" pt_clust_6="13000.00000" pt_clust_7="13000.00000" pt_clust_8="13000.00000" pt_clust_9="90.21270"></scales>
<clustering>
<clus scale="   90.981">  5  6 -1 -1</clus>
<clus scale="   91.514">  7  8 -1 -1</clus>
<clus scale="  104.245">  1  5  2 -1</clus>
<clus scale="   90.213">  1  9  2 -1</clus>
<clus scale="  104.245">  1  5  2 -1</clus>
</clustering>
</event>
<event>
 9    1  0.5300912E-006  0.1451176E+03  0.7546771E-02  0.1223552E+00
          4   -1    0    0  502    0  0.00000000000E+00  0.00000000000E+00  0.28166995035E+03  0.28166995035E+03  0.00000000000E+00 0. -1.
         -4   -1    0    0    0  501 -0.00000000000E+00 -0.00000000000E+00 -0.14469224474E+03  0.14469224474E+03  0.00000000000E+00 0.  1.
         23    2    1    2    0    0 -0.49735840605E+02 -0.95948600256E+02 -0.30013986474E+02  0.14508390745E+03  0.92025611030E+02 0.  0.
         23    2    1    2    0    0  0.25615252309E+02 -0.26449121655E+02  0.68606937897E+02  0.12239919849E+03  0.94440217476E+02 0.  0.
        -11    1    3    3    0    0 -0.21477254951E+02 -0.96352224723E+02 -0.49817250276E+02  0.11057478064E+03  0.00000000000E+00 0.  1.
         11    1    3    3    0    0 -0.28258585654E+02  0.40362446668E+00  0.19803263801E+02  0.34509126808E+02  0.00000000000E+00 0. -1.
        -13    1    4    4    0    0 -0.66562178668E+01 -0.55586946518E+02  0.26750746156E+02  0.62046887749E+02  0.00000000000E+00 0.  1.
         13    1    4    4    0    0  0.32271470176E+02  0.29137824863E+02  0.41856191742E+02  0.60352310744E+02  0.00000000000E+00 0. -1.
         21    1    1    2  502  501  0.24120588296E+02  0.12239772191E+03  0.98384754186E+02  0.15887908914E+03  0.00000000000E+00 0. -1.
<scales pt_clust_5="13000.00000" pt_clust_6="13000.00000" pt_clust_7="13000.00000" pt_clust_8="13000.00000" pt_clust_9="112.20697"></scales>
<clustering>
<clus scale="   92.026">  5  6 -1 -1</clus>
<clus scale="   94.440">  7  8 -1 -1</clus>
<clus scale="  101.364">  1  7  2 -1</clus>
<clus scale="  112.207">  1  9  2 -1</clus>
<clus scale="  101.364">  1  5  2 -1</clus>
</clustering>
</event>
<event>
 9    1  0.5300912E-006  0.1590166E+03  0.7546771E-02  0.1213115E+00
          1   -1    0    0  502    0  0.00000000000E+00  0.00000000000E+00  0.97004424252E+02  0.97004424252E+02  0.00000000000E+00 0. -1.
         -1   -1    0    0    0  501 -0.00000000000E+00 -0.00000000000E+00 -0.52619599752E+03  0.52619599752E+03  0.00000000000E+00 0.  1.
         23    2    1    2    0    0 -0.71515332157E+00 -0.36645761716E+02 -0.19573645669E+03  0.21800016394E+03  0.88701114443E+02 0.  0.
         23    2    1    2    0    0 -0.12765812219E+03 -0.40850506603E+01 -0.29688983302E+02  0.16094765496E+03  0.93324316804E+02 0.  0.
        -13    1    4    4    0    0 -0.61348620894E+02  0.40745144234E+02 -0.33298291597E+02  0.80824478269E+02  0.00000000000E+00 0.  1.
         13    1    4    4    0    0 -0.66309501294E+02 -0.44830194894E+02  0.36093082948E+01  0.80123176687E+02  0.00000000000E+00 0. -1.
        -13    1    3    3    0    0 -0.38037223607E+02  0.65991740133E+01 -0.71366773600E+02  0.81139360679E+02  0.00000000000E+00 0. -1.
         13    1    3    3    0    0  0.37322070285E+02 -0.43244935730E+02 -0.12436968309E+03  0.13686080326E+03  0.00000000000E+00 0.  1.
         21    1    1    2  502  501  0.12837327551E+03  0.40730812377E+02 -0.20376613328E+03  0.24425260288E+03  0.00000000000E+00 0.  1.
<scales pt_clust_5="13000.00000" pt_clust_6="13000.00000" pt_clust_7="13000.00000" pt_clust_8="13000.00000" pt_clust_9="128.75114"></scales>
<clustering>
<clus scale="   88.701">  7  8 -1 -1</clus>
<clus scale="   93.324">  5  6 -1 -1</clus>
<clus scale="   95.976">  2  7  1 -1</clus>
<clus scale="  128.751">  2  9  1 -1</clus>
<clus scale="  159.017">  1  5  2 -1</clus>
</clustering>
</event>
<event>
 9    1  0.5300912E-006  0.1071904E+03  0.7546771E-02  0.1272442E+00
         -1   -1    0    0    0  501 -0.00000000000E+00  0.00000000000E+00  0.72652407145E+02  0.72652407145E+02  0.00000000000E+00 0.  1.
          1   -1    0    0  502    0  0.00000000000E+00 -0.00000000000E+00 -0.24058489172E+03  0.24058489172E+03  0.00000000000E+00 0. -1.
         23    2    1    2    0    0  0.51861865703E+02  0.57262943787E+01 -0.39081833186E+02  0.11221615734E+03  0.91338013562E+02 0.  0.
         23    2    1    2    0    0 -0.61828832714E+01 -0.62783157444E+01 -0.10878799147E+03  0.15112740959E+03  0.10453239472E+03 0.  0.
        -11    1    3    3    0    0  0.65606685178E+02  0.30524448675E+02 -0.42079070334E+02  0.83705598780E+02  0.00000000000E+00 0.  1.
         11    1    3    3    0    0 -0.13744819475E+02 -0.24798154296E+02  0.29972371475E+01  0.28510558560E+02  0.00000000000E+00 0. -1.
        -13    1    4    4    0    0  0.24865295549E+02 -0.93204818751E+01  0.99514118925E+01  0.28358154097E+02  0.00000000000E+00 0.  1.
         13    1    4    4    0    0 -0.31048178821E+02  0.30421661307E+01 -0.11873940337E+03  0.12276925549E+03  0.00000000000E+00 0. -1.
         21    1    1    2  502  501 -0.45678982431E+02  0.55202136564E+00 -0.20062659915E+02  0.49893731935E+02  0.00000000000E+00 0.  1.
<scales pt_clust_5="13000.00000" pt_clust_6="13000.00000" pt_clust_7="13000.00000" pt_clust_8="13000.00000" pt_clust_9="45.68232"></scales>
<clustering>
<clus scale="   45.682">  1  9  2 -1</clus>
<clus scale="   91.338">  5  6 -1 -1</clus>
<clus scale="   94.368">  1  5  2 -1</clus>
<clus scale="  104.532">  7  8 -1 -1</clus>
<clus scale="  107.190">  2  5  1 -1</clus>
</clustering>
</event>
<event>
 9    1  0.5300912E-006  0.9683027E+02  0.7546771E-02  0.1289593E+00
         -1   -1    0    0    0  501 -0.00000000000E+00  0.00000000000E+00  0.16376457972E+03  0.16376457972E+03  0.00000000000E+00 0.  1.
          1   -1    0    0  502    0  0.00000000000E+00 -0.00000000000E+00 -0.14116318922E+03  0.14116318922E+03  0.00000000000E+00 0. -1.
         23    2    1    2    0    0  0.13884880353E+02  0.37092410052E+02 -0.25303210727E+02  0.10488995511E+03  0.93771069224E+02 0.  0.
         23    2    1    2    0    0 -0.49060840466E+01 -0.12587000488E+02 -0.46917934356E+02  0.10168921377E+03  0.89201465181E+02 0.  0.
        -11    1    3    3    0    0  0.43564168342E+02  0.45824450781E+02 -0.35254159206E+02  0.72391800600E+02  0.00000000000E+00 0. -1.
         11    1    3    3    0    0 -0.29679287988E+02 -0.87320407287E+01  0.99509484796E+01  0.32498154508E+02  0.00000000000E+00 0.  1.
        -11    1    4    4    0    0 -0.35072966673E+02  0.23870401899E+02 -0.27386537448E+02  0.50496846550E+02  0.00000000000E+00 0. -1.
         11    1    4    4    0    0  0.30166882627E+02 -0.36457402386E+02 -0.19531396908E+02  0.51192367218E+02  0.00000000000E+00 0.  1.
         21    1    1    2  502  501 -0.89787963068E+01 -0.24505409565E+02  0.94822535583E+02  0.98348600069E+02  0.00000000000E+00 0.  1.
<scales pt_clust_5="13000.00000" pt_clust_6="13000.00000" pt_clust_7="13000.00000" pt_clust_8="13000.00000" pt_clust_9="26.09854"></scales>
<clustering>
<clus scale="   26.099">  1  9  2 -1</clus>
<clus scale="   89.201">  7  8 -1 -1</clus>
<clus scale="   92.412">  2  7  1 -1</clus>
<clus scale="   93.771">  5  6 -1 -1</clus>
<clus scale="   92.412">  2  5  1 -1</clus>
</clustering>
</event>
<event>
 9    1  0.5300912E-006  0.9918218E+02  0.7546771E-02  0.1283491E+00
          4   -1    0    0  502    0  0.00000000000E+00  0.00000000000E+00  0.57676284711E+03  0.57676284711E+03  0.00000000000E+00 0.  1.
         -4   -1    0    0    0  501 -0.00000000000E+00 -0.00000000000E+00 -0.52178060039E+02  0.52178060039E+02  0.00000000000E+00 0. -1.
         23    2    1    2    0    0  0.37069214652E+02 -0.25529049846E+02  0.40482990236E+02  0.11053203330E+03  0.92480261815E+02 0.  0.
         23    2    1    2    0    0  0.30292931360E+02  0.43467953006E+02  0.19506792463E+03  0.22108742786E+03  0.89560208306E+02 0.  0.
        -13    1    3    3    0    0  0.55164511121E+02 -0.45405911237E+01 -0.67587446350E+01  0.55762181485E+02  0.00000000000E+00 0. -1.
         13    1    3    3    0    0 -0.18095296469E+02 -0.20988458722E+02  0.47241734871E+02  0.54769851812E+02  0.00000000000E+00 0.  1.
        -13    1    4    4    0    0  0.55449763181E+01  0.67817040310E+02  0.14486349756E+03  0.16004790109E+03  0.00000000000E+00 0.  1.
         13    1    4    4    0    0  0.24747955041E+02 -0.24349087303E+02  0.50204427067E+02  0.61039526771E+02  0.00000000000E+00 0. -1.
         21    1    1    2  502  501 -0.67362146011E+02 -0.17938903160E+02  0.28903387220E+03  0.29732144598E+03  0.00000000000E+00 0.  1.
<scales pt_clust_5="13000.00000" pt_clust_6="13000.00000" pt_clust_7="13000.00000" pt_clust_8="13000.00000" pt_clust_9="69.70985"></scales>
<clustering>
<clus scale="   69.710">  1  9  2 -1</clus>
<clus scale="   89.560">  7  8 -1 -1</clus>
<clus scale="   92.480">  5  6 -1 -1</clus>
<clus scale="   96.465">  1  7  2 -1</clus>
<clus scale="   69.710">  1  5  2 -1</clus>
</clustering>
</event>
<event>
 9    1  0.5300912E-006  0.1347584E+03  0.7546771E-02  0.1220800E+00
          2   -1    0    0  502    0  0.00000000000E+00  0.00000000000E+00  0.12260145617E+03  0.12260145617E+03  0.00000000000E+00 0. -1.
         -2   -1    0    0    0  501 -0.00000000000E+00 -0.00000000000E+00 -0.24680868623E+03  0.24680868623E+03  0.00000000000E+00 0.  1.
         23    2    1    2    0    0 -0.82265087786E+02  0.46292729449E+02 -0.92256060938E+02  0.15891957661E+03  0.88508132858E+02 0.  0.
         23    2    1    2    0    0  0.10409397411E+03 -0.34991266394E+02 -0.75454181377E+02  0.16052322226E+03  0.89523333422E+02 0.  0.
        -11    1    4    4    0    0  0.69268306408E+02  0.14845714693E+02 -0.10605875988E+02  0.71630846169E+02  0.00000000000E+00 0. -1.
         11    1    4    4    0    0  0.34825667697E+02 -0.49836981087E+02 -0.64848305389E+02  0.88892376086E+02  0.00000000000E+00 0.  1.
        -13    1    3    3    0    0 -0.62606315754E+02 -0.15364224325E+02 -0.41402619051E+02  0.76614535342E+02  0.00000000000E+00 0.  1.
         13    1    3    3    0    0 -0.19658772032E+02  0.61656953774E+02 -0.50853441887E+02  0.82305041269E+02  0.00000000000E+00 0. -1.
         21    1    1    2  502  501 -0.21828886320E+02 -0.11301463055E+02  0.43503012248E+02  0.49967343533E+02  0.00000000000E+00 0.  1.
<scales pt_clust_5="13000.00000" pt_clust_6="13000.00000" pt_clust_7="13000.00000" pt_clust_8="13000.00000" pt_clust_9="24.58095"></scales>
<clustering>
<clus scale="   24.581">  1  9  2 -1</clus>
<clus scale="   88.508">  7  8 -1 -1</clus>
<clus scale="   89.523">  5  6 -1 -1</clus>
<clus scale="  134.086">  2  7  1 -1</clus>
<clus scale="   24.581">  1  5  2 -1</clus>
</clustering>
</event>
<event>
 9    1  0.5300912E-006  0.1824286E+03  0.7546771E-02  0.1196367E+00
          1   -1    0    0  502    0  0.00000000000E+00  0.00000000000E+00  0.38037616613E+02  0.38037616613E+02  0.00000000000E+00 0. -1.
         -1   -1    0    0    0  501 -0.00000000000E+00 -0.00000000000E+00 -0.12265774528E+04  0.12265774528E+04  0.00000000000E+00 0.  1.
         23    2    1    2    0    0  0.11353157892E+01  0.50621181008E+01 -0.25235052373E+03  0.26831924466E+03  0.91035796510E+02 0.  0.
         23    2    1    2    0    0  0.15391636210E+03  0.30741853259E+02 -0.48132100201E+03  0.51439528830E+03  0.91089503163E+02 0.  0.
        -11    1    4    4    0    0  0.11192615967E+03 -0.18014135823E+02 -0.35448063625E+03  0.37216729542E+03  0.00000000000E+00 0. -1.
         11    1    4    4    0    0  0.41990202433E+02  0.48755989082E+02 -0.12684036577E+03  0.14222799288E+03  0.00000000000E+00 0.  1.
        -11    1    3    3    0    0  0.33110977135E+02  0.24462336226E+02 -0.19869525077E+03  0.20291511866E+03  0.00000000000E+00 0. -1.
         11    1    3    3    0    0 -0.31975661346E+02 -0.19400218125E+02 -0.53655272956E+02  0.65404125999E+02  0.00000000000E+00 0.  1.
         21    1    1    2  502  501 -0.15505167789E+03 -0.35803971360E+02 -0.45486831044E+03  0.48190053644E+03  0.00000000000E+00 0.  1.
<scales pt_clust_5="13000.00000" pt_clust_6="13000.00000" pt_clust_7="13000.00000" pt_clust_8="13000.00000" pt_clust_9="158.05978"></scales>
<clustering>
<clus scale="   91.036">  7  8 -1 -1</clus>
<clus scale="   91.090">  5  6 -1 -1</clus>
<clus scale="   91.183">  2  7  1 -1</clus>
<clus scale="  158.060">  2  9  1 -1</clus>
<clus scale="  182.429">  1  5  2 -1</clus>
</clustering>
</event>
<event>
 9    1  0.5300912E-006  0.9401890E+02  0.7546771E-02  0.1293897E+00
         -1   -1    0    0    0  501 -0.00000000000E+00  0.00000000000E+00  0.19794760640E+03  0.19794760640E+03  0.00000000000E+00 0.  1.
          1   -1    0    0  502    0  0.00000000000E+00 -0.00000000000E+00 -0.30739079983E+03  0.30739079983E+03  0.00000000000E+00 0. -1.
         23    2    1    2    0    0 -0.71508011750E+01  0.25781809620E+02  0.16357249466E+03  0.18925200578E+03  0.91348371723E+02 0.  0.
         23    2    1    2    0    0 -0.17679847148E+02  0.29308826719E+02 -0.14203267130E+03  0.17183630515E+03  0.90459116369E+02 0.  0.
        -11    1    4    4    0    0 -0.44690480524E+02  0.32782681150E+02 -0.46032448881E+02  0.72048106033E+02  0.00000000000E+00 0. -1.
         11    1    4    4    0    0  0.27010633376E+02 -0.34738544311E+01 -0.96000222417E+02  0.99788199122E+02  0.00000000000E+00 0.  1.
        -13    1    3    3    0    0  0.32503676973E+02  0.32092048031E+02  0.12690693340E+03  0.13487682644E+03  0.00000000000E+00 0.  1.
         13    1    3    3    0    0 -0.39654478148E+02 -0.63102384116E+01  0.36665561257E+02  0.54375179340E+02  0.00000000000E+00 0. -1.
         21    1    1    2  502  501  0.24830648323E+02 -0.55090636339E+02 -0.13098301679E+03  0.14425009530E+03  0.00000000000E+00 0. -1.
<scales pt_clust_5="13000.00000" pt_clust_6="13000.00000" pt_clust_7="13000.00000" pt_clust_8="13000.00000" pt_clust_9="60.42797"></scales>
<clustering>
<clus scale="   60.428">  2  9  1 -1</clus>
<clus scale="   90.459">  5  6 -1 -1</clus>
<clus scale="   91.348">  7  8 -1 -1</clus>
<clus scale="   93.155">  2  5  1 -1</clus>
<clus scale="   60.428">  2  5  1 -1</clus>
</clustering>
</event>
<event>
 9    1  0.5300912E-006  0.1222318E+03  0.7546771E-02  0.1240413E+00
         -4   -1    0    0    0  501 -0.00000000000E+00  0.00000000000E+00  0.32052751888E+03  0.32052751888E+03  0.00000000000E+00 0.  1.
          4   -1    0    0  502    0  0.00000000000E+00 -0.00000000000E+00 -0.99879690518E+02  0.99879690518E+02  0.00000000000E+00 0. -1.
         23    2    1    2    0    0 -0.43440900800E+02  0.86920886368E+02  0.74740451489E+02  0.15097706100E+03  0.88122559592E+02 0.  0.
         23    2    1    2    0    0  0.52062833974E+02 -0.53349135054E+02 -0.16413583805E+01  0.11786488360E+03  0.91283995515E+02 0.  0.
        -11    1    3    3    0    0 -0.22235993142E+02 -0.11685822454E+02  0.33826963452E+02  0.42133849739E+02  0.00000000000E+00 0.  1.
         11    1    3    3    0    0 -0.21204907657E+02  0.98606708823E+02  0.40913488038E+02  0.10884321126E+03  0.00000000000E+00 0. -1.
        -13    1    4    4    0    0  0.66830561690E+02 -0.24079237916E+02 -0.27435148997E+02  0.76149990643E+02  0.00000000000E+00 0. -1.
         13    1    4    4    0    0 -0.14767727716E+02 -0.29269897139E+02  0.25793790617E+02  0.41714892961E+02  0.00000000000E+00 0.  1.
         21    1    1    2  502  501 -0.86219331741E+01 -0.33571751314E+02  0.14754873525E+03  0.15156526479E+03  0.00000000000E+00 0.  1.
<scales pt_clust_5="13000.00000" pt_clust_6="13000.00000" pt_clust_7="13000.00000" pt_clust_8="13000.00000" pt_clust_9="34.66122"></scales>
<clustering>
<clus scale="   34.661">  1  9  2 -1</clus>
<clus scale="   88.123">  5  6 -1 -1</clus>
<clus scale="   91.284">  7  8 -1 -1</clus>
<clus scale="  119.889">  1  5  2 -1</clus>
<clus scale="  122.232">  2  5  1 -1</clus>
</clustering>
</event>
<event>
 9    1  0.5300912E-006  0.1265277E+03  0.7546771E-02  0.1236961E+00
         -1   -1    0    0    0  501 -0.00000000000E+00  0.00000000000E+00  0.77282090639E+02  0.77282090639E+02  0.00000000000E+00 0.  1.
          1   -1    0    0  502    0  0.00000000000E+00 -0.00000000000E+00 -0.60927111393E+03  0.60927111393E+03  0.00000000000E+00 0. -1.
         23    2    1    2    0    0 -0.70192311132E+02 -0.12432055830E+02 -0.30021530843E+02  0.12154381190E+03  0.93755476335E+02 0.  0.
         23    2    1    2    0    0 -0.72622971108E+02  0.12712541016E+02 -0.20621061650E+03  0.23657612215E+03  0.89497142876E+02 0.  0.
        -11    1    3    3    0    0 -0.89863430218E+02 -0.82595789285E+00 -0.86808062791E+01  0.90285517635E+02  0.00000000000E+00 0.  1.
         11    1    3    3    0    0  0.19671119086E+02 -0.11606097937E+02 -0.21340724564E+02  0.31258294265E+02  0.00000000000E+00 0. -1.
        -11    1    4    4    0    0 -0.82214504728E+02  0.36508500099E+02 -0.15255517267E+03  0.17710216282E+03  0.00000000000E+00 0.  1.
         11    1    4    4    0    0  0.95915336200E+01 -0.23795959083E+02 -0.53655443833E+02  0.59473959333E+02  0.00000000000E+00 0. -1.
         21    1    1    2  502  501  0.14281528224E+03 -0.28048518625E+00 -0.29575687594E+03  0.32843327052E+03  0.00000000000E+00 0. -1.
<scales pt_clust_5="13000.00000" pt_clust_6="13000.00000" pt_clust_7="13000.00000" pt_clust_8="13000.00000" pt_clust_9="84.96564"></scales>
<clustering>
<clus scale="   89.497">  7  8 -1 -1</clus>
<clus scale="   93.755">  5  6 -1 -1</clus>
<clus scale="  115.954">  2  7  1 -1</clus>
<clus scale="   84.966">  2  9  1 -1</clus>
<clus scale="  115.954">  2  5  1 -1</clus>
</clustering>
</event>
<event>
 9    1  0.5300912E-006  0.1483971E+03  0.7546771E-02  0.1202785E+00
          1   -1    0    0  502    0  0.00000000000E+00  0.00000000000E+00  0.31842460728E+03  0.31842460728E+03  0.00000000000E+00 0. -1.
         -1   -1    0    0    0  501 -0.00000000000E+00 -0.00000000000E+00 -0.10775778779E+03  0.10775778779E+03  0.00000000000E+00 0.  1.
         23    2    1    2    0    0 -0.11371929331E+03 -0.56230831521E+02  0.42905894039E+02  0.16248953937E+03  0.92021468030E+02 0.  0.
         23    2    1    2    0    0  0.11122484162E+03  0.21239631502E+02  0.17572079230E+03  0.22772111890E+03  0.90316243315E+02 0.  0.
        -11    1    3    3    0    0 -0.66296845899E+02  0.17458123020E+02  0.25514116886E+02  0.73150721090E+02  0.00000000000E+00 0.  1.
         11    1    3    3    0    0 -0.47422447408E+02 -0.73688954541E+02  0.17391777153E+02  0.89338818282E+02  0.00000000000E+00 0. -1.
        -13    1    4    4    0    0  0.24244385448E+02 -0.19681594409E+02  0.10173470687E+03  0.10641948114E+03  0.00000000000E+00 0.  1.
         13    1    4    4    0    0  0.86980456171E+02  0.40921225911E+02  0.73986085429E+02  0.12130163776E+03  0.00000000000E+00 0. -1.
         21    1    1    2  502  501  0.24944516884E+01  0.34991200019E+02 -0.79598668432E+01  0.35971736797E+02  0.00000000000E+00 0.  1.
<scales pt_clust_5="13000.00000" pt_clust_6="13000.00000" pt_clust_7="13000.00000" pt_clust_8="13000.00000" pt_clust_9="35.08000"></scales>
<clustering>
<clus scale="   35.080">  2  9  1 -1</clus>
<clus scale="   90.316">  7  8 -1 -1</clus>
<clus scale="   92.021">  5  6 -1 -1</clus>
<clus scale="  147.346">  1  7  2 -1</clus>
<clus scale="  147.346">  1  5  2 -1</clus>
</clustering>
</event>
<event>
 9    1  0.5300912E-006  0.9384987E+02  0.7546771E-02  0.1293996E+00
          2   -1    0    0  502    0  0.00000000000E+00  0.00000000000E+00  0.32489481188E+02  0.32489481188E+02  0.00000000000E+00 0. -1.
         -2   -1    0    0    0  501 -0.00000000000E+00 -0.00000000000E+00 -0.41872311577E+03  0.41872311577E+03  0.00000000000E+00 0.  1.
         23    2    1    2    0    0 -0.14837475487E+01 -0.59929875935E+01 -0.14367462031E+03  0.17064254796E+03  0.91860575035E+02 0.  0.
         23    2    1    2    0    0  0.34446129781E+02  0.28226300669E+01 -0.12660599604E+03  0.15998119277E+03  0.91489894028E+02 0.  0.
        -13    1    4    4    0    0  0.63323836198E+02  0.15820752539E+02 -0.74909566033E+02  0.99356165007E+02  0.00000000000E+00 0.  1.
         13    1    4    4    0    0 -0.28877706417E+02 -0.12998122472E+02 -0.51696430004E+02  0.60625027759E+02  0.00000000000E+00 0. -1.
        -13    1    3    3    0    0  0.28954615461E+02  0.31874829351E+02 -0.59415287439E+02  0.73379499073E+02  0.00000000000E+00 0.  1.
         13    1    3    3    0    0 -0.30438363010E+02 -0.37867816945E+02 -0.84259332872E+02  0.97263048888E+02  0.00000000000E+00 0. -1.
         21    1    1    2  502  501 -0.32962382232E+02  0.31703575266E+01 -0.11595301823E+03  0.12058885623E+03  0.00000000000E+00 0. -1.
<scales pt_clust_5="13000.00000" pt_clust_6="13000.00000" pt_clust_7="13000.00000" pt_clust_8="13000.00000" pt_clust_9="33.11450"></scales>
<clustering>
<clus scale="   33.114">  2  9  1 -1</clus>
<clus scale="   91.490">  5  6 -1 -1</clus>
<clus scale="   91.861">  7  8 -1 -1</clus>
<clus scale="   93.487">  1  5  2 -1</clus>
<clus scale="   93.487">  1  5  2 -1</clus>
</clustering>
</event>
<event>
 9    1  0.5300912E-006  0.1025459E+03  0.7546771E-02  0.1275438E+00
          1   -1    0    0  502    0  0.00000000000E+00  0.00000000000E+00  0.12447076672E+03  0.12447076672E+03  0.00000000000E+00 0. -1.
         -1   -1    0    0    0  501 -0.00000000000E+00 -0.00000000000E+00 -0.51155800746E+03  0.51155800746E+03  0.00000000000E+00 0.  1.
         23    2    1    2    0    0 -0.22670286890E+02 -0.97441022100E+01 -0.20726165248E+03  0.22798267672E+03  0.91705064528E+02 0.  0.
         23    2    1    2    0    0 -0.50698811861E+02 -0.19343886122E+02  0.82467495624E+02  0.13413589764E+03  0.90812971250E+02 0.  0.
        -11    1    3    3    0    0 -0.10419215048E+02  0.29515430781E+02 -0.16878744366E+03  0.17166514449E+03  0.00000000000E+00 0.  1.
         11    1    3    3    0    0 -0.12251071842E+02 -0.39259532991E+02 -0.38474208822E+02  0.56317532230E+02  0.00000000000E+00 0. -1.
        -11    1    4    4    0    0 -0.54698551078E+02  0.20076146763E+02  0.72992364115E+02  0.93396297453E+02  0.00000000000E+00 0. -1.
         11    1    4    4    0    0  0.39997392170E+01 -0.39420032884E+02  0.94751315090E+01  0.40739600189E+02  0.00000000000E+00 0.  1.
         21    1    1    2  502  501  0.73369098751E+02  0.29087988332E+02 -0.26229308388E+03  0.27391019982E+03  0.00000000000E+00 0.  1.
<scales pt_clust_5="13000.00000" pt_clust_6="13000.00000" pt_clust_7="13000.00000" pt_clust_8="13000.00000" pt_clust_9="78.92487"></scales>
<clustering>
<clus scale="   78.925">  2  9  1 -1</clus>
<clus scale="   90.813">  7  8 -1 -1</clus>
<clus scale="   91.705">  5  6 -1 -1</clus>
<clus scale="  101.749">  1  7  2 -1</clus>
<clus scale="  101.749">  1  5  2 -1</clus>
</clustering>
</event>
<event>
 9    1  0.5300912E-006  0.1474464E+03  0.7546771E-02  0.1204270E+00
         -1   -1    0    0    0  501 -0.00000000000E+00  0.00000000000E+00  0.12157154615E+03  0.12157154615E+03  0.00000000000E+00 0.  1.
          1   -1    0    0  502    0  0.00000000000E+00 -0.00000000000E+00 -0.30849471811E+03  0.30849471811E+03  0.00000000000E+00 0. -1.
         23    2    1    2    0    0 -0.31405532283E+02  0.62725259268E+02 -0.22162073826E+02  0.11993464337E+03  0.94722729874E+02 0.  0.
         23    2    1    2    0    0  0.80046552116E+02 -0.12490391776E+03 -0.14959315169E+03  0.22974380477E+03  0.91627864871E+02 0.  0.
        -11    1    3    3    0    0 -0.65500832854E+02  0.43952700598E+02 -0.12938700155E+02  0.79935029594E+02  0.00000000000E+00 0.  1.
         11    1    3    3    0    0  0.34095300571E+02  0.18772558670E+02 -0.92233736717E+01  0.39999613772E+02  0.00000000000E+00 0. -1.
        -13    1    4    4    0    0 -0.46427160509E+01 -0.50122965420E+02 -0.87184836398E+02  0.10067304591E+03  0.00000000000E+00 0.  1.
         13    1    4    4    0    0  0.84689268167E+02 -0.74780952342E+02 -0.62408315288E+02  0.12907075886E+03  0.00000000000E+00 0. -1.
         21    1    1    2  502  501 -0.48641019833E+02  0.62178658495E+02 -0.15167946447E+02  0.80387816129E+02  0.00000000000E+00 0.  1.
<scales pt_clust_5="13000.00000" pt_clust_6="13000.00000" pt_clust_7="13000.00000" pt_clust_8="13000.00000" pt_clust_9="78.94387"></scales>
<clustering>
<clus scale="   78.944">  1  9  2 -1</clus>
<clus scale="   91.628">  7  8 -1 -1</clus>
<clus scale="   94.723">  5  6 -1 -1</clus>
<clus scale="  145.478">  2  7  1 -1</clus>
<clus scale="  145.478">  2  5  1 -1</clus>
</clustering>
</event>
<event>
 9    1  0.5300912E-006  0.1046193E+03  0.7546771E-02  0.1274548E+00
          2   -1    0    0  502    0  0.00000000000E+00  0.00000000000E+00  0.42961558826E+03  0.42961558826E+03  0.00000000000E+00 0. -1.
         -2   -1    0    0    0  501 -0.00000000000E+00 -0.00000000000E+00 -0.63925057797E+02  0.63925057797E+02  0.00000000000E+00 0.  1.
         23    2    1    2    0    0 -0.31484465419E+02 -0.32416422725E+01  0.10649334714E+03  0.14383088222E+03  0.91349383614E+02 0.  0.
         23    2    1    2    0    0  0.16477919020E+01  0.83321480810E+02  0.23182369075E+03  0.25997506753E+03  0.83063997980E+02 0.  0.
        -11    1    3    3    0    0  0.27677663250E+02  0.18264165584E+02  0.29537909441E+02  0.44408567660E+02  0.00000000000E+00 0.  1.
         11    1    3    3    0    0 -0.59162128669E+02 -0.21505807857E+02  0.76955437702E+02  0.99422314558E+02  0.00000000000E+00 0. -1.
        -11    1    4    4    0    0 -0.20625623835E+02  0.29745728090E+02  0.17520950846E+03  0.17890946469E+03  0.00000000000E+00 0. -1.
         11    1    4    4    0    0  0.22273415737E+02  0.53575752720E+02  0.56614182287E+02  0.81065602842E+02  0.00000000000E+00 0.  1.
         21    1    1    2  502  501  0.29836673517E+02 -0.80079838537E+02  0.27373492571E+02  0.89734696312E+02  0.00000000000E+00 0.  1.
<scales pt_clust_5="13000.00000" pt_clust_6="13000.00000" pt_clust_7="13000.00000" pt_clust_8="13000.00000" pt_clust_9="85.45764"></scales>
<clustering>
<clus scale="   83.064">  7  8 -1 -1</clus>
<clus scale="   85.458">  2  9  1 -1</clus>
<clus scale="   91.349">  5  6 -1 -1</clus>
<clus scale="   97.469">  1  7  2 -1</clus>
<clus scale="   97.469">  1  5  2 -1</clus>
</clustering>
</event>
<event>
 9    1  0.5300912E-006  0.9740470E+02  0.7546771E-02  0.1288635E+00
         -1   -1    0    0    0  501 -0.00000000000E+00  0.00000000000E+00  0.74657172710E+03  0.74657172710E+03  0.00000000000E+00 0.  1.
          1   -1    0    0  502    0  0.00000000000E+00 -0.00000000000E+00 -0.67546789820E+02  0.67546789820E+02  0.00000000000E+00 0. -1.
         23    2    1    2    0    0  0.54379162718E+01  0.62348154239E+02  0.41051899347E+03  0.42411065247E+03  0.86180846327E+02 0.  0.
         23    2    1    2    0    0  0.26936721181E+02 -0.19371986431E+02 -0.17586454258E+02  0.98899760156E+02  0.91493269585E+02 0.  0.
        -11    1    3    3    0    0 -0.15456468188E+02  0.72184864192E+02  0.37154982577E+03  0.37881239428E+03  0.00000000000E+00 0.  1.
         11    1    3    3    0    0  0.20894384460E+02 -0.98367099536E+01  0.38969167696E+02  0.45298258196E+02  0.00000000000E+00 0. -1.
        -11    1    4    4    0    0 -0.25421840728E+02 -0.23034803194E+02  0.14651491185E+02  0.37303328781E+02  0.00000000000E+00 0.  1.
         11    1    4    4    0    0  0.52358561909E+02  0.36628167629E+01 -0.32237945443E+02  0.61596431375E+02  0.00000000000E+00 0. -1.
         21    1    1    2  502  501 -0.32374637453E+02 -0.42976167808E+02  0.28609239807E+03  0.29110810429E+03  0.00000000000E+00 0.  1.
<scales pt_clust_5="13000.00000" pt_clust_6="13000.00000" pt_clust_7="13000.00000" pt_clust_8="13000.00000" pt_clust_9="53.80584"></scales>
<clustering>
<clus scale="   53.806">  1  9  2 -1</clus>
<clus scale="   86.181">  5  6 -1 -1</clus>
<clus scale="   91.493">  7  8 -1 -1</clus>
<clus scale="   92.433">  1  5  2 -1</clus>
<clus scale="   97.405">  2  5  1 -1</clus>
</clustering>
</event>
<event>
 9    1  0.5300912E-006  0.9902165E+02  0.7546771E-02  0.1283406E+00
          3   -1    0    0  502    0  0.00000000000E+00  0.00000000000E+00  0.64718405097E+03  0.64718405097E+03  0.00000000000E+00 0. -1.
         -3   -1    0    0    0  501 -0.00000000000E+00 -0.00000000000E+00 -0.54791472848E+02  0.54791472848E+02  0.00000000000E+00 0.  1.
         23    2    1    2    0    0  0.45270179747E+02 -0.32900660424E+02  0.82459351805E+02  0.13541203725E+03  0.91678964332E+02 0.  0.
         23    2    1    2    0    0  0.16512257936E+02  0.30958695733E+02  0.49218138677E+03  0.50225198961E+03  0.93720051680E+02 0.  0.
        -11    1    3    3    0    0  0.53650718144E+02 -0.52543688201E+02  0.33955657153E+02  0.82414958471E+02  0.00000000000E+00 0. -1.
         11    1    3    3    0    0 -0.83805383963E+01  0.19643027777E+02  0.48503694653E+02  0.52997078778E+02  0.00000000000E+00 0.  1.
        -13    1    4    4    0    0 -0.38112901646E+02  0.54498542075E+01  0.15405794711E+03  0.15879592328E+03  0.00000000000E+00 0.  1.
         13    1    4    4    0    0  0.54625159581E+02  0.25508841526E+02  0.33812343965E+03  0.34345606633E+03  0.00000000000E+00 0. -1.
         21    1    1    2  502  501 -0.61782437683E+02  0.19419646911E+01  0.17751839545E+02  0.64311496952E+02  0.00000000000E+00 0.  1.
<scales pt_clust_5="13000.00000" pt_clust_6="13000.00000" pt_clust_7="13000.00000" pt_clust_8="13000.00000" pt_clust_9="61.81295"></scales>
<clustering>
<clus scale="   61.813">  2  9  1 -1</clus>
<clus scale="   91.679">  5  6 -1 -1</clus>
<clus scale="   93.720">  7  8 -1 -1</clus>
<clus scale="   97.092">  2  5  1 -1</clus>
<clus scale="   99.022">  1  5  2 -1</clus>
</clustering>
</event>
<event>
 9    1  0.5300912E-006  0.1001539E+03  0.7546771E-02  0.1281950E+00
         -1   -1    0    0    0  501 -0.00000000000E+00  0.00000000000E+00  0.27728090040E+03  0.27728090040E+03  0.00000000000E+00 0.  1.
          1   -1    0    0  502    0  0.00000000000E+00 -0.00000000000E+00 -0.59403863102E+02  0.59403863102E+02  0.00000000000E+00 0. -1.
         23    2    1    2    0    0 -0.42434506850E+02 -0.43109151126E+01  0.17808204250E+03  0.20597859021E+03  0.94311687533E+02 0.  0.
         23    2    1    2    0    0  0.13881875233E+02  0.90625695409E+01  0.43245647757E+02  0.10155590746E+03  0.90380195087E+02 0.  0.
        -11    1    3    3    0    0 -0.32827668686E+02  0.35971211003E+02  0.43947825212E+02  0.65597219402E+02  0.00000000000E+00 0.  1.
         11    1    3    3    0    0 -0.96068381637E+01 -0.40282126116E+02  0.13413421729E+03  0.14038137081E+03  0.00000000000E+00 0. -1.
        -11    1    4    4    0    0 -0.33102927245E+02  0.15857170900E+02 -0.91790730909E+00  0.36716429769E+02  0.00000000000E+00 0. -1.
         11    1    4    4    0    0  0.46984802478E+02 -0.67946013591E+01  0.44163555066E+02  0.64839477694E+02  0.00000000000E+00 0.  1.
         21    1    1    2  502  501  0.28552631617E+02 -0.47516544284E+01 -0.34506529544E+01  0.29150265828E+02  0.00000000000E+00 0. -1.
<scales pt_clust_5="13000.00000" pt_clust_6="13000.00000" pt_clust_7="13000.00000" pt_clust_8="13000.00000" pt_clust_9="28.94531"></scales>
<clustering>
<clus scale="   28.945">  2  9  1 -1</clus>
<clus scale="   90.380">  7  8 -1 -1</clus>
<clus scale="   94.312">  5  6 -1 -1</clus>
<clus scale="   96.461">  2  7  1 -1</clus>
<clus scale="   28.945">  2  5  1 -1</clus>
</clustering>
</event>
<event>
 9    1  0.5300912E-006  0.1201551E+03  0.7546771E-02  0.1245196E+00
         -1   -1    0    0    0  501 -0.00000000000E+00  0.00000000000E+00  0.36521518306E+03  0.36521518306E+03  0.00000000000E+00 0.  1.
          1   -1    0    0  502    0  0.00000000000E+00 -0.00000000000E+00 -0.52897140000E+02  0.52897140000E+02  0.00000000000E+00 0. -1.
         23    2    1    2    0    0 -0.12311652397E+02 -0.82038402816E+02  0.16482230425E+03  0.20862877638E+03  0.97353469555E+02 0.  0.
         23    2    1    2    0    0  0.35501977779E+02  0.50096383475E+02  0.10973577322E+03  0.15485847192E+03  0.90383451682E+02 0.  0.
        -11    1    4    4    0    0  0.42829219814E+02 -0.39949135488E+01  0.15062050407E+02  0.45575945043E+02  0.00000000000E+00 0.  1.
         11    1    4    4    0    0 -0.73272420344E+01  0.54091297024E+02  0.94673722811E+02  0.10928252688E+03  0.00000000000E+00 0. -1.
        -11    1    3    3    0    0  0.37439350408E+02 -0.29983646490E+02  0.32362026868E+02  0.57862118859E+02  0.00000000000E+00 0. -1.
         11    1    3    3    0    0 -0.49751002805E+02 -0.52054756326E+02  0.13246027738E+03  0.15076665752E+03  0.00000000000E+00 0.  1.
         21    1    1    2  502  501 -0.23190325383E+02  0.31942019341E+02  0.37759965593E+02  0.54625074760E+02  0.00000000000E+00 0. -1.
<scales pt_clust_5="13000.00000" pt_clust_6="13000.00000" pt_clust_7="13000.00000" pt_clust_8="13000.00000" pt_clust_9="39.47257"></scales>
<clustering>
<clus scale="   39.473">  2  9  1 -1</clus>
<clus scale="   90.383">  5  6 -1 -1</clus>
<clus scale="   97.353">  7  8 -1 -1</clus>
<clus scale="  114.581">  2  5  1 -1</clus>
<clus scale="   39.473">  2  5  1 -1</clus>
</clustering>
</event>
<event>
 9    1  0.5300912E-006  0.1162999E+03  0.7546771E-02  0.1251772E+00
          2   -1    0    0  502    0  0.00000000000E+00  0.00000000000E+00  0.79546196569E+03  0.79546196569E+03  0.00000000000E+00 0. -1.
         -2   -1    0    0    0  501 -0.00000000000E+00 -0.00000000000E+00 -0.46808208389E+02  0.46808208389E+02  0.00000000000E+00 0.  1.
         23    2    1    2    0    0  0.72783655932E+01 -0.44598859211E+02  0.10076837803E+03  0.14228057393E+03  0.89707652180E+02 0.  0.
         23    2    1    2    0    0  0.87180541635E+02  0.13770364069E+02  0.52964135755E+03  0.54554048250E+03  0.96459217583E+02 0.  0.
        -11    1    4    4    0    0  0.20956546799E+02 -0.29750100052E+02  0.67786981448E+02  0.76937118224E+02  0.00000000000E+00 0.  1.
         11    1    4    4    0    0  0.66223994836E+02  0.43520464121E+02  0.46185437610E+03  0.46860336428E+03  0.00000000000E+00 0. -1.
        -13    1    3    3    0    0 -0.39291190276E+02 -0.32024826572E+02  0.39269360081E+02  0.64120743847E+02  0.00000000000E+00 0.  1.
         13    1    3    3    0    0  0.46569555869E+02 -0.12574032640E+02  0.61499017948E+02  0.78159830087E+02  0.00000000000E+00 0. -1.
         21    1    1    2  502  501 -0.94458907229E+02  0.30828495142E+02  0.11824402173E+03  0.15444911765E+03  0.00000000000E+00 0.  1.
<scales pt_clust_5="13000.00000" pt_clust_6="13000.00000" pt_clust_7="13000.00000" pt_clust_8="13000.00000" pt_clust_9="99.36237"></scales>
<clustering>
<clus scale="   89.708">  7  8 -1 -1</clus>
<clus scale="   96.459">  5  6 -1 -1</clus>
<clus scale="   99.362">  2  9  1 -1</clus>
<clus scale="  110.764">  2  7  1 -1</clus>
<clus scale="  116.300">  1  5  2 -1</clus>
</clustering>
</event>
<event>
 9    1  0.5300912E-006  0.9824316E+02  0.7546771E-02  0.1284512E+00
         -3   -1    0    0    0  501 -0.00000000000E+00  0.00000000000E+00  0.38168756757E+03  0.38168756757E+03  0.00000000000E+00 0.  1.
          3   -1    0    0  502    0  0.00000000000E+00 -0.00000000000E+00 -0.50847078999E+02  0.50847078999E+02  0.00000000000E+00 0. -1.
         23    2    1    2    0    0  0.42694528745E+01  0.14178230620E+02  0.14931043291E+03  0.17608562530E+03  0.92159056041E+02 0.  0.
         23    2    1    2    0    0  0.44728373526E+02 -0.42039183713E+02  0.16225847676E+03  0.19688046033E+03  0.93092330583E+02 0.  0.
        -11    1    4    4    0    0  0.90208637942E+01 -0.39212651694E+02  0.11389667311E+02  0.41817849752E+02  0.00000000000E+00 0. -1.
         11    1    4    4    0    0  0.35707509731E+02 -0.28265320187E+01  0.15086880945E+03  0.15506261057E+03  0.00000000000E+00 0.  1.
        -13    1    3    3    0    0  0.43838235189E+02 -0.12326381700E+02  0.67566015762E+02  0.81479427074E+02  0.00000000000E+00 0.  1.
         13    1    3    3    0    0 -0.39568782315E+02  0.26504612320E+02  0.81744417148E+02  0.94606198226E+02  0.00000000000E+00 0. -1.
         21    1    1    2  502  501 -0.48997826400E+02  0.27860953093E+02  0.19271578904E+02  0.59568560942E+02  0.00000000000E+00 0. -1.
<scales pt_clust_5="13000.00000" pt_clust_6="13000.00000" pt_clust_7="13000.00000" pt_clust_8="13000.00000" pt_clust_9="56.36506"></scales>
<clustering>
<clus scale="   56.365">  2  9  1 -1</clus>
<clus scale="   92.159">  7  8 -1 -1</clus>
<clus scale="   93.092">  5  6 -1 -1</clus>
<clus scale="   97.359">  1  7  2 -1</clus>
<clus scale="   56.365">  2  5  1 -1</clus>
</clustering>
</event>
<event>
 9    1  0.5300912E-006  0.1022249E+03  0.7546771E-02  0.1280055E+00
          1   -1    0    0  502    0  0.00000000000E+00  0.00000000000E+00  0.41401446874E+03  0.41401446874E+03  0.00000000000E+00 0. -1.
         -1   -1    0    0    0  501 -0.00000000000E+00 -0.00000000000E+00 -0.30706555376E+02  0.30706555376E+02  0.00000000000E+00 0.  1.
         23    2    1    2    0    0  0.33966934697E+02 -0.11490636154E+02  0.14195802427E+03  0.17202106249E+03  0.90296057030E+02 0.  0.
         23    2    1    2    0    0 -0.94952344927E+01  0.15003017747E+02  0.17290765900E+03  0.19992950199E+03  0.98790167545E+02 0.  0.
        -11    1    3    3    0    0 -0.14863476092E+02 -0.22979718481E+02  0.73025871590E+01  0.28325221309E+02  0.00000000000E+00 0.  1.
         11    1    3    3    0    0  0.48830410789E+02  0.11489082327E+02  0.13465543711E+03  0.14369584118E+03  0.00000000000E+00 0. -1.
        -13    1    4    4    0    0 -0.33752949034E+02 -0.25610925047E+02  0.12750446499E+03  0.13435985130E+03  0.00000000000E+00 0.  1.
         13    1    4    4    0    0  0.24257714541E+02  0.40613942794E+02  0.45403194013E+02  0.65569650682E+02  0.00000000000E+00 0. -1.
         21    1    1    2  502  501 -0.24471700205E+02 -0.35123815931E+01  0.68442230095E+02  0.72770459637E+02  0.00000000000E+00 0.  1.
<scales pt_clust_5="13000.00000" pt_clust_6="13000.00000" pt_clust_7="13000.00000" pt_clust_8="13000.00000" pt_clust_9="24.72248"></scales>
<clustering>
<clus scale="   24.722">  1  9  2 -1</clus>
<clus scale="   90.296">  5  6 -1 -1</clus>
<clus scale="   94.042">  2  5  1 -1</clus>
<clus scale="   98.790">  7  8 -1 -1</clus>
<clus scale="   24.722">  1  5  2 -1</clus>
</clustering>
</event>
<event>
 9    1  0.5300912E-006  0.2317993E+03  0.7546771E-02  0.1159100E+00
         -4   -1    0    0    0  501 -0.00000000000E+00  0.00000000000E+00  0.25746566352E+03  0.25746566352E+03  0.00000000000E+00 0.  1.
          4   -1    0    0  502    0  0.00000000000E+00 -0.00000000000E+00 -0.38468221211E+03  0.38468221211E+03  0.00000000000E+00 0. -1.
         23    2    1    2    0    0  0.47670461084E+02  0.22764984042E+02  0.91021243076E+02  0.13752144557E+03  0.88524369192E+02 0.  0.
         23    2    1    2    0    0 -0.14330608951E+03 -0.19386509079E+03 -0.10416842459E+03  0.27783745225E+03  0.90676791259E+02 0.  0.
        -11    1    4    4    0    0 -0.70565952302E+02 -0.13287501821E+03 -0.21535475351E+02  0.15198388331E+03  0.00000000000E+00 0.  1.
         11    1    4    4    0    0 -0.72740137203E+02 -0.60990072584E+02 -0.82632949237E+02  0.12585356893E+03  0.00000000000E+00 0. -1.
        -11    1    3    3    0    0  0.31430771473E+01  0.50452639799E+02  0.47775481352E+02  0.69554614621E+02  0.00000000000E+00 0. -1.
         11    1    3    3    0    0  0.44527383936E+02 -0.27687655757E+02  0.43245761725E+02  0.67966830945E+02  0.00000000000E+00 0.  1.
         21    1    1    2  502  501  0.95635628422E+02  0.17110010675E+03 -0.11406936707E+03  0.22678897781E+03  0.00000000000E+00 0. -1.
<scales pt_clust_5="13000.00000" pt_clust_6="13000.00000" pt_clust_7="13000.00000" pt_clust_8="13000.00000" pt_clust_9="213.32749"></scales>
<clustering>
<clus scale="   88.524">  7  8 -1 -1</clus>
<clus scale="   90.677">  5  6 -1 -1</clus>
<clus scale="  103.089">  1  7  2 -1</clus>
<clus scale="  213.327">  2  9  1 -1</clus>
<clus scale="  213.327">  2  5  1 -1</clus>
</clustering>
</event>
<event>
 9    1  0.5300912E-006  0.1700605E+03  0.7546771E-02  0.1178030E+00
          1   -1    0    0  502    0  0.00000000000E+00  0.00000000000E+00  0.93657926106E+03  0.93657926106E+03  0.00000000000E+00 0. -1.
         -1   -1    0    0    0  501 -0.00000000000E+00 -0.00000000000E+00 -0.41656957935E+03  0.41656957935E+03  0.00000000000E+00 0.  1.
         23    2    1    2    0    0  0.10863174255E+02 -0.14440658534E+03 -0.37161886790E+03  0.40880665008E+03  0.89727497062E+02 0.  0.
         23    2    1    2    0    0 -0.11317849702E+03  0.10317908425E+03  0.36472792320E+03  0.40601849382E+03  0.91483680213E+02 0.  0.
        -11    1    4    4    0    0 -0.75775832428E+02  0.10029396881E+03  0.33607565836E+03  0.35881430449E+03  0.00000000000E+00 0.  1.
         11    1    4    4    0    0 -0.37402664596E+02  0.28851154324E+01  0.28652264836E+02  0.47204189329E+02  0.00000000000E+00 0. -1.
        -13    1    3    3    0    0  0.33997651554E+02 -0.11198276701E+03 -0.33442213680E+03  0.35430798185E+03  0.00000000000E+00 0.  1.
         13    1    3    3    0    0 -0.23134477299E+02 -0.32423818331E+02 -0.37196731098E+02  0.54498668235E+02  0.00000000000E+00 0. -1.
         21    1    1    2  502  501  0.10231532277E+03  0.41227501091E+02  0.52690062641E+03  0.53832369651E+03  0.00000000000E+00 0. -1.
<scales pt_clust_5="13000.00000" pt_clust_6="13000.00000" pt_clust_7="13000.00000" pt_clust_8="13000.00000" pt_clust_9="110.30926"></scales>
<clustering>
<clus scale="   89.727">  7  8 -1 -1</clus>
<clus scale="   91.484">  5  6 -1 -1</clus>
<clus scale="  110.309">  1  9  2 -1</clus>
<clus scale="  169.122">  2  7  1 -1</clus>
<clus scale="  110.309">  1  5  2 -1</clus>
</clustering>
</event>
<event>
 9    1  0.5300912E-006  0.1482217E+03  0.7546771E-02  0.1203421E+00
         -2   -1    0    0    0  501 -0.00000000000E+00  0.00000000000E+00  0.18760591875E+03  0.18760591875E+03  0.00000000000E+00 0.  1.
          2   -1    0    0  502    0  0.00000000000E+00 -0.00000000000E+00 -0.22961945912E+03  0.22961945912E+03  0.00000000000E+00 0. -1.
         23    2    1    2    0    0 -0.76775170652E+02  0.97024392914E+02  0.99043002812E+02  0.18479515069E+03  0.95034581414E+02 0.  0.
         23    2    1    2    0    0  0.80992558473E+02 -0.42004515176E+02 -0.90970210287E+02  0.15790765308E+03  0.91296625997E+02 0.  0.
        -11    1    3    3    0    0 -0.38283892954E+02  0.79276818012E+02  0.11012043029E+03  0.14098574219E+03  0.00000000000E+00 0.  1.
         11    1    3    3    0    0 -0.38491277698E+02  0.17747574902E+02 -0.11077427478E+02  0.43809408501E+02  0.00000000000E+00 0. -1.
        -13    1    4    4    0    0  0.67189212454E+01 -0.44166039435E+02 -0.60719115985E+01  0.45084931546E+02  0.00000000000E+00 0.  1.
         13    1    4    4    0    0  0.74273637228E+02  0.21615242587E+01 -0.84898298689E+02  0.11282272153E+03  0.00000000000E+00 0. -1.
         21    1    1    2  502  501 -0.42173878211E+01 -0.55019877738E+02 -0.50086332896E+02  0.74522574092E+02  0.00000000000E+00 0. -1.
<scales pt_clust_5="13000.00000" pt_clust_6="13000.00000" pt_clust_7="13000.00000" pt_clust_8="13000.00000" pt_clust_9="55.18128"></scales>
<clustering>
<clus scale="   55.181">  2  9  1 -1</clus>
<clus scale="   91.297">  7  8 -1 -1</clus>
<clus scale="   95.035">  5  6 -1 -1</clus>
<clus scale="  145.853">  2  7  1 -1</clus>
<clus scale="   55.181">  2  5  1 -1</clus>
</clustering>
</event>
<event>
 9    1  0.5300912E-006  0.1348139E+03  0.7546771E-02  0.1223913E+00
          1   -1    0    0  502    0  0.00000000000E+00  0.00000000000E+00  0.43024562968E+03  0.43024562968E+03  0.00000000000E+00 0. -1.
         -1   -1    0    0    0  501 -0.00000000000E+00 -0.00000000000E+00 -0.75336051324E+02  0.75336051324E+02  0.00000000000E+00 0.  1.
         23    2    1    2    0    0 -0.30855715093E+02  0.67084455523E+02  0.67998215083E+02  0.14100421534E+03  0.99025411697E+02 0.  0.
         23    2    1    2    0    0  0.46765348893E+02 -0.10553840480E+03  0.10539551067E+03  0.17835225951E+03  0.85883421329E+02 0.  0.
        -11    1    3    3    0    0 -0.54984036984E+02  0.78581342689E+02  0.59901874227E+02  0.11307743487E+03  0.00000000000E+00 0. -1.
         11    1    3    3    0    0  0.24128321891E+02 -0.11496887166E+02  0.80963408554E+01  0.27926780463E+02  0.00000000000E+00 0.  1.
        -11    1    4    4    0    0  0.70517719605E+02 -0.75568575484E+02  0.62075811654E+02  0.12056850655E+03  0.00000000000E+00 0.  1.
         11    1    4    4    0    0 -0.23752370712E+02 -0.29969829311E+02  0.43319699019E+02  0.57783752962E+02  0.00000000000E+00 0. -1.
         21    1    1    2  502  501 -0.15909633800E+02  0.38453949272E+02  0.18151585260E+03  0.18622520616E+03  0.00000000000E+00 0. -1.
<scales pt_clust_5="13000.00000" pt_clust_6="13000.00000" pt_clust_7="13000.00000" pt_clust_8="13000.00000" pt_clust_9="41.61517"></scales>
<clustering>
<clus scale="   41.615">  1  9  2 -1</clus>
<clus scale="   85.883">  7  8 -1 -1</clus>
<clus scale="   99.025">  5  6 -1 -1</clus>
<clus scale="  125.478">  1  7  2 -1</clus>
<clus scale="   41.615">  1  5  2 -1</clus>
</clustering>
</event>
<event>
 9    1  0.5300912E-006  0.1705404E+03  0.7546771E-02  0.1196301E+00
          3   -1    0    0  502    0  0.00000000000E+00  0.00000000000E+00  0.17183491673E+04  0.17183491673E+04  0.00000000000E+00 0. -1.
         -3   -1    0    0    0  501 -0.00000000000E+00 -0.00000000000E+00 -0.30733455216E+02  0.30733455216E+02  0.00000000000E+00 0.  1.
         23    2    1    2    0    0  0.64136921653E+02 -0.24271966577E+01  0.22276099835E+03  0.24923149897E+03  0.91511975655E+02 0.  0.
         23    2    1    2    0    0  0.10971399004E+03 -0.23959438471E+02  0.59517026474E+03  0.61256794732E+03  0.91654960286E+02 0.  0.
        -11    1    3    3    0    0  0.58558365783E+02  0.37705908897E+02  0.11964686707E+03  0.13844201157E+03  0.00000000000E+00 0.  1.
         11    1    3    3    0    0  0.55785558708E+01 -0.40133105555E+02  0.10311413128E+03  0.11078948739E+03  0.00000000000E+00 0. -1.
        -13    1    4    4    0    0 -0.58137379944E+01 -0.28743225461E+02  0.11893697663E+03  0.12249888559E+03  0.00000000000E+00 0. -1.
         13    1    4    4    0    0  0.11552772803E+03  0.47837869896E+01  0.47623328811E+03  0.49006906173E+03  0.00000000000E+00 0.  1.
         21    1    1    2  502  501 -0.17385091169E+03  0.26386635129E+02  0.86968444904E+03  0.88728317628E+03  0.00000000000E+00 0. -1.
<scales pt_clust_5="13000.00000" pt_clust_6="13000.00000" pt_clust_7="13000.00000" pt_clust_8="13000.00000" pt_clust_9="143.81721"></scales>
<clustering>
<clus scale="   91.512">  5  6 -1 -1</clus>
<clus scale="   91.655">  7  8 -1 -1</clus>
<clus scale="  111.776">  2  5  1 -1</clus>
<clus scale="  143.817">  2  9  1 -1</clus>
<clus scale="  170.540">  1  5  2 -1</clus>
</clustering>
</event>
<event>
 9    1  0.5300912E-006  0.3320593E+03  0.7546771E-02  0.1112731E+00
         -1   -1    0    0    0  501 -0.00000000000E+00  0.00000000000E+00  0.76016002411E+02  0.76016002411E+02  0.00000000000E+00 0.  1.
          1   -1    0    0  502    0  0.00000000000E+00 -0.00000000000E+00 -0.20839930294E+04  0.20839930294E+04  0.00000000000E+00 0. -1.
         23    2    1    2    0    0  0.15368696192E+03 -0.25481192576E+03 -0.71523906824E+03  0.77992415437E+03  0.90365712885E+02 0.  0.
         23    2    1    2    0    0 -0.16983151652E+02 -0.60231885278E+02 -0.56638264904E+03  0.57663446169E+03  0.88327174929E+02 0.  0.
        -11    1    3    3    0    0  0.15092349648E+03 -0.19277130348E+03 -0.51414475658E+03  0.56945896073E+03  0.00000000000E+00 0. -1.
         11    1    3    3    0    0  0.27634654384E+01 -0.62040622278E+02 -0.20109431166E+03  0.21046519364E+03  0.00000000000E+00 0.  1.
        -13    1    4    4    0    0 -0.10343255912E+02  0.22680488648E+02 -0.14354715365E+03  0.14569547979E+03  0.00000000000E+00 0.  1.
         13    1    4    4    0    0 -0.66398957393E+01 -0.82912373926E+02 -0.42283549539E+03  0.43093898190E+03  0.00000000000E+00 0. -1.
         21    1    1    2  502  501 -0.13670381027E+03  0.31504381104E+03 -0.72635530966E+03  0.80345041570E+03  0.00000000000E+00 0.  1.
<scales pt_clust_5="13000.00000" pt_clust_6="13000.00000" pt_clust_7="13000.00000" pt_clust_8="13000.00000" pt_clust_9="319.52687"></scales>
<clustering>
<clus scale="   88.327">  7  8 -1 -1</clus>
<clus scale="   90.366">  5  6 -1 -1</clus>
<clus scale="  108.250">  2  7  1 -1</clus>
<clus scale="  319.527">  2  9  1 -1</clus>
<clus scale="  108.250">  2  5  1 -1</clus>
</clustering>
</event>
<event>
 9    1  0.5300912E-006  0.8906366E+02  0.7546771E-02  0.1325584E+00
          2   -1    0    0  502    0  0.00000000000E+00  0.00000000000E+00  0.17652215807E+03  0.17652215807E+03  0.00000000000E+00 0. -1.
         -2   -1    0    0    0  501 -0.00000000000E+00 -0.00000000000E+00 -0.86074805396E+02  0.86074805396E+02  0.00000000000E+00 0.  1.
         23    2    1    2    0    0 -0.84829220528E+01  0.73105884323E+01 -0.38962079947E+02  0.72197784750E+02  0.59741708874E+02 0.  0.
         23    2    1    2    0    0  0.43202936861E+02 -0.11924521864E+01  0.66511042053E+02  0.11829426518E+03  0.87760462423E+02 0.  0.
        -13    1    4    4    0    0 -0.15116353815E+02  0.28450139888E+02  0.25440906541E+02  0.41050631395E+02  0.00000000000E+00 0.  1.
         13    1    4    4    0    0  0.58319290676E+02 -0.29642592074E+02  0.41070135512E+02  0.77243633788E+02  0.00000000000E+00 0. -1.
        -13    1    3    3    0    0 -0.66901757957E+01 -0.20398814452E+02  0.32085475768E+01  0.21706332274E+02  0.00000000000E+00 0. -1.
         13    1    3    3    0    0 -0.17927462571E+01  0.27709402884E+02 -0.42170627524E+02  0.50491452476E+02  0.00000000000E+00 0.  1.
         21    1    1    2  502  501 -0.34720014808E+02 -0.61181362458E+01  0.62898390571E+02  0.72104913534E+02  0.00000000000E+00 0. -1.
<scales pt_clust_5="13000.00000" pt_clust_6="13000.00000" pt_clust_7="13000.00000" pt_clust_8="13000.00000" pt_clust_9="35.25494"></scales>
<clustering>
<clus scale="   35.255">  1  9  2 -1</clus>
<clus scale="   59.742">  7  8 -1 -1</clus>
<clus scale="   61.640">  2  7  1 -1</clus>
<clus scale="   87.760">  5  6 -1 -1</clus>
<clus scale="   35.255">  1  5  2 -1</clus>
</clustering>
</event>
<event>
 9    1  0.5300912E-006  0.1382567E+03  0.7546771E-02  0.1233315E+00
         -2   -1    0    0    0  501 -0.00000000000E+00  0.00000000000E+00  0.35764447875E+03  0.35764447875E+03  0.00000000000E+00 0.  1.
          2   -1    0    0  502    0  0.00000000000E+00 -0.00000000000E+00 -0.13613534791E+03  0.13613534791E+03  0.00000000000E+00 0. -1.
         23    2    1    2    0    0  0.23218119977E+02  0.20362471881E+02  0.10848099416E+03  0.14470281879E+03  0.90648046391E+02 0.  0.
         23    2    1    2    0    0  0.10044405131E+03 -0.31599920316E+01 -0.50009503395E+02  0.14372479823E+03  0.89760092484E+02 0.  0.
        -11    1    3    3    0    0 -0.67242089296E+01  0.29946620789E+02  0.10902140999E+03  0.11325936128E+03  0.00000000000E+00 0.  1.
         11    1    3    3    0    0  0.29942328907E+02 -0.95841489084E+01 -0.54041582567E+00  0.31443457506E+02  0.00000000000E+00 0. -1.
        -13    1    4    4    0    0  0.44485278885E+02 -0.65661994839E+01  0.23927093179E+02  0.50936831479E+02  0.00000000000E+00 0.  1.
         13    1    4    4    0    0  0.55958772429E+02  0.34062074523E+01 -0.73936596574E+02  0.92787966752E+02  0.00000000000E+00 0. -1.
         21    1    1    2  502  501 -0.12366217129E+03 -0.17202479849E+02  0.16303764008E+03  0.20535220964E+03  0.00000000000E+00 0.  1.
<scales pt_clust_5="13000.00000" pt_clust_6="13000.00000" pt_clust_7="13000.00000" pt_clust_8="13000.00000" pt_clust_9="105.15717"></scales>
<clustering>
<clus scale="   89.760">  7  8 -1 -1</clus>
<clus scale="   90.648">  5  6 -1 -1</clus>
<clus scale="   95.764">  1  5  2 -1</clus>
<clus scale="  105.157">  1  9  2 -1</clus>
<clus scale="  138.257">  2  5  1 -1</clus>
</clustering>
</event>
<event>
 9    1  0.1345488E-005  0.3332894E+03  0.7546771E-02  0.1114235E+00
         -1   -1    0    0    0  501 -0.00000000000E+00  0.00000000000E+00  0.68165741974E+03  0.68165741974E+03  0.00000000000E+00 0.  1.
          1   -1    0    0  502    0  0.00000000000E+00 -0.00000000000E+00 -0.37835155542E+03  0.37835155542E+03  0.00000000000E+00 0. -1.
         23    2    1    2    0    0  0.31268700279E+03 -0.10542169323E+03  0.50797138995E+03  0.61212586672E+03  0.88183040206E+02 0.  0.
         23    2    1    2    0    0 -0.51949354635E+02 -0.17668571187E+02 -0.92567635822E+02  0.13852688779E+03  0.87235414743E+02 0.  0.
        -11    1    4    4    0    0 -0.14902934233E+02 -0.50918632233E+02 -0.43193487259E+02  0.68414047525E+02  0.00000000000E+00 0.  1.
         11    1    4    4    0    0 -0.37046420401E+02  0.33250061046E+02 -0.49374148563E+02  0.70112840268E+02  0.00000000000E+00 0. -1.
        -11    1    3    3    0    0  0.27418115855E+03 -0.12115122516E+03  0.43880365967E+03  0.53141469570E+03  0.00000000000E+00 0.  1.
         11    1    3    3    0    0  0.38505844233E+02  0.15729531934E+02  0.69167730279E+02  0.80711171017E+02  0.00000000000E+00 0. -1.
         21    1    1    2  502  501 -0.26073764815E+03  0.12309026442E+03 -0.11209788980E+03  0.30935622065E+03  0.00000000000E+00 0. -1.
<scales pt_clust_5="13000.00000" pt_clust_6="13000.00000" pt_clust_7="13000.00000" pt_clust_8="13000.00000" pt_clust_9="321.41182"></scales>
<clustering>
<clus scale="   87.235">  5  6 -1 -1</clus>
<clus scale="   88.183">  7  8 -1 -1</clus>
<clus scale="  103.058">  2  5  1 -1</clus>
<clus scale="  321.412">  2  9  1 -1</clus>
<clus scale="  103.058">  2  5  1 -1</clus>
</clustering>
</event>
<event>
 9    1  0.5300912E-006  0.1239819E+03  0.7546771E-02  0.1237410E+00
         -1   -1    0    0    0  501 -0.00000000000E+00  0.00000000000E+00  0.76242897992E+02  0.76242897992E+02  0.00000000000E+00 0.  1.
          1   -1    0    0  502    0  0.00000000000E+00 -0.00000000000E+00 -0.42724811152E+03  0.42724811152E+03  0.00000000000E+00 0. -1.
         23    2    1    2    0    0  0.46880064832E+02 -0.69415961985E+02 -0.76630135858E+02  0.14765327267E+03  0.94408659306E+02 0.  0.
         23    2    1    2    0    0 -0.10190184823E+03  0.58998501312E-01 -0.15205241009E+03  0.20483899500E+03  0.91951554123E+02 0.  0.
        -11    1    3    3    0    0 -0.81557190864E+01 -0.68506479458E+02 -0.56047935538E+02  0.88887707584E+02  0.00000000000E+00 0. -1.
         11    1    3    3    0    0  0.55035783918E+02 -0.90948252709E+00 -0.20582200321E+02  0.58765565087E+02  0.00000000000E+00 0.  1.
        -13    1    4    4    0    0 -0.58128218464E+02 -0.42952494179E+02 -0.58644504965E+02  0.93075155120E+02  0.00000000000E+00 0. -1.
         13    1    4    4    0    0 -0.43773629768E+02  0.43011492680E+02 -0.93407905123E+02  0.11176383988E+03  0.00000000000E+00 0.  1.
         21    1    1    2  502  501  0.55021783400E+02  0.69356963484E+02 -0.12232266758E+03  0.15099874183E+03  0.00000000000E+00 0.  1.
<scales pt_clust_5="13000.00000" pt_clust_6="13000.00000" pt_clust_7="13000.00000" pt_clust_8="13000.00000" pt_clust_9="88.53127"></scales>
<clustering>
<clus scale="   88.531">  2  9  1 -1</clus>
<clus scale="   91.952">  7  8 -1 -1</clus>
<clus scale="   94.409">  5  6 -1 -1</clus>
<clus scale="  122.121">  2  7  1 -1</clus>
<clus scale="   88.531">  2  5  1 -1</clus>
</clustering>
</event>
<event>
 9    1  0.5300912E-006  0.1224522E+03  0.7546771E-02  0.1241463E+00
         -2   -1    0    0    0  501 -0.00000000000E+00  0.00000000000E+00  0.18132107492E+03  0.18132107492E+03  0.00000000000E+00 0. -1.
          2   -1    0    0  502    0  0.00000000000E+00 -0.00000000000E+00 -0.16322697240E+03  0.16322697240E+03  0.00000000000E+00 0.  1.
         23    2    1    2    0    0 -0.46717254319E+02  0.37182768323E+02  0.83863897944E+02  0.14249985281E+03  0.98529155896E+02 0.  0.
         23    2    1    2    0    0  0.19760116585E+02 -0.76465350308E+02 -0.88071285063E+02  0.14944434520E+03  0.91321678989E+02 0.  0.
        -11    1    3    3    0    0 -0.43821352512E+02  0.69716837278E+02  0.56189918490E+02  0.99689795244E+02  0.00000000000E+00 0. -1.
         11    1    3    3    0    0 -0.28959018072E+01 -0.32534068955E+02  0.27673979454E+02  0.42810057566E+02  0.00000000000E+00 0.  1.
        -13    1    4    4    0    0  0.51742601065E+02 -0.19438315608E+02 -0.37658548587E+02  0.66882816630E+02  0.00000000000E+00 0.  1.
         13    1    4    4    0    0 -0.31982484480E+02 -0.57027034700E+02 -0.50412736476E+02  0.82561528566E+02  0.00000000000E+00 0. -1.
         21    1    1    2  502  501  0.26957137734E+02  0.39282581985E+02  0.22301489647E+02  0.52603849315E+02  0.00000000000E+00 0.  1.
<scales pt_clust_5="13000.00000" pt_clust_6="13000.00000" pt_clust_7="13000.00000" pt_clust_8="13000.00000" pt_clust_9="47.64251"></scales>
<clustering>
<clus scale="   47.643">  1  9  2 -1</clus>
<clus scale="   91.322">  7  8 -1 -1</clus>
<clus scale="   98.529">  5  6 -1 -1</clus>
<clus scale="  116.731">  2  7  1 -1</clus>
<clus scale="  116.731">  2  5  1 -1</clus>
</clustering>
</event>
<event>
 9    1  0.5300912E-006  0.3171115E+03  0.7546771E-02  0.1092099E+00
         -1   -1    0    0    0  501 -0.00000000000E+00  0.00000000000E+00  0.22881146525E+03  0.22881146525E+03  0.00000000000E+00 0.  1.
          1   -1    0    0  502    0  0.00000000000E+00 -0.00000000000E+00 -0.15829196699E+04  0.15829196699E+04  0.00000000000E+00 0. -1.
         23    2    1    2    0    0  0.15293566927E+03 -0.11375293419E+03  0.88421533067E+02  0.22950743874E+03  0.92337684381E+02 0.  0.
         23    2    1    2    0    0  0.89583345916E+02 -0.18907107907E+03 -0.31038838327E+03  0.38545224698E+03  0.91975200058E+02 0.  0.
        -11    1    4    4    0    0  0.87841012166E+02 -0.10521775248E+03 -0.14215502971E+03  0.19747119114E+03  0.00000000000E+00 0.  1.
         11    1    4    4    0    0  0.17423337496E+01 -0.83853326588E+02 -0.16823335356E+03  0.18798105585E+03  0.00000000000E+00 0. -1.
        -11    1    3    3    0    0  0.15768906437E+03 -0.79315743684E+02  0.79665453788E+02  0.19365797878E+03  0.00000000000E+00 0.  1.
         11    1    3    3    0    0 -0.47533951062E+01 -0.34437190506E+02  0.87560792787E+01  0.35849459958E+02  0.00000000000E+00 0. -1.
         21    1    1    2  502  501 -0.24251901518E+03  0.30282401326E+03 -0.11321413544E+04  0.11967714494E+04  0.00000000000E+00 0. -1.
<scales pt_clust_5="13000.00000" pt_clust_6="13000.00000" pt_clust_7="13000.00000" pt_clust_8="13000.00000" pt_clust_9="303.48023"></scales>
<clustering>
<clus scale="   91.975">  5  6 -1 -1</clus>
<clus scale="   92.338">  7  8 -1 -1</clus>
<clus scale="  211.791">  1  7  2 -1</clus>
<clus scale="  303.480">  2  9  1 -1</clus>
<clus scale="  303.480">  2  5  1 -1</clus>
</clustering>
</event>
<event>
 9    1  0.7216446E-006  0.1927152E+03  0.7546771E-02  0.1185301E+00
         -1   -1    0    0    0  501 -0.00000000000E+00  0.00000000000E+00  0.94139769359E+03  0.94139769359E+03  0.00000000000E+00 0.  1.
          1   -1    0    0  502    0  0.00000000000E+00 -0.00000000000E+00 -0.22975807599E+03  0.22975807599E+03  0.00000000000E+00 0. -1.
         23    2    1    2    0    0 -0.26720004962E+02  0.14955056570E+03  0.24044161557E+03  0.29829864015E+03  0.89947639504E+02 0.  0.
         23    2    1    2    0    0  0.33877199433E+02  0.29660008019E+02 -0.17570695263E+03  0.20154969201E+03  0.87874708716E+02 0.  0.
        -13    1    4    4    0    0  0.52735274823E+02  0.18748214391E+02 -0.53534234187E+02  0.77449460834E+02  0.00000000000E+00 0.  1.
         13    1    4    4    0    0 -0.18858075389E+02  0.10911793628E+02 -0.12217271844E+03  0.12410023118E+03  0.00000000000E+00 0. -1.
        -13    1    3    3    0    0  0.14497531998E+01  0.11517914263E+03  0.10540106487E+03  0.15613366439E+03  0.00000000000E+00 0. -1.
         13    1    3    3    0    0 -0.28169758162E+02  0.34371423069E+02  0.13504055070E+03  0.14216497576E+03  0.00000000000E+00 0.  1.
         21    1    1    2  502  501 -0.71571944715E+01 -0.17921057372E+03  0.64690495465E+03  0.67130743741E+03  0.00000000000E+00 0.  1.
<scales pt_clust_5="13000.00000" pt_clust_6="13000.00000" pt_clust_7="13000.00000" pt_clust_8="13000.00000" pt_clust_9="170.43641"></scales>
<clustering>
<clus scale="   87.875">  5  6 -1 -1</clus>
<clus scale="   89.948">  7  8 -1 -1</clus>
<clus scale="   98.739">  2  5  1 -1</clus>
<clus scale="  170.436">  1  9  2 -1</clus>
<clus scale="   98.739">  2  5  1 -1</clus>
</clustering>
</event>
<event>
 9    1  0.5300912E-006  0.1669133E+03  0.7546771E-02  0.1181891E+00
          2   -1    0    0  502    0  0.00000000000E+00  0.00000000000E+00  0.49832179636E+03  0.49832179636E+03  0.00000000000E+00 0. -1.
         -2   -1    0    0    0  501 -0.00000000000E+00 -0.00000000000E+00 -0.19281375818E+03  0.19281375818E+03  0.00000000000E+00 0.  1.
         23    2    1    2    0    0 -0.19093051742E+01  0.11024640400E+03  0.10824218158E+02  0.14289584976E+03  0.90244917525E+02 0.  0.
         23    2    1    2    0    0 -0.67412992781E+02 -0.13594056471E+03  0.39037642729E+03  0.42731474470E+03  0.84733625702E+02 0.  0.
        -11    1    3    3    0    0  0.17213760304E+02  0.36057047639E+02  0.43976103964E+02  0.59416512420E+02  0.00000000000E+00 0. -1.
         11    1    3    3    0    0 -0.19123065478E+02  0.74189356359E+02 -0.33151885806E+02  0.83479337340E+02  0.00000000000E+00 0.  1.
        -13    1    4    4    0    0 -0.47583349718E+02 -0.23650942001E+02  0.18415392853E+03  0.19166692887E+03  0.00000000000E+00 0.  1.
         13    1    4    4    0    0 -0.19829643063E+02 -0.11228962271E+03  0.20622249875E+03  0.23564781583E+03  0.00000000000E+00 0. -1.
         21    1    1    2  502  501  0.69322297955E+02  0.25694160710E+02 -0.95692607258E+02  0.12092496009E+03  0.00000000000E+00 0.  1.
<scales pt_clust_5="13000.00000" pt_clust_6="13000.00000" pt_clust_7="13000.00000" pt_clust_8="13000.00000" pt_clust_9="73.93085"></scales>
<clustering>
<clus scale="   73.931">  2  9  1 -1</clus>
<clus scale="   84.734">  7  8 -1 -1</clus>
<clus scale="   90.245">  5  6 -1 -1</clus>
<clus scale="  163.999">  1  7  2 -1</clus>
<clus scale="  163.999">  1  5  2 -1</clus>
</clustering>
</event>
<event>
 9    1  0.5300912E-006  0.9125078E+02  0.7546771E-02  0.1305523E+00
         -2   -1    0    0    0  501 -0.00000000000E+00  0.00000000000E+00  0.41782635123E+02  0.41782635123E+02  0.00000000000E+00 0.  1.
          2   -1    0    0  502    0  0.00000000000E+00 -0.00000000000E+00 -0.50650407552E+03  0.50650407552E+03  0.00000000000E+00 0. -1.
         23    2    1    2    0    0 -0.35035841044E+01  0.46168083376E+01 -0.53749891241E+02  0.10544197461E+03  0.90528278341E+02 0.  0.
         23    2    1    2    0    0  0.44604650267E+01  0.38175575842E+02 -0.12708072743E+03  0.15574527169E+03  0.81423633133E+02 0.  0.
        -11    1    4    4    0    0  0.34854490074E+02  0.43852912930E+02 -0.61178430459E+02  0.82950068139E+02  0.00000000000E+00 0.  1.
         11    1    4    4    0    0 -0.30394025048E+02 -0.56773370882E+01 -0.65902296968E+02  0.72795203556E+02  0.00000000000E+00 0. -1.
        -13    1    3    3    0    0 -0.11378222413E+02 -0.35222575739E+02 -0.53222401865E+02  0.64828372239E+02  0.00000000000E+00 0. -1.
         13    1    3    3    0    0  0.78746383085E+01  0.39839384077E+02 -0.52748937676E+00  0.40613602366E+02  0.00000000000E+00 0.  1.
         21    1    1    2  502  501 -0.95688092226E+00 -0.42792384179E+02 -0.28389082172E+03  0.28709946434E+03  0.00000000000E+00 0. -1.
<scales pt_clust_5="13000.00000" pt_clust_6="13000.00000" pt_clust_7="13000.00000" pt_clust_8="13000.00000" pt_clust_9="42.80308"></scales>
<clustering>
<clus scale="   42.803">  2  9  1 -1</clus>
<clus scale="   81.424">  5  6 -1 -1</clus>
<clus scale="   82.226">  2  5  1 -1</clus>
<clus scale="   90.528">  7  8 -1 -1</clus>
<clus scale="   42.803">  2  5  1 -1</clus>
</clustering>
</event>
<event>
 9    1  0.5300912E-006  0.2155207E+03  0.7546771E-02  0.1156667E+00
         -1   -1    0    0    0  501 -0.00000000000E+00  0.00000000000E+00  0.22904157419E+03  0.22904157419E+03  0.00000000000E+00 0.  1.
          1   -1    0    0  502    0  0.00000000000E+00 -0.00000000000E+00 -0.47344816538E+03  0.47344816538E+03  0.00000000000E+00 0. -1.
         23    2    1    2    0    0 -0.12613410646E+02  0.12918856360E+03 -0.11915681154E+03  0.19856890962E+03  0.91555901167E+02 0.  0.
         23    2    1    2    0    0  0.14211316095E+02  0.97124864137E+02 -0.22004323486E+03  0.25855147567E+03  0.93779739925E+02 0.  0.
        -11    1    3    3    0    0  0.21674051766E+02 -0.33068647840E+01 -0.14623150645E+02  0.26354058690E+02  0.00000000000E+00 0.  1.
         11    1    3    3    0    0 -0.34287462411E+02  0.13249542838E+03 -0.10453366090E+03  0.17221485093E+03  0.00000000000E+00 0. -1.
        -13    1    4    4    0    0 -0.23998040545E+02  0.87584543144E+02 -0.18388781758E+03  0.20508946244E+03  0.00000000000E+00 0. -1.
         13    1    4    4    0    0  0.38209356641E+02  0.95403209937E+01 -0.36155417281E+02  0.53462013227E+02  0.00000000000E+00 0.  1.
         21    1    1    2  502  501 -0.15979054498E+01 -0.22631342773E+03  0.94793455216E+02  0.24536935429E+03  0.00000000000E+00 0.  1.
<scales pt_clust_5="13000.00000" pt_clust_6="13000.00000" pt_clust_7="13000.00000" pt_clust_8="13000.00000" pt_clust_9="195.10690"></scales>
<clustering>
<clus scale="   91.556">  5  6 -1 -1</clus>
<clus scale="   93.780">  7  8 -1 -1</clus>
<clus scale="  135.757">  2  7  1 -1</clus>
<clus scale="  195.107">  1  9  2 -1</clus>
<clus scale="  135.757">  2  5  1 -1</clus>
</clustering>
</event>
<event>
 9    1  0.5300912E-006  0.1335976E+03  0.7546771E-02  0.1225510E+00
         -1   -1    0    0    0  501 -0.00000000000E+00  0.00000000000E+00  0.87982752797E+03  0.87982752797E+03  0.00000000000E+00 0.  1.
          1   -1    0    0  502    0  0.00000000000E+00 -0.00000000000E+00 -0.33619455294E+02  0.33619455294E+02  0.00000000000E+00 0. -1.
         23    2    1    2    0    0 -0.39414396368E+02  0.81502009983E+02  0.35826740950E+03  0.37734405141E+03  0.76399765388E+02 0.  0.
         23    2    1    2    0    0  0.86184194191E+02 -0.72693464499E+02  0.45718478059E+03  0.47943787406E+03  0.90170374102E+02 0.  0.
        -11    1    4    4    0    0  0.91954902241E+01 -0.31830030195E+02  0.34394274366E+02  0.47756402418E+02  0.00000000000E+00 0. -1.
         11    1    4    4    0    0  0.76988703966E+02 -0.40863434303E+02  0.42279050623E+03  0.43168147164E+03  0.00000000000E+00 0.  1.
        -13    1    3    3    0    0 -0.60664580551E+02  0.74495634440E+02  0.28831420114E+03  0.30389943972E+03  0.00000000000E+00 0. -1.
         13    1    3    3    0    0  0.21250184183E+02  0.70063755433E+01  0.69953208359E+02  0.73444611686E+02  0.00000000000E+00 0.  1.
         21    1    1    2  502  501 -0.46769797822E+02 -0.88085454845E+01  0.30755882584E+02  0.56665057799E+02  0.00000000000E+00 0. -1.
<scales pt_clust_5="13000.00000" pt_clust_6="13000.00000" pt_clust_7="13000.00000" pt_clust_8="13000.00000" pt_clust_9="47.59206"></scales>
<clustering>
<clus scale="   47.592">  2  9  1 -1</clus>
<clus scale="   76.400">  7  8 -1 -1</clus>
<clus scale="   90.170">  5  6 -1 -1</clus>
<clus scale="  124.718">  1  7  2 -1</clus>
<clus scale="   47.592">  2  5  1 -1</clus>
</clustering>
</event>
<event>
 9    1  0.5300912E-006  0.1105946E+03  0.7546771E-02  0.1260218E+00
         -2   -1    0    0    0  501 -0.00000000000E+00  0.00000000000E+00  0.33749461112E+03  0.33749461112E+03  0.00000000000E+00 0.  1.
          2   -1    0    0  502    0  0.00000000000E+00 -0.00000000000E+00 -0.11708921968E+03  0.11708921968E+03  0.00000000000E+00 0. -1.
         23    2    1    2    0    0  0.42729562122E+02 -0.51588978422E+02  0.28185369975E+03  0.30330430905E+03  0.89803995742E+02 0.  0.
         23    2    1    2    0    0 -0.10560390541E+02  0.23349486417E+02 -0.45852723219E+02  0.10572135253E+03  0.91748633717E+02 0.  0.
        -11    1    3    3    0    0  0.22063252056E+02 -0.47066524159E+02  0.27668654056E+03  0.28152706178E+03  0.00000000000E+00 0.  1.
         11    1    3    3    0    0  0.20666310066E+02 -0.45224542633E+01  0.51671591837E+01  0.21777247263E+02  0.00000000000E+00 0. -1.
        -11    1    4    4    0    0  0.16130667954E+02 -0.18760485504E+02  0.13517873902E+02  0.28193743629E+02  0.00000000000E+00 0.  1.
         11    1    4    4    0    0 -0.26691058495E+02  0.42109971921E+02 -0.59370597121E+02  0.77527608897E+02  0.00000000000E+00 0. -1.
         21    1    1    2  502  501 -0.32169171581E+02  0.28239492005E+02 -0.15595585087E+02  0.45558169225E+02  0.00000000000E+00 0. -1.
<scales pt_clust_5="13000.00000" pt_clust_6="13000.00000" pt_clust_7="13000.00000" pt_clust_8="13000.00000" pt_clust_9="42.80566"></scales>
<clustering>
<clus scale="   42.806">  2  9  1 -1</clus>
<clus scale="   89.804">  5  6 -1 -1</clus>
<clus scale="   91.749">  7  8 -1 -1</clus>
<clus scale="  108.987">  1  5  2 -1</clus>
<clus scale="   42.806">  2  5  1 -1</clus>
</clustering>
</event>
<event>
 9    1  0.5300912E-006  0.1194327E+03  0.7546771E-02  0.1244343E+00
         -2   -1    0    0    0  501 -0.00000000000E+00  0.00000000000E+00  0.62502917680E+02  0.62502917680E+02  0.00000000000E+00 0.  1.
          2   -1    0    0  502    0  0.00000000000E+00 -0.00000000000E+00 -0.56271680009E+03  0.56271680009E+03  0.00000000000E+00 0. -1.
         23    2    1    2    0    0 -0.59940492445E+02 -0.19292180415E+02 -0.83015300565E+02  0.13902444052E+03  0.92039144255E+02 0.  0.
         23    2    1    2    0    0  0.10059172666E+03 -0.42850248190E+02 -0.14153479518E+03  0.20070494894E+03  0.91079849801E+02 0.  0.
        -11    1    3    3    0    0 -0.13356058900E+02  0.19533268004E+02  0.11825385760E+02  0.26453215620E+02  0.00000000000E+00 0. -1.
         11    1    3    3    0    0 -0.46584433545E+02 -0.38825448420E+02 -0.94840686325E+02  0.11257122490E+03  0.00000000000E+00 0.  1.
        -13    1    4    4    0    0  0.10369525043E+03 -0.94357122378E+01 -0.12674898153E+03  0.16403366102E+03  0.00000000000E+00 0. -1.
         13    1    4    4    0    0 -0.31035237681E+01 -0.33414535953E+02 -0.14785813647E+02  0.36671287923E+02  0.00000000000E+00 0.  1.
         21    1    1    2  502  501 -0.40651234220E+02  0.62142428606E+02 -0.27566378666E+03  0.28549032830E+03  0.00000000000E+00 0. -1.
<scales pt_clust_5="13000.00000" pt_clust_6="13000.00000" pt_clust_7="13000.00000" pt_clust_8="13000.00000" pt_clust_9="74.25769"></scales>
<clustering>
<clus scale="   74.258">  2  9  1 -1</clus>
<clus scale="   91.080">  7  8 -1 -1</clus>
<clus scale="   92.039">  5  6 -1 -1</clus>
<clus scale="  118.695">  2  7  1 -1</clus>
<clus scale="   74.258">  2  5  1 -1</clus>
</clustering>
</event>
<event>
 9    1  0.5300912E-006  0.1301796E+03  0.7546771E-02  0.1228357E+00
         -2   -1    0    0    0  501 -0.00000000000E+00  0.00000000000E+00  0.91110453710E+02  0.91110453710E+02  0.00000000000E+00 0.  1.
          2   -1    0    0  502    0  0.00000000000E+00 -0.00000000000E+00 -0.36091907560E+03  0.36091907560E+03  0.00000000000E+00 0. -1.
         23    2    1    2    0    0  0.14428484565E+02  0.39715775437E+02 -0.15457713194E+02  0.10422111201E+03  0.94008378912E+02 0.  0.
         23    2    1    2    0    0 -0.30950374111E+02 -0.10730906233E+03 -0.23565038915E+03  0.27575611200E+03  0.89650247558E+02 0.  0.
        -11    1    3    3    0    0  0.52269560538E+02  0.24615139556E+02 -0.24051491079E+02  0.62581836641E+02  0.00000000000E+00 0. -1.
         11    1    3    3    0    0 -0.37841075973E+02  0.15100635880E+02  0.85937778843E+01  0.41639275367E+02  0.00000000000E+00 0.  1.
        -13    1    4    4    0    0 -0.50141003525E+02 -0.21599731442E+02 -0.10467474713E+03  0.11805706806E+03  0.00000000000E+00 0.  1.
         13    1    4    4    0    0  0.19190629414E+02 -0.85709330887E+02 -0.13097564202E+03  0.15769904395E+03  0.00000000000E+00 0. -1.
         21    1    1    2  502  501  0.16521889546E+02  0.67593286892E+02 -0.18700519545E+02  0.72052305295E+02  0.00000000000E+00 0.  1.
<scales pt_clust_5="13000.00000" pt_clust_6="13000.00000" pt_clust_7="13000.00000" pt_clust_8="13000.00000" pt_clust_9="69.58323"></scales>
<clustering>
<clus scale="   69.583">  1  9  2 -1</clus>
<clus scale="   89.650">  7  8 -1 -1</clus>
<clus scale="   94.008">  5  6 -1 -1</clus>
<clus scale="  127.068">  2  7  1 -1</clus>
<clus scale="  127.068">  2  5  1 -1</clus>
</clustering>
</event>
<event>
 9    1  0.5300912E-006  0.1492595E+03  0.7546771E-02  0.1201978E+00
         -1   -1    0    0    0  501 -0.00000000000E+00  0.00000000000E+00  0.72231690580E+02  0.72231690580E+02  0.00000000000E+00 0.  1.
          1   -1    0    0  502    0  0.00000000000E+00 -0.00000000000E+00 -0.51390237264E+03  0.51390237264E+03  0.00000000000E+00 0. -1.
         23    2    1    2    0    0  0.26585900441E+02 -0.13546774452E+03 -0.16776209377E+03  0.23661941019E+03  0.93735293576E+02 0.  0.
         23    2    1    2    0    0 -0.17595065776E+02  0.10438649645E+03 -0.28337758341E+03  0.31580202989E+03  0.90674915625E+02 0.  0.
        -11    1    3    3    0    0 -0.25355130834E+02 -0.64255909187E+02 -0.11423744681E+03  0.13349868456E+03  0.00000000000E+00 0. -1.
         11    1    3    3    0    0  0.51941031276E+02 -0.71211835337E+02 -0.53524646966E+02  0.10312072563E+03  0.00000000000E+00 0.  1.
        -13    1    4    4    0    0  0.28834256116E+02  0.50663034049E+01 -0.70885430948E+02  0.76693064072E+02  0.00000000000E+00 0.  1.
         13    1    4    4    0    0 -0.46429321892E+02  0.99320193041E+02 -0.21249215247E+03  0.23910896582E+03  0.00000000000E+00 0. -1.
         21    1    1    2  502  501 -0.89908346658E+01  0.31081248078E+02  0.94689951288E+01  0.33712623138E+02  0.00000000000E+00 0.  1.
<scales pt_clust_5="13000.00000" pt_clust_6="13000.00000" pt_clust_7="13000.00000" pt_clust_8="13000.00000" pt_clust_9="32.35551"></scales>
<clustering>
<clus scale="   32.356">  1  9  2 -1</clus>
<clus scale="   90.675">  7  8 -1 -1</clus>
<clus scale="   93.735">  5  6 -1 -1</clus>
<clus scale="  147.357">  2  7  1 -1</clus>
<clus scale="  147.357">  2  5  1 -1</clus>
</clustering>
</event>
<event>
 9    1  0.5300912E-006  0.9707397E+02  0.7546771E-02  0.1290197E+00
         -3   -1    0    0    0  501 -0.00000000000E+00  0.00000000000E+00  0.46515737515E+03  0.46515737515E+03  0.00000000000E+00 0.  1.
          3   -1    0    0  502    0  0.00000000000E+00 -0.00000000000E+00 -0.51571285205E+02  0.51571285205E+02  0.00000000000E+00 0. -1.
         23    2    1    2    0    0  0.19178620997E+02  0.51170448970E+02  0.32948797945E+03  0.34728793849E+03  0.95185866944E+02 0.  0.
         23    2    1    2    0    0 -0.92561660844E+01 -0.10022876359E+02  0.18848828051E+02  0.91665104204E+02  0.88662722430E+02 0.  0.
        -13    1    4    4    0    0  0.24286143911E+02  0.44040834659E+01 -0.24642924969E+02  0.34878166354E+02  0.00000000000E+00 0. -1.
         13    1    4    4    0    0 -0.33542309995E+02 -0.14426959824E+02  0.43491753020E+02  0.56786937850E+02  0.00000000000E+00 0.  1.
        -13    1    3    3    0    0  0.32983735551E+02  0.73241241454E+02  0.20645026049E+03  0.22152633324E+03  0.00000000000E+00 0.  1.
         13    1    3    3    0    0 -0.13805114553E+02 -0.22070792483E+02  0.12303771896E+03  0.12576160525E+03  0.00000000000E+00 0. -1.
         21    1    1    2  502  501 -0.99224549128E+01 -0.41147572612E+02  0.65249282440E+02  0.77775617660E+02  0.00000000000E+00 0.  1.
<scales pt_clust_5="13000.00000" pt_clust_6="13000.00000" pt_clust_7="13000.00000" pt_clust_8="13000.00000" pt_clust_9="42.32703"></scales>
<clustering>
<clus scale="   42.327">  1  9  2 -1</clus>
<clus scale="   88.663">  5  6 -1 -1</clus>
<clus scale="   90.687">  2  5  1 -1</clus>
<clus scale="   95.186">  7  8 -1 -1</clus>
<clus scale="   90.687">  2  5  1 -1</clus>
</clustering>
</event>
<event>
 9    1  0.5300912E-006  0.1049026E+03  0.7546771E-02  0.1270405E+00
         -2   -1    0    0    0  501 -0.00000000000E+00  0.00000000000E+00  0.32567864961E+03  0.32567864961E+03  0.00000000000E+00 0.  1.
          2   -1    0    0  502    0  0.00000000000E+00 -0.00000000000E+00 -0.11912381688E+03  0.11912381688E+03  0.00000000000E+00 0. -1.
         23    2    1    2    0    0 -0.96685625045E+01 -0.81495547273E+01  0.14634544223E+03  0.17451073564E+03  0.94218427334E+02 0.  0.
         23    2    1    2    0    0 -0.22570144563E+02  0.48946997658E+02 -0.70731473654E+02  0.12940427403E+03  0.94006939990E+02 0.  0.
        -11    1    3    3    0    0 -0.30086117125E+01 -0.36660500180E+02  0.14639794452E+02  0.39589993679E+02  0.00000000000E+00 0. -1.
         11    1    3    3    0    0 -0.66599507920E+01  0.28510945453E+02  0.13170564778E+03  0.13492074196E+03  0.00000000000E+00 0.  1.
        -13    1    4    4    0    0 -0.55501707231E+02  0.26872378367E+02 -0.19603098216E+02  0.64705839646E+02  0.00000000000E+00 0. -1.
         13    1    4    4    0    0  0.32931562668E+02  0.22074619291E+02 -0.51128375438E+02  0.64698434383E+02  0.00000000000E+00 0.  1.
         21    1    1    2  502  501  0.32238707067E+02 -0.40797442931E+02  0.13094086415E+03  0.14088745682E+03  0.00000000000E+00 0. -1.
<scales pt_clust_5="13000.00000" pt_clust_6="13000.00000" pt_clust_7="13000.00000" pt_clust_8="13000.00000" pt_clust_9="51.99775"></scales>
<clustering>
<clus scale="   51.998">  1  9  2 -1</clus>
<clus scale="   94.007">  7  8 -1 -1</clus>
<clus scale="   94.218">  5  6 -1 -1</clus>
<clus scale="  104.713">  2  7  1 -1</clus>
<clus scale="  104.713">  2  5  1 -1</clus>
</clustering>
</event>
<event>
 9    1  0.5300912E-006  0.1347094E+03  0.7546771E-02  0.1238656E+00
         -1   -1    0    0    0  501 -0.00000000000E+00  0.00000000000E+00  0.14506590062E+03  0.14506590062E+03  0.00000000000E+00 0.  1.
          1   -1    0    0  502    0  0.00000000000E+00 -0.00000000000E+00 -0.23574855538E+03  0.23574855538E+03  0.00000000000E+00 0. -1.
         23    2    1    2    0    0  0.14349324183E+02  0.49989765670E+01  0.50569897887E+02  0.10570268243E+03  0.91568824549E+02 0.  0.
         23    2    1    2    0    0 -0.99160909398E+02  0.32858031221E+02 -0.10914112945E+03  0.17684020329E+03  0.91913737784E+02 0.  0.
        -11    1    3    3    0    0  0.14221330852E+01  0.37781765286E+02  0.58431517427E+02  0.69596885558E+02  0.00000000000E+00 0.  1.
         11    1    3    3    0    0  0.12927191098E+02 -0.32782788719E+02 -0.78616195399E+01  0.36105796871E+02  0.00000000000E+00 0. -1.
        -11    1    4    4    0    0 -0.46541844051E+02 -0.27457532731E+02 -0.67961303107E+02  0.86826252201E+02  0.00000000000E+00 0.  1.
         11    1    4    4    0    0 -0.52619065347E+02  0.60315563952E+02 -0.41179826344E+02  0.90013951089E+02  0.00000000000E+00 0. -1.
         21    1    1    2  502  501  0.84811585215E+02 -0.37857007788E+02 -0.32111423199E+02  0.98271570279E+02  0.00000000000E+00 0.  1.
<scales pt_clust_5="13000.00000" pt_clust_6="13000.00000" pt_clust_7="13000.00000" pt_clust_8="13000.00000" pt_clust_9="98.48091"></scales>
<clustering>
<clus scale="   91.569">  5  6 -1 -1</clus>
<clus scale="   91.914">  7  8 -1 -1</clus>
<clus scale="   92.821">  1  5  2 -1</clus>
<clus scale="   98.481">  1  9  2 -1</clus>
<clus scale="  134.709">  2  5  1 -1</clus>
</clustering>
</event>
<event>
 9    1  0.5300912E-006  0.1186513E+03  0.7546771E-02  0.1245525E+00
         -1   -1    0    0    0  501 -0.00000000000E+00  0.00000000000E+00  0.21145558748E+03  0.21145558748E+03  0.00000000000E+00 0.  1.
          1   -1    0    0  502    0  0.00000000000E+00 -0.00000000000E+00 -0.45137671887E+03  0.45137671887E+03  0.00000000000E+00 0. -1.
         23    2    1    2    0    0  0.66311372262E+01 -0.86912249971E+02  0.16669447052E+03  0.20920514321E+03  0.91553450346E+02 0.  0.
         23    2    1    2    0    0 -0.79947764939E+01  0.52929843002E+01 -0.99888358300E+02  0.13622337297E+03  0.92125952287E+02 0.  0.
        -13    1    4    4    0    0  0.11827451427E+02  0.35114199476E+02 -0.92521768626E+02  0.99665306309E+02  0.00000000000E+00 0. -1.
         13    1    4    4    0    0 -0.19822227921E+02 -0.29821215176E+02 -0.73665896740E+01  0.36558066658E+02  0.00000000000E+00 0.  1.
        -13    1    3    3    0    0 -0.28943348799E+02 -0.50586407533E+01  0.78122379562E+02  0.83465043428E+02  0.00000000000E+00 0.  1.
         13    1    3    3    0    0  0.35574486026E+02 -0.81853609218E+02  0.88572090954E+02  0.12574009978E+03  0.00000000000E+00 0. -1.
         21    1    1    2  502  501  0.13636392678E+01  0.81619265671E+02 -0.30672724361E+03  0.31740379017E+03  0.00000000000E+00 0. -1.
<scales pt_clust_5="13000.00000" pt_clust_6="13000.00000" pt_clust_7="13000.00000" pt_clust_8="13000.00000" pt_clust_9="81.63066"></scales>
<clustering>
<clus scale="   81.631">  2  9  1 -1</clus>
<clus scale="   91.553">  7  8 -1 -1</clus>
<clus scale="   92.126">  5  6 -1 -1</clus>
<clus scale="  118.207">  1  7  2 -1</clus>
<clus scale="   81.631">  2  5  1 -1</clus>
</clustering>
</event>
<event>
 9    1  0.5300912E-006  0.1139260E+03  0.7546771E-02  0.1254103E+00
          1   -1    0    0  502    0  0.00000000000E+00  0.00000000000E+00  0.28861781883E+03  0.28861781883E+03  0.00000000000E+00 0. -1.
         -1   -1    0    0    0  501 -0.00000000000E+00 -0.00000000000E+00 -0.95574888839E+02  0.95574888839E+02  0.00000000000E+00 0.  1.
         23    2    1    2    0    0 -0.12005315189E+02  0.84493877195E+02  0.24381526975E+02  0.12560665859E+03  0.88877617818E+02 0.  0.
         23    2    1    2    0    0  0.65490721481E+02 -0.22528096694E+02  0.95253365256E+02  0.14863521167E+03  0.90678954638E+02 0.  0.
        -13    1    4    4    0    0  0.47052314546E+02  0.20370277706E+02  0.11197470425E+02  0.52480966663E+02  0.00000000000E+00 0.  1.
         13    1    4    4    0    0  0.18438406935E+02 -0.42898374400E+02  0.84055894831E+02  0.96154245004E+02  0.00000000000E+00 0. -1.
        -13    1    3    3    0    0 -0.10329638234E+02 -0.17601370565E+02 -0.85064848823E+00  0.20426288813E+02  0.00000000000E+00 0. -1.
         13    1    3    3    0    0 -0.16756769553E+01  0.10209524776E+03  0.25232175463E+02  0.10518036978E+03  0.00000000000E+00 0.  1.
         21    1    1    2  502  501 -0.53485406291E+02 -0.61965780501E+02  0.73408037761E+02  0.10995083741E+03  0.00000000000E+00 0. -1.
<scales pt_clust_5="13000.00000" pt_clust_6="13000.00000" pt_clust_7="13000.00000" pt_clust_8="13000.00000" pt_clust_9="81.85626"></scales>
<clustering>
<clus scale="   81.856">  1  9  2 -1</clus>
<clus scale="   88.878">  7  8 -1 -1</clus>
<clus scale="   90.679">  5  6 -1 -1</clus>
<clus scale="  112.498">  2  7  1 -1</clus>
<clus scale="   81.856">  1  5  2 -1</clus>
</clustering>
</event>
<event>
 9    1  0.5300912E-006  0.1074490E+03  0.7546771E-02  0.1267124E+00
          2   -1    0    0  502    0  0.00000000000E+00  0.00000000000E+00  0.21289513872E+03  0.21289513872E+03  0.00000000000E+00 0. -1.
         -2   -1    0    0    0  501 -0.00000000000E+00 -0.00000000000E+00 -0.20645633033E+03  0.20645633033E+03  0.00000000000E+00 0.  1.
         23    2    1    2    0    0 -0.46020765060E+02 -0.28602608852E+02 -0.16757027971E+03  0.19802063483E+03  0.90533712641E+02 0.  0.
         23    2    1    2    0    0  0.19069211199E+02  0.13078544040E+01  0.13996955953E+03  0.17004653467E+03  0.94651999756E+02 0.  0.
        -11    1    3    3    0    0  0.13272623178E+02  0.22630110311E+02 -0.54053903702E+02  0.60084181980E+02  0.00000000000E+00 0. -1.
         11    1    3    3    0    0 -0.59293388238E+02 -0.51232719164E+02 -0.11351637601E+03  0.13793645285E+03  0.00000000000E+00 0.  1.
        -13    1    4    4    0    0 -0.17983768610E+02 -0.16181545463E+02 -0.11542771443E-01  0.24192116076E+02  0.00000000000E+00 0.  1.
         13    1    4    4    0    0  0.37052979809E+02  0.17489399867E+02  0.13998110231E+03  0.14585441859E+03  0.00000000000E+00 0. -1.
         21    1    1    2  502  501  0.26951553861E+02  0.27294754448E+02  0.34039528568E+02  0.51284299557E+02  0.00000000000E+00 0.  1.
<scales pt_clust_5="13000.00000" pt_clust_6="13000.00000" pt_clust_7="13000.00000" pt_clust_8="13000.00000" pt_clust_9="38.35870"></scales>
<clustering>
<clus scale="   38.359">  1  9  2 -1</clus>
<clus scale="   90.534">  5  6 -1 -1</clus>
<clus scale="   94.652">  7  8 -1 -1</clus>
<clus scale="  103.839">  2  5  1 -1</clus>
<clus scale="   38.359">  1  5  2 -1</clus>
</clustering>
</event>
<event>
 9    1  0.5300912E-006  0.1346255E+03  0.7546771E-02  0.1221090E+00
          1   -1    0    0  502    0  0.00000000000E+00  0.00000000000E+00  0.71164881101E+02  0.71164881101E+02  0.00000000000E+00 0. -1.
         -1   -1    0    0    0  501 -0.00000000000E+00 -0.00000000000E+00 -0.61085447900E+03  0.61085447900E+03  0.00000000000E+00 0.  1.
         23    2    1    2    0    0 -0.16801127542E+02  0.48151251764E+02 -0.38218919026E+03  0.39632623636E+03  0.91679264524E+02 0.  0.
         23    2    1    2    0    0  0.15357635738E+02 -0.10684126784E+03 -0.30458071679E+02  0.14574185800E+03  0.93070304357E+02 0.  0.
        -11    1    3    3    0    0 -0.48986521666E+02  0.19808664593E+02 -0.12692565603E+03  0.13748521613E+03  0.00000000000E+00 0. -1.
         11    1    3    3    0    0  0.32185394124E+02  0.28342587171E+02 -0.25526353423E+03  0.25884102023E+03  0.00000000000E+00 0.  1.
        -13    1    4    4    0    0 -0.39205100028E+02 -0.47279998022E+02 -0.82684965821E+01  0.61974237526E+02  0.00000000000E+00 0.  1.
         13    1    4    4    0    0  0.54562735766E+02 -0.59561269821E+02 -0.22189575097E+02  0.83767620475E+02  0.00000000000E+00 0. -1.
         21    1    1    2  502  501  0.14434918041E+01  0.58690016080E+02 -0.12704233596E+03  0.13995126574E+03  0.00000000000E+00 0.  1.
<scales pt_clust_5="13000.00000" pt_clust_6="13000.00000" pt_clust_7="13000.00000" pt_clust_8="13000.00000" pt_clust_9="58.70776"></scales>
<clustering>
<clus scale="   58.708">  2  9  1 -1</clus>
<clus scale="   91.679">  5  6 -1 -1</clus>
<clus scale="   93.070">  7  8 -1 -1</clus>
<clus scale="  133.668">  2  5  1 -1</clus>
<clus scale="  134.626">  1  5  2 -1</clus>
</clustering>
</event>
<event>
 9    1  0.5300912E-006  0.1040593E+03  0.7546771E-02  0.1272839E+00
         -1   -1    0    0    0  501 -0.00000000000E+00  0.00000000000E+00  0.19256510559E+03  0.19256510559E+03  0.00000000000E+00 0.  1.
          1   -1    0    0  502    0  0.00000000000E+00 -0.00000000000E+00 -0.35009463983E+03  0.35009463983E+03  0.00000000000E+00 0. -1.
         23    2    1    2    0    0  0.13416081801E+02  0.48337015784E+01  0.12218263213E+03  0.15166772862E+03  0.88719492720E+02 0.  0.
         23    2    1    2    0    0  0.55078969214E+02  0.56885312020E+01 -0.30042958003E+03  0.31866290354E+03  0.90675582678E+02 0.  0.
        -11    1    3    3    0    0  0.41057633151E+02  0.25338550121E+02  0.99119461272E+02  0.11023810124E+03  0.00000000000E+00 0.  1.
         11    1    3    3    0    0 -0.27641551349E+02 -0.20504848543E+02  0.23063170858E+02  0.41429627379E+02  0.00000000000E+00 0. -1.
        -13    1    4    4    0    0 -0.11198360747E+01 -0.35789325250E+02 -0.86457953193E+02  0.93579418170E+02  0.00000000000E+00 0.  1.
         13    1    4    4    0    0  0.56198805288E+02  0.41477856452E+02 -0.21397162684E+03  0.22508348537E+03  0.00000000000E+00 0. -1.
         21    1    1    2  502  501 -0.68495051015E+02 -0.10522232780E+02  0.20717413663E+02  0.72329113261E+02  0.00000000000E+00 0. -1.
<scales pt_clust_5="13000.00000" pt_clust_6="13000.00000" pt_clust_7="13000.00000" pt_clust_8="13000.00000" pt_clust_9="69.29855"></scales>
<clustering>
<clus scale="   69.299">  1  9  2 -1</clus>
<clus scale="   88.719">  5  6 -1 -1</clus>
<clus scale="   90.676">  7  8 -1 -1</clus>
<clus scale="  102.359">  1  5  2 -1</clus>
<clus scale="  104.059">  2  5  1 -1</clus>
</clustering>
</event>
<event>
 9    1  0.5300912E-006  0.1064660E+03  0.7546771E-02  0.1267584E+00
         -1   -1    0    0    0  501 -0.00000000000E+00  0.00000000000E+00  0.59699768077E+03  0.59699768077E+03  0.00000000000E+00 0.  1.
          1   -1    0    0  502    0  0.00000000000E+00 -0.00000000000E+00 -0.94577837937E+02  0.94577837937E+02  0.00000000000E+00 0. -1.
         23    2    1    2    0    0  0.51611832624E+01  0.31721236629E+02  0.14077228805E+03  0.17067859131E+03  0.91002581191E+02 0.  0.
         23    2    1    2    0    0 -0.61500497293E+02 -0.17597822799E+02 -0.37157016235E+02  0.11788492387E+03  0.91783532754E+02 0.  0.
        -11    1    3    3    0    0 -0.12450275811E+02  0.58873113905E+02  0.66631069566E+02  0.89781692678E+02  0.00000000000E+00 0.  1.
         11    1    3    3    0    0  0.17611459074E+02 -0.27151877276E+02  0.74141218481E+02  0.80896898631E+02  0.00000000000E+00 0. -1.
        -11    1    4    4    0    0 -0.22731621623E+02  0.12600612178E+02  0.26730849659E+02  0.37283245197E+02  0.00000000000E+00 0.  1.
         11    1    4    4    0    0 -0.38768875670E+02 -0.30198434976E+02 -0.63887865894E+02  0.80601678669E+02  0.00000000000E+00 0. -1.
         21    1    1    2  502  501  0.56339314031E+02 -0.14123413830E+02  0.39880457102E+03  0.40301200353E+03  0.00000000000E+00 0.  1.
<scales pt_clust_5="13000.00000" pt_clust_6="13000.00000" pt_clust_7="13000.00000" pt_clust_8="13000.00000" pt_clust_9="58.08261"></scales>
<clustering>
<clus scale="   58.083">  1  9  2 -1</clus>
<clus scale="   91.003">  5  6 -1 -1</clus>
<clus scale="   91.784">  7  8 -1 -1</clus>
<clus scale="  105.794">  1  5  2 -1</clus>
<clus scale="  106.466">  2  5  1 -1</clus>
</clustering>
</event>
<event>
 9    1  0.5300912E-006  0.1532371E+03  0.7546771E-02  0.1211763E+00
          1   -1    0    0  502    0  0.00000000000E+00  0.00000000000E+00  0.61879599067E+03  0.61879599067E+03  0.00000000000E+00 0. -1.
         -1   -1    0    0    0  501 -0.00000000000E+00 -0.00000000000E+00 -0.85266463539E+02  0.85266463539E+02  0.00000000000E+00 0.  1.
         23    2    1    2    0    0 -0.35475463803E+02  0.51079836129E+02  0.70333418868E+02  0.13088121298E+03  0.91189055869E+02 0.  0.
         23    2    1    2    0    0 -0.61509954995E+02  0.48849152903E+02  0.32783372300E+02  0.12080186771E+03  0.85724135689E+02 0.  0.
        -11    1    3    3    0    0 -0.52689422596E+02  0.65821771674E+02  0.40833686683E+02  0.93680685565E+02  0.00000000000E+00 0.  1.
         11    1    3    3    0    0  0.17213958793E+02 -0.14741935545E+02  0.29499732185E+02  0.37200527415E+02  0.00000000000E+00 0. -1.
        -11    1    4    4    0    0  0.20750948408E+02  0.20653897020E+02  0.70335316958E+01  0.30110727159E+02  0.00000000000E+00 0. -1.
         11    1    4    4    0    0 -0.82260903403E+02  0.28195255884E+02  0.25749840605E+02  0.90691140549E+02  0.00000000000E+00 0.  1.
         21    1    1    2  502  501  0.96985418797E+02 -0.99928989032E+02  0.43041273596E+03  0.45237937352E+03  0.00000000000E+00 0. -1.
<scales pt_clust_5="13000.00000" pt_clust_6="13000.00000" pt_clust_7="13000.00000" pt_clust_8="13000.00000" pt_clust_9="127.01571"></scales>
<clustering>
<clus scale="   85.724">  7  8 -1 -1</clus>
<clus scale="   91.189">  5  6 -1 -1</clus>
<clus scale="  110.377">  2  5  1 -1</clus>
<clus scale="  127.016">  1  9  2 -1</clus>
<clus scale="  127.016">  1  5  2 -1</clus>
</clustering>
</event>
<event>
 9    1  0.5300912E-006  0.1110029E+03  0.7546771E-02  0.1258831E+00
         -1   -1    0    0    0  501 -0.00000000000E+00  0.00000000000E+00  0.11019843434E+03  0.11019843434E+03  0.00000000000E+00 0.  1.
          1   -1    0    0  502    0  0.00000000000E+00 -0.00000000000E+00 -0.27998624958E+03  0.27998624958E+03  0.00000000000E+00 0. -1.
         23    2    1    2    0    0 -0.20601081806E+00 -0.31116869483E+02 -0.22485914090E+01  0.96380923702E+02  0.91191689772E+02 0.  0.
         23    2    1    2    0    0 -0.70161270505E+02  0.41057195663E+02 -0.18410473961E+03  0.22083266540E+03  0.90907721168E+02 0.  0.
        -11    1    3    3    0    0  0.42743476124E+02 -0.27272335005E+02  0.97273575319E+01  0.51627574922E+02  0.00000000000E+00 0.  1.
         11    1    3    3    0    0 -0.42949486943E+02 -0.38445344779E+01 -0.11975948941E+02  0.44753348780E+02  0.00000000000E+00 0. -1.
        -11    1    4    4    0    0 -0.61641103958E+02  0.10311765850E+02 -0.17759531721E+03  0.18827122697E+03  0.00000000000E+00 0. -1.
         11    1    4    4    0    0 -0.85201665476E+01  0.30745429813E+02 -0.65094223964E+01  0.32561438425E+02  0.00000000000E+00 0.  1.
         21    1    1    2  502  501  0.70367281323E+02 -0.99403261802E+01  0.16565515776E+02  0.72971094814E+02  0.00000000000E+00 0. -1.
<scales pt_clust_5="13000.00000" pt_clust_6="13000.00000" pt_clust_7="13000.00000" pt_clust_8="13000.00000" pt_clust_9="71.06592"></scales>
<clustering>
<clus scale="   71.066">  1  9  2 -1</clus>
<clus scale="   90.908">  7  8 -1 -1</clus>
<clus scale="   91.192">  5  6 -1 -1</clus>
<clus scale="  110.770">  2  7  1 -1</clus>
<clus scale="  110.770">  2  5  1 -1</clus>
</clustering>
</event>
<event>
 9    1  0.5300912E-006  0.1136611E+03  0.7546771E-02  0.1266730E+00
          2   -1    0    0  502    0  0.00000000000E+00  0.00000000000E+00  0.32076259760E+03  0.32076259760E+03  0.00000000000E+00 0. -1.
         -2   -1    0    0    0  501 -0.00000000000E+00 -0.00000000000E+00 -0.87849916147E+02  0.87849916147E+02  0.00000000000E+00 0.  1.
         23    2    1    2    0    0  0.24671473396E+02  0.38483974467E+02  0.11249686724E+03  0.16595857144E+03  0.11312384542E+03 0.  0.
         23    2    1    2    0    0  0.47800803090E+01  0.37107170103E+02  0.12971899507E+03  0.16099633809E+03  0.87709816763E+02 0.  0.
        -11    1    4    4    0    0  0.20445215769E+01  0.57301680300E+02  0.42350849836E+02  0.71282937058E+02  0.00000000000E+00 0.  1.
         11    1    4    4    0    0  0.27355587321E+01 -0.20194510198E+02  0.87368145236E+02  0.89713401037E+02  0.00000000000E+00 0. -1.
        -13    1    3    3    0    0  0.19565169864E+02 -0.15973124942E+02 -0.13473334727E+02  0.28626339984E+02  0.00000000000E+00 0. -1.
         13    1    3    3    0    0  0.51063035317E+01  0.54457099408E+02  0.12597020197E+03  0.13733223145E+03  0.00000000000E+00 0.  1.
         21    1    1    2  502  501 -0.29451553705E+02 -0.75591144570E+02 -0.93031808562E+01  0.81657604220E+02  0.00000000000E+00 0. -1.
<scales pt_clust_5="13000.00000" pt_clust_6="13000.00000" pt_clust_7="13000.00000" pt_clust_8="13000.00000" pt_clust_9="81.12592"></scales>
<clustering>
<clus scale="   81.126">  2  9  1 -1</clus>
<clus scale="   87.710">  5  6 -1 -1</clus>
<clus scale="   88.402">  1  5  2 -1</clus>
<clus scale="  113.124">  7  8 -1 -1</clus>
<clus scale="   88.402">  1  5  2 -1</clus>
</clustering>
</event>
<event>
 9    1  0.5300912E-006  0.1753216E+03  0.7546771E-02  0.1173790E+00
         -1   -1    0    0    0  501 -0.00000000000E+00  0.00000000000E+00  0.76222429140E+02  0.76222429140E+02  0.00000000000E+00 0.  1.
          1   -1    0    0  502    0  0.00000000000E+00 -0.00000000000E+00 -0.85884833366E+03  0.85884833366E+03  0.00000000000E+00 0. -1.
         23    2    1    2    0    0  0.56535997219E+02  0.15521632379E+03 -0.91888690328E+02  0.21082280002E+03  0.93350390705E+02 0.  0.
         23    2    1    2    0    0 -0.20040137718E+02 -0.73376920930E+02 -0.42115190531E+03  0.44016016933E+03  0.10288958973E+03 0.  0.
        -13    1    4    4    0    0 -0.52747088417E+02 -0.76207599156E+02 -0.26936950384E+03  0.28486800997E+03  0.00000000000E+00 0. -1.
         13    1    4    4    0    0  0.32706950699E+02  0.28306782254E+01 -0.15178240147E+03  0.15529215936E+03  0.00000000000E+00 0.  1.
        -13    1    3    3    0    0  0.81528341361E+02  0.13406810489E+03 -0.78495379559E+02  0.17544985553E+03  0.00000000000E+00 0.  1.
         13    1    3    3    0    0 -0.24992344142E+02  0.21148218905E+02 -0.13393310769E+02  0.35372944490E+02  0.00000000000E+00 0. -1.
         21    1    1    2  502  501 -0.36495859501E+02 -0.81839402862E+02 -0.26958530889E+03  0.28408779345E+03  0.00000000000E+00 0. -1.
<scales pt_clust_5="13000.00000" pt_clust_6="13000.00000" pt_clust_7="13000.00000" pt_clust_8="13000.00000" pt_clust_9="89.60823"></scales>
<clustering>
<clus scale="   89.608">  2  9  1 -1</clus>
<clus scale="   93.350">  7  8 -1 -1</clus>
<clus scale="  102.890">  5  6 -1 -1</clus>
<clus scale="  169.899">  1  7  2 -1</clus>
<clus scale="   89.608">  2  5  1 -1</clus>
</clustering>
</event>
<event>
 9    1  0.5300912E-006  0.1563621E+03  0.7546771E-02  0.1217811E+00
         -1   -1    0    0    0  501 -0.00000000000E+00  0.00000000000E+00  0.54608160508E+02  0.54608160508E+02  0.00000000000E+00 0.  1.
          1   -1    0    0  502    0  0.00000000000E+00 -0.00000000000E+00 -0.85657944217E+03  0.85657944217E+03  0.00000000000E+00 0. -1.
         23    2    1    2    0    0 -0.14154410518E+02 -0.12412850300E+02 -0.69076844652E+02  0.11456542499E+03  0.89438246555E+02 0.  0.
         23    2    1    2    0    0  0.11444591598E+03 -0.63024721015E+02 -0.24209404012E+03  0.29003137356E+03  0.91862344006E+02 0.  0.
        -11    1    3    3    0    0  0.19676200524E+02 -0.35086667047E+02 -0.60962746322E+02  0.73038917782E+02  0.00000000000E+00 0.  1.
         11    1    3    3    0    0 -0.33830611043E+02  0.22673816747E+02 -0.81140983296E+01  0.41526507210E+02  0.00000000000E+00 0. -1.
        -11    1    4    4    0    0  0.10905778099E+03 -0.35459682403E+02 -0.12508042259E+03  0.16969413893E+03  0.00000000000E+00 0.  1.
         11    1    4    4    0    0  0.53881349855E+01 -0.27565038611E+02 -0.11701361753E+03  0.12033723463E+03  0.00000000000E+00 0. -1.
         21    1    1    2  502  501 -0.10029150546E+03  0.75437571315E+02 -0.49080039689E+03  0.50659080412E+03  0.00000000000E+00 0. -1.
<scales pt_clust_5="13000.00000" pt_clust_6="13000.00000" pt_clust_7="13000.00000" pt_clust_8="13000.00000" pt_clust_9="126.53226"></scales>
<clustering>
<clus scale="   89.438">  5  6 -1 -1</clus>
<clus scale="   91.398">  1  5  2 -1</clus>
<clus scale="   91.862">  7  8 -1 -1</clus>
<clus scale="  126.532">  2  9  1 -1</clus>
<clus scale="  126.532">  2  5  1 -1</clus>
</clustering>
</event>
<event>
 9    1  0.5300912E-006  0.2010949E+03  0.7546771E-02  0.1162501E+00
         -2   -1    0    0    0  501 -0.00000000000E+00  0.00000000000E+00  0.14477244034E+03  0.14477244034E+03  0.00000000000E+00 0.  1.
          2   -1    0    0  502    0  0.00000000000E+00 -0.00000000000E+00 -0.12812463292E+04  0.12812463292E+04  0.00000000000E+00 0. -1.
         23    2    1    2    0    0  0.10699518730E+03  0.35348939058E+02  0.63962473748E+02  0.15928811662E+03  0.92649816257E+02 0.  0.
         23    2    1    2    0    0  0.61186839454E+02  0.12920019015E+03 -0.48841676786E+03  0.51684165223E+03  0.90209954540E+02 0.  0.
        -13    1    3    3    0    0  0.48972150566E+02  0.60837492056E+02  0.15780246904E+02  0.79677400579E+02  0.00000000000E+00 0.  1.
         13    1    3    3    0    0  0.58023036730E+02 -0.25488552998E+02  0.48182226845E+02  0.79610716044E+02  0.00000000000E+00 0. -1.
        -13    1    4    4    0    0  0.72778796159E+02  0.48487444615E+02 -0.24665707540E+03  0.26170116221E+03  0.00000000000E+00 0.  1.
         13    1    4    4    0    0 -0.11591956704E+02  0.80712745534E+02 -0.24175969246E+03  0.25514049003E+03  0.00000000000E+00 0. -1.
         21    1    1    2  502  501 -0.16818202675E+03 -0.16454912921E+03 -0.71201959477E+03  0.74988900071E+03  0.00000000000E+00 0. -1.
<scales pt_clust_5="13000.00000" pt_clust_6="13000.00000" pt_clust_7="13000.00000" pt_clust_8="13000.00000" pt_clust_9="179.72572"></scales>
<clustering>
<clus scale="   90.210">  7  8 -1 -1</clus>
<clus scale="   92.650">  5  6 -1 -1</clus>
<clus scale="  145.882">  1  5  2 -1</clus>
<clus scale="  179.726">  1  9  2 -1</clus>
<clus scale="  201.095">  2  5  1 -1</clus>
</clustering>
</event>
<event>
 9    1  0.5300912E-006  0.1244253E+03  0.7546771E-02  0.1242569E+00
          2   -1    0    0  502    0  0.00000000000E+00  0.00000000000E+00  0.15502371952E+03  0.15502371952E+03  0.00000000000E+00 0. -1.
         -2   -1    0    0    0  501 -0.00000000000E+00 -0.00000000000E+00 -0.35460901689E+03  0.35460901689E+03  0.00000000000E+00 0.  1.
         23    2    1    2    0    0  0.23549480432E+02 -0.66637782105E+02 -0.24348063567E+03  0.26448416379E+03  0.75325167910E+02 0.  0.
         23    2    1    2    0    0 -0.68773520540E+02  0.42889303211E+02  0.10603225901E+03  0.16471101317E+03  0.96527656399E+02 0.  0.
        -11    1    4    4    0    0  0.16541938248E+02  0.33097555130E+02  0.49883823725E+02  0.62108612494E+02  0.00000000000E+00 0. -1.
         11    1    4    4    0    0 -0.85315458788E+02  0.97917480811E+01  0.56148435289E+02  0.10260240067E+03  0.00000000000E+00 0.  1.
        -13    1    3    3    0    0  0.84918478458E+00 -0.73643817131E+02 -0.21572124850E+03  0.22794690165E+03  0.00000000000E+00 0.  1.
         13    1    3    3    0    0  0.22700295648E+02  0.70060350265E+01 -0.27759387170E+02  0.36537262149E+02  0.00000000000E+00 0. -1.
         21    1    1    2  502  501  0.45224040108E+02  0.23748478894E+02 -0.62136920719E+02  0.80437559447E+02  0.00000000000E+00 0. -1.
<scales pt_clust_5="13000.00000" pt_clust_6="13000.00000" pt_clust_7="13000.00000" pt_clust_8="13000.00000" pt_clust_9="51.08037"></scales>
<clustering>
<clus scale="   51.080">  2  9  1 -1</clus>
<clus scale="   75.325">  7  8 -1 -1</clus>
<clus scale="   96.528">  5  6 -1 -1</clus>
<clus scale="  108.802">  2  7  1 -1</clus>
<clus scale="  124.425">  1  5  2 -1</clus>
</clustering>
</event>
<event>
 9    1  0.5300912E-006  0.3177163E+03  0.7546771E-02  0.1076715E+00
          1   -1    0    0  502    0  0.00000000000E+00  0.00000000000E+00  0.15893963502E+04  0.15893963502E+04  0.00000000000E+00 0. -1.
         -1   -1    0    0    0  501 -0.00000000000E+00 -0.00000000000E+00 -0.16779953647E+03  0.16779953647E+03  0.00000000000E+00 0.  1.
         23    2    1    2    0    0 -0.79163532198E+02  0.35120010087E+03  0.60458051174E+03  0.70958135724E+03  0.91540874442E+02 0.  0.
         23    2    1    2    0    0  0.18783161710E+03 -0.21941568981E+03  0.82272084832E+03  0.87670980293E+03  0.91249783396E+02 0.  0.
        -13    1    4    4    0    0  0.88642974541E+01 -0.66561666494E+02  0.20184486771E+03  0.21272137137E+03  0.00000000000E+00 0.  1.
         13    1    4    4    0    0  0.17896731964E+03 -0.15285402331E+03  0.62087598061E+03  0.66398843156E+03  0.00000000000E+00 0. -1.
        -13    1    3    3    0    0 -0.40990900955E+02  0.31082949931E+03  0.53975516536E+03  0.62420418946E+03  0.00000000000E+00 0. -1.
         13    1    3    3    0    0 -0.38172631243E+02  0.40370601563E+02  0.64825346378E+02  0.85377167788E+02  0.00000000000E+00 0.  1.
         21    1    1    2  502  501 -0.10866808490E+03 -0.13178441106E+03 -0.57045463781E+01  0.17090472645E+03  0.00000000000E+00 0.  1.
<scales pt_clust_5="13000.00000" pt_clust_6="13000.00000" pt_clust_7="13000.00000" pt_clust_8="13000.00000" pt_clust_9="170.80950"></scales>
<clustering>
<clus scale="   91.250">  5  6 -1 -1</clus>
<clus scale="   91.541">  7  8 -1 -1</clus>
<clus scale="  170.809">  2  9  1 -1</clus>
<clus scale="  317.633">  1  5  2 -1</clus>
<clus scale="  317.633">  1  5  2 -1</clus>
</clustering>
</event>
<event>
 9    1  0.5300912E-006  0.2077077E+03  0.7546771E-02  0.1171784E+00
          1   -1    0    0  502    0  0.00000000000E+00  0.00000000000E+00  0.90149508497E+02  0.90149508497E+02  0.00000000000E+00 0. -1.
         -1   -1    0    0    0  501 -0.00000000000E+00 -0.00000000000E+00 -0.94695938448E+03  0.94695938448E+03  0.00000000000E+00 0.  1.
         23    2    1    2    0    0  0.26115090724E+02  0.19098182347E+03 -0.17320317661E+03  0.28265623301E+03  0.11286784666E+03 0.  0.
         23    2    1    2    0    0 -0.49366491855E+02 -0.21073480894E+02 -0.10089180188E+03  0.14702684204E+03  0.92501862025E+02 0.  0.
        -11    1    3    3    0    0  0.18752774540E+02  0.42282708837E+02 -0.11293290307E+03  0.12203825062E+03  0.00000000000E+00 0.  1.
         11    1    3    3    0    0  0.73623161836E+01  0.14869911463E+03 -0.60270273546E+02  0.16061798239E+03  0.00000000000E+00 0. -1.
        -11    1    4    4    0    0  0.25486860958E+02  0.69481605567E+01 -0.32103323280E+02  0.41574997080E+02  0.00000000000E+00 0.  1.
         11    1    4    4    0    0 -0.74853352813E+02 -0.28021641450E+02 -0.68788478601E+02  0.10545184496E+03  0.00000000000E+00 0. -1.
         21    1    1    2  502  501  0.23251401131E+02 -0.16990834258E+03 -0.58271489748E+03  0.60742581793E+03  0.00000000000E+00 0.  1.
<scales pt_clust_5="13000.00000" pt_clust_6="13000.00000" pt_clust_7="13000.00000" pt_clust_8="13000.00000" pt_clust_9="174.36557"></scales>
<clustering>
<clus scale="   92.502">  7  8 -1 -1</clus>
<clus scale="  106.947">  1  7  2 -1</clus>
<clus scale="  112.868">  5  6 -1 -1</clus>
<clus scale="  174.366">  2  9  1 -1</clus>
<clus scale="  106.947">  1  5  2 -1</clus>
</clustering>
</event>
<event>
 9    1  0.5300912E-006  0.1464784E+03  0.7546771E-02  0.1220402E+00
          3   -1    0    0  502    0  0.00000000000E+00  0.00000000000E+00  0.43568251013E+02  0.43568251013E+02  0.00000000000E+00 0. -1.
         -3   -1    0    0    0  501 -0.00000000000E+00 -0.00000000000E+00 -0.79858416195E+03  0.79858416195E+03  0.00000000000E+00 0.  1.
         23    2    1    2    0    0 -0.30772410657E+02 -0.41356260676E+02 -0.23747686758E+03  0.25976802219E+03  0.91798045523E+02 0.  0.
         23    2    1    2    0    0 -0.91909638051E+02 -0.16853520044E+02 -0.26334120670E+03  0.29419035231E+03  0.92021462387E+02 0.  0.
        -11    1    3    3    0    0  0.34445395759E+01 -0.38537352066E+02 -0.21562988212E+03  0.21907359133E+03  0.00000000000E+00 0.  1.
         11    1    3    3    0    0 -0.34216950233E+02 -0.28189086099E+01 -0.21846985463E+02  0.40694430858E+02  0.00000000000E+00 0. -1.
        -13    1    4    4    0    0  0.37055020233E+00 -0.34557288735E+02 -0.99324726361E+02  0.10516532118E+03  0.00000000000E+00 0. -1.
         13    1    4    4    0    0 -0.92280188254E+02  0.17703768690E+02 -0.16401648034E+03  0.18902503113E+03  0.00000000000E+00 0.  1.
         21    1    1    2  502  501  0.12268204871E+03  0.58209780720E+02 -0.25419783666E+03  0.28819403847E+03  0.00000000000E+00 0. -1.
<scales pt_clust_5="13000.00000" pt_clust_6="13000.00000" pt_clust_7="13000.00000" pt_clust_8="13000.00000" pt_clust_9="113.96473"></scales>
<clustering>
<clus scale="   91.798">  5  6 -1 -1</clus>
<clus scale="   92.021">  7  8 -1 -1</clus>
<clus scale="  105.281">  2  5  1 -1</clus>
<clus scale="  113.965">  2  9  1 -1</clus>
<clus scale="  146.478">  1  5  2 -1</clus>
</clustering>
</event>
<event>
 9    1  0.7245768E-006  0.1085603E+03  0.7546771E-02  0.1265113E+00
         -1   -1    0    0    0  501 -0.00000000000E+00  0.00000000000E+00  0.30876613129E+03  0.30876613129E+03  0.00000000000E+00 0.  1.
          1   -1    0    0  502    0  0.00000000000E+00 -0.00000000000E+00 -0.51407006428E+03  0.51407006428E+03  0.00000000000E+00 0. -1.
         23    2    1    2    0    0  0.35804790189E+02 -0.47202079004E+02  0.19311407398E+03  0.22052641194E+03  0.88480695811E+02 0.  0.
         23    2    1    2    0    0  0.47329567951E+01  0.56113794783E+02 -0.48991641653E+03  0.50183746624E+03  0.93013915571E+02 0.  0.
        -13    1    3    3    0    0  0.26888619503E+00 -0.30184031263E+02  0.17424553443E+03  0.17684075976E+03  0.00000000000E+00 0.  1.
         13    1    3    3    0    0  0.35535903994E+02 -0.17018047742E+02  0.18868539546E+02  0.43685652178E+02  0.00000000000E+00 0. -1.
        -13    1    4    4    0    0  0.55819876855E+00  0.79699231674E+02 -0.42975928387E+03  0.43708731529E+03  0.00000000000E+00 0. -1.
         13    1    4    4    0    0  0.41747580265E+01 -0.23585436891E+02 -0.60157132658E+02  0.64750150946E+02  0.00000000000E+00 0.  1.
         21    1    1    2  502  501 -0.40537746984E+02 -0.89117157789E+01  0.91498409567E+02  0.10047231739E+03  0.00000000000E+00 0.  1.
<scales pt_clust_5="13000.00000" pt_clust_6="13000.00000" pt_clust_7="13000.00000" pt_clust_8="13000.00000" pt_clust_9="41.50575"></scales>
<clustering>
<clus scale="   41.506">  1  9  2 -1</clus>
<clus scale="   88.481">  5  6 -1 -1</clus>
<clus scale="   93.014">  7  8 -1 -1</clus>
<clus scale="  104.702">  1  5  2 -1</clus>
<clus scale="  108.560">  2  5  1 -1</clus>
</clustering>
</event>
<event>
 9    1  0.5300912E-006  0.1168463E+03  0.7546771E-02  0.1250265E+00
         -1   -1    0    0    0  501 -0.00000000000E+00  0.00000000000E+00  0.30257360280E+02  0.30257360280E+02  0.00000000000E+00 0.  1.
          1   -1    0    0  502    0  0.00000000000E+00 -0.00000000000E+00 -0.57670659668E+03  0.57670659668E+03  0.00000000000E+00 0. -1.
         23    2    1    2    0    0 -0.63250997631E+02 -0.27612551088E+02 -0.16967403257E+03  0.20457812943E+03  0.91103194423E+02 0.  0.
         23    2    1    2    0    0  0.65149940389E+02  0.73722976507E+01 -0.34913246872E+03  0.36807264279E+03  0.96359349045E+02 0.  0.
        -11    1    3    3    0    0  0.23806706168E+02 -0.70874851367E+01 -0.37965639993E+02  0.45369389726E+02  0.00000000000E+00 0.  1.
         11    1    3    3    0    0 -0.87057703799E+02 -0.20525065951E+02 -0.13170839257E+03  0.15920873970E+03  0.00000000000E+00 0. -1.
        -13    1    4    4    0    0  0.26210175985E+02  0.44870200731E+02 -0.95292961300E+02  0.10854057634E+03  0.00000000000E+00 0. -1.
         13    1    4    4    0    0  0.38939764404E+02 -0.37497903080E+02 -0.25383950742E+03  0.25953206645E+03  0.00000000000E+00 0.  1.
         21    1    1    2  502  501 -0.18989427578E+01  0.20240253437E+02 -0.27642735119E+02  0.34313184750E+02  0.00000000000E+00 0.  1.
<scales pt_clust_5="13000.00000" pt_clust_6="13000.00000" pt_clust_7="13000.00000" pt_clust_8="13000.00000" pt_clust_9="20.32914"></scales>
<clustering>
<clus scale="   20.329">  1  9  2 -1</clus>
<clus scale="   91.103">  5  6 -1 -1</clus>
<clus scale="   96.359">  7  8 -1 -1</clus>
<clus scale="  112.551">  1  5  2 -1</clus>
<clus scale="  116.846">  2  5  1 -1</clus>
</clustering>
</event>
<event>
 9    1  0.5300912E-006  0.9518812E+02  0.7546771E-02  0.1292507E+00
          2   -1    0    0  502    0  0.00000000000E+00  0.00000000000E+00  0.20737950393E+03  0.20737950393E+03  0.00000000000E+00 0. -1.
         -2   -1    0    0    0  501 -0.00000000000E+00 -0.00000000000E+00 -0.12346079356E+03  0.12346079356E+03  0.00000000000E+00 0.  1.
         23    2    1    2    0    0  0.88128105430E+01 -0.30004776570E+01 -0.34438819858E+02  0.95432810746E+02  0.88513956854E+02 0.  0.
         23    2    1    2    0    0 -0.81047342753E+02 -0.26214329246E+02  0.65631093478E+02  0.14132555586E+03  0.91703922945E+02 0.  0.
        -11    1    3    3    0    0  0.69645922479E+01  0.39767025571E+02 -0.33747934918E+02  0.52619815462E+02  0.00000000000E+00 0. -1.
         11    1    3    3    0    0  0.18482182951E+01 -0.42767503228E+02 -0.69088493923E+00  0.42812995285E+02  0.00000000000E+00 0.  1.
        -13    1    4    4    0    0 -0.55408366174E+02 -0.42161487524E+02  0.60117729541E+00  0.69627864297E+02  0.00000000000E+00 0.  1.
         13    1    4    4    0    0 -0.25638976579E+02  0.15947158278E+02  0.65029916183E+02  0.71697691566E+02  0.00000000000E+00 0. -1.
         21    1    1    2  502  501  0.72234532210E+02  0.29214806903E+02  0.52726436748E+02  0.94081930880E+02  0.00000000000E+00 0. -1.
<scales pt_clust_5="13000.00000" pt_clust_6="13000.00000" pt_clust_7="13000.00000" pt_clust_8="13000.00000" pt_clust_9="77.91876"></scales>
<clustering>
<clus scale="   77.919">  1  9  2 -1</clus>
<clus scale="   88.514">  5  6 -1 -1</clus>
<clus scale="   91.704">  7  8 -1 -1</clus>
<clus scale="   92.119">  2  5  1 -1</clus>
<clus scale="   77.919">  1  5  2 -1</clus>
</clustering>
</event>
<event>
 9    1  0.5300912E-006  0.1827556E+03  0.7546771E-02  0.1167140E+00
          1   -1    0    0  502    0  0.00000000000E+00  0.00000000000E+00  0.71530922680E+03  0.71530922680E+03  0.00000000000E+00 0. -1.
         -1   -1    0    0    0  501 -0.00000000000E+00 -0.00000000000E+00 -0.51589472017E+03  0.51589472017E+03  0.00000000000E+00 0.  1.
         23    2    1    2    0    0  0.14975067643E+03  0.17593668406E+03  0.49828855036E+02  0.25226202128E+03  0.88171598032E+02 0.  0.
         23    2    1    2    0    0 -0.76557550560E+02 -0.11740783552E+03  0.54522126709E+03  0.57235810895E+03  0.10335335703E+03 0.  0.
        -11    1    3    3    0    0  0.91908063570E+02  0.16096676634E+03  0.51871733884E+02  0.19247874893E+03  0.00000000000E+00 0.  1.
         11    1    3    3    0    0  0.57842612859E+02  0.14969917718E+02 -0.20428788485E+01  0.59783272350E+02  0.00000000000E+00 0. -1.
        -11    1    4    4    0    0 -0.27093223877E+02  0.15784346615E+02  0.80040735342E+02  0.85963409031E+02  0.00000000000E+00 0.  1.
         11    1    4    4    0    0 -0.49464326682E+02 -0.13319218213E+03  0.46518053175E+03  0.48639469992E+03  0.00000000000E+00 0. -1.
         21    1    1    2  502  501 -0.73193125869E+02 -0.58528848538E+02 -0.39563561549E+03  0.40658381674E+03  0.00000000000E+00 0.  1.
<scales pt_clust_5="13000.00000" pt_clust_6="13000.00000" pt_clust_7="13000.00000" pt_clust_8="13000.00000" pt_clust_9="93.71691"></scales>
<clustering>
<clus scale="   88.172">  5  6 -1 -1</clus>
<clus scale="   93.717">  2  9  1 -1</clus>
<clus scale="  103.353">  7  8 -1 -1</clus>
<clus scale="  174.619">  2  5  1 -1</clus>
<clus scale="  182.756">  1  5  2 -1</clus>
</clustering>
</event>
<event>
 9    1  0.5300912E-006  0.1593767E+03  0.7546771E-02  0.1206453E+00
         -2   -1    0    0    0  501 -0.00000000000E+00  0.00000000000E+00  0.36361390920E+03  0.36361390920E+03  0.00000000000E+00 0.  1.
          2   -1    0    0  502    0  0.00000000000E+00 -0.00000000000E+00 -0.14171792197E+03  0.14171792197E+03  0.00000000000E+00 0. -1.
         23    2    1    2    0    0  0.62891573758E+02  0.11029754033E+03  0.10131337605E+03  0.18292591597E+03  0.84122488765E+02 0.  0.
         23    2    1    2    0    0  0.51292635119E+02 -0.19983821257E+02 -0.29007027587E+02  0.11366765461E+03  0.95124342442E+02 0.  0.
        -11    1    3    3    0    0  0.62221982010E+02  0.72365412990E+02  0.26508515583E+02  0.99050640789E+02  0.00000000000E+00 0. -1.
         11    1    3    3    0    0  0.66959174806E+00  0.37932127336E+02  0.74804860470E+02  0.83875275185E+02  0.00000000000E+00 0.  1.
        -13    1    4    4    0    0 -0.18004090861E+01  0.34063821653E+02 -0.77818133576E+01  0.34987741248E+02  0.00000000000E+00 0.  1.
         13    1    4    4    0    0  0.53093044206E+02 -0.54047642911E+02 -0.21225214229E+02  0.78679913360E+02  0.00000000000E+00 0. -1.
         21    1    1    2  502  501 -0.11418420888E+03 -0.90313719068E+02  0.14958963876E+03  0.20873826059E+03  0.00000000000E+00 0. -1.
<scales pt_clust_5="13000.00000" pt_clust_6="13000.00000" pt_clust_7="13000.00000" pt_clust_8="13000.00000" pt_clust_9="135.36737"></scales>
<clustering>
<clus scale="   84.122">  5  6 -1 -1</clus>
<clus scale="   95.124">  7  8 -1 -1</clus>
<clus scale="  109.904">  2  7  1 -1</clus>
<clus scale="  135.367">  1  9  2 -1</clus>
<clus scale="  109.904">  2  5  1 -1</clus>
</clustering>
</event>
<event>
 9    1  0.5300912E-006  0.9948976E+02  0.7546771E-02  0.1281554E+00
          2   -1    0    0  502    0  0.00000000000E+00  0.00000000000E+00  0.43566814106E+03  0.43566814106E+03  0.00000000000E+00 0. -1.
         -2   -1    0    0    0  501 -0.00000000000E+00 -0.00000000000E+00 -0.23904546028E+03  0.23904546028E+03  0.00000000000E+00 0.  1.
         23    2    1    2    0    0  0.25680009864E+02  0.27567482456E+01 -0.19957358923E+03  0.22267432201E+03  0.95326667814E+02 0.  0.
         23    2    1    2    0    0 -0.10066929066E+03  0.16635482995E+00  0.29691769195E+03  0.32758779149E+03  0.94970056252E+02 0.  0.
        -11    1    3    3    0    0  0.32780192870E+02  0.45139170590E+02 -0.11168717390E+03  0.12484434541E+03  0.00000000000E+00 0.  1.
         11    1    3    3    0    0 -0.71001830060E+01 -0.42382422345E+02 -0.87886415324E+02  0.97829976597E+02  0.00000000000E+00 0. -1.
        -11    1    4    4    0    0 -0.47914220832E+02 -0.27936081457E+01  0.32551230437E+02  0.57992753059E+02  0.00000000000E+00 0.  1.
         11    1    4    4    0    0 -0.52755069824E+02  0.29599629757E+01  0.26436646151E+03  0.26959503843E+03  0.00000000000E+00 0. -1.
         21    1    1    2  502  501  0.74989280793E+02 -0.29231030756E+01  0.99278578063E+02  0.12445148785E+03  0.00000000000E+00 0. -1.
<scales pt_clust_5="13000.00000" pt_clust_6="13000.00000" pt_clust_7="13000.00000" pt_clust_8="13000.00000" pt_clust_9="75.04623"></scales>
<clustering>
<clus scale="   75.046">  1  9  2 -1</clus>
<clus scale="   94.970">  7  8 -1 -1</clus>
<clus scale="   95.327">  5  6 -1 -1</clus>
<clus scale="   99.148">  1  7  2 -1</clus>
<clus scale="   75.046">  1  5  2 -1</clus>
</clustering>
</event>
<event>
 9    1  0.5300912E-006  0.1054769E+03  0.7546771E-02  0.1271584E+00
          1   -1    0    0  502    0  0.00000000000E+00  0.00000000000E+00  0.38532460333E+03  0.38532460333E+03  0.00000000000E+00 0. -1.
         -1   -1    0    0    0  501 -0.00000000000E+00 -0.00000000000E+00 -0.56446476735E+03  0.56446476735E+03  0.00000000000E+00 0.  1.
         23    2    1    2    0    0 -0.23623134518E+02 -0.15061230775E+02 -0.52612725721E+03  0.53522065046E+03  0.94161354818E+02 0.  0.
         23    2    1    2    0    0  0.43123122653E+02 -0.20989369333E+02  0.35814837122E+03  0.37208967323E+03  0.88771120230E+02 0.  0.
        -13    1    4    4    0    0 -0.26684737544E+02 -0.13183273655E+02  0.85259774815E+02  0.90305609591E+02  0.00000000000E+00 0.  1.
         13    1    4    4    0    0  0.69807860197E+02 -0.78060956778E+01  0.27288859640E+03  0.28178406364E+03  0.00000000000E+00 0. -1.
        -13    1    3    3    0    0 -0.34261770141E+02  0.33472609070E+02 -0.22744117294E+03  0.23243014349E+03  0.00000000000E+00 0.  1.
         13    1    3    3    0    0  0.10638635624E+02 -0.48533839846E+02 -0.29868608427E+03  0.30279050698E+03  0.00000000000E+00 0. -1.
         21    1    1    2  502  501 -0.19499988135E+02  0.36050600108E+02 -0.11161278025E+02  0.42479046983E+02  0.00000000000E+00 0.  1.
<scales pt_clust_5="13000.00000" pt_clust_6="13000.00000" pt_clust_7="13000.00000" pt_clust_8="13000.00000" pt_clust_9="40.98653"></scales>
<clustering>
<clus scale="   40.987">  2  9  1 -1</clus>
<clus scale="   88.771">  5  6 -1 -1</clus>
<clus scale="   94.161">  7  8 -1 -1</clus>
<clus scale="  100.694">  1  5  2 -1</clus>
<clus scale="  100.694">  1  5  2 -1</clus>
</clustering>
</event>
<event>
 9    1  0.5300912E-006  0.1170513E+03  0.7546771E-02  0.1249152E+00
          1   -1    0    0  502    0  0.00000000000E+00  0.00000000000E+00  0.20718050012E+03  0.20718050012E+03  0.00000000000E+00 0. -1.
         -1   -1    0    0    0  501 -0.00000000000E+00 -0.00000000000E+00 -0.12274201312E+03  0.12274201312E+03  0.00000000000E+00 0.  1.
         23    2    1    2    0    0 -0.16544177182E+02  0.61172114350E+02 -0.49337184743E+02  0.12505821501E+03  0.95862724615E+02 0.  0.
         23    2    1    2    0    0  0.45340592078E+02 -0.69702797908E+02  0.10039768735E+03  0.15996334150E+03  0.92705585983E+02 0.  0.
        -11    1    3    3    0    0  0.35223349545E+02  0.44456571792E+02 -0.41086120883E+02  0.70036707931E+02  0.00000000000E+00 0.  1.
         11    1    3    3    0    0 -0.51767526727E+02  0.16715542558E+02 -0.82510638605E+01  0.55021507079E+02  0.00000000000E+00 0. -1.
        -13    1    4    4    0    0  0.19832550027E+02  0.19690622085E+02  0.84161598331E+01  0.29187024257E+02  0.00000000000E+00 0.  1.
         13    1    4    4    0    0  0.25508042051E+02 -0.89393419993E+02  0.91981527513E+02  0.13077631724E+03  0.00000000000E+00 0. -1.
         21    1    1    2  502  501 -0.28796414895E+02  0.85306835578E+01  0.33377984404E+02  0.44900956735E+02  0.00000000000E+00 0.  1.
<scales pt_clust_5="13000.00000" pt_clust_6="13000.00000" pt_clust_7="13000.00000" pt_clust_8="13000.00000" pt_clust_9="30.03342"></scales>
<clustering>
<clus scale="   30.033">  1  9  2 -1</clus>
<clus scale="   92.706">  7  8 -1 -1</clus>
<clus scale="   95.863">  5  6 -1 -1</clus>
<clus scale="  114.480">  1  7  2 -1</clus>
<clus scale="   30.033">  1  5  2 -1</clus>
</clustering>
</event>
<event>
 9    1  0.5300912E-006  0.1419499E+03  0.7546771E-02  0.1225816E+00
         -2   -1    0    0    0  501 -0.00000000000E+00  0.00000000000E+00  0.42495324457E+02  0.42495324457E+02  0.00000000000E+00 0.  1.
          2   -1    0    0  502    0  0.00000000000E+00 -0.00000000000E+00 -0.12358400093E+04  0.12358400093E+04  0.00000000000E+00 0. -1.
         23    2    1    2    0    0  0.22833648614E+02  0.97902154014E+02 -0.14639951579E+03  0.20012515759E+03  0.92255369523E+02 0.  0.
         23    2    1    2    0    0  0.26064656518E+02  0.34796248417E+02 -0.28261304069E+03  0.30090488691E+03  0.93720195152E+02 0.  0.
        -13    1    4    4    0    0 -0.19220546838E+02  0.45601873761E+02 -0.20044951287E+03  0.20646783653E+03  0.00000000000E+00 0. -1.
         13    1    4    4    0    0  0.45285203355E+02 -0.10805625345E+02 -0.82163527812E+02  0.94437050380E+02  0.00000000000E+00 0.  1.
        -13    1    3    3    0    0 -0.12552001597E+02  0.81119314764E+02 -0.13722373869E+03  0.15990075181E+03  0.00000000000E+00 0.  1.
         13    1    3    3    0    0  0.35385650211E+02  0.16782839250E+02 -0.91757771023E+01  0.40224405770E+02  0.00000000000E+00 0. -1.
         21    1    1    2  502  501 -0.48898305132E+02 -0.13269840243E+03 -0.76433212833E+03  0.77730528922E+03  0.00000000000E+00 0. -1.
<scales pt_clust_5="13000.00000" pt_clust_6="13000.00000" pt_clust_7="13000.00000" pt_clust_8="13000.00000" pt_clust_9="107.88291"></scales>
<clustering>
<clus scale="   92.255">  7  8 -1 -1</clus>
<clus scale="   93.720">  5  6 -1 -1</clus>
<clus scale="  103.313">  2  5  1 -1</clus>
<clus scale="  107.883">  2  9  1 -1</clus>
<clus scale="  103.313">  2  5  1 -1</clus>
</clustering>
</event>
<event>
 9    1  0.5300912E-006  0.9896793E+02  0.7546771E-02  0.1282545E+00
          4   -1    0    0  502    0  0.00000000000E+00  0.00000000000E+00  0.17028534230E+03  0.17028534230E+03  0.00000000000E+00 0. -1.
         -4   -1    0    0    0  501 -0.00000000000E+00 -0.00000000000E+00 -0.21752223616E+03  0.21752223616E+03  0.00000000000E+00 0.  1.
         23    2    1    2    0    0 -0.32394136470E+02  0.18336509681E+02 -0.17522590497E+03  0.20163133976E+03  0.92549833807E+02 0.  0.
         23    2    1    2    0    0  0.11029828539E+02 -0.33993825041E+01  0.13012188722E+03  0.16002092218E+03  0.92421734905E+02 0.  0.
        -13    1    3    3    0    0 -0.28162727769E+02 -0.19283910820E+02 -0.15511587210E+02  0.37491569582E+02  0.00000000000E+00 0. -1.
         13    1    3    3    0    0 -0.42314087011E+01  0.37620420501E+02 -0.15971431776E+03  0.16413977018E+03  0.00000000000E+00 0.  1.
        -13    1    4    4    0    0 -0.19753016359E+02 -0.34486915833E+02  0.27125038806E+02  0.48117530580E+02  0.00000000000E+00 0. -1.
         13    1    4    4    0    0  0.30782844898E+02  0.31087533328E+02  0.10299684842E+03  0.11190339160E+03  0.00000000000E+00 0.  1.
         21    1    1    2  502  501  0.21364307931E+02 -0.14937127177E+02 -0.21328761220E+01  0.26155316519E+02  0.00000000000E+00 0. -1.
<scales pt_clust_5="13000.00000" pt_clust_6="13000.00000" pt_clust_7="13000.00000" pt_clust_8="13000.00000" pt_clust_9="26.06821"></scales>
<clustering>
<clus scale="   26.068">  1  9  2 -1</clus>
<clus scale="   92.422">  7  8 -1 -1</clus>
<clus scale="   92.550">  5  6 -1 -1</clus>
<clus scale="   98.848">  1  7  2 -1</clus>
<clus scale="   26.068">  1  5  2 -1</clus>
</clustering>
</event>
<event>
 9    1  0.5300912E-006  0.1027050E+03  0.7546771E-02  0.1275442E+00
          1   -1    0    0  502    0  0.00000000000E+00  0.00000000000E+00  0.83254956899E+03  0.83254956899E+03  0.00000000000E+00 0. -1.
         -1   -1    0    0    0  501 -0.00000000000E+00 -0.00000000000E+00 -0.17410499830E+02  0.17410499830E+02  0.00000000000E+00 0.  1.
         23    2    1    2    0    0  0.35202874037E+02 -0.48094126024E+02  0.40539749885E+03  0.41974859154E+03  0.91046475644E+02 0.  0.
         23    2    1    2    0    0 -0.64685647526E+01  0.38168856197E+02  0.34809363976E+03  0.36147546887E+03  0.89423870636E+02 0.  0.
        -11    1    4    4    0    0 -0.32275699112E+02  0.56082487749E+02  0.20481626079E+03  0.21479447588E+03  0.00000000000E+00 0.  1.
         11    1    4    4    0    0  0.25807134360E+02 -0.17913631552E+02  0.14327737897E+03  0.14668099299E+03  0.00000000000E+00 0. -1.
        -13    1    3    3    0    0 -0.35781646227E+01  0.22877846127E+02  0.47721256292E+02  0.53042599932E+02  0.00000000000E+00 0.  1.
         13    1    3    3    0    0  0.38781038659E+02 -0.70971972150E+02  0.35767624255E+03  0.36670599160E+03  0.00000000000E+00 0. -1.
         21    1    1    2  502  501 -0.28734309284E+02  0.99252698269E+01  0.61647930549E+02  0.68736008410E+02  0.00000000000E+00 0. -1.
<scales pt_clust_5="13000.00000" pt_clust_6="13000.00000" pt_clust_7="13000.00000" pt_clust_8="13000.00000" pt_clust_9="30.40019"></scales>
<clustering>
<clus scale="   30.400">  2  9  1 -1</clus>
<clus scale="   89.424">  5  6 -1 -1</clus>
<clus scale="   91.046">  7  8 -1 -1</clus>
<clus scale="  101.269">  1  5  2 -1</clus>
<clus scale="  101.269">  1  5  2 -1</clus>
</clustering>
</event>
<event>
 9    1  0.5300912E-006  0.9159976E+02  0.7546771E-02  0.1299553E+00
          1   -1    0    0  502    0  0.00000000000E+00  0.00000000000E+00  0.48686322745E+02  0.48686322745E+02  0.00000000000E+00 0. -1.
         -1   -1    0    0    0  501 -0.00000000000E+00 -0.00000000000E+00 -0.37462779584E+03  0.37462779584E+03  0.00000000000E+00 0.  1.
         23    2    1    2    0    0  0.25862165772E+02 -0.59487383473E+00 -0.85748748891E+02  0.12733919726E+03  0.90516394803E+02 0.  0.
         23    2    1    2    0    0  0.29279892725E+02 -0.11011540636E+02 -0.77677716831E+02  0.12396770319E+03  0.91408957964E+02 0.  0.
        -11    1    4    4    0    0 -0.13499224420E+01  0.38344696889E+02 -0.34381774678E+02  0.51519360440E+02  0.00000000000E+00 0.  1.
         11    1    4    4    0    0  0.30629815167E+02 -0.49356237525E+02 -0.43295942153E+02  0.72448342747E+02  0.00000000000E+00 0. -1.
        -13    1    3    3    0    0  0.48997213459E+02 -0.29441720000E+02 -0.52130200266E+02  0.77363425358E+02  0.00000000000E+00 0. -1.
         13    1    3    3    0    0 -0.23135047687E+02  0.28846846165E+02 -0.33618548625E+02  0.49975771898E+02  0.00000000000E+00 0.  1.
         21    1    1    2  502  501 -0.55142058497E+02  0.11606414471E+02 -0.16251500738E+03  0.17200721815E+03  0.00000000000E+00 0.  1.
<scales pt_clust_5="13000.00000" pt_clust_6="13000.00000" pt_clust_7="13000.00000" pt_clust_8="13000.00000" pt_clust_9="56.35029"></scales>
<clustering>
<clus scale="   56.350">  2  9  1 -1</clus>
<clus scale="   90.516">  7  8 -1 -1</clus>
<clus scale="   90.709">  2  7  1 -1</clus>
<clus scale="   91.409">  5  6 -1 -1</clus>
<clus scale="   91.600">  1  5  2 -1</clus>
</clustering>
</event>
<event>
 9    1  0.5300912E-006  0.1876026E+03  0.7546771E-02  0.1186186E+00
          2   -1    0    0  502    0  0.00000000000E+00  0.00000000000E+00  0.12511736050E+03  0.12511736050E+03  0.00000000000E+00 0. -1.
         -2   -1    0    0    0  501 -0.00000000000E+00 -0.00000000000E+00 -0.66830532268E+03  0.66830532268E+03  0.00000000000E+00 0.  1.
         23    2    1    2    0    0 -0.12488920071E+02 -0.17740817291E+03 -0.50974718614E+03  0.54683896758E+03  0.86954181877E+02 0.  0.
         23    2    1    2    0    0 -0.22009249001E+02  0.45857385040E+02  0.55943691030E+01  0.10509351800E+03  0.91793484275E+02 0.  0.
        -11    1    4    4    0    0 -0.55379184448E+02  0.28313401996E+02  0.19072723237E+02  0.65055911141E+02  0.00000000000E+00 0. -1.
         11    1    4    4    0    0  0.33369935447E+02  0.17543983045E+02 -0.13478354134E+02  0.40037606858E+02  0.00000000000E+00 0.  1.
        -13    1    3    3    0    0  0.29092322809E+02 -0.86717002414E+02 -0.31517305775E+03  0.32817717484E+03  0.00000000000E+00 0.  1.
         13    1    3    3    0    0 -0.41581242880E+02 -0.90691170499E+02 -0.19457412839E+03  0.21866179274E+03  0.00000000000E+00 0. -1.
         21    1    1    2  502  501  0.34498169072E+02  0.13155078787E+03 -0.39035145145E+02  0.14149019760E+03  0.00000000000E+00 0.  1.
<scales pt_clust_5="13000.00000" pt_clust_6="13000.00000" pt_clust_7="13000.00000" pt_clust_8="13000.00000" pt_clust_9="166.23389"></scales>
<clustering>
<clus scale="   86.954">  7  8 -1 -1</clus>
<clus scale="   91.793">  5  6 -1 -1</clus>
<clus scale="  104.945">  1  5  2 -1</clus>
<clus scale="  166.234">  1  9  2 -1</clus>
<clus scale="  104.945">  1  5  2 -1</clus>
</clustering>
</event>
<event>
 9    1  0.5300912E-006  0.1130385E+03  0.7546771E-02  0.1266324E+00
         -2   -1    0    0    0  501 -0.00000000000E+00  0.00000000000E+00  0.10502376102E+03  0.10502376102E+03  0.00000000000E+00 0.  1.
          2   -1    0    0  502    0  0.00000000000E+00 -0.00000000000E+00 -0.32408099017E+03  0.32408099017E+03  0.00000000000E+00 0. -1.
         23    2    1    2    0    0  0.21975819490E+02  0.59735612626E+02 -0.31806967986E+02  0.13342628324E+03  0.11286987991E+03 0.  0.
         23    2    1    2    0    0  0.11053514007E+02  0.87070532408E+01 -0.19878133925E+03  0.21881299361E+03  0.90372077504E+02 0.  0.
        -11    1    4    4    0    0 -0.31178891345E+02 -0.17037329942E+02 -0.45376620618E+02  0.57631862504E+02  0.00000000000E+00 0.  1.
         11    1    4    4    0    0  0.42232405352E+02  0.25744383182E+02 -0.15340471863E+03  0.16118113111E+03  0.00000000000E+00 0. -1.
        -13    1    3    3    0    0 -0.38320834008E+02  0.38623214691E+02 -0.41998896807E+02  0.68732425864E+02  0.00000000000E+00 0.  1.
         13    1    3    3    0    0  0.60296653498E+02  0.21112397935E+02  0.10191928821E+02  0.64693857381E+02  0.00000000000E+00 0. -1.
         21    1    1    2  502  501 -0.33029333498E+02 -0.68442665867E+02  0.11531078081E+02  0.76865474330E+02  0.00000000000E+00 0.  1.
<scales pt_clust_5="13000.00000" pt_clust_6="13000.00000" pt_clust_7="13000.00000" pt_clust_8="13000.00000" pt_clust_9="75.99563"></scales>
<clustering>
<clus scale="   75.996">  1  9  2 -1</clus>
<clus scale="   90.372">  5  6 -1 -1</clus>
<clus scale="   90.583">  2  5  1 -1</clus>
<clus scale="  112.870">  7  8 -1 -1</clus>
<clus scale="   90.583">  2  5  1 -1</clus>
</clustering>
</event>
<event>
 9    1  0.5300912E-006  0.1187577E+03  0.7546771E-02  0.1245571E+00
         -1   -1    0    0    0  501 -0.00000000000E+00  0.00000000000E+00  0.45193166372E+03  0.45193166372E+03  0.00000000000E+00 0.  1.
          1   -1    0    0  502    0  0.00000000000E+00 -0.00000000000E+00 -0.68347813722E+02  0.68347813722E+02  0.00000000000E+00 0. -1.
         23    2    1    2    0    0  0.44522561765E+02  0.28281716535E+02  0.33845480744E+03  0.35458849578E+03  0.91647316741E+02 0.  0.
         23    2    1    2    0    0 -0.69611598638E+02 -0.39088672353E+02  0.97354388521E+01  0.12098128195E+03  0.90376948612E+02 0.  0.
        -11    1    4    4    0    0 -0.37521902873E+02 -0.97391244471E+01  0.48938651926E+02  0.62431845981E+02  0.00000000000E+00 0.  1.
         11    1    4    4    0    0 -0.32089695765E+02 -0.29349547906E+02 -0.39203213074E+02  0.58549435966E+02  0.00000000000E+00 0. -1.
        -13    1    3    3    0    0  0.30046198112E+02 -0.31898815466E+02  0.14397778316E+03  0.15049887206E+03  0.00000000000E+00 0.  1.
         13    1    3    3    0    0  0.14476363653E+02  0.60180532000E+02  0.19447702428E+03  0.20408962372E+03  0.00000000000E+00 0. -1.
         21    1    1    2  502  501  0.25089036873E+02  0.10806955818E+02  0.35393603712E+02  0.44709699720E+02  0.00000000000E+00 0. -1.
<scales pt_clust_5="13000.00000" pt_clust_6="13000.00000" pt_clust_7="13000.00000" pt_clust_8="13000.00000" pt_clust_9="27.31758"></scales>
<clustering>
<clus scale="   27.318">  1  9  2 -1</clus>
<clus scale="   90.377">  5  6 -1 -1</clus>
<clus scale="   91.647">  7  8 -1 -1</clus>
<clus scale="  117.780">  2  5  1 -1</clus>
<clus scale="  117.780">  2  5  1 -1</clus>
</clustering>
</event>
<event>
 9    1  0.1242651E-005  0.1188480E+03  0.7546771E-02  0.1248593E+00
          2   -1    0    0  502    0  0.00000000000E+00  0.00000000000E+00  0.29816397113E+03  0.29816397113E+03  0.00000000000E+00 0. -1.
         -2   -1    0    0    0  501 -0.00000000000E+00 -0.00000000000E+00 -0.28127704506E+03  0.28127704506E+03  0.00000000000E+00 0.  1.
         23    2    1    2    0    0  0.29717524631E+02 -0.30919318122E+02  0.32534920222E+02  0.10570142745E+03  0.90967770274E+02 0.  0.
         23    2    1    2    0    0 -0.45080973369E+02  0.56379152461E+02  0.21121775459E+03  0.24493332424E+03  0.10083893336E+03 0.  0.
        -13    1    3    3    0    0  0.21824593081E+01  0.27677484690E+02  0.30046707028E+02  0.40909789667E+02  0.00000000000E+00 0. -1.
         13    1    3    3    0    0  0.27535065323E+02 -0.58596802812E+02  0.24882131934E+01  0.64791637786E+02  0.00000000000E+00 0.  1.
        -13    1    4    4    0    0 -0.18919293032E+02  0.13277946778E+02 -0.43743246267E+01  0.23523992761E+02  0.00000000000E+00 0.  1.
         13    1    4    4    0    0 -0.26161680337E+02  0.43101205682E+02  0.21559207921E+03  0.22140933148E+03  0.00000000000E+00 0. -1.
         21    1    1    2  502  501  0.15363448737E+02 -0.25459834338E+02 -0.22686574873E+03  0.22880626449E+03  0.00000000000E+00 0.  1.
<scales pt_clust_5="13000.00000" pt_clust_6="13000.00000" pt_clust_7="13000.00000" pt_clust_8="13000.00000" pt_clust_9="29.73615"></scales>
<clustering>
<clus scale="   29.736">  2  9  1 -1</clus>
<clus scale="   90.968">  5  6 -1 -1</clus>
<clus scale="  100.839">  7  8 -1 -1</clus>
<clus scale="  110.596">  2  5  1 -1</clus>
<clus scale="  118.848">  1  5  2 -1</clus>
</clustering>
</event>
<event>
 9    1  0.5300912E-006  0.1503153E+03  0.7546771E-02  0.1217923E+00
         -2   -1    0    0    0  501 -0.00000000000E+00  0.00000000000E+00  0.77883187437E+03  0.77883187437E+03  0.00000000000E+00 0.  1.
          2   -1    0    0  502    0  0.00000000000E+00 -0.00000000000E+00 -0.74785376792E+02  0.74785376792E+02  0.00000000000E+00 0. -1.
         23    2    1    2    0    0  0.54605273977E+02  0.64486414448E+02  0.99778359938E+02  0.15880714088E+03  0.90131866101E+02 0.  0.
         23    2    1    2    0    0  0.13748664719E+02  0.45154546606E+02  0.31078315473E+02  0.10723886055E+03  0.91139193871E+02 0.  0.
        -11    1    4    4    0    0  0.46025664968E+01  0.72874549475E+02  0.26566189237E+02  0.77702290764E+02  0.00000000000E+00 0. -1.
         11    1    4    4    0    0  0.91460982225E+01 -0.27720002869E+02  0.45121262360E+01  0.29536569789E+02  0.00000000000E+00 0.  1.
        -11    1    3    3    0    0 -0.22713989768E+02  0.21452515072E+02  0.44840605566E+02  0.54651767050E+02  0.00000000000E+00 0.  1.
         11    1    3    3    0    0  0.77319263745E+02  0.43033899375E+02  0.54937754372E+02  0.10415537383E+03  0.00000000000E+00 0. -1.
         21    1    1    2  502  501 -0.68353938697E+02 -0.10964096105E+03  0.57318982217E+03  0.58757124974E+03  0.00000000000E+00 0.  1.
<scales pt_clust_5="13000.00000" pt_clust_6="13000.00000" pt_clust_7="13000.00000" pt_clust_8="13000.00000" pt_clust_9="120.29516"></scales>
<clustering>
<clus scale="   90.132">  7  8 -1 -1</clus>
<clus scale="   91.139">  5  6 -1 -1</clus>
<clus scale="  102.637">  2  5  1 -1</clus>
<clus scale="  120.295">  1  9  2 -1</clus>
<clus scale="  102.637">  2  5  1 -1</clus>
</clustering>
</event>
<event>
 9    1  0.5300912E-006  0.9307384E+02  0.7546771E-02  0.1296921E+00
         -1   -1    0    0    0  501 -0.00000000000E+00  0.00000000000E+00  0.20284349711E+02  0.20284349711E+02  0.00000000000E+00 0.  1.
          1   -1    0    0  502    0  0.00000000000E+00 -0.00000000000E+00 -0.77467780548E+03  0.77467780548E+03  0.00000000000E+00 0. -1.
         23    2    1    2    0    0 -0.22346931457E+02  0.16204923724E+02 -0.19236307150E+03  0.21479287484E+03  0.91490124642E+02 0.  0.
         23    2    1    2    0    0 -0.26712636858E+02 -0.15938489398E+02 -0.39116155244E+03  0.40239675738E+03  0.89152621026E+02 0.  0.
        -11    1    4    4    0    0  0.23666688491E+02  0.19829263936E+02 -0.16931377456E+03  0.17210597348E+03  0.00000000000E+00 0. -1.
         11    1    4    4    0    0 -0.50379325349E+02 -0.35767753334E+02 -0.22184777788E+03  0.23029078390E+03  0.00000000000E+00 0.  1.
        -11    1    3    3    0    0 -0.31938353435E+01 -0.37969311622E+02 -0.76648896720E+02  0.85597444925E+02  0.00000000000E+00 0.  1.
         11    1    3    3    0    0 -0.19153096113E+02  0.54174235347E+02 -0.11571417478E+03  0.12919542991E+03  0.00000000000E+00 0. -1.
         21    1    1    2  502  501  0.49059568315E+02 -0.26643432648E+00 -0.17086883183E+03  0.17777252297E+03  0.00000000000E+00 0.  1.
<scales pt_clust_5="13000.00000" pt_clust_6="13000.00000" pt_clust_7="13000.00000" pt_clust_8="13000.00000" pt_clust_9="49.06029"></scales>
<clustering>
<clus scale="   49.060">  2  9  1 -1</clus>
<clus scale="   89.153">  5  6 -1 -1</clus>
<clus scale="   90.777">  2  5  1 -1</clus>
<clus scale="   91.490">  7  8 -1 -1</clus>
<clus scale="   49.060">  2  5  1 -1</clus>
</clustering>
</event>
<event>
 9    1  0.5300912E-006  0.1107789E+03  0.7546771E-02  0.1262615E+00
         -4   -1    0    0    0  501 -0.00000000000E+00  0.00000000000E+00  0.90992227210E+02  0.90992227210E+02  0.00000000000E+00 0.  1.
          4   -1    0    0  502    0  0.00000000000E+00 -0.00000000000E+00 -0.26326944485E+03  0.26326944485E+03  0.00000000000E+00 0. -1.
         23    2    1    2    0    0 -0.85452636099E+02 -0.45926519157E+02 -0.29978981356E+02  0.13096339871E+03  0.82711996109E+02 0.  0.
         23    2    1    2    0    0  0.14666665786E+02  0.21631011977E+02 -0.63122602443E+02  0.11435009183E+03  0.91697703340E+02 0.  0.
        -13    1    3    3    0    0 -0.97093473616E+02 -0.21764065807E+02 -0.16208170241E+02  0.10081429443E+03  0.00000000000E+00 0.  1.
         13    1    3    3    0    0  0.11640837517E+02 -0.24162453350E+02 -0.13770811114E+02  0.30149104277E+02  0.00000000000E+00 0. -1.
        -13    1    4    4    0    0  0.13631228648E+02  0.50319260879E+02 -0.87465348376E+01  0.52861519856E+02  0.00000000000E+00 0.  1.
         13    1    4    4    0    0  0.10354371385E+01 -0.28688248902E+02 -0.54376067605E+02  0.61488571973E+02  0.00000000000E+00 0. -1.
         21    1    1    2  502  501  0.70785970312E+02  0.24295507180E+02 -0.79175633837E+02  0.10894818152E+03  0.00000000000E+00 0. -1.
<scales pt_clust_5="13000.00000" pt_clust_6="13000.00000" pt_clust_7="13000.00000" pt_clust_8="13000.00000" pt_clust_9="74.83933"></scales>
<clustering>
<clus scale="   74.839">  2  9  1 -1</clus>
<clus scale="   82.712">  5  6 -1 -1</clus>
<clus scale="   91.698">  7  8 -1 -1</clus>
<clus scale="  103.464">  1  5  2 -1</clus>
<clus scale="   74.839">  2  5  1 -1</clus>
</clustering>
</event>
<event>
 9    1  0.5300912E-006  0.1270326E+03  0.7546771E-02  0.1234202E+00
          1   -1    0    0  502    0  0.00000000000E+00  0.00000000000E+00  0.34862343274E+03  0.34862343274E+03  0.00000000000E+00 0. -1.
         -1   -1    0    0    0  501 -0.00000000000E+00 -0.00000000000E+00 -0.21317834808E+03  0.21317834808E+03  0.00000000000E+00 0.  1.
         23    2    1    2    0    0  0.81334067451E+02  0.41061542850E+01 -0.14700740134E+03  0.18829726523E+03  0.84926986348E+02 0.  0.
         23    2    1    2    0    0 -0.13448673506E+03 -0.50594504972E+02  0.17393720729E+03  0.24403661017E+03  0.93022734748E+02 0.  0.
        -11    1    4    4    0    0 -0.91680634152E+02  0.14029967252E+02  0.10716798489E+03  0.14172916300E+03  0.00000000000E+00 0. -1.
         11    1    4    4    0    0 -0.42806100911E+02 -0.64624472225E+02  0.66769222406E+02  0.10230744717E+03  0.00000000000E+00 0.  1.
        -13    1    3    3    0    0  0.32247693347E+01  0.31415242056E+02 -0.22398289409E+02  0.38716920579E+02  0.00000000000E+00 0. -1.
         13    1    3    3    0    0  0.78109298116E+02 -0.27309087771E+02 -0.12460911194E+03  0.14958034465E+03  0.00000000000E+00 0.  1.
         21    1    1    2  502  501  0.53152667612E+02  0.46488350687E+02  0.10851527871E+03  0.12946790543E+03  0.00000000000E+00 0. -1.
<scales pt_clust_5="13000.00000" pt_clust_6="13000.00000" pt_clust_7="13000.00000" pt_clust_8="13000.00000" pt_clust_9="70.61425"></scales>
<clustering>
<clus scale="   70.614">  1  9  2 -1</clus>
<clus scale="   84.927">  7  8 -1 -1</clus>
<clus scale="   93.023">  5  6 -1 -1</clus>
<clus scale="  121.230">  2  7  1 -1</clus>
<clus scale="   70.614">  1  5  2 -1</clus>
</clustering>
</event>
<event>
 9    1  0.5300912E-006  0.1212656E+03  0.7546771E-02  0.1242985E+00
         -1   -1    0    0    0  501 -0.00000000000E+00  0.00000000000E+00  0.17171114391E+03  0.17171114391E+03  0.00000000000E+00 0.  1.
          1   -1    0    0  502    0  0.00000000000E+00 -0.00000000000E+00 -0.17203222429E+03  0.17203222429E+03  0.00000000000E+00 0. -1.
         23    2    1    2    0    0  0.39296204677E+02 -0.53070622092E+02  0.21211777175E+02  0.11170771902E+03  0.87567073535E+02 0.  0.
         23    2    1    2    0    0 -0.75229636838E+02  0.38932410393E+02 -0.88824334859E+02  0.15445186547E+03  0.93757055449E+02 0.  0.
        -11    1    4    4    0    0  0.66813974440E+01  0.42050100124E+02 -0.43129906959E+02  0.60605617450E+02  0.00000000000E+00 0.  1.
         11    1    4    4    0    0 -0.81911034282E+02 -0.31176897306E+01 -0.45694427900E+02  0.93846248020E+02  0.00000000000E+00 0. -1.
        -13    1    3    3    0    0  0.25075133856E+02  0.11876186563E+02  0.34123781628E+02  0.43979979739E+02  0.00000000000E+00 0.  1.
         13    1    3    3    0    0  0.14221070821E+02 -0.64946808655E+02 -0.12912004453E+02  0.67727739286E+02  0.00000000000E+00 0. -1.
         21    1    1    2  502  501  0.35933432161E+02  0.14138211698E+02  0.67291477299E+02  0.77583783705E+02  0.00000000000E+00 0.  1.
<scales pt_clust_5="13000.00000" pt_clust_6="13000.00000" pt_clust_7="13000.00000" pt_clust_8="13000.00000" pt_clust_9="38.61477"></scales>
<clustering>
<clus scale="   38.615">  1  9  2 -1</clus>
<clus scale="   87.567">  7  8 -1 -1</clus>
<clus scale="   93.757">  5  6 -1 -1</clus>
<clus scale="  116.546">  1  7  2 -1</clus>
<clus scale="  121.266">  2  5  1 -1</clus>
</clustering>
</event>
<event>
 9    1  0.5300912E-006  0.1182871E+03  0.7546771E-02  0.1246533E+00
         -2   -1    0    0    0  501 -0.00000000000E+00  0.00000000000E+00  0.23233622337E+03  0.23233622337E+03  0.00000000000E+00 0.  1.
          2   -1    0    0  502    0  0.00000000000E+00 -0.00000000000E+00 -0.27911610639E+03  0.27911610639E+03  0.00000000000E+00 0. -1.
         23    2    1    2    0    0  0.17579880593E+02 -0.73049022239E+02  0.19397556522E+03  0.22687199931E+03  0.90549281135E+02 0.  0.
         23    2    1    2    0    0  0.17186313450E+02  0.63656959108E+02 -0.20198455152E+03  0.23166453384E+03  0.92320741844E+02 0.  0.
        -13    1    4    4    0    0  0.55449364402E+01  0.21242320513E+02  0.28705239390E+01  0.22140966749E+02  0.00000000000E+00 0.  1.
         13    1    4    4    0    0  0.11641377010E+02  0.42414638595E+02 -0.20485507546E+03  0.20952356710E+03  0.00000000000E+00 0. -1.
        -13    1    3    3    0    0 -0.24628673563E+02 -0.66340229833E+02  0.14830668821E+03  0.16432428738E+03  0.00000000000E+00 0.  1.
         13    1    3    3    0    0  0.42208554155E+02 -0.67087924066E+01  0.45668877013E+02  0.62547711925E+02  0.00000000000E+00 0. -1.
         21    1    1    2  502  501 -0.34766194042E+02  0.93920631316E+01 -0.38770896722E+02  0.52915796608E+02  0.00000000000E+00 0. -1.
<scales pt_clust_5="13000.00000" pt_clust_6="13000.00000" pt_clust_7="13000.00000" pt_clust_8="13000.00000" pt_clust_9="36.01249"></scales>
<clustering>
<clus scale="   36.012">  2  9  1 -1</clus>
<clus scale="   90.549">  7  8 -1 -1</clus>
<clus scale="   92.321">  5  6 -1 -1</clus>
<clus scale="  116.910">  1  7  2 -1</clus>
<clus scale="   36.012">  2  5  1 -1</clus>
</clustering>
</event>
<event>
 9    1  0.5300912E-006  0.1310038E+03  0.7546771E-02  0.1226010E+00
          1   -1    0    0  502    0  0.00000000000E+00  0.00000000000E+00  0.62733587098E+03  0.62733587098E+03  0.00000000000E+00 0. -1.
         -1   -1    0    0    0  501 -0.00000000000E+00 -0.00000000000E+00 -0.93299968677E+02  0.93299968677E+02  0.00000000000E+00 0.  1.
         23    2    1    2    0    0 -0.32737133645E+02  0.10226631421E+03  0.15801127346E+03  0.21176661746E+03  0.91364209560E+02 0.  0.
         23    2    1    2    0    0  0.92484635910E+01 -0.89096225144E+02  0.42993943912E+03  0.44860334766E+03  0.91506124435E+02 0.  0.
        -11    1    4    4    0    0  0.34670312056E+02 -0.91645736255E+02  0.28358900551E+03  0.30003949000E+03  0.00000000000E+00 0.  1.
         11    1    4    4    0    0 -0.25421848465E+02  0.25495111116E+01  0.14635043361E+03  0.14856385766E+03  0.00000000000E+00 0. -1.
        -11    1    3    3    0    0  0.31848271868E+02  0.40945280187E+02  0.61036404322E+02  0.80101629467E+02  0.00000000000E+00 0. -1.
         11    1    3    3    0    0 -0.64585405513E+02  0.61321034018E+02  0.96974869140E+02  0.13166498799E+03  0.00000000000E+00 0.  1.
         21    1    1    2  502  501  0.23488670054E+02 -0.13170089062E+02 -0.53914810276E+02  0.60265874538E+02  0.00000000000E+00 0.  1.
<scales pt_clust_5="13000.00000" pt_clust_6="13000.00000" pt_clust_7="13000.00000" pt_clust_8="13000.00000" pt_clust_9="26.92896"></scales>
<clustering>
<clus scale="   26.929">  2  9  1 -1</clus>
<clus scale="   91.364">  7  8 -1 -1</clus>
<clus scale="   91.506">  5  6 -1 -1</clus>
<clus scale="  130.905">  2  7  1 -1</clus>
<clus scale="  131.004">  1  5  2 -1</clus>
</clustering>
</event>
<event>
 9    1  0.5300912E-006  0.1194095E+03  0.7546771E-02  0.1245592E+00
         -1   -1    0    0    0  501 -0.00000000000E+00  0.00000000000E+00  0.15058803237E+03  0.15058803237E+03  0.00000000000E+00 0.  1.
          1   -1    0    0  502    0  0.00000000000E+00 -0.00000000000E+00 -0.12075225339E+03  0.12075225339E+03  0.00000000000E+00 0. -1.
         23    2    1    2    0    0 -0.88432676280E+02 -0.20519538993E+02  0.16213658979E+02  0.12940870280E+03  0.90787333414E+02 0.  0.
         23    2    1    2    0    0  0.64593521704E+02  0.22573112015E+02 -0.73038274482E+01  0.11014451436E+03  0.86003486653E+02 0.  0.
        -13    1    3    3    0    0 -0.29669029320E+02 -0.53364675595E+02  0.68502769089E+01  0.61440753543E+02  0.00000000000E+00 0. -1.
         13    1    3    3    0    0 -0.58763646960E+02  0.32845136602E+02  0.93633820700E+01  0.67967949258E+02  0.00000000000E+00 0.  1.
        -13    1    4    4    0    0 -0.76237349847E+01  0.34431683090E+02 -0.10783446693E+02  0.36877430199E+02  0.00000000000E+00 0.  1.
         13    1    4    4    0    0  0.72217256689E+02 -0.11858571075E+02  0.34796192449E+01  0.73267084162E+02  0.00000000000E+00 0. -1.
         21    1    1    2  502  501  0.23839154576E+02 -0.20535730220E+01  0.20925947451E+02  0.31787068594E+02  0.00000000000E+00 0.  1.
<scales pt_clust_5="13000.00000" pt_clust_6="13000.00000" pt_clust_7="13000.00000" pt_clust_8="13000.00000" pt_clust_9="23.92744"></scales>
<clustering>
<clus scale="   23.927">  1  9  2 -1</clus>
<clus scale="   86.003">  7  8 -1 -1</clus>
<clus scale="   90.787">  5  6 -1 -1</clus>
<clus scale="  115.814">  2  7  1 -1</clus>
<clus scale="  115.814">  2  5  1 -1</clus>
</clustering>
</event>
<event>
 9    1  0.5300912E-006  0.1286171E+03  0.7546771E-02  0.1229632E+00
          2   -1    0    0  502    0  0.00000000000E+00  0.00000000000E+00  0.74657591204E+03  0.74657591204E+03  0.00000000000E+00 0. -1.
         -2   -1    0    0    0  501 -0.00000000000E+00 -0.00000000000E+00 -0.72453144636E+02  0.72453144636E+02  0.00000000000E+00 0.  1.
         23    2    1    2    0    0  0.31460738376E+02  0.89593066538E+02  0.25692811794E+02  0.13429925600E+03  0.91430158876E+02 0.  0.
         23    2    1    2    0    0 -0.90258151940E+02 -0.28740426563E+02  0.45169824636E+03  0.47057204327E+03  0.91837879091E+02 0.  0.
        -11    1    4    4    0    0 -0.20582438670E+02 -0.82604182099E+01  0.12597573613E+02  0.25506276708E+02  0.00000000000E+00 0.  1.
         11    1    4    4    0    0 -0.69675713270E+02 -0.20480008354E+02  0.43910067274E+03  0.44506576656E+03  0.00000000000E+00 0. -1.
        -13    1    3    3    0    0  0.15105864669E+02  0.53141328976E+02 -0.32209970987E+02  0.63950529503E+02  0.00000000000E+00 0.  1.
         13    1    3    3    0    0  0.16354873707E+02  0.36451737562E+02  0.57902782781E+02  0.70348726492E+02  0.00000000000E+00 0. -1.
         21    1    1    2  502  501  0.58797413564E+02 -0.60852639974E+02  0.19673170926E+03  0.21415775741E+03  0.00000000000E+00 0. -1.
<scales pt_clust_5="13000.00000" pt_clust_6="13000.00000" pt_clust_7="13000.00000" pt_clust_8="13000.00000" pt_clust_9="84.61784"></scales>
<clustering>
<clus scale="   84.618">  1  9  2 -1</clus>
<clus scale="   91.430">  7  8 -1 -1</clus>
<clus scale="   91.838">  5  6 -1 -1</clus>
<clus scale="  128.326">  2  7  1 -1</clus>
<clus scale="   84.618">  1  5  2 -1</clus>
</clustering>
</event>
<event>
 9    1  0.5300912E-006  0.1926507E+03  0.7546771E-02  0.1180017E+00
         -1   -1    0    0    0  501 -0.00000000000E+00  0.00000000000E+00  0.16740968067E+03  0.16740968067E+03  0.00000000000E+00 0.  1.
          1   -1    0    0  502    0  0.00000000000E+00 -0.00000000000E+00 -0.50005446278E+03  0.50005446278E+03  0.00000000000E+00 0. -1.
         23    2    1    2    0    0 -0.16323654467E+03  0.64418903800E+02  0.44649537104E+02  0.20302530816E+03  0.91813560574E+02 0.  0.
         23    2    1    2    0    0  0.45984131031E+02  0.43321937548E+02 -0.16699931587E+03  0.20065823359E+03  0.91562135341E+02 0.  0.
        -11    1    3    3    0    0 -0.14973224085E+03  0.38315683154E+02  0.62679932342E+01  0.15468394637E+03  0.00000000000E+00 0.  1.
         11    1    3    3    0    0 -0.13504303826E+02  0.26103220646E+02  0.38381543869E+02  0.48341361790E+02  0.00000000000E+00 0. -1.
        -13    1    4    4    0    0  0.39865456857E+02  0.63483494763E+02 -0.74119964533E+02  0.10541905852E+03  0.00000000000E+00 0. -1.
         13    1    4    4    0    0  0.61186741737E+01 -0.20161557216E+02 -0.92879351338E+02  0.95239175070E+02  0.00000000000E+00 0.  1.
         21    1    1    2  502  501  0.11725241364E+03 -0.10774084135E+03 -0.21029500335E+03  0.26378060170E+03  0.00000000000E+00 0. -1.
<scales pt_clust_5="13000.00000" pt_clust_6="13000.00000" pt_clust_7="13000.00000" pt_clust_8="13000.00000" pt_clust_9="169.36518"></scales>
<clustering>
<clus scale="   91.562">  7  8 -1 -1</clus>
<clus scale="   91.814">  5  6 -1 -1</clus>
<clus scale="  111.243">  2  7  1 -1</clus>
<clus scale="  169.365">  2  9  1 -1</clus>
<clus scale="  111.243">  2  5  1 -1</clus>
</clustering>
</event>
<event>
 9    1  0.5300912E-006  0.2999733E+03  0.7546771E-02  0.1128343E+00
          3   -1    0    0  502    0  0.00000000000E+00  0.00000000000E+00  0.92088323957E+03  0.92088323957E+03  0.00000000000E+00 0. -1.
         -3   -1    0    0    0  501 -0.00000000000E+00 -0.00000000000E+00 -0.13084360489E+03  0.13084360489E+03  0.00000000000E+00 0.  1.
         23    2    1    2    0    0  0.46150500868E+01 -0.33042129660E+02  0.64926366033E+02  0.11873017142E+03  0.93639412527E+02 0.  0.
         23    2    1    2    0    0  0.18137488780E+03 -0.20257517816E+03  0.35242054784E+03  0.45444924919E+03  0.91598716239E+02 0.  0.
        -11    1    3    3    0    0 -0.18591529430E+02 -0.19764095111E+02 -0.17357827178E+02  0.32211156242E+02  0.00000000000E+00 0.  1.
         11    1    3    3    0    0  0.23206579517E+02 -0.13278034550E+02  0.82284193211E+02  0.86519015175E+02  0.00000000000E+00 0. -1.
        -13    1    4    4    0    0  0.14132252408E+03 -0.95003113825E+02  0.18481493717E+03  0.25130501079E+03  0.00000000000E+00 0.  1.
         13    1    4    4    0    0  0.40052363722E+02 -0.10757206434E+03  0.16760561067E+03  0.20314423840E+03  0.00000000000E+00 0. -1.
         21    1    1    2  502  501 -0.18598993789E+03  0.23561730782E+03  0.37269272081E+03  0.47854742386E+03  0.00000000000E+00 0.  1.
<scales pt_clust_5="13000.00000" pt_clust_6="13000.00000" pt_clust_7="13000.00000" pt_clust_8="13000.00000" pt_clust_9="285.64602"></scales>
<clustering>
<clus scale="   91.599">  7  8 -1 -1</clus>
<clus scale="   93.639">  5  6 -1 -1</clus>
<clus scale="   99.405">  2  5  1 -1</clus>
<clus scale="  285.646">  2  9  1 -1</clus>
<clus scale="  299.973">  1  5  2 -1</clus>
</clustering>
</event>
<event>
 9    1  0.5300912E-006  0.1705945E+03  0.7546771E-02  0.1177926E+00
          1   -1    0    0  502    0  0.00000000000E+00  0.00000000000E+00  0.21510740665E+03  0.21510740665E+03  0.00000000000E+00 0. -1.
         -1   -1    0    0    0  501 -0.00000000000E+00 -0.00000000000E+00 -0.25476835144E+03  0.25476835144E+03  0.00000000000E+00 0.  1.
         23    2    1    2    0    0 -0.13591862301E+03  0.55796125561E+02 -0.16160130291E+03  0.23542772866E+03  0.87887169782E+02 0.  0.
         23    2    1    2    0    0  0.12695004966E+03 -0.22432740194E+02  0.12129711448E+03  0.19989423726E+03  0.92871810399E+02 0.  0.
        -13    1    4    4    0    0  0.32239975245E+02 -0.36085801557E+02  0.84498118829E+02  0.97373164493E+02  0.00000000000E+00 0.  1.
         13    1    4    4    0    0  0.94710074410E+02  0.13653061363E+02  0.36798995650E+02  0.10252107276E+03  0.00000000000E+00 0. -1.
        -13    1    3    3    0    0 -0.99142226478E+02  0.27332702668E+01 -0.13009472456E+03  0.16358878078E+03  0.00000000000E+00 0.  1.
         13    1    3    3    0    0 -0.36776396533E+02  0.53062855294E+02 -0.31506578343E+02  0.71838947882E+02  0.00000000000E+00 0. -1.
         21    1    1    2  502  501  0.89685733552E+01 -0.33363385367E+02  0.64324363934E+00  0.34553792173E+02  0.00000000000E+00 0.  1.
<scales pt_clust_5="13000.00000" pt_clust_6="13000.00000" pt_clust_7="13000.00000" pt_clust_8="13000.00000" pt_clust_9="34.54780"></scales>
<clustering>
<clus scale="   34.548">  1  9  2 -1</clus>
<clus scale="   87.887">  7  8 -1 -1</clus>
<clus scale="   92.872">  5  6 -1 -1</clus>
<clus scale="  167.933">  2  7  1 -1</clus>
<clus scale="   34.548">  1  5  2 -1</clus>
</clustering>
</event>
<event>
 9    1  0.5300912E-006  0.1613276E+03  0.7546771E-02  0.1206674E+00
         -2   -1    0    0    0  501 -0.00000000000E+00  0.00000000000E+00  0.77787822716E+02  0.77787822716E+02  0.00000000000E+00 0.  1.
          2   -1    0    0  502    0  0.00000000000E+00 -0.00000000000E+00 -0.11781035554E+04  0.11781035554E+04  0.00000000000E+00 0. -1.
         23    2    1    2    0    0  0.50605758304E+02 -0.22790905601E+02  0.29905578523E+01  0.10550510935E+03  0.89677290942E+02 0.  0.
         23    2    1    2    0    0  0.76277629275E+02  0.82496186557E+02 -0.28638013969E+03  0.32151206206E+03  0.93447975435E+02 0.  0.
        -13    1    4    4    0    0  0.97061564362E+02  0.78098100734E+02 -0.25166976054E+03  0.28081653973E+03  0.00000000000E+00 0.  1.
         13    1    4    4    0    0 -0.20783935087E+02  0.43980858224E+01 -0.34710379149E+02  0.40695522324E+02  0.00000000000E+00 0. -1.
        -13    1    3    3    0    0  0.31937007316E+01  0.26103707482E+02 -0.20623324061E+02  0.33420424354E+02  0.00000000000E+00 0. -1.
         13    1    3    3    0    0  0.47412057572E+02 -0.48894613083E+02  0.23613881913E+02  0.72084684995E+02  0.00000000000E+00 0.  1.
         21    1    1    2  502  501 -0.12688338758E+03 -0.59705280956E+02 -0.81692615081E+03  0.82887420668E+03  0.00000000000E+00 0. -1.
<scales pt_clust_5="13000.00000" pt_clust_6="13000.00000" pt_clust_7="13000.00000" pt_clust_8="13000.00000" pt_clust_9="131.50697"></scales>
<clustering>
<clus scale="   89.677">  7  8 -1 -1</clus>
<clus scale="   93.448">  5  6 -1 -1</clus>
<clus scale="  105.463">  1  7  2 -1</clus>
<clus scale="  131.507">  2  9  1 -1</clus>
<clus scale="  131.507">  2  5  1 -1</clus>
</clustering>
</event>
<event>
 9    1  0.5300912E-006  0.9995388E+02  0.7546771E-02  0.1280611E+00
          1   -1    0    0  502    0  0.00000000000E+00  0.00000000000E+00  0.32362611507E+03  0.32362611507E+03  0.00000000000E+00 0. -1.
         -1   -1    0    0    0  501 -0.00000000000E+00 -0.00000000000E+00 -0.10383265077E+03  0.10383265077E+03  0.00000000000E+00 0.  1.
         23    2    1    2    0    0  0.36142270714E+02  0.54995002687E+01 -0.24800875564E+02  0.99547364604E+02  0.89208105772E+02 0.  0.
         23    2    1    2    0    0  0.43617245507E+02 -0.37978884078E+02  0.20912524694E+03  0.23477415115E+03  0.89669802055E+02 0.  0.
        -11    1    3    3    0    0  0.61990488922E+02  0.92383681385E+01  0.12105165116E+01  0.62686788982E+02  0.00000000000E+00 0.  1.
         11    1    3    3    0    0 -0.25848218208E+02 -0.37388678698E+01 -0.26011392076E+02  0.36860575623E+02  0.00000000000E+00 0. -1.
        -11    1    4    4    0    0  0.63937818526E+02 -0.35209237831E+02  0.19887528301E+03  0.21184690996E+03  0.00000000000E+00 0. -1.
         11    1    4    4    0    0 -0.20320573020E+02 -0.27696462474E+01  0.10249963928E+02  0.22927241193E+02  0.00000000000E+00 0.  1.
         21    1    1    2  502  501 -0.79759516220E+02  0.32479383809E+02  0.35469092927E+02  0.93137250085E+02  0.00000000000E+00 0.  1.
<scales pt_clust_5="13000.00000" pt_clust_6="13000.00000" pt_clust_7="13000.00000" pt_clust_8="13000.00000" pt_clust_9="86.11905"></scales>
<clustering>
<clus scale="   86.119">  2  9  1 -1</clus>
<clus scale="   89.208">  5  6 -1 -1</clus>
<clus scale="   89.670">  7  8 -1 -1</clus>
<clus scale="   99.540">  2  5  1 -1</clus>
<clus scale="   99.954">  1  5  2 -1</clus>
</clustering>
</event>
<event>
 9    1  0.5300912E-006  0.1645255E+03  0.7546771E-02  0.1200370E+00
         -1   -1    0    0    0  501 -0.00000000000E+00  0.00000000000E+00  0.72575124729E+02  0.72575124729E+02  0.00000000000E+00 0.  1.
          1   -1    0    0  502    0  0.00000000000E+00 -0.00000000000E+00 -0.68385121375E+03  0.68385121375E+03  0.00000000000E+00 0. -1.
         23    2    1    2    0    0  0.51455978389E+02 -0.45230419170E+02 -0.15360631214E+03  0.19124515595E+03  0.91029127286E+02 0.  0.
         23    2    1    2    0    0  0.86043983713E+01 -0.11833121918E+03 -0.27318334320E+03  0.31141967519E+03  0.90976711256E+02 0.  0.
        -11    1    4    4    0    0  0.20711903366E+02  0.81264774895E+01 -0.34919761747E+02  0.41405462658E+02  0.00000000000E+00 0.  1.
         11    1    4    4    0    0 -0.12107504995E+02 -0.12645769667E+03 -0.23826358145E+03  0.27001421253E+03  0.00000000000E+00 0. -1.
        -11    1    3    3    0    0  0.36895317725E+02 -0.19779121607E+02 -0.15629111856E+03  0.16180046929E+03  0.00000000000E+00 0. -1.
         11    1    3    3    0    0  0.14560660664E+02 -0.25451297563E+02  0.26848064265E+01  0.29444686654E+02  0.00000000000E+00 0.  1.
         21    1    1    2  502  501 -0.60060376760E+02  0.16356163835E+03 -0.18448643368E+03  0.25376150734E+03  0.00000000000E+00 0.  1.
<scales pt_clust_5="13000.00000" pt_clust_6="13000.00000" pt_clust_7="13000.00000" pt_clust_8="13000.00000" pt_clust_9="137.08352"></scales>
<clustering>
<clus scale="   90.977">  5  6 -1 -1</clus>
<clus scale="   91.029">  7  8 -1 -1</clus>
<clus scale="  113.929">  1  7  2 -1</clus>
<clus scale="  137.084">  1  9  2 -1</clus>
<clus scale="  164.526">  2  5  1 -1</clus>
</clustering>
</event>
<event>
 9    1  0.5300912E-006  0.1215082E+03  0.7546771E-02  0.1244090E+00
         -2   -1    0    0    0  501 -0.00000000000E+00  0.00000000000E+00  0.84127286180E+02  0.84127286180E+02  0.00000000000E+00 0.  1.
          2   -1    0    0  502    0  0.00000000000E+00 -0.00000000000E+00 -0.42603246141E+03  0.42603246141E+03  0.00000000000E+00 0. -1.
         23    2    1    2    0    0 -0.78911466538E+02  0.48048512808E+01 -0.29497668508E+02  0.13183184421E+03  0.10128877803E+03 0.  0.
         23    2    1    2    0    0  0.60031031519E+02  0.28330816118E+02 -0.32010877276E+03  0.33942092740E+03  0.91272009271E+02 0.  0.
        -11    1    4    4    0    0  0.44337808547E+02  0.43175381155E+02 -0.30898798505E+03  0.31512462568E+03  0.00000000000E+00 0. -1.
         11    1    4    4    0    0  0.15693222971E+02 -0.14844565036E+02 -0.11120787712E+02  0.24296301728E+02  0.00000000000E+00 0.  1.
        -11    1    3    3    0    0 -0.18231978601E+02  0.10759972449E+02  0.36366109926E+02  0.42079401159E+02  0.00000000000E+00 0.  1.
         11    1    3    3    0    0 -0.60679487937E+02 -0.59551211685E+01 -0.65863778433E+02  0.89752443053E+02  0.00000000000E+00 0. -1.
         21    1    1    2  502  501  0.18880435019E+02 -0.33135667399E+02  0.77012660389E+01  0.38906975970E+02  0.00000000000E+00 0. -1.
<scales pt_clust_5="13000.00000" pt_clust_6="13000.00000" pt_clust_7="13000.00000" pt_clust_8="13000.00000" pt_clust_9="38.13716"></scales>
<clustering>
<clus scale="   38.137">  1  9  2 -1</clus>
<clus scale="   91.272">  5  6 -1 -1</clus>
<clus scale="  101.289">  7  8 -1 -1</clus>
<clus scale="  113.293">  2  5  1 -1</clus>
<clus scale="  113.293">  2  5  1 -1</clus>
</clustering>
</event>
<event>
 9    1  0.5300912E-006  0.1054776E+03  0.7546771E-02  0.1272408E+00
         -3   -1    0    0    0  501 -0.00000000000E+00  0.00000000000E+00  0.29502867240E+02  0.29502867240E+02  0.00000000000E+00 0.  1.
          3   -1    0    0  502    0  0.00000000000E+00 -0.00000000000E+00 -0.65587722370E+03  0.65587722370E+03  0.00000000000E+00 0. -1.
         23    2    1    2    0    0 -0.88604219985E+01  0.34072559083E+02 -0.15503322879E+03  0.18413983348E+03  0.92912485084E+02 0.  0.
         23    2    1    2    0    0 -0.15798184033E+02 -0.79744805465E+02 -0.30802144474E+03  0.32987129944E+03  0.85609854315E+02 0.  0.
        -13    1    4    4    0    0  0.13567838956E+02 -0.16146940350E+02 -0.93063165186E+01  0.23052493656E+02  0.00000000000E+00 0.  1.
         13    1    4    4    0    0 -0.29366022989E+02 -0.63597865115E+02 -0.29871512822E+03  0.30681880578E+03  0.00000000000E+00 0. -1.
        -13    1    3    3    0    0  0.25215892517E+02  0.36710422916E+02 -0.28041320377E+02  0.52629003740E+02  0.00000000000E+00 0. -1.
         13    1    3    3    0    0 -0.34076314516E+02 -0.26378638328E+01 -0.12699190842E+03  0.13151082974E+03  0.00000000000E+00 0.  1.
         21    1    1    2  502  501  0.24658606031E+02  0.45672246382E+02 -0.16331968292E+03  0.17136895802E+03  0.00000000000E+00 0. -1.
<scales pt_clust_5="13000.00000" pt_clust_6="13000.00000" pt_clust_7="13000.00000" pt_clust_8="13000.00000" pt_clust_9="51.90377"></scales>
<clustering>
<clus scale="   51.904">  2  9  1 -1</clus>
<clus scale="   85.610">  5  6 -1 -1</clus>
<clus scale="   92.912">  7  8 -1 -1</clus>
<clus scale="   99.105">  2  5  1 -1</clus>
<clus scale="   51.904">  2  5  1 -1</clus>
</clustering>
</event>
<event>
 9    1  0.5300912E-006  0.1079237E+03  0.7546771E-02  0.1264601E+00
          1   -1    0    0  502    0  0.00000000000E+00  0.00000000000E+00  0.10439915989E+03  0.10439915989E+03  0.00000000000E+00 0. -1.
         -1   -1    0    0    0  501 -0.00000000000E+00 -0.00000000000E+00 -0.24102819905E+03  0.24102819905E+03  0.00000000000E+00 0.  1.
         23    2    1    2    0    0  0.20487677891E+01  0.58461555666E+02 -0.16196947575E+03  0.19474787580E+03  0.90943241168E+02 0.  0.
         23    2    1    2    0    0  0.22489235360E+02 -0.54291390065E+02 -0.82456252592E+01  0.10887604513E+03  0.91283526030E+02 0.  0.
        -11    1    3    3    0    0  0.43024224534E+02  0.12001811479E+02 -0.84274319207E+02  0.95379705668E+02  0.00000000000E+00 0.  1.
         11    1    3    3    0    0 -0.40975456745E+02  0.46459744188E+02 -0.77695156542E+02  0.99368170133E+02  0.00000000000E+00 0. -1.
        -11    1    4    4    0    0  0.57645149052E+02 -0.26260330476E+02 -0.11409041050E+01  0.63355108934E+02  0.00000000000E+00 0.  1.
         11    1    4    4    0    0 -0.35155913692E+02 -0.28031059589E+02 -0.71047211543E+01  0.45520936193E+02  0.00000000000E+00 0. -1.
         21    1    1    2  502  501 -0.24538003149E+02 -0.41701656010E+01  0.33586061848E+02  0.41803438018E+02  0.00000000000E+00 0. -1.
<scales pt_clust_5="13000.00000" pt_clust_6="13000.00000" pt_clust_7="13000.00000" pt_clust_8="13000.00000" pt_clust_9="24.88983"></scales>
<clustering>
<clus scale="   24.890">  1  9  2 -1</clus>
<clus scale="   90.943">  5  6 -1 -1</clus>
<clus scale="   91.284">  7  8 -1 -1</clus>
<clus scale="  107.636">  2  5  1 -1</clus>
<clus scale="   24.890">  1  5  2 -1</clus>
</clustering>
</event>
<event>
 9    1  0.5300912E-006  0.1573834E+03  0.7546771E-02  0.1191727E+00
         -1   -1    0    0    0  501 -0.00000000000E+00  0.00000000000E+00  0.89461341275E+03  0.89461341275E+03  0.00000000000E+00 0.  1.
          1   -1    0    0  502    0  0.00000000000E+00 -0.00000000000E+00 -0.85544443773E+02  0.85544443773E+02  0.00000000000E+00 0. -1.
         23    2    1    2    0    0  0.57664210071E+02  0.18606345719E+03  0.51521797130E+03  0.55827581413E+03  0.90981072017E+02 0.  0.
         23    2    1    2    0    0  0.19908720280E+02 -0.11670162647E+03  0.51431958608E+02  0.15807223669E+03  0.91246692440E+02 0.  0.
        -13    1    4    4    0    0 -0.17492089757E+02 -0.13985858014E+02  0.42940317544E+02  0.48429828610E+02  0.00000000000E+00 0.  1.
         13    1    4    4    0    0  0.37400810038E+02 -0.10271576846E+03  0.84916410640E+01  0.10964240808E+03  0.00000000000E+00 0. -1.
        -13    1    3    3    0    0  0.37166874124E+02  0.14154888353E+02  0.68876455882E+02  0.79534291795E+02  0.00000000000E+00 0.  1.
         13    1    3    3    0    0  0.20497335947E+02  0.17190856884E+03  0.44634151542E+03  0.47874152233E+03  0.00000000000E+00 0. -1.
         21    1    1    2  502  501 -0.77572930351E+02 -0.69361830718E+02  0.24241903908E+03  0.26380980571E+03  0.00000000000E+00 0.  1.
<scales pt_clust_5="13000.00000" pt_clust_6="13000.00000" pt_clust_7="13000.00000" pt_clust_8="13000.00000" pt_clust_9="104.06067"></scales>
<clustering>
<clus scale="   90.981">  7  8 -1 -1</clus>
<clus scale="   91.247">  5  6 -1 -1</clus>
<clus scale="  104.061">  1  9  2 -1</clus>
<clus scale="  157.230">  1  7  2 -1</clus>
<clus scale="  157.383">  2  5  1 -1</clus>
</clustering>
</event>
<event>
 9    1  0.5300912E-006  0.1134841E+03  0.7546771E-02  0.1254491E+00
         -1   -1    0    0    0  501 -0.00000000000E+00  0.00000000000E+00  0.42969916066E+02  0.42969916066E+02  0.00000000000E+00 0.  1.
          1   -1    0    0  502    0  0.00000000000E+00 -0.00000000000E+00 -0.57060267634E+03  0.57060267634E+03  0.00000000000E+00 0. -1.
         23    2    1    2    0    0  0.85247125110E+02 -0.51430777190E+02 -0.24694643679E+03  0.28141098806E+03  0.91090089342E+02 0.  0.
         23    2    1    2    0    0 -0.23287223288E+02  0.45636408331E+02 -0.22820982534E+03  0.25075898152E+03  0.90417730020E+02 0.  0.
        -13    1    4    4    0    0 -0.30009260945E+02  0.69598004430E+02 -0.14114525479E+03  0.16020743089E+03  0.00000000000E+00 0.  1.
         13    1    4    4    0    0  0.67220376574E+01 -0.23961596099E+02 -0.87064570548E+02  0.90551550636E+02  0.00000000000E+00 0. -1.
        -13    1    3    3    0    0  0.85278287963E+02 -0.10902545135E+02 -0.20857891276E+03  0.22560233761E+03  0.00000000000E+00 0. -1.
         13    1    3    3    0    0 -0.31162853111E-01 -0.40528232054E+02 -0.38367524028E+02  0.55808650446E+02  0.00000000000E+00 0.  1.
         21    1    1    2  502  501 -0.61959901822E+02  0.57943688584E+01 -0.52476498152E+02  0.81402622824E+02  0.00000000000E+00 0.  1.
<scales pt_clust_5="13000.00000" pt_clust_6="13000.00000" pt_clust_7="13000.00000" pt_clust_8="13000.00000" pt_clust_9="62.23025"></scales>
<clustering>
<clus scale="   62.230">  1  9  2 -1</clus>
<clus scale="   90.418">  5  6 -1 -1</clus>
<clus scale="   91.090">  7  8 -1 -1</clus>
<clus scale="  112.945">  2  5  1 -1</clus>
<clus scale="  112.945">  2  5  1 -1</clus>
</clustering>
</event>
<event>
 9    1  0.5300912E-006  0.3065066E+03  0.7546771E-02  0.1111220E+00
          2   -1    0    0  502    0  0.00000000000E+00  0.00000000000E+00  0.84858794783E+03  0.84858794783E+03  0.00000000000E+00 0. -1.
         -2   -1    0    0    0  501 -0.00000000000E+00 -0.00000000000E+00 -0.16651954570E+03  0.16651954570E+03  0.00000000000E+00 0.  1.
         23    2    1    2    0    0  0.29599429557E+03  0.58254581051E+02  0.27285762452E+03  0.41699703011E+03  0.91809697937E+02 0.  0.
         23    2    1    2    0    0 -0.43801078456E+02  0.88467224728E+02  0.15773556058E+03  0.21292415547E+03  0.10349494955E+03 0.  0.
        -13    1    4    4    0    0  0.25504002030E+02  0.31665095211E+02  0.12984824712E+02  0.42681823380E+02  0.00000000000E+00 0. -1.
         13    1    4    4    0    0 -0.69305080485E+02  0.56802129518E+02  0.14475073587E+03  0.17024233209E+03  0.00000000000E+00 0.  1.
        -13    1    3    3    0    0  0.14616049519E+03  0.74372087247E+02  0.12889239607E+03  0.20858414964E+03  0.00000000000E+00 0.  1.
         13    1    3    3    0    0  0.14983380039E+03 -0.16117506196E+02  0.14396522845E+03  0.20841288047E+03  0.00000000000E+00 0. -1.
         21    1    1    2  502  501 -0.25219321712E+03 -0.14672180578E+03  0.25147521704E+03  0.38518630796E+03  0.00000000000E+00 0.  1.
<scales pt_clust_5="13000.00000" pt_clust_6="13000.00000" pt_clust_7="13000.00000" pt_clust_8="13000.00000" pt_clust_9="292.43340"></scales>
<clustering>
<clus scale="   91.810">  7  8 -1 -1</clus>
<clus scale="  103.495">  5  6 -1 -1</clus>
<clus scale="  143.025">  1  5  2 -1</clus>
<clus scale="  292.433">  2  9  1 -1</clus>
<clus scale="  143.025">  1  5  2 -1</clus>
</clustering>
</event>
<event>
 9    1  0.5300912E-006  0.9804235E+02  0.7546771E-02  0.1286133E+00
         -1   -1    0    0    0  501 -0.00000000000E+00  0.00000000000E+00  0.25469502401E+02  0.25469502401E+02  0.00000000000E+00 0.  1.
          1   -1    0    0  502    0  0.00000000000E+00 -0.00000000000E+00 -0.54357104080E+03  0.54357104080E+03  0.00000000000E+00 0. -1.
         23    2    1    2    0    0 -0.48561075122E+01 -0.24100428921E+02 -0.19562051823E+03  0.21853474511E+03  0.94263647378E+02 0.  0.
         23    2    1    2    0    0  0.25170907721E+02  0.18504085683E+02 -0.31284672582E+03  0.32733621041E+03  0.91104033979E+02 0.  0.
        -11    1    4    4    0    0  0.45494965906E+01 -0.36904899121E+02 -0.12248709084E+03  0.12800686279E+03  0.00000000000E+00 0.  1.
         11    1    4    4    0    0  0.20621411130E+02  0.55408984804E+02 -0.19035963498E+03  0.19932934763E+03  0.00000000000E+00 0. -1.
        -13    1    3    3    0    0 -0.41960132940E+02  0.95934859729E+01 -0.59161530877E+02  0.73162657587E+02  0.00000000000E+00 0.  1.
         13    1    3    3    0    0  0.37104025428E+02 -0.33693914894E+02 -0.13645898735E+03  0.14537208753E+03  0.00000000000E+00 0. -1.
         21    1    1    2  502  501 -0.20314800209E+02  0.55963432380E+01 -0.96342943458E+01  0.23169587668E+02  0.00000000000E+00 0.  1.
<scales pt_clust_5="13000.00000" pt_clust_6="13000.00000" pt_clust_7="13000.00000" pt_clust_8="13000.00000" pt_clust_9="21.07155"></scales>
<clustering>
<clus scale="   21.072">  1  9  2 -1</clus>
<clus scale="   91.104">  5  6 -1 -1</clus>
<clus scale="   94.264">  7  8 -1 -1</clus>
<clus scale="   95.008">  2  5  1 -1</clus>
<clus scale="   95.008">  2  5  1 -1</clus>
</clustering>
</event>
<event>
 9    1  0.5300912E-006  0.9937959E+02  0.7546771E-02  0.1284370E+00
          2   -1    0    0  502    0  0.00000000000E+00  0.00000000000E+00  0.16605004176E+03  0.16605004176E+03  0.00000000000E+00 0. -1.
         -2   -1    0    0    0  501 -0.00000000000E+00 -0.00000000000E+00 -0.19537046506E+03  0.19537046506E+03  0.00000000000E+00 0.  1.
         23    2    1    2    0    0  0.26198708470E+01 -0.34853149289E+02 -0.11122329290E+03  0.14896856627E+03  0.92732988269E+02 0.  0.
         23    2    1    2    0    0 -0.39545881834E+02 -0.13205630050E+02  0.10928889120E+03  0.14594501807E+03  0.87278984429E+02 0.  0.
        -11    1    4    4    0    0 -0.83898872012E+01  0.34783242959E+02  0.62570627588E+02  0.72078759941E+02  0.00000000000E+00 0.  1.
         11    1    4    4    0    0 -0.31155994633E+02 -0.47988873008E+02  0.46718263614E+02  0.73866258124E+02  0.00000000000E+00 0. -1.
        -11    1    3    3    0    0  0.45176935569E+02 -0.12933529216E+02 -0.76689926492E+02  0.89942073084E+02  0.00000000000E+00 0. -1.
         11    1    3    3    0    0 -0.42557064722E+02 -0.21919620073E+02 -0.34533366413E+02  0.59026493185E+02  0.00000000000E+00 0.  1.
         21    1    1    2  502  501  0.36926010987E+02  0.48058779339E+02 -0.27386021594E+02  0.66506922479E+02  0.00000000000E+00 0. -1.
<scales pt_clust_5="13000.00000" pt_clust_6="13000.00000" pt_clust_7="13000.00000" pt_clust_8="13000.00000" pt_clust_9="60.60674"></scales>
<clustering>
<clus scale="   60.607">  2  9  1 -1</clus>
<clus scale="   87.279">  5  6 -1 -1</clus>
<clus scale="   92.733">  7  8 -1 -1</clus>
<clus scale="   94.311">  1  5  2 -1</clus>
<clus scale="   94.311">  1  5  2 -1</clus>
</clustering>
</event>
<event>
 9    1  0.5300912E-006  0.1696096E+03  0.7546771E-02  0.1180041E+00
          1   -1    0    0  502    0  0.00000000000E+00  0.00000000000E+00  0.25008311969E+03  0.25008311969E+03  0.00000000000E+00 0. -1.
         -1   -1    0    0    0  501 -0.00000000000E+00 -0.00000000000E+00 -0.61609451178E+03  0.61609451178E+03  0.00000000000E+00 0.  1.
         23    2    1    2    0    0  0.10253075914E+03 -0.13706739086E+03 -0.39738296862E+02  0.20454466223E+03  0.10468696386E+03 0.  0.
         23    2    1    2    0    0 -0.10064785546E+03  0.72238139610E+02  0.12897249613E+03  0.20179068584E+03  0.93473186039E+02 0.  0.
        -11    1    3    3    0    0  0.49849130015E+02 -0.42562016961E+02 -0.66197933286E+02  0.93159151039E+02  0.00000000000E+00 0.  1.
         11    1    3    3    0    0  0.52681629126E+02 -0.94505373903E+02  0.26459636424E+02  0.11138551119E+03  0.00000000000E+00 0. -1.
        -11    1    4    4    0    0 -0.91982575498E+02  0.10196686263E+02  0.77751229950E+02  0.12087191719E+03  0.00000000000E+00 0. -1.
         11    1    4    4    0    0 -0.86652799638E+01  0.62041453347E+02  0.51221266184E+02  0.80918768649E+02  0.00000000000E+00 0.  1.
         21    1    1    2  502  501 -0.18829036788E+01  0.64829251254E+02 -0.45524559137E+03  0.45984228340E+03  0.00000000000E+00 0.  1.
<scales pt_clust_5="13000.00000" pt_clust_6="13000.00000" pt_clust_7="13000.00000" pt_clust_8="13000.00000" pt_clust_9="64.85659"></scales>
<clustering>
<clus scale="   64.857">  2  9  1 -1</clus>
<clus scale="   93.473">  7  8 -1 -1</clus>
<clus scale="  104.687">  5  6 -1 -1</clus>
<clus scale="  162.927">  1  7  2 -1</clus>
<clus scale="  162.927">  1  5  2 -1</clus>
</clustering>
</event>
<event>
 9    1  0.5300912E-006  0.1301510E+03  0.7546771E-02  0.1242023E+00
         -3   -1    0    0    0  501 -0.00000000000E+00  0.00000000000E+00  0.63380366764E+02  0.63380366764E+02  0.00000000000E+00 0.  1.
          3   -1    0    0  502    0  0.00000000000E+00 -0.00000000000E+00 -0.55869325979E+03  0.55869325979E+03  0.00000000000E+00 0. -1.
         23    2    1    2    0    0  0.52675279338E+01 -0.11149745411E+02 -0.11647898831E+03  0.15101764293E+03  0.95325285664E+02 0.  0.
         23    2    1    2    0    0 -0.61712642749E+02 -0.69579043146E+02 -0.34249427721E+03  0.36606190371E+03  0.89717857233E+02 0.  0.
        -11    1    4    4    0    0 -0.43093471021E+02  0.11679252386E+02 -0.14428552350E+03  0.15103563975E+03  0.00000000000E+00 0.  1.
         11    1    4    4    0    0 -0.18619171728E+02 -0.81258295532E+02 -0.19820875371E+03  0.21502626397E+03  0.00000000000E+00 0. -1.
        -13    1    3    3    0    0  0.32625730257E+02 -0.25555108525E+00 -0.18637073247E+01  0.32679917169E+02  0.00000000000E+00 0.  1.
         13    1    3    3    0    0 -0.27358202323E+02 -0.10894194326E+02 -0.11461528098E+03  0.11833772577E+03  0.00000000000E+00 0. -1.
         21    1    1    2  502  501  0.56445114815E+02  0.80728788557E+02 -0.36339627506E+02  0.10499407991E+03  0.00000000000E+00 0.  1.
<scales pt_clust_5="13000.00000" pt_clust_6="13000.00000" pt_clust_7="13000.00000" pt_clust_8="13000.00000" pt_clust_9="94.28673"></scales>
<clustering>
<clus scale="   89.718">  5  6 -1 -1</clus>
<clus scale="   95.325">  7  8 -1 -1</clus>
<clus scale="   96.120">  1  7  2 -1</clus>
<clus scale="   94.287">  1  9  2 -1</clus>
<clus scale="  130.151">  2  5  1 -1</clus>
</clustering>
</event>
<event>
 9    1  0.5300912E-006  0.1209193E+03  0.7546771E-02  0.1243379E+00
          1   -1    0    0  502    0  0.00000000000E+00  0.00000000000E+00  0.47749006475E+03  0.47749006475E+03  0.00000000000E+00 0. -1.
         -1   -1    0    0    0  501 -0.00000000000E+00 -0.00000000000E+00 -0.44300220715E+02  0.44300220715E+02  0.00000000000E+00 0.  1.
         23    2    1    2    0    0 -0.41785762862E+02 -0.58935468111E+02  0.96356482964E+02  0.15106611219E+03  0.91197363248E+02 0.  0.
         23    2    1    2    0    0  0.63771672100E+02  0.72563811133E+02  0.27738317815E+03  0.30589026095E+03  0.85411307056E+02 0.  0.
        -11    1    3    3    0    0 -0.21685686807E+02 -0.33020391042E+02 -0.91748789395E+01  0.40556055534E+02  0.00000000000E+00 0.  1.
         11    1    3    3    0    0 -0.20100076055E+02 -0.25915077069E+02  0.10553136190E+03  0.11051005666E+03  0.00000000000E+00 0. -1.
        -13    1    4    4    0    0  0.49003673516E+02  0.86936079261E+02  0.17501338076E+03  0.20146693362E+03  0.00000000000E+00 0. -1.
         13    1    4    4    0    0  0.14767998584E+02 -0.14372268128E+02  0.10236979739E+03  0.10442332733E+03  0.00000000000E+00 0.  1.
         21    1    1    2  502  501 -0.21985909238E+02 -0.13628343022E+02  0.59450182924E+02  0.64833912332E+02  0.00000000000E+00 0. -1.
<scales pt_clust_5="13000.00000" pt_clust_6="13000.00000" pt_clust_7="13000.00000" pt_clust_8="13000.00000" pt_clust_9="25.86720"></scales>
<clustering>
<clus scale="   25.867">  1  9  2 -1</clus>
<clus scale="   85.411">  7  8 -1 -1</clus>
<clus scale="   91.197">  5  6 -1 -1</clus>
<clus scale="  116.617">  1  7  2 -1</clus>
<clus scale="   25.867">  1  5  2 -1</clus>
</clustering>
</event>
<event>
 9    1  0.5300912E-006  0.9495885E+02  0.7546771E-02  0.1292952E+00
          1   -1    0    0  502    0  0.00000000000E+00  0.00000000000E+00  0.57682209113E+03  0.57682209113E+03  0.00000000000E+00 0. -1.
         -1   -1    0    0    0  501 -0.00000000000E+00 -0.00000000000E+00 -0.33398095126E+02  0.33398095126E+02  0.00000000000E+00 0.  1.
         23    2    1    2    0    0 -0.23445784140E+02 -0.41255896988E+02  0.19102190897E+03  0.21831562307E+03  0.94448863083E+02 0.  0.
         23    2    1    2    0    0 -0.14761913471E+02 -0.24102736589E+02  0.19593946338E+03  0.21808818956E+03  0.91494967719E+02 0.  0.
        -11    1    3    3    0    0  0.34300075459E+02  0.63110243484E+00  0.58754606159E+02  0.68036734281E+02  0.00000000000E+00 0.  1.
         11    1    3    3    0    0 -0.57745859598E+02 -0.41886999423E+02  0.13226730281E+03  0.15027888878E+03  0.00000000000E+00 0. -1.
        -11    1    4    4    0    0 -0.32235294687E+02  0.22950168473E+02  0.50032325290E+02  0.63789168598E+02  0.00000000000E+00 0.  1.
         11    1    4    4    0    0  0.17473381216E+02 -0.47052905062E+02  0.14590713809E+03  0.15429902097E+03  0.00000000000E+00 0. -1.
         21    1    1    2  502  501  0.38207697610E+02  0.65358633577E+02  0.15646262365E+03  0.17381637363E+03  0.00000000000E+00 0.  1.
<scales pt_clust_5="13000.00000" pt_clust_6="13000.00000" pt_clust_7="13000.00000" pt_clust_8="13000.00000" pt_clust_9="75.70719"></scales>
<clustering>
<clus scale="   75.707">  1  9  2 -1</clus>
<clus scale="   91.495">  7  8 -1 -1</clus>
<clus scale="   92.021">  1  7  2 -1</clus>
<clus scale="   94.449">  5  6 -1 -1</clus>
<clus scale="   75.707">  1  5  2 -1</clus>
</clustering>
</event>
<event>
 9    1  0.5300912E-006  0.1237621E+03  0.7546771E-02  0.1237292E+00
          1   -1    0    0  502    0  0.00000000000E+00  0.00000000000E+00  0.21246903847E+03  0.21246903847E+03  0.00000000000E+00 0. -1.
         -1   -1    0    0    0  501 -0.00000000000E+00 -0.00000000000E+00 -0.12955590086E+03  0.12955590086E+03  0.00000000000E+00 0.  1.
         23    2    1    2    0    0 -0.47705094801E+02 -0.80173589494E+02 -0.48368719372E+02  0.13961653488E+03  0.91922049996E+02 0.  0.
         23    2    1    2    0    0  0.12013857745E+02  0.56062028338E+02  0.79264030975E+02  0.13487259169E+03  0.92846893232E+02 0.  0.
        -11    1    3    3    0    0 -0.67430980840E+02 -0.53505480929E+02 -0.59483696607E+02  0.10463309146E+03  0.00000000000E+00 0.  1.
         11    1    3    3    0    0  0.19725886039E+02 -0.26668108565E+02  0.11114977235E+02  0.34983443418E+02  0.00000000000E+00 0. -1.
        -11    1    4    4    0    0 -0.40762353476E+02  0.22585143975E+02  0.32469048587E+02  0.56796983242E+02  0.00000000000E+00 0.  1.
         11    1    4    4    0    0  0.52776211221E+02  0.33476884363E+02  0.46794982388E+02  0.78075608446E+02  0.00000000000E+00 0. -1.
         21    1    1    2  502  501  0.35691237056E+02  0.24111561155E+02  0.52017826004E+02  0.67535812767E+02  0.00000000000E+00 0. -1.
<scales pt_clust_5="13000.00000" pt_clust_6="13000.00000" pt_clust_7="13000.00000" pt_clust_8="13000.00000" pt_clust_9="43.07240"></scales>
<clustering>
<clus scale="   43.072">  1  9  2 -1</clus>
<clus scale="   91.922">  5  6 -1 -1</clus>
<clus scale="   92.847">  7  8 -1 -1</clus>
<clus scale="  123.070">  2  5  1 -1</clus>
<clus scale="   43.072">  1  5  2 -1</clus>
</clustering>
</event>
<event>
 9    1  0.5300912E-006  0.1862357E+03  0.7546771E-02  0.1191878E+00
         -2   -1    0    0    0  501 -0.00000000000E+00  0.00000000000E+00  0.38314903463E+02  0.38314903463E+02  0.00000000000E+00 0.  1.
          2   -1    0    0  502    0  0.00000000000E+00 -0.00000000000E+00 -0.13777156735E+04  0.13777156735E+04  0.00000000000E+00 0. -1.
         23    2    1    2    0    0 -0.20191005472E+02  0.19513925741E+02 -0.25143910010E+03  0.26863792844E+03  0.90311934636E+02 0.  0.
         23    2    1    2    0    0  0.11417299047E+03 -0.14072797828E+03 -0.49508711108E+03  0.53499922711E+03  0.90956527166E+02 0.  0.
        -11    1    3    3    0    0 -0.54999258844E+02  0.12038628953E+02 -0.18339801553E+03  0.19184545645E+03  0.00000000000E+00 0.  1.
         11    1    3    3    0    0  0.34808253371E+02  0.74752967887E+01 -0.68041084569E+02  0.76792471989E+02  0.00000000000E+00 0. -1.
        -13    1    4    4    0    0  0.51164395358E+02 -0.75906954454E+02 -0.36687476503E+03  0.37812267097E+03  0.00000000000E+00 0. -1.
         13    1    4    4    0    0  0.63008595113E+02 -0.64821023830E+02 -0.12821234604E+03  0.15687655614E+03  0.00000000000E+00 0.  1.
         21    1    1    2  502  501 -0.93981984998E+02  0.12121405254E+03 -0.59287455884E+03  0.61239342138E+03  0.00000000000E+00 0. -1.
<scales pt_clust_5="13000.00000" pt_clust_6="13000.00000" pt_clust_7="13000.00000" pt_clust_8="13000.00000" pt_clust_9="162.51358"></scales>
<clustering>
<clus scale="   90.312">  5  6 -1 -1</clus>
<clus scale="   90.957">  7  8 -1 -1</clus>
<clus scale="   94.577">  1  5  2 -1</clus>
<clus scale="  162.514">  2  9  1 -1</clus>
<clus scale="  162.514">  2  5  1 -1</clus>
</clustering>
</event>
<event>
 9    1  0.5300912E-006  0.2480251E+03  0.7546771E-02  0.1134446E+00
         -2   -1    0    0    0  501 -0.00000000000E+00  0.00000000000E+00  0.13711934625E+03  0.13711934625E+03  0.00000000000E+00 0.  1.
          2   -1    0    0  502    0  0.00000000000E+00 -0.00000000000E+00 -0.11405869567E+04  0.11405869567E+04  0.00000000000E+00 0. -1.
         23    2    1    2    0    0 -0.12368299129E+03  0.28308441728E+03 -0.73538263413E+03  0.80288643519E+03  0.91677366830E+02 0.  0.
         23    2    1    2    0    0 -0.18673827422E+02 -0.11920524444E+03 -0.19256934286E+03  0.24498414816E+03  0.91518735285E+02 0.  0.
        -11    1    4    4    0    0  0.29620045681E+02 -0.82316678990E+02 -0.13751473163E+03  0.16298369293E+03  0.00000000000E+00 0.  1.
         11    1    4    4    0    0 -0.48293873103E+02 -0.36888565445E+02 -0.55054611229E+02  0.82000455228E+02  0.00000000000E+00 0. -1.
        -11    1    3    3    0    0 -0.32969476278E+02  0.57883812422E+02 -0.26863107030E+03  0.27676736447E+03  0.00000000000E+00 0.  1.
         11    1    3    3    0    0 -0.90713515013E+02  0.22520060485E+03 -0.46675156384E+03  0.52611907072E+03  0.00000000000E+00 0. -1.
         21    1    1    2  502  501  0.14235681871E+03 -0.16387917284E+03 -0.75515633501E+02  0.22983571965E+03  0.00000000000E+00 0.  1.
<scales pt_clust_5="13000.00000" pt_clust_6="13000.00000" pt_clust_7="13000.00000" pt_clust_8="13000.00000" pt_clust_9="230.45981"></scales>
<clustering>
<clus scale="   91.519">  5  6 -1 -1</clus>
<clus scale="   91.677">  7  8 -1 -1</clus>
<clus scale="  151.441">  2  5  1 -1</clus>
<clus scale="  230.460">  1  9  2 -1</clus>
<clus scale="  151.441">  2  5  1 -1</clus>
</clustering>
</event>
<event>
 9    1  0.5300912E-006  0.4395827E+03  0.7546771E-02  0.1070675E+00
         -2   -1    0    0    0  501 -0.00000000000E+00  0.00000000000E+00  0.15173828562E+03  0.15173828562E+03  0.00000000000E+00 0.  1.
          2   -1    0    0  502    0  0.00000000000E+00 -0.00000000000E+00 -0.35879044097E+04  0.35879044097E+04  0.00000000000E+00 0. -1.
         23    2    1    2    0    0 -0.10320572359E+03  0.34258657499E+02 -0.23383575509E+03  0.27326160493E+03  0.90375148012E+02 0.  0.
         23    2    1    2    0    0 -0.18244688829E+03  0.30197916702E+03 -0.16999500268E+03  0.40211754703E+03  0.91224647634E+02 0.  0.
        -11    1    3    3    0    0 -0.70059159782E+01  0.44118906141E+02 -0.76046265464E+02  0.88196344759E+02  0.00000000000E+00 0.  1.
         11    1    3    3    0    0 -0.96199807613E+02 -0.98602486418E+01 -0.15778948962E+03  0.18506526018E+03  0.00000000000E+00 0. -1.
        -11    1    4    4    0    0 -0.10846530713E+03  0.23949002730E+03 -0.94676496344E+02  0.27943484927E+03  0.00000000000E+00 0.  1.
         11    1    4    4    0    0 -0.73981581155E+02  0.62489139719E+02 -0.75318506339E+02  0.12268269776E+03  0.00000000000E+00 0. -1.
         21    1    1    2  502  501  0.28565261188E+03 -0.33623782452E+03 -0.30323353663E+04  0.30642635433E+04  0.00000000000E+00 0. -1.
<scales pt_clust_5="13000.00000" pt_clust_6="13000.00000" pt_clust_7="13000.00000" pt_clust_8="13000.00000" pt_clust_9="430.01278"></scales>
<clustering>
<clus scale="   90.375">  5  6 -1 -1</clus>
<clus scale="   91.225">  7  8 -1 -1</clus>
<clus scale="  141.396">  1  5  2 -1</clus>
<clus scale="  430.013">  2  9  1 -1</clus>
<clus scale="  430.013">  2  5  1 -1</clus>
</clustering>
</event>
<event>
 9    1  0.5300912E-006  0.1330377E+03  0.7546771E-02  0.1223322E+00
          1   -1    0    0  502    0  0.00000000000E+00  0.00000000000E+00  0.47516559466E+03  0.47516559466E+03  0.00000000000E+00 0.  1.
         -1   -1    0    0    0  501 -0.00000000000E+00 -0.00000000000E+00 -0.77165999162E+02  0.77165999162E+02  0.00000000000E+00 0. -1.
         23    2    1    2    0    0  0.13427720163E+03 -0.16900023758E+02  0.17618786480E+03  0.24055758260E+03  0.92248626866E+02 0.  0.
         23    2    1    2    0    0 -0.53571504043E+02  0.61229645828E+02  0.15832914830E+03  0.19993232274E+03  0.91026583485E+02 0.  0.
        -13    1    4    4    0    0 -0.40100298990E+02 -0.15902708625E+02  0.66327134110E+02  0.79121544727E+02  0.00000000000E+00 0.  1.
         13    1    4    4    0    0 -0.13471205053E+02  0.77132354453E+02  0.92002014195E+02  0.12081077802E+03  0.00000000000E+00 0. -1.
        -13    1    3    3    0    0  0.16340846604E+02 -0.33294587981E+02  0.14647450728E+02  0.39876066373E+02  0.00000000000E+00 0. -1.
         13    1    3    3    0    0  0.11793635503E+03  0.16394564223E+02  0.16154041408E+03  0.20068151622E+03  0.00000000000E+00 0.  1.
         21    1    1    2  502  501 -0.80705697590E+02 -0.44329622070E+02  0.63482582392E+02  0.11184168849E+03  0.00000000000E+00 0. -1.
<scales pt_clust_5="13000.00000" pt_clust_6="13000.00000" pt_clust_7="13000.00000" pt_clust_8="13000.00000" pt_clust_9="92.07891"></scales>
<clustering>
<clus scale="   91.027">  5  6 -1 -1</clus>
<clus scale="   92.079">  2  9  1 -1</clus>
<clus scale="   92.249">  7  8 -1 -1</clus>
<clus scale="  132.193">  1  5  2 -1</clus>
<clus scale="  132.193">  1  5  2 -1</clus>
</clustering>
</event>
<event>
 9    1  0.5582764E-006  0.1562282E+03  0.7546771E-02  0.1215380E+00
          1   -1    0    0  502    0  0.00000000000E+00  0.00000000000E+00  0.38139696147E+03  0.38139696147E+03  0.00000000000E+00 0. -1.
         -1   -1    0    0    0  501 -0.00000000000E+00 -0.00000000000E+00 -0.25699916510E+03  0.25699916510E+03  0.00000000000E+00 0.  1.
         23    2    1    2    0    0 -0.27803201553E+02  0.12538262915E+02 -0.19275657074E+02  0.98368355194E+02  0.91512601834E+02 0.  0.
         23    2    1    2    0    0  0.10448483715E+03  0.75809610013E+02  0.30354213882E+03  0.34192825988E+03  0.90071786388E+02 0.  0.
        -11    1    3    3    0    0  0.18695057246E+02  0.38107871924E+02 -0.17444924269E+01  0.42482447220E+02  0.00000000000E+00 0.  1.
         11    1    3    3    0    0 -0.46498258799E+02 -0.25569609009E+02 -0.17531164647E+02  0.55885907974E+02  0.00000000000E+00 0. -1.
        -13    1    4    4    0    0  0.63349201465E+02  0.29126030942E+02  0.64714288332E+02  0.95128261410E+02  0.00000000000E+00 0.  1.
         13    1    4    4    0    0  0.41135635689E+02  0.46683579070E+02  0.23882785048E+03  0.24679999847E+03  0.00000000000E+00 0. -1.
         21    1    1    2  502  501 -0.76681635601E+02 -0.88347872928E+02 -0.15986868537E+03  0.19809951149E+03  0.00000000000E+00 0.  1.
<scales pt_clust_5="13000.00000" pt_clust_6="13000.00000" pt_clust_7="13000.00000" pt_clust_8="13000.00000" pt_clust_9="127.64923"></scales>
<clustering>
<clus scale="   90.072">  7  8 -1 -1</clus>
<clus scale="   91.513">  5  6 -1 -1</clus>
<clus scale="   96.461">  2  5  1 -1</clus>
<clus scale="  127.649">  2  9  1 -1</clus>
<clus scale="  156.228">  1  5  2 -1</clus>
</clustering>
</event>
<event>
 9    1  0.5300912E-006  0.9509106E+02  0.7546771E-02  0.1292265E+00
         -2   -1    0    0    0  501 -0.00000000000E+00  0.00000000000E+00  0.69479165357E+02  0.69479165357E+02  0.00000000000E+00 0.  1.
          2   -1    0    0  502    0  0.00000000000E+00 -0.00000000000E+00 -0.69110507129E+03  0.69110507129E+03  0.00000000000E+00 0. -1.
         23    2    1    2    0    0  0.29393015610E+02 -0.52212699847E+01  0.27004310363E+02  0.99679236956E+02  0.91189398918E+02 0.  0.
         23    2    1    2    0    0  0.53469143499E+01  0.14189750586E+01 -0.39647276534E+03  0.40633732646E+03  0.88818726833E+02 0.  0.
        -11    1    3    3    0    0 -0.21641585539E+02 -0.29197157593E+02 -0.17489031761E+01  0.36385311576E+02  0.00000000000E+00 0. -1.
         11    1    3    3    0    0  0.51034601149E+02  0.23975887609E+02  0.28753213539E+02  0.63293925380E+02  0.00000000000E+00 0.  1.
        -13    1    4    4    0    0  0.30256695249E+02 -0.33390580876E+02 -0.23541401482E+03  0.23968762353E+03  0.00000000000E+00 0.  1.
         13    1    4    4    0    0 -0.24909780900E+02  0.34809555935E+02 -0.16105875052E+03  0.16664970293E+03  0.00000000000E+00 0. -1.
         21    1    1    2  502  501 -0.34739929960E+02  0.38022949261E+01 -0.25215745096E+03  0.25456767323E+03  0.00000000000E+00 0. -1.
<scales pt_clust_5="13000.00000" pt_clust_6="13000.00000" pt_clust_7="13000.00000" pt_clust_8="13000.00000" pt_clust_9="34.94739"></scales>
<clustering>
<clus scale="   34.947">  2  9  1 -1</clus>
<clus scale="   88.819">  7  8 -1 -1</clus>
<clus scale="   91.189">  5  6 -1 -1</clus>
<clus scale="   92.820">  2  7  1 -1</clus>
<clus scale="   34.947">  2  5  1 -1</clus>
</clustering>
</event>
<event>
 9    1  0.5300912E-006  0.1801945E+03  0.7546771E-02  0.1178761E+00
         -1   -1    0    0    0  501 -0.00000000000E+00  0.00000000000E+00  0.16452118531E+03  0.16452118531E+03  0.00000000000E+00 0.  1.
          1   -1    0    0  502    0  0.00000000000E+00 -0.00000000000E+00 -0.11953583913E+04  0.11953583913E+04  0.00000000000E+00 0. -1.
         23    2    1    2    0    0  0.14711831993E+03  0.19592431789E+02  0.71450825356E+02  0.18926772451E+03  0.93216885031E+02 0.  0.
         23    2    1    2    0    0  0.94528972215E+02 -0.41880608924E+02 -0.27568706018E+03  0.30912514751E+03  0.94155667272E+02 0.  0.
        -11    1    3    3    0    0 -0.39233380165E+00 -0.21689087849E+02  0.13165932559E+02  0.25375425862E+02  0.00000000000E+00 0. -1.
         11    1    3    3    0    0  0.14751065373E+03  0.41281519638E+02  0.58284892797E+02  0.16389229865E+03  0.00000000000E+00 0.  1.
        -13    1    4    4    0    0  0.74791704605E+02 -0.60847728873E+02 -0.13557127302E+03  0.16636049788E+03  0.00000000000E+00 0.  1.
         13    1    4    4    0    0  0.19737267610E+02  0.18967119948E+02 -0.14011578716E+03  0.14276464963E+03  0.00000000000E+00 0. -1.
         21    1    1    2  502  501 -0.24164729215E+03  0.22288177136E+02 -0.82660097121E+03  0.86148670463E+03  0.00000000000E+00 0. -1.
<scales pt_clust_5="13000.00000" pt_clust_6="13000.00000" pt_clust_7="13000.00000" pt_clust_8="13000.00000" pt_clust_9="154.20983"></scales>
<clustering>
<clus scale="   93.217">  5  6 -1 -1</clus>
<clus scale="   94.156">  7  8 -1 -1</clus>
<clus scale="  139.839">  2  7  1 -1</clus>
<clus scale="  154.210">  2  9  1 -1</clus>
<clus scale="  139.839">  2  5  1 -1</clus>
</clustering>
</event>
<event>
 9    1  0.5300912E-006  0.1465575E+03  0.7546771E-02  0.1205094E+00
          2   -1    0    0  502    0  0.00000000000E+00  0.00000000000E+00  0.86599803848E+03  0.86599803848E+03  0.00000000000E+00 0. -1.
         -2   -1    0    0    0  501 -0.00000000000E+00 -0.00000000000E+00 -0.10729813947E+03  0.10729813947E+03  0.00000000000E+00 0.  1.
         23    2    1    2    0    0  0.37709079004E+02 -0.55150805815E+02  0.50547297879E+02  0.12128276278E+03  0.87697737734E+02 0.  0.
         23    2    1    2    0    0 -0.13236956066E+03  0.16289611770E+02  0.72994354880E+03  0.74739198051E+03  0.89387560946E+02 0.  0.
        -11    1    4    4    0    0 -0.60471766837E+02 -0.34308985237E+02  0.25127589568E+03  0.26071731205E+03  0.00000000000E+00 0. -1.
         11    1    4    4    0    0 -0.71897793819E+02  0.50598597008E+02  0.47866765313E+03  0.48667466847E+03  0.00000000000E+00 0.  1.
        -13    1    3    3    0    0 -0.23829966884E+02 -0.23611548230E+02  0.38544407951E+02  0.51098374884E+02  0.00000000000E+00 0. -1.
         13    1    3    3    0    0  0.61539045888E+02 -0.31539257585E+02  0.12002889929E+02  0.70184387897E+02  0.00000000000E+00 0.  1.
         21    1    1    2  502  501  0.94660481651E+02  0.38861194045E+02 -0.21790947667E+02  0.10462143466E+03  0.00000000000E+00 0.  1.
<scales pt_clust_5="13000.00000" pt_clust_6="13000.00000" pt_clust_7="13000.00000" pt_clust_8="13000.00000" pt_clust_9="102.32692"></scales>
<clustering>
<clus scale="   87.698">  7  8 -1 -1</clus>
<clus scale="   89.388">  5  6 -1 -1</clus>
<clus scale="  102.327">  2  9  1 -1</clus>
<clus scale="  145.533">  2  7  1 -1</clus>
<clus scale="  146.557">  1  5  2 -1</clus>
</clustering>
</event>
<event>
 9    1  0.5300912E-006  0.1027717E+03  0.7546771E-02  0.1276158E+00
          2   -1    0    0  502    0  0.00000000000E+00  0.00000000000E+00  0.37044129809E+03  0.37044129809E+03  0.00000000000E+00 0. -1.
         -2   -1    0    0    0  501 -0.00000000000E+00 -0.00000000000E+00 -0.61307896204E+02  0.61307896204E+02  0.00000000000E+00 0.  1.
         23    2    1    2    0    0 -0.36351689794E+02  0.30891532756E+02  0.12840982574E+02  0.10477731649E+03  0.92399475489E+02 0.  0.
         23    2    1    2    0    0  0.76096655463E+01 -0.43944532335E+02  0.17183082267E+03  0.19856948766E+03  0.88966178281E+02 0.  0.
        -11    1    3    3    0    0 -0.29214776818E+01  0.49008741625E+02  0.35434503614E+02  0.60547467610E+02  0.00000000000E+00 0. -1.
         11    1    3    3    0    0 -0.33430212112E+02 -0.18117208870E+02 -0.22593521040E+02  0.44229848881E+02  0.00000000000E+00 0.  1.
        -13    1    4    4    0    0  0.46240935398E+02 -0.13331756895E+02  0.64622430101E+02  0.80573062003E+02  0.00000000000E+00 0. -1.
         13    1    4    4    0    0 -0.38631269852E+02 -0.30612775440E+02  0.10720839257E+03  0.11799642565E+03  0.00000000000E+00 0.  1.
         21    1    1    2  502  501  0.28742024248E+02  0.13052999579E+02  0.12446159665E+03  0.12840239015E+03  0.00000000000E+00 0.  1.
<scales pt_clust_5="13000.00000" pt_clust_6="13000.00000" pt_clust_7="13000.00000" pt_clust_8="13000.00000" pt_clust_9="31.56715"></scales>
<clustering>
<clus scale="   31.567">  1  9  2 -1</clus>
<clus scale="   88.966">  7  8 -1 -1</clus>
<clus scale="   92.399">  5  6 -1 -1</clus>
<clus scale="   99.696">  1  7  2 -1</clus>
<clus scale="   31.567">  1  5  2 -1</clus>
</clustering>
</event>
<event>
 9    1  0.5300912E-006  0.1323133E+03  0.7546771E-02  0.1227722E+00
          1   -1    0    0  502    0  0.00000000000E+00  0.00000000000E+00  0.88277786097E+03  0.88277786097E+03  0.00000000000E+00 0. -1.
         -1   -1    0    0    0  501 -0.00000000000E+00 -0.00000000000E+00 -0.28884264420E+02  0.28884264420E+02  0.00000000000E+00 0.  1.
         23    2    1    2    0    0  0.53103878043E+02  0.71050828912E+02  0.18920855743E+03  0.23328504786E+03  0.10370049759E+03 0.  0.
         23    2    1    2    0    0 -0.39602363551E+02 -0.52182923164E+02  0.53372699953E+03  0.54537972081E+03  0.91011676018E+02 0.  0.
        -11    1    3    3    0    0 -0.91913198637E+01 -0.20877120627E+02  0.17299261032E+02  0.28628638786E+02  0.00000000000E+00 0. -1.
         11    1    3    3    0    0  0.62295197907E+02  0.91927949539E+02  0.17190929640E+03  0.20465640908E+03  0.00000000000E+00 0.  1.
        -11    1    4    4    0    0 -0.42933225956E+02 -0.76352044065E+02  0.42846470803E+03  0.43732699728E+03  0.00000000000E+00 0. -1.
         11    1    4    4    0    0  0.33308624051E+01  0.24169120901E+02  0.10526229150E+03  0.10805272353E+03  0.00000000000E+00 0.  1.
         21    1    1    2  502  501 -0.13501514492E+02 -0.18867905748E+02  0.13095803959E+03  0.13299735672E+03  0.00000000000E+00 0. -1.
<scales pt_clust_5="13000.00000" pt_clust_6="13000.00000" pt_clust_7="13000.00000" pt_clust_8="13000.00000" pt_clust_9="23.20105"></scales>
<clustering>
<clus scale="   23.201">  1  9  2 -1</clus>
<clus scale="   91.012">  7  8 -1 -1</clus>
<clus scale="  103.700">  5  6 -1 -1</clus>
<clus scale="  122.622">  1  7  2 -1</clus>
<clus scale="   23.201">  1  5  2 -1</clus>
</clustering>
</event>
<event>
 9    1  0.5300912E-006  0.4227040E+03  0.7546771E-02  0.1084371E+00
          2   -1    0    0  502    0  0.00000000000E+00  0.00000000000E+00  0.27651937277E+04  0.27651937277E+04  0.00000000000E+00 0. -1.
         -2   -1    0    0    0  501 -0.00000000000E+00 -0.00000000000E+00 -0.11388768874E+03  0.11388768874E+03  0.00000000000E+00 0.  1.
         23    2    1    2    0    0 -0.32431195286E+02 -0.50850207922E+02  0.16498528762E+02  0.11099641667E+03  0.91708652751E+02 0.  0.
         23    2    1    2    0    0  0.41037342845E+03 -0.92463949216E+02  0.16066112250E+04  0.16632923133E+04  0.91573786635E+02 0.  0.
        -11    1    3    3    0    0  0.22615326419E+02 -0.46547156437E+02  0.20441801770E+02  0.55641333745E+02  0.00000000000E+00 0.  1.
         11    1    3    3    0    0 -0.55046521705E+02 -0.43030514859E+01 -0.39432730080E+01  0.55355082927E+02  0.00000000000E+00 0. -1.
        -13    1    4    4    0    0  0.23021191694E+03 -0.50419209382E+02  0.72009960335E+03  0.75768269224E+03  0.00000000000E+00 0.  1.
         13    1    4    4    0    0  0.18016151151E+03 -0.42044739834E+02  0.88651162167E+03  0.90560962105E+03  0.00000000000E+00 0. -1.
         21    1    1    2  502  501 -0.37794223316E+03  0.14331415714E+03  0.10281962852E+04  0.11047926865E+04  0.00000000000E+00 0. -1.
<scales pt_clust_5="13000.00000" pt_clust_6="13000.00000" pt_clust_7="13000.00000" pt_clust_8="13000.00000" pt_clust_9="412.66559"></scales>
<clustering>
<clus scale="   91.574">  7  8 -1 -1</clus>
<clus scale="   91.709">  5  6 -1 -1</clus>
<clus scale="  109.763">  2  5  1 -1</clus>
<clus scale="  412.666">  2  9  1 -1</clus>
<clus scale="  422.704">  1  5  2 -1</clus>
</clustering>
</event>
<event>
 9    1  0.5300912E-006  0.9049013E+02  0.7546771E-02  0.1302473E+00
          1   -1    0    0  502    0  0.00000000000E+00  0.00000000000E+00  0.28110377683E+03  0.28110377683E+03  0.00000000000E+00 0. -1.
         -1   -1    0    0    0  501 -0.00000000000E+00 -0.00000000000E+00 -0.95370042182E+02  0.95370042182E+02  0.00000000000E+00 0.  1.
         23    2    1    2    0    0  0.10891613567E+02  0.85452095760E+01  0.29967893478E+02  0.95054001311E+02  0.89137762328E+02 0.  0.
         23    2    1    2    0    0  0.18474337590E+02 -0.10611154249E+02  0.20501872998E+03  0.22403973169E+03  0.87790796719E+02 0.  0.
        -11    1    3    3    0    0  0.13927016659E+01 -0.36934808100E+02  0.31506311121E+02  0.48567142265E+02  0.00000000000E+00 0. -1.
         11    1    3    3    0    0  0.94989119014E+01  0.45480017676E+02 -0.15384176439E+01  0.46486859046E+02  0.00000000000E+00 0.  1.
        -11    1    4    4    0    0 -0.95605841953E+01 -0.39751431022E+02  0.54181883086E+02  0.67876781695E+02  0.00000000000E+00 0. -1.
         11    1    4    4    0    0  0.28034921786E+02  0.29140276773E+02  0.15083684689E+03  0.15616294999E+03  0.00000000000E+00 0.  1.
         21    1    1    2  502  501 -0.29365951158E+02  0.20659446730E+01 -0.49252888809E+02  0.57380086013E+02  0.00000000000E+00 0. -1.
<scales pt_clust_5="13000.00000" pt_clust_6="13000.00000" pt_clust_7="13000.00000" pt_clust_8="13000.00000" pt_clust_9="29.43853"></scales>
<clustering>
<clus scale="   29.439">  2  9  1 -1</clus>
<clus scale="   87.791">  7  8 -1 -1</clus>
<clus scale="   89.138">  5  6 -1 -1</clus>
<clus scale="   89.164">  1  7  2 -1</clus>
<clus scale="   89.164">  1  5  2 -1</clus>
</clustering>
</event>
<event>
 9    1  0.5300912E-006  0.2265191E+03  0.7546771E-02  0.1155626E+00
         -2   -1    0    0    0  501 -0.00000000000E+00  0.00000000000E+00  0.94374731059E+02  0.94374731059E+02  0.00000000000E+00 0.  1.
          2   -1    0    0  502    0  0.00000000000E+00 -0.00000000000E+00 -0.16083897979E+04  0.16083897979E+04  0.00000000000E+00 0. -1.
         23    2    1    2    0    0 -0.25176117818E+03  0.36988309430E+02 -0.10553734462E+04  0.10897062861E+04  0.94312528386E+02 0.  0.
         23    2    1    2    0    0  0.67917610286E+02  0.42515945040E+02 -0.37903288134E+03  0.39751953335E+03  0.89081125302E+02 0.  0.
        -11    1    4    4    0    0  0.30335110014E+02  0.58656320793E+02 -0.31264727642E+03  0.31954514911E+03  0.00000000000E+00 0. -1.
         11    1    4    4    0    0  0.37582500271E+02 -0.16140375753E+02 -0.66385604929E+02  0.77974384242E+02  0.00000000000E+00 0.  1.
        -13    1    3    3    0    0 -0.19904492641E+03 -0.44381790938E+01 -0.87257173530E+03  0.89499721419E+03  0.00000000000E+00 0. -1.
         13    1    3    3    0    0 -0.52716251761E+02  0.41426488524E+02 -0.18280171095E+03  0.19470907189E+03  0.00000000000E+00 0.  1.
         21    1    1    2  502  501  0.18384356789E+03 -0.79504254470E+02 -0.79608739224E+02  0.21553870950E+03  0.00000000000E+00 0.  1.
<scales pt_clust_5="13000.00000" pt_clust_6="13000.00000" pt_clust_7="13000.00000" pt_clust_8="13000.00000" pt_clust_9="205.95162"></scales>
<clustering>
<clus scale="   89.081">  5  6 -1 -1</clus>
<clus scale="   94.313">  7  8 -1 -1</clus>
<clus scale="  119.816">  2  5  1 -1</clus>
<clus scale="  205.952">  1  9  2 -1</clus>
<clus scale="  119.816">  2  5  1 -1</clus>
</clustering>
</event>
<event>
 9    1  0.5300912E-006  0.2368057E+03  0.7546771E-02  0.1154636E+00
          2   -1    0    0  502    0  0.00000000000E+00  0.00000000000E+00  0.35924814093E+03  0.35924814093E+03  0.00000000000E+00 0. -1.
         -2   -1    0    0    0  501 -0.00000000000E+00 -0.00000000000E+00 -0.35088425755E+03  0.35088425755E+03  0.00000000000E+00 0.  1.
         23    2    1    2    0    0  0.31525208149E+02 -0.45647698870E+02 -0.16882349693E+03  0.20005668770E+03  0.91889901608E+02 0.  0.
         23    2    1    2    0    0 -0.60812110590E+02  0.24738413192E+03  0.59257608724E+02  0.27457041975E+03  0.83548965830E+02 0.  0.
        -13    1    4    4    0    0  0.15527372375E+02  0.47211324752E+02 -0.73037435174E+01  0.50232988634E+02  0.00000000000E+00 0. -1.
         13    1    4    4    0    0 -0.76339482965E+02  0.20017280717E+03  0.66561352242E+02  0.22433743112E+03  0.00000000000E+00 0.  1.
        -13    1    3    3    0    0  0.20975759377E+02 -0.74061859996E+02 -0.11825978536E+03  0.14110463643E+03  0.00000000000E+00 0. -1.
         13    1    3    3    0    0  0.10549448772E+02  0.28414161126E+02 -0.50563711573E+02  0.58952051278E+02  0.00000000000E+00 0.  1.
         21    1    1    2  502  501  0.29286902441E+02 -0.20173643305E+03  0.11792977159E+03  0.23550529103E+03  0.00000000000E+00 0. -1.
<scales pt_clust_5="13000.00000" pt_clust_6="13000.00000" pt_clust_7="13000.00000" pt_clust_8="13000.00000" pt_clust_9="221.57729"></scales>
<clustering>
<clus scale="   83.549">  5  6 -1 -1</clus>
<clus scale="   91.890">  7  8 -1 -1</clus>
<clus scale="  107.337">  2  7  1 -1</clus>
<clus scale="  221.577">  1  9  2 -1</clus>
<clus scale="  221.577">  1  5  2 -1</clus>
</clustering>
</event>
<event>
 9    1  0.5300912E-006  0.2100971E+03  0.7546771E-02  0.1160108E+00
          1   -1    0    0  502    0  0.00000000000E+00  0.00000000000E+00  0.56703357180E+03  0.56703357180E+03  0.00000000000E+00 0. -1.
         -1   -1    0    0    0  501 -0.00000000000E+00 -0.00000000000E+00 -0.26019383818E+03  0.26019383818E+03  0.00000000000E+00 0.  1.
         23    2    1    2    0    0 -0.76162304396E+02  0.63555644127E+02 -0.15047484656E+03  0.20231404582E+03  0.91914510154E+02 0.  0.
         23    2    1    2    0    0  0.97407912386E+02 -0.22614592472E+03  0.26133320414E+03  0.36938318011E+03  0.86709915809E+02 0.  0.
        -11    1    3    3    0    0 -0.48647328513E+02  0.81982593674E+02 -0.80011308788E+02  0.12445689122E+03  0.00000000000E+00 0.  1.
         11    1    3    3    0    0 -0.27514975884E+02 -0.18426949547E+02 -0.70463537774E+02  0.77857154605E+02  0.00000000000E+00 0. -1.
        -13    1    4    4    0    0  0.78886820962E+02 -0.20569587044E+03  0.26132032882E+03  0.34179267969E+03  0.00000000000E+00 0. -1.
         13    1    4    4    0    0  0.18521091424E+02 -0.20450054280E+02  0.12875322871E-01  0.27590500419E+02  0.00000000000E+00 0.  1.
         21    1    1    2  502  501 -0.21245607990E+02  0.16259028059E+03  0.19598137605E+03  0.25553018405E+03  0.00000000000E+00 0. -1.
<scales pt_clust_5="13000.00000" pt_clust_6="13000.00000" pt_clust_7="13000.00000" pt_clust_8="13000.00000" pt_clust_9="191.36921"></scales>
<clustering>
<clus scale="   86.710">  7  8 -1 -1</clus>
<clus scale="   91.915">  5  6 -1 -1</clus>
<clus scale="  135.234">  2  5  1 -1</clus>
<clus scale="  191.369">  1  9  2 -1</clus>
<clus scale="  191.369">  1  5  2 -1</clus>
</clustering>
</event>
<event>
 9    1  0.5300912E-006  0.1671908E+03  0.7546771E-02  0.1202419E+00
         -2   -1    0    0    0  501 -0.00000000000E+00  0.00000000000E+00  0.83423736290E+03  0.83423736290E+03  0.00000000000E+00 0.  1.
          2   -1    0    0  502    0  0.00000000000E+00 -0.00000000000E+00 -0.91231311688E+02  0.91231311688E+02  0.00000000000E+00 0. -1.
         23    2    1    2    0    0  0.14398392329E+03 -0.81012397365E+02  0.40564748760E+03  0.44718304577E+03  0.90157714805E+02 0.  0.
         23    2    1    2    0    0 -0.20633521766E+02  0.44329094821E+02 -0.13354671092E+02  0.10470731140E+03  0.91621301853E+02 0.  0.
        -13    1    4    4    0    0 -0.93892219669E+01  0.71015621558E+02  0.25296674296E+01  0.71678275730E+02  0.00000000000E+00 0.  1.
         13    1    4    4    0    0 -0.11244299799E+02 -0.26686526736E+02 -0.15884338521E+02  0.33029035673E+02  0.00000000000E+00 0. -1.
        -13    1    3    3    0    0  0.11580935380E+03 -0.94967498377E+02  0.27861888800E+03  0.31632122427E+03  0.00000000000E+00 0.  1.
         13    1    3    3    0    0  0.28174569494E+02  0.13955101012E+02  0.12702859960E+03  0.13086182150E+03  0.00000000000E+00 0. -1.
         21    1    1    2  502  501 -0.12335040153E+03  0.36683302544E+02  0.35071323470E+03  0.37357831741E+03  0.00000000000E+00 0. -1.
<scales pt_clust_5="13000.00000" pt_clust_6="13000.00000" pt_clust_7="13000.00000" pt_clust_8="13000.00000" pt_clust_9="140.79897"></scales>
<clustering>
<clus scale="   90.158">  7  8 -1 -1</clus>
<clus scale="   91.621">  5  6 -1 -1</clus>
<clus scale="  103.852">  2  5  1 -1</clus>
<clus scale="  140.799">  1  9  2 -1</clus>
<clus scale="  103.852">  2  5  1 -1</clus>
</clustering>
</event>
<event>
 9    1  0.9220585E-006  0.1105696E+03  0.7546771E-02  0.1260500E+00
         -1   -1    0    0    0  501 -0.00000000000E+00  0.00000000000E+00  0.12192230484E+03  0.12192230484E+03  0.00000000000E+00 0.  1.
          1   -1    0    0  502    0  0.00000000000E+00 -0.00000000000E+00 -0.43477676019E+03  0.43477676019E+03  0.00000000000E+00 0. -1.
         23    2    1    2    0    0 -0.55446104975E+02  0.24948932233E+02  0.77144357669E+02  0.13391065152E+03  0.91016981352E+02 0.  0.
         23    2    1    2    0    0  0.85812645828E+02 -0.24166665296E+02 -0.35440388855E+03  0.37599378355E+03  0.88438516213E+02 0.  0.
        -11    1    4    4    0    0  0.60639853482E+02  0.26859028374E+02 -0.22639797523E+03  0.23591236175E+03  0.00000000000E+00 0.  1.
         11    1    4    4    0    0  0.25172792345E+02 -0.51025693670E+02 -0.12800591332E+03  0.14008142180E+03  0.00000000000E+00 0. -1.
        -13    1    3    3    0    0  0.21152248223E+02 -0.63313320592E+01  0.34153997186E+02  0.40669385222E+02  0.00000000000E+00 0. -1.
         13    1    3    3    0    0 -0.76598353198E+02  0.31280264292E+02  0.42990360482E+02  0.93241266300E+02  0.00000000000E+00 0.  1.
         21    1    1    2  502  501 -0.30366540853E+02 -0.78226693764E+00 -0.35594924468E+02  0.46794629957E+02  0.00000000000E+00 0.  1.
<scales pt_clust_5="13000.00000" pt_clust_6="13000.00000" pt_clust_7="13000.00000" pt_clust_8="13000.00000" pt_clust_9="30.37662"></scales>
<clustering>
<clus scale="   30.377">  2  9  1 -1</clus>
<clus scale="   88.439">  5  6 -1 -1</clus>
<clus scale="   91.017">  7  8 -1 -1</clus>
<clus scale="  108.457">  2  5  1 -1</clus>
<clus scale="   30.377">  2  5  1 -1</clus>
</clustering>
</event>
<event>
 9    1  0.5300912E-006  0.1059623E+03  0.7546771E-02  0.1272617E+00
          3   -1    0    0  502    0  0.00000000000E+00  0.00000000000E+00  0.11872132023E+03  0.11872132023E+03  0.00000000000E+00 0. -1.
         -3   -1    0    0    0  501 -0.00000000000E+00 -0.00000000000E+00 -0.16532524321E+03  0.16532524321E+03  0.00000000000E+00 0.  1.
         23    2    1    2    0    0  0.42771996539E+02  0.24859872508E+02 -0.77124106441E+02  0.12908173292E+03  0.90920344421E+02 0.  0.
         23    2    1    2    0    0  0.24994171286E+01 -0.13285486496E+02  0.36310549579E+01  0.10105293445E+03  0.10007876780E+03 0.  0.
        -11    1    4    4    0    0 -0.48672307447E+02 -0.37369452563E+01  0.41891482145E+01  0.48994971526E+02  0.00000000000E+00 0. -1.
         11    1    4    4    0    0  0.51171724576E+02 -0.95485412400E+01 -0.55809325666E+00  0.52057962925E+02  0.00000000000E+00 0.  1.
        -13    1    3    3    0    0  0.52393011931E+02  0.68543135485E+01 -0.90414151939E+02  0.10472214754E+03  0.00000000000E+00 0.  1.
         13    1    3    3    0    0 -0.96210153927E+01  0.18005558960E+02  0.13290045499E+02  0.24359585382E+02  0.00000000000E+00 0. -1.
         21    1    1    2  502  501 -0.45271413667E+02 -0.11574386012E+02  0.26889128500E+02  0.53911896076E+02  0.00000000000E+00 0.  1.
<scales pt_clust_5="13000.00000" pt_clust_6="13000.00000" pt_clust_7="13000.00000" pt_clust_8="13000.00000" pt_clust_9="46.72759"></scales>
<clustering>
<clus scale="   46.728">  1  9  2 -1</clus>
<clus scale="   90.920">  7  8 -1 -1</clus>
<clus scale="   97.359">  2  7  1 -1</clus>
<clus scale="  100.079">  5  6 -1 -1</clus>
<clus scale="   46.728">  1  5  2 -1</clus>
</clustering>
</event>
<event>
 9    1  0.5300912E-006  0.1628688E+03  0.7546771E-02  0.1202249E+00
          2   -1    0    0  502    0  0.00000000000E+00  0.00000000000E+00  0.81390960652E+03  0.81390960652E+03  0.00000000000E+00 0. -1.
         -2   -1    0    0    0  501 -0.00000000000E+00 -0.00000000000E+00 -0.91974396720E+02  0.91974396720E+02  0.00000000000E+00 0.  1.
         23    2    1    2    0    0 -0.83874963871E+02 -0.17262468525E+03  0.53879633747E+03  0.57934478477E+03  0.92220360280E+02 0.  0.
         23    2    1    2    0    0  0.97513554164E+01  0.69647691070E+02  0.16280726310E+03  0.19804040526E+03  0.88135732788E+02 0.  0.
        -11    1    3    3    0    0 -0.69156821850E+02 -0.14621907351E+03  0.51796290654E+03  0.54263086534E+03  0.00000000000E+00 0. -1.
         11    1    3    3    0    0 -0.14718142021E+02 -0.26405611740E+02  0.20833430930E+02  0.36713919435E+02  0.00000000000E+00 0.  1.
        -11    1    4    4    0    0  0.32690834855E+02  0.67062644066E+02  0.69647284848E+02  0.10206288845E+03  0.00000000000E+00 0.  1.
         11    1    4    4    0    0 -0.22939479439E+02  0.25850470045E+01  0.93159978248E+02  0.95977516806E+02  0.00000000000E+00 0. -1.
         21    1    1    2  502  501  0.74123608455E+02  0.10297699418E+03  0.20331609231E+02  0.12849881321E+03  0.00000000000E+00 0.  1.
<scales pt_clust_5="13000.00000" pt_clust_6="13000.00000" pt_clust_7="13000.00000" pt_clust_8="13000.00000" pt_clust_9="134.24471"></scales>
<clustering>
<clus scale="   88.136">  7  8 -1 -1</clus>
<clus scale="   92.220">  5  6 -1 -1</clus>
<clus scale="  112.755">  1  7  2 -1</clus>
<clus scale="  134.245">  2  9  1 -1</clus>
<clus scale="  112.755">  1  5  2 -1</clus>
</clustering>
</event>
<event>
 9    1  0.5300912E-006  0.1049331E+03  0.7546771E-02  0.1270682E+00
          2   -1    0    0  502    0  0.00000000000E+00  0.00000000000E+00  0.11513209021E+03  0.11513209021E+03  0.00000000000E+00 0. -1.
         -2   -1    0    0    0  501 -0.00000000000E+00 -0.00000000000E+00 -0.21401793321E+03  0.21401793321E+03  0.00000000000E+00 0.  1.
         23    2    1    2    0    0 -0.71370884896E+01  0.35054026069E+02 -0.36846024903E+02  0.10564196107E+03  0.92319399977E+02 0.  0.
         23    2    1    2    0    0 -0.76422078504E+02 -0.43707528405E+02 -0.57783034502E+02  0.13939422461E+03  0.91330108159E+02 0.  0.
        -11    1    3    3    0    0  0.17385102583E+02 -0.26545788307E+02 -0.18981792359E+02  0.36976061307E+02  0.00000000000E+00 0.  1.
         11    1    3    3    0    0 -0.24522191072E+02  0.61599814376E+02 -0.17864232544E+02  0.68665899765E+02  0.00000000000E+00 0. -1.
        -13    1    4    4    0    0  0.65187476235E+01 -0.43361839418E+02 -0.17901454892E+02  0.47362488063E+02  0.00000000000E+00 0.  1.
         13    1    4    4    0    0 -0.82940826128E+02 -0.34568898656E+00 -0.39881579611E+02  0.92031736547E+02  0.00000000000E+00 0. -1.
         21    1    1    2  502  501  0.83559166994E+02  0.86535023354E+01 -0.42567835927E+01  0.84113837731E+02  0.00000000000E+00 0.  1.
<scales pt_clust_5="13000.00000" pt_clust_6="13000.00000" pt_clust_7="13000.00000" pt_clust_8="13000.00000" pt_clust_9="84.00606"></scales>
<clustering>
<clus scale="   84.006">  1  9  2 -1</clus>
<clus scale="   91.330">  7  8 -1 -1</clus>
<clus scale="   92.319">  5  6 -1 -1</clus>
<clus scale="  104.064">  1  7  2 -1</clus>
<clus scale="   84.006">  1  5  2 -1</clus>
</clustering>
</event>
<event>
 9    1  0.5300912E-006  0.1707431E+03  0.7546771E-02  0.1177373E+00
          2   -1    0    0  502    0  0.00000000000E+00  0.00000000000E+00  0.48660778032E+03  0.48660778032E+03  0.00000000000E+00 0. -1.
         -2   -1    0    0    0  501 -0.00000000000E+00 -0.00000000000E+00 -0.18935040305E+03  0.18935040305E+03  0.00000000000E+00 0.  1.
         23    2    1    2    0    0  0.66874672237E+02  0.11474466123E+03 -0.44706145936E+02  0.16726496972E+03  0.91325634642E+02 0.  0.
         23    2    1    2    0    0 -0.15300250209E+03 -0.92000865471E+02  0.55946738419E+02  0.20912538411E+03  0.93431599825E+02 0.  0.
        -11    1    3    3    0    0  0.19297475278E+02 -0.12251607869E+02 -0.17882159250E+02  0.29021820531E+02  0.00000000000E+00 0.  1.
         11    1    3    3    0    0  0.47577196958E+02  0.12699626910E+03 -0.26823986686E+02  0.13824314919E+03  0.00000000000E+00 0. -1.
        -11    1    4    4    0    0  0.97988266387E+01 -0.20817830476E+02  0.12593992361E+02  0.26229901121E+02  0.00000000000E+00 0. -1.
         11    1    4    4    0    0 -0.16280132872E+03 -0.71183034995E+02  0.43352746058E+02  0.18289548299E+03  0.00000000000E+00 0.  1.
         21    1    1    2  502  501  0.86127829849E+02 -0.22743795757E+02  0.28601678479E+03  0.29956782955E+03  0.00000000000E+00 0. -1.
<scales pt_clust_5="13000.00000" pt_clust_6="13000.00000" pt_clust_7="13000.00000" pt_clust_8="13000.00000" pt_clust_9="89.08021"></scales>
<clustering>
<clus scale="   89.080">  1  9  2 -1</clus>
<clus scale="   91.326">  5  6 -1 -1</clus>
<clus scale="   93.432">  7  8 -1 -1</clus>
<clus scale="  169.600">  2  5  1 -1</clus>
<clus scale="   89.080">  1  5  2 -1</clus>
</clustering>
</event>
<event>
 9    1  0.5300912E-006  0.2519833E+03  0.7546771E-02  0.1133199E+00
          1   -1    0    0  502    0  0.00000000000E+00  0.00000000000E+00  0.17841073819E+04  0.17841073819E+04  0.00000000000E+00 0. -1.
         -1   -1    0    0    0  501 -0.00000000000E+00 -0.00000000000E+00 -0.13847918657E+03  0.13847918657E+03  0.00000000000E+00 0.  1.
         23    2    1    2    0    0  0.47912763672E+02  0.10863740819E+03 -0.47513374964E+02  0.15627344005E+03  0.89811735780E+02 0.  0.
         23    2    1    2    0    0 -0.26200662755E+03 -0.56127529708E+02  0.96000130632E+03  0.10007492078E+04  0.89992757076E+02 0.  0.
        -11    1    3    3    0    0  0.97025473911E+00  0.81782196027E+02 -0.59173436612E+02  0.10094931690E+03  0.00000000000E+00 0.  1.
         11    1    3    3    0    0  0.46942508933E+02  0.26855212165E+02  0.11660061648E+02  0.55324123156E+02  0.00000000000E+00 0. -1.
        -13    1    4    4    0    0 -0.11686364614E+03  0.15774444742E+02  0.33702416563E+03  0.35705914512E+03  0.00000000000E+00 0. -1.
         13    1    4    4    0    0 -0.14514298141E+03 -0.71901974450E+02  0.62297714070E+03  0.64369006270E+03  0.00000000000E+00 0.  1.
         21    1    1    2  502  501  0.21409386388E+03 -0.52509878484E+02  0.73314026395E+03  0.76556392059E+03  0.00000000000E+00 0. -1.
<scales pt_clust_5="13000.00000" pt_clust_6="13000.00000" pt_clust_7="13000.00000" pt_clust_8="13000.00000" pt_clust_9="235.36547"></scales>
<clustering>
<clus scale="   89.812">  5  6 -1 -1</clus>
<clus scale="   89.993">  7  8 -1 -1</clus>
<clus scale="  148.875">  2  5  1 -1</clus>
<clus scale="  235.365">  1  9  2 -1</clus>
<clus scale="  235.365">  1  5  2 -1</clus>
</clustering>
</event>
<event>
 9    1  0.5300912E-006  0.2561544E+03  0.7546771E-02  0.1150772E+00
          3   -1    0    0  502    0  0.00000000000E+00  0.00000000000E+00  0.17199044208E+03  0.17199044208E+03  0.00000000000E+00 0. -1.
         -3   -1    0    0    0  501 -0.00000000000E+00 -0.00000000000E+00 -0.59426596636E+03  0.59426596636E+03  0.00000000000E+00 0.  1.
         23    2    1    2    0    0  0.10435687693E+02 -0.16614638590E+02 -0.20360186885E+03  0.22379245194E+03  0.90798627471E+02 0.  0.
         23    2    1    2    0    0 -0.23953326675E+03  0.60997106696E+02 -0.11149071804E+03  0.28566892876E+03  0.89887283564E+02 0.  0.
        -11    1    3    3    0    0 -0.34145899703E+02 -0.30852574712E+02 -0.10542577422E+03  0.11503224636E+03  0.00000000000E+00 0. -1.
         11    1    3    3    0    0  0.44581587396E+02  0.14237936121E+02 -0.98176094629E+02  0.10876020557E+03  0.00000000000E+00 0.  1.
        -11    1    4    4    0    0 -0.19371494870E+03  0.68519561449E+02 -0.55321395496E+02  0.21279301786E+03  0.00000000000E+00 0. -1.
         11    1    4    4    0    0 -0.45818318047E+02 -0.75224547531E+01 -0.56169322547E+02  0.72875910901E+02  0.00000000000E+00 0.  1.
         21    1    1    2  502  501  0.22909757905E+03 -0.44382468106E+02 -0.10718293739E+03  0.25679502774E+03  0.00000000000E+00 0.  1.
<scales pt_clust_5="13000.00000" pt_clust_6="13000.00000" pt_clust_7="13000.00000" pt_clust_8="13000.00000" pt_clust_9="239.86527"></scales>
<clustering>
<clus scale="   89.887">  7  8 -1 -1</clus>
<clus scale="   90.799">  5  6 -1 -1</clus>
<clus scale="   92.894">  2  5  1 -1</clus>
<clus scale="  239.865">  1  9  2 -1</clus>
<clus scale="  239.865">  1  5  2 -1</clus>
</clustering>
</event>
<event>
 9    1  0.5300912E-006  0.9746449E+02  0.7546771E-02  0.1287657E+00
         -2   -1    0    0    0  501 -0.00000000000E+00  0.00000000000E+00  0.59084325723E+02  0.59084325723E+02  0.00000000000E+00 0.  1.
          2   -1    0    0  502    0  0.00000000000E+00 -0.00000000000E+00 -0.52521898133E+03  0.52521898133E+03  0.00000000000E+00 0. -1.
         23    2    1    2    0    0 -0.18953772009E+02 -0.28989113239E+02 -0.67121876341E+01  0.97141747838E+02  0.90508847913E+02 0.  0.
         23    2    1    2    0    0  0.88687080474E+01 -0.26951028714E+02 -0.21807484955E+03  0.23921059448E+03  0.94127873510E+02 0.  0.
        -11    1    4    4    0    0  0.86364810374E+01 -0.62178550199E+02 -0.13042359300E+03  0.14474486009E+03  0.00000000000E+00 0.  1.
         11    1    4    4    0    0  0.23222701005E+00  0.35227521484E+02 -0.87651256552E+02  0.94465734393E+02  0.00000000000E+00 0. -1.
        -11    1    3    3    0    0 -0.79435156834E+01  0.28884475739E+02  0.16050144184E+02  0.33985577948E+02  0.00000000000E+00 0. -1.
         11    1    3    3    0    0 -0.11010256325E+02 -0.57873588977E+02 -0.22762331818E+02  0.63156169891E+02  0.00000000000E+00 0.  1.
         21    1    1    2  502  501  0.10085063961E+02  0.55940141953E+02 -0.24134761842E+03  0.24795096474E+03  0.00000000000E+00 0. -1.
<scales pt_clust_5="13000.00000" pt_clust_6="13000.00000" pt_clust_7="13000.00000" pt_clust_8="13000.00000" pt_clust_9="56.84196"></scales>
<clustering>
<clus scale="   56.842">  2  9  1 -1</clus>
<clus scale="   90.509">  7  8 -1 -1</clus>
<clus scale="   93.974">  1  7  2 -1</clus>
<clus scale="   94.128">  5  6 -1 -1</clus>
<clus scale="   56.842">  2  5  1 -1</clus>
</clustering>
</event>
<event>
 9    1  0.5300912E-006  0.2393790E+03  0.7546771E-02  0.1152588E+00
         -2   -1    0    0    0  501 -0.00000000000E+00  0.00000000000E+00  0.95512926281E+02  0.95512926281E+02  0.00000000000E+00 0.  1.
          2   -1    0    0  502    0  0.00000000000E+00 -0.00000000000E+00 -0.10353014953E+04  0.10353014953E+04  0.00000000000E+00 0. -1.
         23    2    1    2    0    0 -0.28551286818E+02 -0.78333543719E+01 -0.70158550513E+02  0.12966545770E+03  0.10494937490E+03 0.  0.
         23    2    1    2    0    0  0.23260660136E+03 -0.31565957462E+01 -0.67386130794E+03  0.71815649324E+03  0.86855577548E+02 0.  0.
        -11    1    4    4    0    0  0.71699141099E+02 -0.33847953811E+02 -0.15580162027E+03  0.17481589084E+03  0.00000000000E+00 0.  1.
         11    1    4    4    0    0  0.16090746026E+03  0.30691358065E+02 -0.51805968767E+03  0.54334060240E+03  0.00000000000E+00 0. -1.
        -13    1    3    3    0    0 -0.42938238416E+02 -0.49167467840E+02 -0.42358783653E+02  0.77816442765E+02  0.00000000000E+00 0.  1.
         13    1    3    3    0    0  0.14386951597E+02  0.41334113468E+02 -0.27799766860E+02  0.51849014937E+02  0.00000000000E+00 0. -1.
         21    1    1    2  502  501 -0.20405531454E+03  0.10989950118E+02 -0.19576871055E+03  0.28299247062E+03  0.00000000000E+00 0. -1.
<scales pt_clust_5="13000.00000" pt_clust_6="13000.00000" pt_clust_7="13000.00000" pt_clust_8="13000.00000" pt_clust_9="223.06590"></scales>
<clustering>
<clus scale="   86.856">  5  6 -1 -1</clus>
<clus scale="  104.949">  7  8 -1 -1</clus>
<clus scale="  109.045">  1  7  2 -1</clus>
<clus scale="  223.066">  1  9  2 -1</clus>
<clus scale="  239.379">  2  5  1 -1</clus>
</clustering>
</event>
<event>
 9    1  0.5300912E-006  0.3461659E+03  0.7546771E-02  0.1064307E+00
          1   -1    0    0  502    0  0.00000000000E+00  0.00000000000E+00  0.20131695167E+03  0.20131695167E+03  0.00000000000E+00 0. -1.
         -1   -1    0    0    0  501 -0.00000000000E+00 -0.00000000000E+00 -0.99081343015E+03  0.99081343015E+03  0.00000000000E+00 0.  1.
         23    2    1    2    0    0  0.20051536297E+03 -0.21461003290E+03 -0.34441604995E+03  0.46166719586E+03  0.90831202028E+02 0.  0.
         23    2    1    2    0    0 -0.23964992249E+03  0.29331781253E+03 -0.49416538702E+03  0.62978666699E+03  0.94680471536E+02 0.  0.
        -11    1    3    3    0    0  0.10233755717E+03 -0.87495650275E+02 -0.22232451715E+03  0.25991663154E+03  0.00000000000E+00 0.  1.
         11    1    3    3    0    0  0.98177805805E+02 -0.12711438262E+03 -0.12209153279E+03  0.20175056431E+03  0.00000000000E+00 0. -1.
        -13    1    4    4    0    0 -0.21170412406E+02  0.84321827568E+02 -0.91094693524E+02  0.12592299295E+03  0.00000000000E+00 0. -1.
         13    1    4    4    0    0 -0.21847951009E+03  0.20899598496E+03 -0.40307069350E+03  0.50386367404E+03  0.00000000000E+00 0.  1.
         21    1    1    2  502  501  0.39134559523E+02 -0.78707779630E+02  0.49084958494E+02  0.10067651898E+03  0.00000000000E+00 0.  1.
<scales pt_clust_5="13000.00000" pt_clust_6="13000.00000" pt_clust_7="13000.00000" pt_clust_8="13000.00000" pt_clust_9="87.90010"></scales>
<clustering>
<clus scale="   87.900">  1  9  2 -1</clus>
<clus scale="   90.831">  5  6 -1 -1</clus>
<clus scale="   94.680">  7  8 -1 -1</clus>
<clus scale="  345.133">  2  5  1 -1</clus>
<clus scale="   87.900">  1  5  2 -1</clus>
</clustering>
</event>
<event>
 9    1  0.5300912E-006  0.2328401E+03  0.7546771E-02  0.1154511E+00
          2   -1    0    0  502    0  0.00000000000E+00  0.00000000000E+00  0.20210025984E+04  0.20210025984E+04  0.00000000000E+00 0. -1.
         -2   -1    0    0    0  501 -0.00000000000E+00 -0.00000000000E+00 -0.66651155618E+02  0.66651155618E+02  0.00000000000E+00 0.  1.
         23    2    1    2    0    0  0.67405496007E+02  0.10901763890E+00  0.13020288607E+03  0.17256175188E+03  0.91001395007E+02 0.  0.
         23    2    1    2    0    0  0.14004910360E+03 -0.85396254212E+02  0.19651328290E+03  0.27207407522E+03  0.92198483703E+02 0.  0.
        -13    1    3    3    0    0  0.44644006085E+02  0.57760401949E+00  0.14061090123E+03  0.14752913763E+03  0.00000000000E+00 0. -1.
         13    1    3    3    0    0  0.22761489923E+02 -0.46858638059E+00 -0.10408015155E+02  0.25032614250E+02  0.00000000000E+00 0.  1.
        -13    1    4    4    0    0  0.10224016365E+02 -0.51678261178E+02  0.70719992067E+02  0.88184411701E+02  0.00000000000E+00 0. -1.
         13    1    4    4    0    0  0.12982508724E+03 -0.33717993033E+02  0.12579329083E+03  0.18388966352E+03  0.00000000000E+00 0.  1.
         21    1    1    2  502  501 -0.20745459961E+03  0.85287236573E+02  0.16276352738E+04  0.16430179269E+04  0.00000000000E+00 0. -1.
<scales pt_clust_5="13000.00000" pt_clust_6="13000.00000" pt_clust_7="13000.00000" pt_clust_8="13000.00000" pt_clust_9="213.80820"></scales>
<clustering>
<clus scale="   91.001">  5  6 -1 -1</clus>
<clus scale="   92.198">  7  8 -1 -1</clus>
<clus scale="  113.246">  2  5  1 -1</clus>
<clus scale="  213.808">  1  9  2 -1</clus>
<clus scale="  213.808">  1  5  2 -1</clus>
</clustering>
</event>
<event>
 9    1  0.5300912E-006  0.1340884E+03  0.7546771E-02  0.1221793E+00
          3   -1    0    0  502    0  0.00000000000E+00  0.00000000000E+00  0.97471951292E+02  0.97471951292E+02  0.00000000000E+00 0. -1.
         -3   -1    0    0    0  501 -0.00000000000E+00 -0.00000000000E+00 -0.24946238746E+03  0.24946238746E+03  0.00000000000E+00 0.  1.
         23    2    1    2    0    0  0.31909762258E+02  0.89592097473E+02 -0.10061753564E+03  0.16548506035E+03  0.90644579888E+02 0.  0.
         23    2    1    2    0    0 -0.56157070527E+02 -0.88939514446E+02 -0.66070898471E+02  0.15308752658E+03  0.89479457816E+02 0.  0.
        -11    1    4    4    0    0 -0.75432240417E+02 -0.71815594422E+02 -0.72020233845E+02  0.12662707680E+03  0.00000000000E+00 0.  1.
         11    1    4    4    0    0  0.19275169890E+02 -0.17123920024E+02  0.59493353743E+01  0.26460449782E+02  0.00000000000E+00 0. -1.
        -13    1    3    3    0    0  0.62926440892E+02  0.47050931687E+02 -0.56181785869E+02  0.96591512046E+02  0.00000000000E+00 0. -1.
         13    1    3    3    0    0 -0.31016678634E+02  0.42541165786E+02 -0.44435749773E+02  0.68893548303E+02  0.00000000000E+00 0.  1.
         21    1    1    2  502  501  0.24247308270E+02 -0.65258302672E+00  0.14697997941E+02  0.28361751822E+02  0.00000000000E+00 0. -1.
<scales pt_clust_5="13000.00000" pt_clust_6="13000.00000" pt_clust_7="13000.00000" pt_clust_8="13000.00000" pt_clust_9="24.25609"></scales>
<clustering>
<clus scale="   24.256">  1  9  2 -1</clus>
<clus scale="   89.479">  5  6 -1 -1</clus>
<clus scale="   90.645">  7  8 -1 -1</clus>
<clus scale="  133.303">  1  5  2 -1</clus>
<clus scale="   24.256">  1  5  2 -1</clus>
</clustering>
</event>
<event>
 9    1  0.5300912E-006  0.9428034E+02  0.7546771E-02  0.1295720E+00
         -1   -1    0    0    0  501 -0.00000000000E+00  0.00000000000E+00  0.30885271470E+03  0.30885271470E+03  0.00000000000E+00 0.  1.
          1   -1    0    0  502    0  0.00000000000E+00 -0.00000000000E+00 -0.69570907031E+02  0.69570907031E+02  0.00000000000E+00 0. -1.
         23    2    1    2    0    0 -0.31205777455E+01 -0.33845857170E+02  0.22942211473E+03  0.24996724973E+03  0.93240759100E+02 0.  0.
         23    2    1    2    0    0  0.11115495774E+00  0.10990357768E+02 -0.19626342754E+02  0.91028350688E+02  0.88205254831E+02 0.  0.
        -11    1    3    3    0    0  0.38141505850E+02 -0.12875930527E+02  0.16969832178E+03  0.17440781081E+03  0.00000000000E+00 0.  1.
         11    1    3    3    0    0 -0.41262083596E+02 -0.20969926643E+02  0.59723792950E+02  0.75559438923E+02  0.00000000000E+00 0. -1.
        -13    1    4    4    0    0 -0.29601572856E+02 -0.10419203794E+02  0.19887667344E+02  0.37152822714E+02  0.00000000000E+00 0. -1.
         13    1    4    4    0    0  0.29712727813E+02  0.21409561562E+02 -0.39514010099E+02  0.53875527974E+02  0.00000000000E+00 0.  1.
         21    1    1    2  502  501  0.30094227878E+01  0.22855499402E+02  0.29486035689E+02  0.37428021309E+02  0.00000000000E+00 0. -1.
<scales pt_clust_5="13000.00000" pt_clust_6="13000.00000" pt_clust_7="13000.00000" pt_clust_8="13000.00000" pt_clust_9="23.05278"></scales>
<clustering>
<clus scale="   23.053">  1  9  2 -1</clus>
<clus scale="   88.205">  7  8 -1 -1</clus>
<clus scale="   89.303">  2  7  1 -1</clus>
<clus scale="   93.241">  5  6 -1 -1</clus>
<clus scale="   89.303">  2  5  1 -1</clus>
</clustering>
</event>
<event>
 9    1  0.5300912E-006  0.9527429E+02  0.7546771E-02  0.1292219E+00
          1   -1    0    0  502    0  0.00000000000E+00  0.00000000000E+00  0.13615544115E+03  0.13615544115E+03  0.00000000000E+00 0. -1.
         -1   -1    0    0    0  501 -0.00000000000E+00 -0.00000000000E+00 -0.11025167831E+03  0.11025167831E+03  0.00000000000E+00 0.  1.
         23    2    1    2    0    0 -0.13559270723E+02  0.86692305332E+01  0.12898974407E+02  0.94453856528E+02  0.92174498055E+02 0.  0.
         23    2    1    2    0    0 -0.26710262341E+00  0.10042724102E+02  0.50264848065E+02  0.10802584678E+03  0.95089962508E+02 0.  0.
        -11    1    3    3    0    0  0.25899733715E+02 -0.31933617001E+01  0.38080987440E+02  0.46164438369E+02  0.00000000000E+00 0.  1.
         11    1    3    3    0    0 -0.39459004438E+02  0.11862592233E+02 -0.25182013033E+02  0.48289418159E+02  0.00000000000E+00 0. -1.
        -13    1    4    4    0    0  0.24326583282E+02  0.18490367569E+02 -0.17660768900E+02  0.35292762788E+02  0.00000000000E+00 0.  1.
         13    1    4    4    0    0 -0.24593685905E+02 -0.84476434673E+01  0.67925616965E+02  0.72733083990E+02  0.00000000000E+00 0. -1.
         21    1    1    2  502  501  0.13826373347E+02 -0.18711954635E+02 -0.37260059631E+02  0.43927416153E+02  0.00000000000E+00 0.  1.
<scales pt_clust_5="13000.00000" pt_clust_6="13000.00000" pt_clust_7="13000.00000" pt_clust_8="13000.00000" pt_clust_9="23.26598"></scales>
<clustering>
<clus scale="   23.266">  2  9  1 -1</clus>
<clus scale="   92.174">  5  6 -1 -1</clus>
<clus scale="   92.365">  2  5  1 -1</clus>
<clus scale="   95.090">  7  8 -1 -1</clus>
<clus scale="   95.274">  1  5  2 -1</clus>
</clustering>
</event>
<event>
 9    1  0.5300912E-006  0.9357476E+02  0.7546771E-02  0.1294821E+00
          1   -1    0    0  502    0  0.00000000000E+00  0.00000000000E+00  0.12113025253E+03  0.12113025253E+03  0.00000000000E+00 0. -1.
         -1   -1    0    0    0  501 -0.00000000000E+00 -0.00000000000E+00 -0.24269067313E+03  0.24269067313E+03  0.00000000000E+00 0.  1.
         23    2    1    2    0    0  0.61405283895E+01 -0.25848190772E+02 -0.22475876251E+02  0.95584799164E+02  0.89025017624E+02 0.  0.
         23    2    1    2    0    0  0.39181760322E+02 -0.45195715892E+02  0.31908083014E+02  0.11247857467E+03  0.89752108173E+02 0.  0.
        -11    1    4    4    0    0 -0.22362824022E+02  0.10130071295E+02  0.12167154158E+02  0.27399888375E+02  0.00000000000E+00 0.  1.
         11    1    4    4    0    0  0.61544584343E+02 -0.55325787187E+02  0.19740928856E+02  0.85078686297E+02  0.00000000000E+00 0. -1.
        -13    1    3    3    0    0  0.37605946455E+02  0.74627189252E+01 -0.30592709241E+02  0.49049090116E+02  0.00000000000E+00 0. -1.
         13    1    3    3    0    0 -0.31465418065E+02 -0.33310909697E+02  0.81168329897E+01  0.46535709048E+02  0.00000000000E+00 0.  1.
         21    1    1    2  502  501 -0.45322288711E+02  0.71043906664E+02 -0.13099262736E+03  0.15575755183E+03  0.00000000000E+00 0.  1.
<scales pt_clust_5="13000.00000" pt_clust_6="13000.00000" pt_clust_7="13000.00000" pt_clust_8="13000.00000" pt_clust_9="84.26949"></scales>
<clustering>
<clus scale="   84.269">  2  9  1 -1</clus>
<clus scale="   89.025">  7  8 -1 -1</clus>
<clus scale="   89.752">  5  6 -1 -1</clus>
<clus scale="   92.878">  2  7  1 -1</clus>
<clus scale="   93.575">  1  5  2 -1</clus>
</clustering>
</event>
<event>
 9    1  0.5300912E-006  0.9733010E+02  0.7546771E-02  0.1286094E+00
          1   -1    0    0  502    0  0.00000000000E+00  0.00000000000E+00  0.73551096131E+02  0.73551096131E+02  0.00000000000E+00 0. -1.
         -1   -1    0    0    0  501 -0.00000000000E+00 -0.00000000000E+00 -0.27971005305E+03  0.27971005305E+03  0.00000000000E+00 0.  1.
         23    2    1    2    0    0 -0.23085773313E+02 -0.42385820553E+02 -0.14836540581E+03  0.18141660704E+03  0.92575271840E+02 0.  0.
         23    2    1    2    0    0  0.17890314365E+02 -0.10919543108E+02 -0.68562061957E+02  0.11721473878E+03  0.92732081171E+02 0.  0.
        -13    1    4    4    0    0  0.23577240424E+02  0.22706113705E+02  0.77422100072E+01  0.33636225730E+02  0.00000000000E+00 0. -1.
         13    1    4    4    0    0 -0.56869260583E+01 -0.33625656813E+02 -0.76304271964E+02  0.83578513052E+02  0.00000000000E+00 0.  1.
        -13    1    3    3    0    0 -0.22460028759E+02  0.16308220524E+02 -0.10454345357E+03  0.10816535782E+03  0.00000000000E+00 0. -1.
         13    1    3    3    0    0 -0.62574455355E+00 -0.58694041077E+02 -0.43821952238E+02  0.73251249219E+02  0.00000000000E+00 0.  1.
         21    1    1    2  502  501  0.51954589472E+01  0.53305363661E+02  0.10768510849E+02  0.54629803355E+02  0.00000000000E+00 0. -1.
<scales pt_clust_5="13000.00000" pt_clust_6="13000.00000" pt_clust_7="13000.00000" pt_clust_8="13000.00000" pt_clust_9="53.55796"></scales>
<clustering>
<clus scale="   53.558">  1  9  2 -1</clus>
<clus scale="   92.575">  7  8 -1 -1</clus>
<clus scale="   92.732">  5  6 -1 -1</clus>
<clus scale="   97.181">  2  7  1 -1</clus>
<clus scale="   53.558">  1  5  2 -1</clus>
</clustering>
</event>
<event>
 9    1  0.5300912E-006  0.3192399E+03  0.7546771E-02  0.1076024E+00
         -1   -1    0    0    0  501 -0.00000000000E+00  0.00000000000E+00  0.63631952267E+03  0.63631952267E+03  0.00000000000E+00 0.  1.
          1   -1    0    0  502    0  0.00000000000E+00 -0.00000000000E+00 -0.46400285023E+03  0.46400285023E+03  0.00000000000E+00 0. -1.
         23    2    1    2    0    0  0.27075644581E+03 -0.21336173987E+03  0.41064937380E+03  0.54415025607E+03  0.92920977153E+02 0.  0.
         23    2    1    2    0    0 -0.17471156071E+03  0.16434795304E+03  0.37315709686E+02  0.26018391138E+03  0.93642012141E+02 0.  0.
        -11    1    3    3    0    0  0.82681540555E+02 -0.11366200932E+03  0.20192161065E+03  0.24602362968E+03  0.00000000000E+00 0.  1.
         11    1    3    3    0    0  0.18807490525E+03 -0.99699730548E+02  0.20872776315E+03  0.29812662640E+03  0.00000000000E+00 0. -1.
        -11    1    4    4    0    0 -0.46879731287E+02  0.10595582763E+03  0.49550631823E+01  0.11596938935E+03  0.00000000000E+00 0. -1.
         11    1    4    4    0    0 -0.12783182942E+03  0.58392125407E+02  0.32360646504E+02  0.14421452203E+03  0.00000000000E+00 0.  1.
         21    1    1    2  502  501 -0.96044885101E+02  0.49013786832E+02 -0.27564841105E+03  0.29598820545E+03  0.00000000000E+00 0. -1.
<scales pt_clust_5="13000.00000" pt_clust_6="13000.00000" pt_clust_7="13000.00000" pt_clust_8="13000.00000" pt_clust_9="107.82843"></scales>
<clustering>
<clus scale="   92.921">  5  6 -1 -1</clus>
<clus scale="   93.642">  7  8 -1 -1</clus>
<clus scale="  107.828">  2  9  1 -1</clus>
<clus scale="  319.029">  1  5  2 -1</clus>
<clus scale="  107.828">  2  5  1 -1</clus>
</clustering>
</event>
<event>
 9    1  0.5300912E-006  0.9826060E+02  0.7546771E-02  0.1284850E+00
          1   -1    0    0  502    0  0.00000000000E+00  0.00000000000E+00  0.28260090971E+03  0.28260090971E+03  0.00000000000E+00 0. -1.
         -1   -1    0    0    0  501 -0.00000000000E+00 -0.00000000000E+00 -0.11882048421E+03  0.11882048421E+03  0.00000000000E+00 0.  1.
         23    2    1    2    0    0 -0.54405591369E+02  0.14995380417E+02 -0.48525254650E+02  0.11697667060E+03  0.90244176099E+02 0.  0.
         23    2    1    2    0    0 -0.17112395446E+02  0.20776673088E+02  0.61732408051E+02  0.11395492152E+03  0.91925674935E+02 0.  0.
        -11    1    3    3    0    0 -0.70402325980E+02  0.34054091054E+02 -0.48632884649E+02  0.92094115394E+02  0.00000000000E+00 0.  1.
         11    1    3    3    0    0  0.15996734611E+02 -0.19058710637E+02  0.10762999949E+00  0.24882555206E+02  0.00000000000E+00 0. -1.
        -13    1    4    4    0    0 -0.52553171233E+02  0.51483461675E+00  0.21957608152E+02  0.56958207636E+02  0.00000000000E+00 0.  1.
         13    1    4    4    0    0  0.35440775787E+02  0.20261838471E+02  0.39774799899E+02  0.56996713884E+02  0.00000000000E+00 0. -1.
         21    1    1    2  502  501  0.71517986815E+02 -0.35772053505E+02  0.15057327210E+03  0.17048980181E+03  0.00000000000E+00 0. -1.
<scales pt_clust_5="13000.00000" pt_clust_6="13000.00000" pt_clust_7="13000.00000" pt_clust_8="13000.00000" pt_clust_9="79.96538"></scales>
<clustering>
<clus scale="   79.965">  1  9  2 -1</clus>
<clus scale="   90.244">  5  6 -1 -1</clus>
<clus scale="   91.926">  7  8 -1 -1</clus>
<clus scale="   96.689">  2  5  1 -1</clus>
<clus scale="   79.965">  1  5  2 -1</clus>
</clustering>
</event>
<event>
 9    1  0.5300912E-006  0.9815023E+02  0.7546771E-02  0.1285809E+00
          1   -1    0    0  502    0  0.00000000000E+00  0.00000000000E+00  0.51580441089E+03  0.51580441089E+03  0.00000000000E+00 0. -1.
         -1   -1    0    0    0  501 -0.00000000000E+00 -0.00000000000E+00 -0.35958592730E+02  0.35958592730E+02  0.00000000000E+00 0.  1.
         23    2    1    2    0    0  0.17247023199E+02 -0.31332085914E+02  0.13412146481E+03  0.16537449816E+03  0.89894370813E+02 0.  0.
         23    2    1    2    0    0 -0.47064707939E+02 -0.21284664723E+02  0.16963679152E+03  0.20020460120E+03  0.92936094279E+02 0.  0.
        -11    1    3    3    0    0  0.11520730391E+02 -0.53013633801E+02  0.13216273159E+03  0.14286413202E+03  0.00000000000E+00 0. -1.
         11    1    3    3    0    0  0.57262928075E+01  0.21681547886E+02  0.19587332207E+01  0.22510366143E+02  0.00000000000E+00 0.  1.
        -11    1    4    4    0    0 -0.68890141949E+02 -0.19721285039E+02  0.77692719358E+02  0.10569266475E+03  0.00000000000E+00 0.  1.
         11    1    4    4    0    0  0.21825434011E+02 -0.15633796838E+01  0.91944072160E+02  0.94511936448E+02  0.00000000000E+00 0. -1.
         21    1    1    2  502  501  0.29817684740E+02  0.52616750637E+02  0.17608756183E+03  0.18618390425E+03  0.00000000000E+00 0.  1.
<scales pt_clust_5="13000.00000" pt_clust_6="13000.00000" pt_clust_7="13000.00000" pt_clust_8="13000.00000" pt_clust_9="60.47823"></scales>
<clustering>
<clus scale="   60.478">  1  9  2 -1</clus>
<clus scale="   89.894">  5  6 -1 -1</clus>
<clus scale="   92.936">  7  8 -1 -1</clus>
<clus scale="   95.275">  2  5  1 -1</clus>
<clus scale="   60.478">  1  5  2 -1</clus>
</clustering>
</event>
<event>
 9    1  0.5300912E-006  0.1085872E+03  0.7546771E-02  0.1263228E+00
          1   -1    0    0  502    0  0.00000000000E+00  0.00000000000E+00  0.24965462877E+03  0.24965462877E+03  0.00000000000E+00 0. -1.
         -1   -1    0    0    0  501 -0.00000000000E+00 -0.00000000000E+00 -0.96860369670E+02  0.96860369670E+02  0.00000000000E+00 0.  1.
         23    2    1    2    0    0 -0.68919158955E+02  0.22779009591E+02  0.73172094148E+01  0.11688111443E+03  0.91317685072E+02 0.  0.
         23    2    1    2    0    0  0.70300126040E+01 -0.54570616241E+02  0.10244142337E+03  0.14782289562E+03  0.91268778963E+02 0.  0.
        -11    1    3    3    0    0  0.13850795999E+02  0.29784453315E+02  0.80193920096E+01  0.33812258979E+02  0.00000000000E+00 0. -1.
         11    1    3    3    0    0 -0.82769954954E+02 -0.70054437239E+01 -0.70218259482E+00  0.83068855447E+02  0.00000000000E+00 0.  1.
        -13    1    4    4    0    0 -0.14568787338E+02 -0.70115386098E+02  0.97148267826E+02  0.12069052520E+03  0.00000000000E+00 0.  1.
         13    1    4    4    0    0  0.21598799942E+02  0.15544769856E+02  0.52931555418E+01  0.27132370416E+02  0.00000000000E+00 0. -1.
         21    1    1    2  502  501  0.61889146351E+02  0.31791606650E+02  0.43035626314E+02  0.81810988392E+02  0.00000000000E+00 0. -1.
<scales pt_clust_5="13000.00000" pt_clust_6="13000.00000" pt_clust_7="13000.00000" pt_clust_8="13000.00000" pt_clust_9="69.57710"></scales>
<clustering>
<clus scale="   69.577">  1  9  2 -1</clus>
<clus scale="   91.269">  7  8 -1 -1</clus>
<clus scale="   91.318">  5  6 -1 -1</clus>
<clus scale="  108.546">  1  7  2 -1</clus>
<clus scale="   69.577">  1  5  2 -1</clus>
</clustering>
</event>
<event>
 9    1  0.5300912E-006  0.1412157E+03  0.7546771E-02  0.1213882E+00
          2   -1    0    0  502    0  0.00000000000E+00  0.00000000000E+00  0.19923887016E+03  0.19923887016E+03  0.00000000000E+00 0. -1.
         -2   -1    0    0    0  501 -0.00000000000E+00 -0.00000000000E+00 -0.13165351905E+03  0.13165351905E+03  0.00000000000E+00 0.  1.
         23    2    1    2    0    0  0.10945903337E+03  0.20346085936E+02  0.30246759178E+01  0.15048399876E+03  0.10119803367E+03 0.  0.
         23    2    1    2    0    0 -0.81598919216E+02 -0.28985751554E+02  0.21213914553E+02  0.12816117579E+03  0.92068992602E+02 0.  0.
        -11    1    3    3    0    0  0.11567221537E+03  0.45412146006E+02  0.64433234289E+01  0.12443408227E+03  0.00000000000E+00 0. -1.
         11    1    3    3    0    0 -0.62131820036E+01 -0.25066060070E+02 -0.34186475112E+01  0.26049916485E+02  0.00000000000E+00 0.  1.
        -11    1    4    4    0    0 -0.62364214086E+02 -0.61229060394E+02  0.23640291341E+02  0.90538148921E+02  0.00000000000E+00 0. -1.
         11    1    4    4    0    0 -0.19234705130E+02  0.32243308840E+02 -0.24263767879E+01  0.37623026868E+02  0.00000000000E+00 0.  1.
         21    1    1    2  502  501 -0.27860114153E+02  0.86396656178E+01  0.43346760635E+02  0.52247214664E+02  0.00000000000E+00 0. -1.
<scales pt_clust_5="13000.00000" pt_clust_6="13000.00000" pt_clust_7="13000.00000" pt_clust_8="13000.00000" pt_clust_9="29.16899"></scales>
<clustering>
<clus scale="   29.169">  1  9  2 -1</clus>
<clus scale="   92.069">  7  8 -1 -1</clus>
<clus scale="  101.198">  5  6 -1 -1</clus>
<clus scale="  134.824">  1  7  2 -1</clus>
<clus scale="   29.169">  1  5  2 -1</clus>
</clustering>
</event>
<event>
 9    1  0.5300912E-006  0.1203612E+03  0.7546771E-02  0.1242767E+00
          1   -1    0    0  502    0  0.00000000000E+00  0.00000000000E+00  0.16553113460E+03  0.16553113460E+03  0.00000000000E+00 0. -1.
         -1   -1    0    0    0  501 -0.00000000000E+00 -0.00000000000E+00 -0.21930850455E+03  0.21930850455E+03  0.00000000000E+00 0.  1.
         23    2    1    2    0    0 -0.24324361743E+02  0.74656959774E+02 -0.15488280903E+03  0.19593830106E+03  0.90762310857E+02 0.  0.
         23    2    1    2    0    0 -0.50923082016E+01 -0.86483044449E+02  0.64695202850E+02  0.14062192164E+03  0.89909993855E+02 0.  0.
        -11    1    4    4    0    0 -0.50092770279E+01 -0.23619139266E+02 -0.22583790035E+02  0.33060311075E+02  0.00000000000E+00 0.  1.
         11    1    4    4    0    0 -0.83031173731E-01 -0.62863905183E+02  0.87278992886E+02  0.10756161057E+03  0.00000000000E+00 0. -1.
        -13    1    3    3    0    0 -0.27561885058E+02  0.86580830788E+00 -0.10050226675E+03  0.10421666255E+03  0.00000000000E+00 0.  1.
         13    1    3    3    0    0  0.32375233147E+01  0.73791151466E+02 -0.54380542289E+02  0.91721638513E+02  0.00000000000E+00 0. -1.
         21    1    1    2  502  501  0.29416669945E+02  0.11826084674E+02  0.36410236235E+02  0.48279416443E+02  0.00000000000E+00 0. -1.
<scales pt_clust_5="13000.00000" pt_clust_6="13000.00000" pt_clust_7="13000.00000" pt_clust_8="13000.00000" pt_clust_9="31.70484"></scales>
<clustering>
<clus scale="   31.705">  1  9  2 -1</clus>
<clus scale="   89.910">  5  6 -1 -1</clus>
<clus scale="   90.762">  7  8 -1 -1</clus>
<clus scale="  119.720">  1  5  2 -1</clus>
<clus scale="   31.705">  1  5  2 -1</clus>
</clustering>
</event>
<event>
 9    1  0.5300912E-006  0.1251497E+03  0.7546771E-02  0.1247705E+00
         -1   -1    0    0    0  501 -0.00000000000E+00  0.00000000000E+00  0.59844626514E+02  0.59844626514E+02  0.00000000000E+00 0.  1.
          1   -1    0    0  502    0  0.00000000000E+00 -0.00000000000E+00 -0.47556860846E+03  0.47556860846E+03  0.00000000000E+00 0. -1.
         23    2    1    2    0    0  0.28241476819E+02  0.69250020146E+02 -0.82834572597E+02  0.14332024755E+03  0.89922080921E+02 0.  0.
         23    2    1    2    0    0  0.25073828630E+02  0.18031294656E+02 -0.21742666951E+03  0.23784580268E+03  0.91336984691E+02 0.  0.
        -11    1    3    3    0    0  0.55064050572E+02  0.68757307487E+02 -0.74089593639E+02  0.11510380047E+03  0.00000000000E+00 0.  1.
         11    1    3    3    0    0 -0.26822573753E+02  0.49271265916E+00 -0.87449789586E+01  0.28216447075E+02  0.00000000000E+00 0. -1.
        -13    1    4    4    0    0  0.26962698857E+02  0.47566998144E+02 -0.77643232511E+02  0.94963561416E+02  0.00000000000E+00 0.  1.
         13    1    4    4    0    0 -0.18888702268E+01 -0.29535703489E+02 -0.13978343700E+03  0.14288224127E+03  0.00000000000E+00 0. -1.
         21    1    1    2  502  501 -0.53315305449E+02 -0.87281314801E+02 -0.11546273984E+03  0.15424718474E+03  0.00000000000E+00 0. -1.
<scales pt_clust_5="13000.00000" pt_clust_6="13000.00000" pt_clust_7="13000.00000" pt_clust_8="13000.00000" pt_clust_9="87.04288"></scales>
<clustering>
<clus scale="   89.922">  5  6 -1 -1</clus>
<clus scale="   91.337">  7  8 -1 -1</clus>
<clus scale="   96.417">  2  7  1 -1</clus>
<clus scale="   87.043">  2  9  1 -1</clus>
<clus scale="   96.417">  2  5  1 -1</clus>
</clustering>
</event>
<event>
 9    1  0.5300912E-006  0.1319655E+03  0.7546771E-02  0.1225977E+00
         -2   -1    0    0    0  501 -0.00000000000E+00  0.00000000000E+00  0.26953446366E+03  0.26953446366E+03  0.00000000000E+00 0.  1.
          2   -1    0    0  502    0  0.00000000000E+00 -0.00000000000E+00 -0.31760391367E+03  0.31760391367E+03  0.00000000000E+00 0. -1.
         23    2    1    2    0    0  0.85769510697E+02 -0.19378922268E+02  0.16421323034E+03  0.20613042086E+03  0.88271251222E+02 0.  0.
         23    2    1    2    0    0 -0.10395542142E+03  0.13765327584E+03 -0.14125982110E+03  0.24185409702E+03  0.93722533006E+02 0.  0.
        -11    1    4    4    0    0  0.27392067816E+01  0.64913990218E+02 -0.64911718846E+02  0.91841497284E+02  0.00000000000E+00 0.  1.
         11    1    4    4    0    0 -0.10669462820E+03  0.72739285623E+02 -0.76348102256E+02  0.15001259973E+03  0.00000000000E+00 0. -1.
        -11    1    3    3    0    0  0.24617606646E+02  0.34878204201E+02  0.51572735151E+02  0.66949702735E+02  0.00000000000E+00 0. -1.
         11    1    3    3    0    0  0.61151904051E+02 -0.54257126470E+02  0.11264049519E+03  0.13918071813E+03  0.00000000000E+00 0.  1.
         21    1    1    2  502  501  0.18185910725E+02 -0.11827435357E+03 -0.71022859249E+02  0.13915385944E+03  0.00000000000E+00 0.  1.
<scales pt_clust_5="13000.00000" pt_clust_6="13000.00000" pt_clust_7="13000.00000" pt_clust_8="13000.00000" pt_clust_9="119.66432"></scales>
<clustering>
<clus scale="   88.271">  7  8 -1 -1</clus>
<clus scale="   93.723">  5  6 -1 -1</clus>
<clus scale="  119.664">  2  9  1 -1</clus>
<clus scale="  128.151">  1  7  2 -1</clus>
<clus scale="  119.664">  2  5  1 -1</clus>
</clustering>
</event>
<event>
 9    1  0.5300912E-006  0.1717190E+03  0.7546771E-02  0.1201602E+00
         -2   -1    0    0    0  501 -0.00000000000E+00  0.00000000000E+00  0.61283133111E+02  0.61283133111E+02  0.00000000000E+00 0.  1.
          2   -1    0    0  502    0  0.00000000000E+00 -0.00000000000E+00 -0.83279917435E+03  0.83279917435E+03  0.00000000000E+00 0. -1.
         23    2    1    2    0    0  0.24458461195E+02  0.27735634616E+02 -0.69678851581E+02  0.11988862140E+03  0.90280991534E+02 0.  0.
         23    2    1    2    0    0  0.11480793838E+03 -0.89862965044E+02 -0.29948545838E+03  0.34391255598E+03  0.85604270810E+02 0.  0.
        -11    1    4    4    0    0  0.97549616699E+02 -0.34411220291E+02 -0.23708493742E+03  0.25866837331E+03  0.00000000000E+00 0.  1.
         11    1    4    4    0    0  0.17258321680E+02 -0.55451744753E+02 -0.62400520955E+02  0.85244182668E+02  0.00000000000E+00 0. -1.
        -13    1    3    3    0    0  0.47759130277E+02 -0.12229067289E+02 -0.47971326823E+02  0.68787591968E+02  0.00000000000E+00 0.  1.
         13    1    3    3    0    0 -0.23300669082E+02  0.39964701905E+02 -0.21707524758E+02  0.51101029433E+02  0.00000000000E+00 0. -1.
         21    1    1    2  502  501 -0.13926639957E+03  0.62127330428E+02 -0.40235173129E+03  0.43028113008E+03  0.00000000000E+00 0. -1.
<scales pt_clust_5="13000.00000" pt_clust_6="13000.00000" pt_clust_7="13000.00000" pt_clust_8="13000.00000" pt_clust_9="148.86013"></scales>
<clustering>
<clus scale="   85.604">  5  6 -1 -1</clus>
<clus scale="   90.281">  7  8 -1 -1</clus>
<clus scale="   97.561">  1  7  2 -1</clus>
<clus scale="  148.860">  2  9  1 -1</clus>
<clus scale="  148.860">  2  5  1 -1</clus>
</clustering>
</event>
<event>
 9    1  0.5300912E-006  0.1647000E+03  0.7546771E-02  0.1183673E+00
         -2   -1    0    0    0  501 -0.00000000000E+00  0.00000000000E+00  0.16016595476E+03  0.16016595476E+03  0.00000000000E+00 0.  1.
          2   -1    0    0  502    0  0.00000000000E+00 -0.00000000000E+00 -0.61945497898E+03  0.61945497898E+03  0.00000000000E+00 0. -1.
         23    2    1    2    0    0 -0.61716748970E+02  0.11761735328E+03  0.68013666622E+02  0.17394702288E+03  0.89380697153E+02 0.  0.
         23    2    1    2    0    0  0.18348821700E+02 -0.18850792335E+03 -0.42363252003E+03  0.47280647936E+03  0.90606503447E+02 0.  0.
        -11    1    3    3    0    0 -0.21995761009E+02  0.25727958834E+01 -0.14889307073E+02  0.26685656187E+02  0.00000000000E+00 0. -1.
         11    1    3    3    0    0 -0.39720987961E+02  0.11504455740E+03  0.82902973695E+02  0.14726136669E+03  0.00000000000E+00 0.  1.
        -11    1    4    4    0    0 -0.11200470713E+02 -0.36678675043E+02 -0.26503100104E+02  0.46617486657E+02  0.00000000000E+00 0.  1.
         11    1    4    4    0    0  0.29549292414E+02 -0.15182924831E+03 -0.39712941993E+03  0.42618899270E+03  0.00000000000E+00 0. -1.
         21    1    1    2  502  501  0.43367927269E+02  0.70890570072E+02 -0.10367017080E+03  0.13286743151E+03  0.00000000000E+00 0. -1.
<scales pt_clust_5="13000.00000" pt_clust_6="13000.00000" pt_clust_7="13000.00000" pt_clust_8="13000.00000" pt_clust_9="83.10385"></scales>
<clustering>
<clus scale="   83.104">  2  9  1 -1</clus>
<clus scale="   89.381">  5  6 -1 -1</clus>
<clus scale="   90.607">  7  8 -1 -1</clus>
<clus scale="  164.029">  1  5  2 -1</clus>
<clus scale="   83.104">  2  5  1 -1</clus>
</clustering>
</event>
<event>
 9    1  0.5300912E-006  0.9756465E+02  0.7546771E-02  0.1286293E+00
         -3   -1    0    0    0  501 -0.00000000000E+00  0.00000000000E+00  0.27381018113E+02  0.27381018113E+02  0.00000000000E+00 0.  1.
          3   -1    0    0  502    0  0.00000000000E+00 -0.00000000000E+00 -0.71594943347E+03  0.71594943347E+03  0.00000000000E+00 0. -1.
         23    2    1    2    0    0 -0.52785254442E+01 -0.41463958949E+02 -0.17650333196E+03  0.20368905583E+03  0.92675145270E+02 0.  0.
         23    2    1    2    0    0  0.15379922909E+02  0.23142795967E+02 -0.50976309563E+03  0.51859377376E+03  0.91153483103E+02 0.  0.
        -11    1    3    3    0    0 -0.14050441604E+02  0.25992007676E+02 -0.29711891895E+02  0.41902218226E+02  0.00000000000E+00 0.  1.
         11    1    3    3    0    0  0.87719161599E+01 -0.67455966626E+02 -0.14679144006E+03  0.16178683761E+03  0.00000000000E+00 0. -1.
        -13    1    4    4    0    0 -0.58827221602E+01  0.55913290081E+02 -0.29731759012E+03  0.30258660219E+03  0.00000000000E+00 0.  1.
         13    1    4    4    0    0  0.21262645069E+02 -0.32770494113E+02 -0.21244550551E+03  0.21600717157E+03  0.00000000000E+00 0. -1.
         21    1    1    2  502  501 -0.10101397465E+02  0.18321162982E+02 -0.23019877660E+01  0.21047621990E+02  0.00000000000E+00 0. -1.
<scales pt_clust_5="13000.00000" pt_clust_6="13000.00000" pt_clust_7="13000.00000" pt_clust_8="13000.00000" pt_clust_9="20.92136"></scales>
<clustering>
<clus scale="   20.921">  1  9  2 -1</clus>
<clus scale="   91.153">  7  8 -1 -1</clus>
<clus scale="   92.675">  5  6 -1 -1</clus>
<clus scale="   96.120">  2  7  1 -1</clus>
<clus scale="   96.120">  2  5  1 -1</clus>
</clustering>
</event>
<event>
 9    1  0.5300912E-006  0.9472148E+02  0.7546771E-02  0.1291938E+00
          2   -1    0    0  502    0  0.00000000000E+00  0.00000000000E+00  0.19066060476E+03  0.19066060476E+03  0.00000000000E+00 0. -1.
         -2   -1    0    0    0  501 -0.00000000000E+00 -0.00000000000E+00 -0.76533345410E+02  0.76533345410E+02  0.00000000000E+00 0.  1.
         23    2    1    2    0    0  0.92457148969E+01  0.21650936007E+02  0.57191118553E+01  0.93894257401E+02  0.90714811682E+02 0.  0.
         23    2    1    2    0    0 -0.36593056457E+02 -0.14883016150E+02  0.55224586268E+02  0.11311520129E+03  0.90469541196E+02 0.  0.
        -11    1    3    3    0    0  0.97349956184E+01  0.56531674444E+02  0.11580718408E+02  0.58521050861E+02  0.00000000000E+00 0.  1.
         11    1    3    3    0    0 -0.48928072152E+00 -0.34880738436E+02 -0.58616065529E+01  0.35373206539E+02  0.00000000000E+00 0. -1.
        -13    1    4    4    0    0  0.16694580951E+02  0.26434606597E+02  0.18658221689E+02  0.36409156755E+02  0.00000000000E+00 0. -1.
         13    1    4    4    0    0 -0.53287637408E+02 -0.41317622746E+02  0.36566364578E+02  0.76706044536E+02  0.00000000000E+00 0.  1.
         21    1    1    2  502  501  0.27347341560E+02 -0.67679198575E+01  0.53183561230E+02  0.60184491480E+02  0.00000000000E+00 0.  1.
<scales pt_clust_5="13000.00000" pt_clust_6="13000.00000" pt_clust_7="13000.00000" pt_clust_8="13000.00000" pt_clust_9="28.17236"></scales>
<clustering>
<clus scale="   28.172">  1  9  2 -1</clus>
<clus scale="   90.470">  7  8 -1 -1</clus>
<clus scale="   90.715">  5  6 -1 -1</clus>
<clus scale="   94.487">  1  7  2 -1</clus>
<clus scale="   28.172">  1  5  2 -1</clus>
</clustering>
</event>
<event>
 9    1  0.5300912E-006  0.1309574E+03  0.7546771E-02  0.1227408E+00
         -1   -1    0    0    0  501 -0.00000000000E+00  0.00000000000E+00  0.41699142595E+03  0.41699142595E+03  0.00000000000E+00 0.  1.
          1   -1    0    0  502    0  0.00000000000E+00 -0.00000000000E+00 -0.22893701044E+03  0.22893701044E+03  0.00000000000E+00 0. -1.
         23    2    1    2    0    0 -0.72368227938E+02 -0.50572138898E+02  0.26512596782E+03  0.29495833354E+03  0.94413654020E+02 0.  0.
         23    2    1    2    0    0  0.90419739910E+02  0.36887434101E+02  0.10412397107E+03  0.16836411739E+03  0.89265124838E+02 0.  0.
        -11    1    4    4    0    0  0.10197027217E+03  0.98697965835E+01  0.86652734588E+02  0.13417915525E+03  0.00000000000E+00 0. -1.
         11    1    4    4    0    0 -0.11550532259E+02  0.27017637517E+02  0.17471236484E+02  0.34184962144E+02  0.00000000000E+00 0.  1.
        -13    1    3    3    0    0 -0.42450535928E+02  0.11951784793E+02  0.17927323696E+03  0.18461794781E+03  0.00000000000E+00 0.  1.
         13    1    3    3    0    0 -0.29917692009E+02 -0.62523923691E+02  0.85852730853E+02  0.11034038573E+03  0.00000000000E+00 0. -1.
         21    1    1    2  502  501 -0.18051511972E+02  0.13684704797E+02 -0.18119552338E+03  0.18260598545E+03  0.00000000000E+00 0. -1.
<scales pt_clust_5="13000.00000" pt_clust_6="13000.00000" pt_clust_7="13000.00000" pt_clust_8="13000.00000" pt_clust_9="22.65233"></scales>
<clustering>
<clus scale="   22.652">  2  9  1 -1</clus>
<clus scale="   89.265">  5  6 -1 -1</clus>
<clus scale="   94.414">  7  8 -1 -1</clus>
<clus scale="  127.296">  2  5  1 -1</clus>
<clus scale="   22.652">  2  5  1 -1</clus>
</clustering>
</event>
<event>
 9    1  0.5300912E-006  0.1339411E+03  0.7546771E-02  0.1223093E+00
          1   -1    0    0  502    0  0.00000000000E+00  0.00000000000E+00  0.18137255010E+03  0.18137255010E+03  0.00000000000E+00 0. -1.
         -1   -1    0    0    0  501 -0.00000000000E+00 -0.00000000000E+00 -0.22748512028E+03  0.22748512028E+03  0.00000000000E+00 0.  1.
         23    2    1    2    0    0  0.46625839447E+02 -0.77285925383E+02 -0.10883620371E+03  0.16811539552E+03  0.90941650564E+02 0.  0.
         23    2    1    2    0    0 -0.98688742751E+02  0.50366799469E+02 -0.10253019471E+02  0.14714325176E+03  0.96279435479E+02 0.  0.
        -11    1    3    3    0    0  0.69559429922E+02 -0.42625483919E+02 -0.92818673114E+02  0.12357488519E+03  0.00000000000E+00 0.  1.
         11    1    3    3    0    0 -0.22933590475E+02 -0.34660441464E+02 -0.16017530597E+02  0.44540510336E+02  0.00000000000E+00 0. -1.
        -13    1    4    4    0    0 -0.53373415174E+02 -0.21753733688E+02 -0.20892008785E+02  0.61305973671E+02  0.00000000000E+00 0.  1.
         13    1    4    4    0    0 -0.45315327577E+02  0.72120533157E+02  0.10638989314E+02  0.85837278090E+02  0.00000000000E+00 0. -1.
         21    1    1    2  502  501  0.52062903304E+02  0.26919125915E+02  0.72976652999E+02  0.93599023090E+02  0.00000000000E+00 0.  1.
<scales pt_clust_5="13000.00000" pt_clust_6="13000.00000" pt_clust_7="13000.00000" pt_clust_8="13000.00000" pt_clust_9="58.61045"></scales>
<clustering>
<clus scale="   58.610">  1  9  2 -1</clus>
<clus scale="   90.942">  5  6 -1 -1</clus>
<clus scale="   96.279">  7  8 -1 -1</clus>
<clus scale="  130.157">  2  5  1 -1</clus>
<clus scale="   58.610">  1  5  2 -1</clus>
</clustering>
</event>
<event>
 9    1  0.5300912E-006  0.3021567E+03  0.7546771E-02  0.1094186E+00
          1   -1    0    0  502    0  0.00000000000E+00  0.00000000000E+00  0.58610513006E+03  0.58610513006E+03  0.00000000000E+00 0. -1.
         -1   -1    0    0    0  501 -0.00000000000E+00 -0.00000000000E+00 -0.32087314724E+03  0.32087314724E+03  0.00000000000E+00 0.  1.
         23    2    1    2    0    0  0.20950093574E+03 -0.38718106657E+02  0.69551443003E+02  0.24196875205E+03  0.91223570881E+02 0.  0.
         23    2    1    2    0    0 -0.65020370984E+02  0.30435969798E+03  0.47242215049E+02  0.32815046734E+03  0.92673771552E+02 0.  0.
        -11    1    3    3    0    0  0.18958313385E+02 -0.20378966527E+02 -0.16212337466E+02  0.32211175223E+02  0.00000000000E+00 0.  1.
         11    1    3    3    0    0  0.19054262236E+03 -0.18339140130E+02  0.85763780470E+02  0.20975757683E+03  0.00000000000E+00 0. -1.
        -13    1    4    4    0    0 -0.80138742776E+02  0.15604436786E+03  0.31669145890E+02  0.17825542807E+03  0.00000000000E+00 0.  1.
         13    1    4    4    0    0  0.15118371792E+02  0.14831533012E+03  0.15573069159E+02  0.14989503927E+03  0.00000000000E+00 0. -1.
         21    1    1    2  502  501 -0.14448056476E+03 -0.26564159132E+03  0.14843832477E+03  0.33685905791E+03  0.00000000000E+00 0.  1.
<scales pt_clust_5="13000.00000" pt_clust_6="13000.00000" pt_clust_7="13000.00000" pt_clust_8="13000.00000" pt_clust_9="287.59388"></scales>
<clustering>
<clus scale="   91.224">  5  6 -1 -1</clus>
<clus scale="   92.674">  7  8 -1 -1</clus>
<clus scale="  231.757">  2  5  1 -1</clus>
<clus scale="  287.594">  1  9  2 -1</clus>
<clus scale="  287.594">  1  5  2 -1</clus>
</clustering>
</event>
<event>
 9    1  0.5300912E-006  0.1028853E+03  0.7546771E-02  0.1275129E+00
         -3   -1    0    0    0  501 -0.00000000000E+00  0.00000000000E+00  0.19907699176E+03  0.19907699176E+03  0.00000000000E+00 0.  1.
          3   -1    0    0  502    0  0.00000000000E+00 -0.00000000000E+00 -0.70339687688E+02  0.70339687688E+02  0.00000000000E+00 0. -1.
         23    2    1    2    0    0 -0.40415579508E+02  0.16366807342E+02  0.79020481808E+02  0.12867615807E+03  0.91717095790E+02 0.  0.
         23    2    1    2    0    0  0.30256127697E+02 -0.41909191770E+02  0.34731989879E+02  0.10943280564E+03  0.89985633361E+02 0.  0.
        -11    1    3    3    0    0 -0.58719224229E+02 -0.15171934592E+02  0.66784936463E+02  0.90212873980E+02  0.00000000000E+00 0.  1.
         11    1    3    3    0    0  0.18303644722E+02  0.31538741933E+02  0.12235545345E+02  0.38463284087E+02  0.00000000000E+00 0. -1.
        -13    1    4    4    0    0 -0.26850168189E+02 -0.37983004757E+02  0.16608378021E+02  0.49391076143E+02  0.00000000000E+00 0.  1.
         13    1    4    4    0    0  0.57106295886E+02 -0.39261870140E+01  0.18123611858E+02  0.60041729497E+02  0.00000000000E+00 0. -1.
         21    1    1    2  502  501  0.10159451811E+02  0.25542384429E+02  0.14984832390E+02  0.31307715745E+02  0.00000000000E+00 0. -1.
<scales pt_clust_5="13000.00000" pt_clust_6="13000.00000" pt_clust_7="13000.00000" pt_clust_8="13000.00000" pt_clust_9="27.48869"></scales>
<clustering>
<clus scale="   27.489">  1  9  2 -1</clus>
<clus scale="   89.986">  7  8 -1 -1</clus>
<clus scale="   91.717">  5  6 -1 -1</clus>
<clus scale="  101.345">  2  7  1 -1</clus>
<clus scale="  101.345">  2  5  1 -1</clus>
</clustering>
</event>
<event>
 9    1  0.5300912E-006  0.3505736E+03  0.7546771E-02  0.1111624E+00
          1   -1    0    0  502    0  0.00000000000E+00  0.00000000000E+00  0.49703617254E+03  0.49703617254E+03  0.00000000000E+00 0. -1.
         -1   -1    0    0    0  501 -0.00000000000E+00 -0.00000000000E+00 -0.31985264149E+03  0.31985264149E+03  0.00000000000E+00 0.  1.
         23    2    1    2    0    0 -0.16474624271E+02 -0.17221492894E+02 -0.26336484503E+02  0.98206207040E+02  0.91557935881E+02 0.  0.
         23    2    1    2    0    0  0.18126912638E+03  0.29936698506E+03  0.12216741679E+03  0.38196083460E+03  0.92141811990E+02 0.  0.
        -13    1    3    3    0    0 -0.49899385840E+02  0.30191667364E+00  0.36070376042E+01  0.50030496511E+02  0.00000000000E+00 0.  1.
         13    1    3    3    0    0  0.33424761569E+02 -0.17523409567E+02 -0.29943522107E+02  0.48175710529E+02  0.00000000000E+00 0. -1.
        -13    1    4    4    0    0  0.10862169166E+03  0.18341128595E+03  0.12102377546E+03  0.24512267528E+03  0.00000000000E+00 0.  1.
         13    1    4    4    0    0  0.72647434721E+02  0.11595569912E+03  0.11436413323E+01  0.13683815932E+03  0.00000000000E+00 0. -1.
         21    1    1    2  502  501 -0.16479450211E+03 -0.28214549217E+03  0.81352598763E+02  0.33672177239E+03  0.00000000000E+00 0.  1.
<scales pt_clust_5="13000.00000" pt_clust_6="13000.00000" pt_clust_7="13000.00000" pt_clust_8="13000.00000" pt_clust_9="338.24802"></scales>
<clustering>
<clus scale="   91.558">  5  6 -1 -1</clus>
<clus scale="   92.142">  7  8 -1 -1</clus>
<clus scale="   94.609">  2  5  1 -1</clus>
<clus scale="  338.248">  2  9  1 -1</clus>
<clus scale="  350.574">  1  5  2 -1</clus>
</clustering>
</event>
<event>
 9    1  0.5300912E-006  0.9968020E+02  0.7546771E-02  0.1285118E+00
          1   -1    0    0  502    0  0.00000000000E+00  0.00000000000E+00  0.15837458796E+03  0.15837458796E+03  0.00000000000E+00 0. -1.
         -1   -1    0    0    0  501 -0.00000000000E+00 -0.00000000000E+00 -0.13674493647E+03  0.13674493647E+03  0.00000000000E+00 0.  1.
         23    2    1    2    0    0 -0.30313340063E+02 -0.24546237125E+02 -0.39740415831E+02  0.10674917894E+03  0.91075080078E+02 0.  0.
         23    2    1    2    0    0 -0.29489605486E+02 -0.19151450985E+01  0.66752437012E+02  0.12275352638E+03  0.98687566490E+02 0.  0.
        -11    1    3    3    0    0  0.89315839098E+01  0.29339097256E+02 -0.34844535613E+01  0.30865793940E+02  0.00000000000E+00 0. -1.
         11    1    3    3    0    0 -0.39244923972E+02 -0.53885334381E+02 -0.36255962270E+02  0.75883385000E+02  0.00000000000E+00 0.  1.
        -13    1    4    4    0    0 -0.58498163555E+02  0.24156002828E+02  0.34124425802E+02  0.71902879277E+02  0.00000000000E+00 0.  1.
         13    1    4    4    0    0  0.29008558069E+02 -0.26071147927E+02  0.32628011209E+02  0.50850647105E+02  0.00000000000E+00 0. -1.
         21    1    1    2  502  501  0.59802945549E+02  0.26461382224E+02 -0.53823696937E+01  0.65616819102E+02  0.00000000000E+00 0. -1.
<scales pt_clust_5="13000.00000" pt_clust_6="13000.00000" pt_clust_7="13000.00000" pt_clust_8="13000.00000" pt_clust_9="65.39570"></scales>
<clustering>
<clus scale="   65.396">  2  9  1 -1</clus>
<clus scale="   91.075">  5  6 -1 -1</clus>
<clus scale="   92.150">  2  5  1 -1</clus>
<clus scale="   98.688">  7  8 -1 -1</clus>
<clus scale="   99.680">  1  5  2 -1</clus>
</clustering>
</event>
<event>
 9    1  0.5300912E-006  0.1071220E+03  0.7546771E-02  0.1266064E+00
          1   -1    0    0  502    0  0.00000000000E+00  0.00000000000E+00  0.29259064213E+03  0.29259064213E+03  0.00000000000E+00 0. -1.
         -1   -1    0    0    0  501 -0.00000000000E+00 -0.00000000000E+00 -0.84062056803E+02  0.84062056803E+02  0.00000000000E+00 0.  1.
         23    2    1    2    0    0 -0.47598174406E+02  0.82112103982E+02  0.13272142981E+03  0.18603353906E+03  0.89361713822E+02 0.  0.
         23    2    1    2    0    0  0.14026058293E+02 -0.26222851430E+02  0.82169356657E+02  0.12511211342E+03  0.89536972831E+02 0.  0.
        -13    1    4    4    0    0  0.13352916548E+02  0.29301852904E+02  0.93392869702E+01  0.33527917398E+02  0.00000000000E+00 0.  1.
         13    1    4    4    0    0  0.67314174544E+00 -0.55524704334E+02  0.72830069686E+02  0.91584196026E+02  0.00000000000E+00 0. -1.
        -13    1    3    3    0    0  0.41849879393E+00  0.73929776723E+02  0.47502621196E+02  0.87876538667E+02  0.00000000000E+00 0.  1.
         13    1    3    3    0    0 -0.48016673200E+02  0.81823272589E+01  0.85218808612E+02  0.98157000392E+02  0.00000000000E+00 0. -1.
         21    1    1    2  502  501  0.33572116113E+02 -0.55889252553E+02 -0.63622011385E+01  0.65507046450E+02  0.00000000000E+00 0. -1.
<scales pt_clust_5="13000.00000" pt_clust_6="13000.00000" pt_clust_7="13000.00000" pt_clust_8="13000.00000" pt_clust_9="65.19736"></scales>
<clustering>
<clus scale="   65.197">  2  9  1 -1</clus>
<clus scale="   89.362">  7  8 -1 -1</clus>
<clus scale="   89.537">  5  6 -1 -1</clus>
<clus scale="  106.976">  2  7  1 -1</clus>
<clus scale="  107.122">  1  5  2 -1</clus>
</clustering>
</event>
<event>
 9    1  0.5300912E-006  0.9559073E+02  0.7546771E-02  0.1292264E+00
          1   -1    0    0  502    0  0.00000000000E+00  0.00000000000E+00  0.54413951906E+02  0.54413951906E+02  0.00000000000E+00 0. -1.
         -1   -1    0    0    0  501 -0.00000000000E+00 -0.00000000000E+00 -0.48612855062E+03  0.48612855062E+03  0.00000000000E+00 0.  1.
         23    2    1    2    0    0  0.23777469797E+02  0.44177898355E+02 -0.26051970448E+03  0.27858312135E+03  0.84976374985E+02 0.  0.
         23    2    1    2    0    0 -0.39664448086E+02  0.37638395084E+02 -0.13536501168E+03  0.17123957940E+03  0.89495195050E+02 0.  0.
        -11    1    3    3    0    0 -0.84528183242E+01  0.38084818672E+02 -0.23157228792E+03  0.23483532120E+03  0.00000000000E+00 0.  1.
         11    1    3    3    0    0  0.32230288121E+02  0.60930796829E+01 -0.28947416561E+02  0.43747800150E+02  0.00000000000E+00 0. -1.
        -13    1    4    4    0    0 -0.48735387127E+02 -0.13618779413E+02 -0.84293213399E+02  0.98315588470E+02  0.00000000000E+00 0.  1.
         13    1    4    4    0    0  0.90709390409E+01  0.51257174496E+02 -0.51071798286E+02  0.72923990926E+02  0.00000000000E+00 0. -1.
         21    1    1    2  502  501  0.15886978289E+02 -0.81816293439E+02 -0.35829882546E+02  0.90719801777E+02  0.00000000000E+00 0. -1.
<scales pt_clust_5="13000.00000" pt_clust_6="13000.00000" pt_clust_7="13000.00000" pt_clust_8="13000.00000" pt_clust_9="83.34448"></scales>
<clustering>
<clus scale="   83.344">  1  9  2 -1</clus>
<clus scale="   84.976">  5  6 -1 -1</clus>
<clus scale="   89.495">  7  8 -1 -1</clus>
<clus scale="   91.374">  2  5  1 -1</clus>
<clus scale="   83.344">  1  5  2 -1</clus>
</clustering>
</event>
<event>
 9    1  0.5300912E-006  0.1165412E+03  0.7546771E-02  0.1249576E+00
         -1   -1    0    0    0  501 -0.00000000000E+00  0.00000000000E+00  0.57451204685E+03  0.57451204685E+03  0.00000000000E+00 0.  1.
          1   -1    0    0  502    0  0.00000000000E+00 -0.00000000000E+00 -0.45176242216E+02  0.45176242216E+02  0.00000000000E+00 0. -1.
         23    2    1    2    0    0  0.86743927162E+02 -0.46493507602E+02  0.31389305446E+03  0.34202455586E+03  0.93625808525E+02 0.  0.
         23    2    1    2    0    0 -0.43108456464E+02 -0.10454903363E+02  0.14419325801E+03  0.17655158780E+03  0.91712177366E+02 0.  0.
        -13    1    3    3    0    0 -0.18441692455E+02 -0.13583564340E+02  0.32004511045E+02  0.39356041061E+02  0.00000000000E+00 0. -1.
         13    1    3    3    0    0  0.10518561962E+03 -0.32909943263E+02  0.28188854342E+03  0.30266851480E+03  0.00000000000E+00 0.  1.
        -13    1    4    4    0    0 -0.26611510203E+02 -0.36963150155E+02  0.13719071771E+03  0.14455358858E+03  0.00000000000E+00 0. -1.
         13    1    4    4    0    0 -0.16496946261E+02  0.26508246791E+02  0.70025403010E+01  0.31997999227E+02  0.00000000000E+00 0.  1.
         21    1    1    2  502  501 -0.43635470698E+02  0.56948410966E+02  0.71249492157E+02  0.10111214540E+03  0.00000000000E+00 0.  1.
<scales pt_clust_5="13000.00000" pt_clust_6="13000.00000" pt_clust_7="13000.00000" pt_clust_8="13000.00000" pt_clust_9="71.74382"></scales>
<clustering>
<clus scale="   71.744">  2  9  1 -1</clus>
<clus scale="   91.712">  7  8 -1 -1</clus>
<clus scale="   93.626">  5  6 -1 -1</clus>
<clus scale="  115.009">  2  7  1 -1</clus>
<clus scale="   71.744">  2  5  1 -1</clus>
</clustering>
</event>
<event>
 9    1  0.5300912E-006  0.1334833E+03  0.7546771E-02  0.1230907E+00
          1   -1    0    0  502    0  0.00000000000E+00  0.00000000000E+00  0.43138469203E+02  0.43138469203E+02  0.00000000000E+00 0. -1.
         -1   -1    0    0    0  501 -0.00000000000E+00 -0.00000000000E+00 -0.66705861169E+03  0.66705861169E+03  0.00000000000E+00 0.  1.
         23    2    1    2    0    0 -0.11330779547E+02 -0.36466211667E+02 -0.42115067141E+03  0.43263948473E+03  0.91383064956E+02 0.  0.
         23    2    1    2    0    0 -0.33198690847E+01  0.73871856685E+02 -0.11091737303E+03  0.17730475730E+03  0.11690269706E+03 0.  0.
        -13    1    4    4    0    0  0.10864190528E+02  0.54927639697E+02 -0.13339249683E+03  0.14466732336E+03  0.00000000000E+00 0.  1.
         13    1    4    4    0    0 -0.14184059613E+02  0.18944216988E+02  0.22475123796E+02  0.32637433938E+02  0.00000000000E+00 0. -1.
        -13    1    3    3    0    0 -0.40669236987E+02 -0.51735873987E+02 -0.29162649654E+03  0.29895919618E+03  0.00000000000E+00 0.  1.
         13    1    3    3    0    0  0.29338457439E+02  0.15269662320E+02 -0.12952417487E+03  0.13368028856E+03  0.00000000000E+00 0. -1.
         21    1    1    2  502  501  0.14650648632E+02 -0.37405645018E+02 -0.91852098039E+02  0.10025283886E+03  0.00000000000E+00 0.  1.
<scales pt_clust_5="13000.00000" pt_clust_6="13000.00000" pt_clust_7="13000.00000" pt_clust_8="13000.00000" pt_clust_9="40.17243"></scales>
<clustering>
<clus scale="   40.172">  2  9  1 -1</clus>
<clus scale="   91.383">  7  8 -1 -1</clus>
<clus scale="  111.814">  2  7  1 -1</clus>
<clus scale="  116.903">  5  6 -1 -1</clus>
<clus scale="  133.483">  1  5  2 -1</clus>
</clustering>
</event>
<event>
 9    1  0.5300912E-006  0.1478345E+03  0.7546771E-02  0.1203810E+00
          1   -1    0    0  502    0  0.00000000000E+00  0.00000000000E+00  0.18732312853E+03  0.18732312853E+03  0.00000000000E+00 0. -1.
         -1   -1    0    0    0  501 -0.00000000000E+00 -0.00000000000E+00 -0.30910985593E+03  0.30910985593E+03  0.00000000000E+00 0.  1.
         23    2    1    2    0    0  0.32650999288E+01 -0.15314418951E+03 -0.17659171490E+03  0.25078524045E+03  0.90800877734E+02 0.  0.
         23    2    1    2    0    0 -0.48705553563E+02  0.50623656995E+02 -0.69728232695E+01  0.11761730888E+03  0.94075637062E+02 0.  0.
        -11    1    4    4    0    0 -0.38976135976E+02  0.18481493735E+02 -0.48042051905E+02  0.64565807806E+02  0.00000000000E+00 0.  1.
         11    1    4    4    0    0 -0.97294175868E+01  0.32142163260E+02  0.41069228636E+02  0.53051501076E+02  0.00000000000E+00 0. -1.
        -11    1    3    3    0    0  0.39740436365E+02 -0.67524943656E+02 -0.47434032508E+02  0.91590980660E+02  0.00000000000E+00 0. -1.
         11    1    3    3    0    0 -0.36475336436E+02 -0.85619245853E+02 -0.12915768240E+03  0.15919425979E+03  0.00000000000E+00 0.  1.
         21    1    1    2  502  501  0.45440453634E+02  0.10252053251E+03  0.61777810780E+02  0.12803043513E+03  0.00000000000E+00 0.  1.
<scales pt_clust_5="13000.00000" pt_clust_6="13000.00000" pt_clust_7="13000.00000" pt_clust_8="13000.00000" pt_clust_9="112.13962"></scales>
<clustering>
<clus scale="   90.801">  7  8 -1 -1</clus>
<clus scale="   94.076">  5  6 -1 -1</clus>
<clus scale="  112.140">  1  9  2 -1</clus>
<clus scale="  145.772">  2  7  1 -1</clus>
<clus scale="  112.140">  1  5  2 -1</clus>
</clustering>
</event>
<event>
 9    1  0.5300912E-006  0.1018082E+03  0.7546771E-02  0.1286767E+00
         -2   -1    0    0    0  501 -0.00000000000E+00  0.00000000000E+00  0.63444646012E+02  0.63444646012E+02  0.00000000000E+00 0.  1.
          2   -1    0    0  502    0  0.00000000000E+00 -0.00000000000E+00 -0.21203183587E+03  0.21203183587E+03  0.00000000000E+00 0. -1.
         23    2    1    2    0    0 -0.48489023436E+01 -0.25865474460E+02 -0.18623316230E+02  0.78177824550E+02  0.71220851729E+02 0.  0.
         23    2    1    2    0    0 -0.61281190974E+01  0.56718765306E+02 -0.12325233597E+03  0.16387014715E+03  0.91693590951E+02 0.  0.
        -11    1    3    3    0    0  0.22270716157E+02 -0.37298828289E+02 -0.21747481872E+02  0.48581275793E+02  0.00000000000E+00 0.  1.
         11    1    3    3    0    0 -0.27119618501E+02  0.11433353828E+02  0.31241656421E+01  0.29596548757E+02  0.00000000000E+00 0. -1.
        -11    1    4    4    0    0  0.37634377811E+02  0.38798405354E+02 -0.93500580025E+02  0.10800009776E+03  0.00000000000E+00 0. -1.
         11    1    4    4    0    0 -0.43762496909E+02  0.17920359951E+02 -0.29751755950E+02  0.55870049387E+02  0.00000000000E+00 0.  1.
         21    1    1    2  502  501  0.10977021441E+02 -0.30853290845E+02 -0.67115376566E+01  0.33428510188E+02  0.00000000000E+00 0.  1.
<scales pt_clust_5="13000.00000" pt_clust_6="13000.00000" pt_clust_7="13000.00000" pt_clust_8="13000.00000" pt_clust_9="32.74783"></scales>
<clustering>
<clus scale="   32.748">  1  9  2 -1</clus>
<clus scale="   71.221">  5  6 -1 -1</clus>
<clus scale="   83.843">  1  5  2 -1</clus>
<clus scale="   91.694">  7  8 -1 -1</clus>
<clus scale="  101.808">  2  5  1 -1</clus>
</clustering>
</event>
<event>
 9    1  0.5300912E-006  0.2035428E+03  0.7546771E-02  0.1146871E+00
         -2   -1    0    0    0  501 -0.00000000000E+00  0.00000000000E+00  0.18721688595E+03  0.18721688595E+03  0.00000000000E+00 0.  1.
          2   -1    0    0  502    0  0.00000000000E+00 -0.00000000000E+00 -0.38683296027E+03  0.38683296027E+03  0.00000000000E+00 0. -1.
         23    2    1    2    0    0 -0.14844815422E+03 -0.12604961028E+03 -0.54178294892E+02  0.22147365229E+03  0.90498244615E+02 0.  0.
         23    2    1    2    0    0  0.15240957166E+03  0.89074681687E+02 -0.20294199804E+03  0.28409573445E+03  0.91443727584E+02 0.  0.
        -11    1    3    3    0    0 -0.63028509264E+01 -0.40239802824E+02 -0.36151300222E+02  0.54459931774E+02  0.00000000000E+00 0. -1.
         11    1    3    3    0    0 -0.14214530329E+03 -0.85809807453E+02 -0.18026994670E+02  0.16701372051E+03  0.00000000000E+00 0.  1.
        -13    1    4    4    0    0  0.81861171811E+02  0.54929797907E+02 -0.46245084193E+02  0.10889050445E+03  0.00000000000E+00 0.  1.
         13    1    4    4    0    0  0.70548399849E+02  0.34144883780E+02 -0.15669691385E+03  0.17520523000E+03  0.00000000000E+00 0. -1.
         21    1    1    2  502  501 -0.39614174443E+01  0.36974928590E+02  0.57504218615E+02  0.68480459483E+02  0.00000000000E+00 0.  1.
<scales pt_clust_5="13000.00000" pt_clust_6="13000.00000" pt_clust_7="13000.00000" pt_clust_8="13000.00000" pt_clust_9="37.18653"></scales>
<clustering>
<clus scale="   37.187">  1  9  2 -1</clus>
<clus scale="   90.498">  5  6 -1 -1</clus>
<clus scale="   91.444">  7  8 -1 -1</clus>
<clus scale="  203.120">  1  5  2 -1</clus>
<clus scale="  203.543">  2  5  1 -1</clus>
</clustering>
</event>
<event>
 9    1  0.5300912E-006  0.1292617E+03  0.7546771E-02  0.1244973E+00
          1   -1    0    0  502    0  0.00000000000E+00  0.00000000000E+00  0.21785565516E+03  0.21785565516E+03  0.00000000000E+00 0. -1.
         -1   -1    0    0    0  501 -0.00000000000E+00 -0.00000000000E+00 -0.12999054086E+03  0.12999054086E+03  0.00000000000E+00 0.  1.
         23    2    1    2    0    0  0.11748551136E+02  0.50767280482E+00 -0.30175600699E+02  0.97243613907E+02  0.91692242761E+02 0.  0.
         23    2    1    2    0    0  0.78859572082E+02  0.30140589439E+02  0.55690951157E+02  0.13642447115E+03  0.91557998266E+02 0.  0.
        -13    1    4    4    0    0  0.58387154273E+02  0.11660495329E+02  0.79956321233E+02  0.99689719833E+02  0.00000000000E+00 0. -1.
         13    1    4    4    0    0  0.20472417809E+02  0.18480094110E+02 -0.24265370075E+02  0.36734751315E+02  0.00000000000E+00 0.  1.
        -13    1    3    3    0    0  0.42214955899E+01 -0.35576754534E+02  0.15084291696E+02  0.38872385367E+02  0.00000000000E+00 0. -1.
         13    1    3    3    0    0  0.75270555462E+01  0.36084427339E+02 -0.45259892395E+02  0.58371228539E+02  0.00000000000E+00 0.  1.
         21    1    1    2  502  501 -0.90608123218E+02 -0.30648262244E+02  0.62349763844E+02  0.11417811096E+03  0.00000000000E+00 0.  1.
<scales pt_clust_5="13000.00000" pt_clust_6="13000.00000" pt_clust_7="13000.00000" pt_clust_8="13000.00000" pt_clust_9="91.24540"></scales>
<clustering>
<clus scale="   91.558">  5  6 -1 -1</clus>
<clus scale="   91.692">  7  8 -1 -1</clus>
<clus scale="   92.443">  2  7  1 -1</clus>
<clus scale="   91.245">  1  9  2 -1</clus>
<clus scale="   91.245">  1  5  2 -1</clus>
</clustering>
</event>
<event>
 9    1  0.5300912E-006  0.1110237E+03  0.7546771E-02  0.1259154E+00
          1   -1    0    0  502    0  0.00000000000E+00  0.00000000000E+00  0.96528057206E+02  0.96528057206E+02  0.00000000000E+00 0. -1.
         -1   -1    0    0    0  501 -0.00000000000E+00 -0.00000000000E+00 -0.16926015346E+03  0.16926015346E+03  0.00000000000E+00 0.  1.
         23    2    1    2    0    0 -0.32031984045E+01  0.63120644965E+02 -0.37660026578E+02  0.11729740350E+03  0.91356045040E+02 0.  0.
         23    2    1    2    0    0  0.32920087840E+02 -0.53968407740E+02 -0.19768289664E+02  0.11383445643E+03  0.92580651198E+02 0.  0.
        -11    1    3    3    0    0 -0.41531311340E+02  0.62541170884E+01 -0.88925817562E+01  0.42930662847E+02  0.00000000000E+00 0. -1.
         11    1    3    3    0    0  0.38328112936E+02  0.56866527877E+02 -0.28767444822E+02  0.74366740654E+02  0.00000000000E+00 0.  1.
        -13    1    4    4    0    0  0.64229986550E+02 -0.27708968884E+02 -0.20730507765E+02  0.72959112392E+02  0.00000000000E+00 0.  1.
         13    1    4    4    0    0 -0.31309898710E+02 -0.26259438856E+02  0.96221810177E+00  0.40875344034E+02  0.00000000000E+00 0. -1.
         21    1    1    2  502  501 -0.29716889436E+02 -0.91522372250E+01 -0.15303780016E+02  0.34656350742E+02  0.00000000000E+00 0. -1.
<scales pt_clust_5="13000.00000" pt_clust_6="13000.00000" pt_clust_7="13000.00000" pt_clust_8="13000.00000" pt_clust_9="31.09432"></scales>
<clustering>
<clus scale="   31.094">  2  9  1 -1</clus>
<clus scale="   91.356">  5  6 -1 -1</clus>
<clus scale="   92.581">  7  8 -1 -1</clus>
<clus scale="  110.005">  2  5  1 -1</clus>
<clus scale="  111.024">  1  5  2 -1</clus>
</clustering>
</event>
<event>
 9    1  0.5300912E-006  0.1753880E+03  0.7546771E-02  0.1198953E+00
         -2   -1    0    0    0  501 -0.00000000000E+00  0.00000000000E+00  0.59750546258E+03  0.59750546258E+03  0.00000000000E+00 0.  1.
          2   -1    0    0  502    0  0.00000000000E+00 -0.00000000000E+00 -0.95746812625E+02  0.95746812625E+02  0.00000000000E+00 0. -1.
         23    2    1    2    0    0 -0.16118690467E+03 -0.27255693860E+02  0.28973435230E+03  0.34570519963E+03  0.94031904499E+02 0.  0.
         23    2    1    2    0    0  0.32507601894E+02 -0.22442878978E+02  0.29050863187E+01  0.97029300450E+02  0.88576625707E+02 0.  0.
        -13    1    4    4    0    0 -0.27671885706E+02  0.83025657981E+01 -0.37099488791E+01  0.29127814509E+02  0.00000000000E+00 0.  1.
         13    1    4    4    0    0  0.60179487601E+02 -0.30745444776E+02  0.66150351978E+01  0.67901485941E+02  0.00000000000E+00 0. -1.
        -13    1    3    3    0    0 -0.46357491376E+02 -0.29995770906E+02  0.32695825532E+02  0.64169932882E+02  0.00000000000E+00 0. -1.
         13    1    3    3    0    0 -0.11482941329E+03  0.27400770458E+01  0.25703852677E+03  0.28153526674E+03  0.00000000000E+00 0.  1.
         21    1    1    2  502  501  0.12867930277E+03  0.49698572838E+02  0.20911921134E+03  0.25051777513E+03  0.00000000000E+00 0. -1.
<scales pt_clust_5="13000.00000" pt_clust_6="13000.00000" pt_clust_7="13000.00000" pt_clust_8="13000.00000" pt_clust_9="148.05052"></scales>
<clustering>
<clus scale="   88.577">  5  6 -1 -1</clus>
<clus scale="   94.032">  7  8 -1 -1</clus>
<clus scale="   96.986">  2  5  1 -1</clus>
<clus scale="  148.051">  1  9  2 -1</clus>
<clus scale="   96.986">  2  5  1 -1</clus>
</clustering>
</event>
<event>
 9    1  0.5300912E-006  0.1344132E+03  0.7546771E-02  0.1221448E+00
         -2   -1    0    0    0  501 -0.00000000000E+00  0.00000000000E+00  0.10964255165E+03  0.10964255165E+03  0.00000000000E+00 0.  1.
          2   -1    0    0  502    0  0.00000000000E+00 -0.00000000000E+00 -0.40633825411E+03  0.40633825411E+03  0.00000000000E+00 0. -1.
         23    2    1    2    0    0  0.98816521780E+02  0.50893474972E+02  0.24592787481E+02  0.14601910623E+03  0.91443553168E+02 0.  0.
         23    2    1    2    0    0 -0.34921770774E+02 -0.15428344636E+02 -0.24232348532E+03  0.26237086985E+03  0.93060399285E+02 0.  0.
        -11    1    3    3    0    0  0.95044941605E+02  0.72362062809E+02  0.10183532702E+02  0.11988958836E+03  0.00000000000E+00 0.  1.
         11    1    3    3    0    0  0.37715801756E+01 -0.21468587837E+02  0.14409254779E+02  0.26129517868E+02  0.00000000000E+00 0. -1.
        -11    1    4    4    0    0 -0.65893889504E+02 -0.18804428056E+02 -0.14944746292E+03  0.16440850149E+03  0.00000000000E+00 0. -1.
         11    1    4    4    0    0  0.30972118730E+02  0.33760834205E+01 -0.92876022395E+02  0.97962368355E+02  0.00000000000E+00 0.  1.
         21    1    1    2  502  501 -0.63894751007E+02 -0.35465130336E+02 -0.78965004625E+02  0.10759082968E+03  0.00000000000E+00 0. -1.
<scales pt_clust_5="13000.00000" pt_clust_6="13000.00000" pt_clust_7="13000.00000" pt_clust_8="13000.00000" pt_clust_9="73.07746"></scales>
<clustering>
<clus scale="   73.077">  2  9  1 -1</clus>
<clus scale="   91.444">  5  6 -1 -1</clus>
<clus scale="   93.060">  7  8 -1 -1</clus>
<clus scale="  133.299">  1  5  2 -1</clus>
<clus scale="   73.077">  2  5  1 -1</clus>
</clustering>
</event>
<event>
 9    1  0.5300912E-006  0.3629470E+03  0.7546771E-02  0.1101549E+00
         -1   -1    0    0    0  501 -0.00000000000E+00  0.00000000000E+00  0.56907274470E+03  0.56907274470E+03  0.00000000000E+00 0.  1.
          1   -1    0    0  502    0  0.00000000000E+00 -0.00000000000E+00 -0.33018910474E+03  0.33018910474E+03  0.00000000000E+00 0. -1.
         23    2    1    2    0    0 -0.35563855338E+03  0.13537452575E+03  0.20907095419E+03  0.44370166380E+03  0.91408203697E+02 0.  0.
         23    2    1    2    0    0  0.56101565443E+02 -0.21261343630E+02 -0.55943931698E+02  0.12374936166E+03  0.92653929437E+02 0.  0.
        -13    1    3    3    0    0 -0.30947895601E+03  0.11263832675E+03  0.14070977001E+03  0.35813943687E+03  0.00000000000E+00 0.  1.
         13    1    3    3    0    0 -0.46159597362E+02  0.22736198999E+02  0.68361184185E+02  0.85562226927E+02  0.00000000000E+00 0. -1.
        -13    1    4    4    0    0 -0.24533986341E+02 -0.11115173834E+02 -0.25115696279E+02  0.36827459520E+02  0.00000000000E+00 0.  1.
         13    1    4    4    0    0  0.80635551784E+02 -0.10146169796E+02 -0.30828235419E+02  0.86921902143E+02  0.00000000000E+00 0. -1.
         21    1    1    2  502  501  0.29953698793E+03 -0.11411318212E+03  0.85756617461E+02  0.33181082398E+03  0.00000000000E+00 0. -1.
<scales pt_clust_5="13000.00000" pt_clust_6="13000.00000" pt_clust_7="13000.00000" pt_clust_8="13000.00000" pt_clust_9="351.24788"></scales>
<clustering>
<clus scale="   91.408">  5  6 -1 -1</clus>
<clus scale="   92.654">  7  8 -1 -1</clus>
<clus scale="  110.382">  2  7  1 -1</clus>
<clus scale="  351.248">  2  9  1 -1</clus>
<clus scale="  110.382">  2  5  1 -1</clus>
</clustering>
</event>
<event>
 9    1  0.5300912E-006  0.1685603E+03  0.7546771E-02  0.1197850E+00
         -1   -1    0    0    0  501 -0.00000000000E+00  0.00000000000E+00  0.15756575926E+03  0.15756575926E+03  0.00000000000E+00 0.  1.
          1   -1    0    0  502    0  0.00000000000E+00 -0.00000000000E+00 -0.46894381834E+03  0.46894381834E+03  0.00000000000E+00 0. -1.
         23    2    1    2    0    0 -0.14662604516E+03  0.72494235371E+01 -0.22367630901E+03  0.28226487428E+03  0.89947855890E+02 0.  0.
         23    2    1    2    0    0  0.17397273453E+02  0.55368709464E+02 -0.15047024042E+03  0.18752524250E+03  0.95687325239E+02 0.  0.
        -11    1    4    4    0    0  0.37230236685E+02 -0.11003669259E+02 -0.78829259662E+02  0.87870492428E+02  0.00000000000E+00 0.  1.
         11    1    4    4    0    0 -0.19832963232E+02  0.66372378722E+02 -0.71640980755E+02  0.99654750069E+02  0.00000000000E+00 0. -1.
        -11    1    3    3    0    0 -0.74259068590E+02  0.24215832688E+02 -0.17960113715E+03  0.19585041304E+03  0.00000000000E+00 0.  1.
         11    1    3    3    0    0 -0.72366976573E+02 -0.16966409151E+02 -0.44075171857E+02  0.86414461244E+02  0.00000000000E+00 0. -1.
         21    1    1    2  502  501  0.12922877171E+03 -0.62618133001E+02  0.62768490356E+02  0.15671946082E+03  0.00000000000E+00 0.  1.
<scales pt_clust_5="13000.00000" pt_clust_6="13000.00000" pt_clust_7="13000.00000" pt_clust_8="13000.00000" pt_clust_9="142.55506"></scales>
<clustering>
<clus scale="   89.948">  7  8 -1 -1</clus>
<clus scale="   95.687">  5  6 -1 -1</clus>
<clus scale="  111.913">  2  5  1 -1</clus>
<clus scale="  142.555">  1  9  2 -1</clus>
<clus scale="  111.913">  2  5  1 -1</clus>
</clustering>
</event>
<event>
 9    1  0.5300912E-006  0.1028313E+03  0.7546771E-02  0.1276587E+00
          1   -1    0    0  502    0  0.00000000000E+00  0.00000000000E+00  0.71607593288E+03  0.71607593288E+03  0.00000000000E+00 0. -1.
         -1   -1    0    0    0  501 -0.00000000000E+00 -0.00000000000E+00 -0.71646664630E+02  0.71646664630E+02  0.00000000000E+00 0.  1.
         23    2    1    2    0    0  0.43207914297E+02 -0.33586505806E+02  0.34002645216E+00  0.10632804977E+03  0.91162280138E+02 0.  0.
         23    2    1    2    0    0  0.55879247242E+02  0.60909666838E+01  0.22292550825E+03  0.24785889671E+03  0.92621057565E+02 0.  0.
        -11    1    4    4    0    0 -0.19091264881E+02  0.15800365905E+02  0.10421883523E+03  0.10712466370E+03  0.00000000000E+00 0. -1.
         11    1    4    4    0    0  0.74970512122E+02 -0.97093992211E+01  0.11870667302E+03  0.14073423301E+03  0.00000000000E+00 0.  1.
        -11    1    3    3    0    0  0.41447652783E+02  0.16899956563E+02  0.23726427496E+02  0.50660238993E+02  0.00000000000E+00 0. -1.
         11    1    3    3    0    0  0.17602615141E+01 -0.50486462369E+02 -0.23386401044E+02  0.55667810779E+02  0.00000000000E+00 0.  1.
         21    1    1    2  502  501 -0.99087161539E+02  0.27495539122E+02  0.42116373355E+03  0.43353565103E+03  0.00000000000E+00 0. -1.
<scales pt_clust_5="13000.00000" pt_clust_6="13000.00000" pt_clust_7="13000.00000" pt_clust_8="13000.00000" pt_clust_9="102.83127"></scales>
<clustering>
<clus scale="   91.162">  7  8 -1 -1</clus>
<clus scale="   92.621">  5  6 -1 -1</clus>
<clus scale="  102.831">  1  9  2 -1</clus>
<clus scale="   98.709">  2  7  1 -1</clus>
<clus scale="  102.831">  1  5  2 -1</clus>
</clustering>
</event>
<event>
 9    1  0.5300912E-006  0.1106659E+03  0.7546771E-02  0.1259972E+00
         -1   -1    0    0    0  501 -0.00000000000E+00  0.00000000000E+00  0.29949779339E+03  0.29949779339E+03  0.00000000000E+00 0.  1.
          1   -1    0    0  502    0  0.00000000000E+00 -0.00000000000E+00 -0.25763293909E+03  0.25763293909E+03  0.00000000000E+00 0. -1.
         23    2    1    2    0    0  0.42733317127E+02 -0.12101865898E+02  0.26091415134E+03  0.28001162754E+03  0.91420597439E+02 0.  0.
         23    2    1    2    0    0 -0.62580224552E+02  0.88859687687E+01 -0.22953753279E+03  0.25444213825E+03  0.89766796839E+02 0.  0.
        -11    1    3    3    0    0 -0.49736741595E+01  0.30478151133E+02  0.43212055073E+02  0.53112492267E+02  0.00000000000E+00 0. -1.
         11    1    3    3    0    0  0.47706991286E+02 -0.42580017031E+02  0.21770209627E+03  0.22689913528E+03  0.00000000000E+00 0.  1.
        -11    1    4    4    0    0  0.67232522737E+01  0.35058095333E+02 -0.73041398854E+02  0.81297712859E+02  0.00000000000E+00 0.  1.
         11    1    4    4    0    0 -0.69303476825E+02 -0.26172126564E+02 -0.15649613393E+03  0.17314442540E+03  0.00000000000E+00 0. -1.
         21    1    1    2  502  501  0.19846907425E+02  0.32158971293E+01  0.10488235753E+02  0.22676966682E+02  0.00000000000E+00 0.  1.
<scales pt_clust_5="13000.00000" pt_clust_6="13000.00000" pt_clust_7="13000.00000" pt_clust_8="13000.00000" pt_clust_9="20.10576"></scales>
<clustering>
<clus scale="   20.106">  1  9  2 -1</clus>
<clus scale="   89.767">  7  8 -1 -1</clus>
<clus scale="   91.421">  5  6 -1 -1</clus>
<clus scale="  109.304">  2  7  1 -1</clus>
<clus scale="  109.304">  2  5  1 -1</clus>
</clustering>
</event>
<event>
 9    1  0.5300912E-006  0.9264623E+02  0.7546771E-02  0.1296887E+00
         -1   -1    0    0    0  501 -0.00000000000E+00  0.00000000000E+00  0.37818260066E+02  0.37818260066E+02  0.00000000000E+00 0.  1.
          1   -1    0    0  502    0  0.00000000000E+00 -0.00000000000E+00 -0.52010907929E+03  0.52010907929E+03  0.00000000000E+00 0. -1.
         23    2    1    2    0    0 -0.14095889299E+02 -0.44529587089E+02 -0.10062440803E+03  0.14329972069E+03  0.90708104577E+02 0.  0.
         23    2    1    2    0    0 -0.54761811139E+01  0.79895379595E+01 -0.35170268694E+03  0.36348012702E+03  0.91264458929E+02 0.  0.
        -11    1    3    3    0    0 -0.41690602105E+02 -0.15205127250E+02 -0.91965874027E+02  0.10211280127E+03  0.00000000000E+00 0. -1.
         11    1    3    3    0    0  0.27594712805E+02 -0.29324459840E+02 -0.86585340057E+01  0.41186919414E+02  0.00000000000E+00 0.  1.
        -13    1    4    4    0    0 -0.46754349716E+02  0.26757284136E+01 -0.23389054070E+03  0.23853283583E+03  0.00000000000E+00 0. -1.
         13    1    4    4    0    0  0.41278168602E+02  0.53138095459E+01 -0.11781214624E+03  0.12494729119E+03  0.00000000000E+00 0.  1.
         21    1    1    2  502  501  0.19572070413E+02  0.36540049130E+02 -0.29963724257E+02  0.51147491650E+02  0.00000000000E+00 0.  1.
<scales pt_clust_5="13000.00000" pt_clust_6="13000.00000" pt_clust_7="13000.00000" pt_clust_8="13000.00000" pt_clust_9="41.45167"></scales>
<clustering>
<clus scale="   41.452">  1  9  2 -1</clus>
<clus scale="   90.708">  5  6 -1 -1</clus>
<clus scale="   91.264">  7  8 -1 -1</clus>
<clus scale="   92.098">  1  5  2 -1</clus>
<clus scale="   92.646">  2  5  1 -1</clus>
</clustering>
</event>
<event>
 9    1  0.5300912E-006  0.1063277E+03  0.7546771E-02  0.1267789E+00
         -2   -1    0    0    0  501 -0.00000000000E+00  0.00000000000E+00  0.36374075787E+02  0.36374075787E+02  0.00000000000E+00 0.  1.
          2   -1    0    0  502    0  0.00000000000E+00 -0.00000000000E+00 -0.43499286503E+03  0.43499286503E+03  0.00000000000E+00 0. -1.
         23    2    1    2    0    0  0.56388294913E+02  0.32222015860E+02 -0.12519689056E+03  0.16960185692E+03  0.94194640791E+02 0.  0.
         23    2    1    2    0    0 -0.37787333487E+02 -0.18327218760E+02 -0.24068713534E+03  0.26163248016E+03  0.93581451336E+02 0.  0.
        -13    1    4    4    0    0 -0.66135621262E+02 -0.25594157460E+02 -0.14239797445E+03  0.15907911373E+03  0.00000000000E+00 0.  1.
         13    1    4    4    0    0  0.28348287775E+02  0.72669386998E+01 -0.98289160888E+02  0.10255336643E+03  0.00000000000E+00 0. -1.
        -13    1    3    3    0    0 -0.20001753938E+02  0.25708169929E+02 -0.62829275058E+02  0.70770742302E+02  0.00000000000E+00 0.  1.
         13    1    3    3    0    0  0.76390048851E+02  0.65138459312E+01 -0.62367615505E+02  0.98831114615E+02  0.00000000000E+00 0. -1.
         21    1    1    2  502  501 -0.18600961426E+02 -0.13894797100E+02 -0.32734763339E+02  0.40132603744E+02  0.00000000000E+00 0.  1.
<scales pt_clust_5="13000.00000" pt_clust_6="13000.00000" pt_clust_7="13000.00000" pt_clust_8="13000.00000" pt_clust_9="23.21769"></scales>
<clustering>
<clus scale="   23.218">  1  9  2 -1</clus>
<clus scale="   93.581">  5  6 -1 -1</clus>
<clus scale="   94.195">  7  8 -1 -1</clus>
<clus scale="  105.785">  2  5  1 -1</clus>
<clus scale="  105.785">  2  5  1 -1</clus>
</clustering>
</event>
<event>
 9    1  0.5300912E-006  0.1999001E+03  0.7546771E-02  0.1149931E+00
          1   -1    0    0  502    0  0.00000000000E+00  0.00000000000E+00  0.28852564986E+03  0.28852564986E+03  0.00000000000E+00 0. -1.
         -1   -1    0    0    0  501 -0.00000000000E+00 -0.00000000000E+00 -0.29056085822E+03  0.29056085822E+03  0.00000000000E+00 0.  1.
         23    2    1    2    0    0 -0.11923038571E+03 -0.41967344589E+01 -0.56164339995E+02  0.16008379437E+03  0.90768335199E+02 0.  0.
         23    2    1    2    0    0  0.21061445592E+03 -0.90834569620E+01  0.15931674454E+03  0.27903183931E+03  0.89643650208E+02 0.  0.
        -13    1    3    3    0    0 -0.68627542013E+02 -0.23252272915E+02  0.11608439027E+02  0.73383673764E+02  0.00000000000E+00 0. -1.
         13    1    3    3    0    0 -0.50602843699E+02  0.19055538456E+02 -0.67772779022E+02  0.86700120603E+02  0.00000000000E+00 0.  1.
        -13    1    4    4    0    0  0.18365438392E+03 -0.41917475350E+01  0.90139168163E+02  0.20462544592E+03  0.00000000000E+00 0. -1.
         13    1    4    4    0    0  0.26960072000E+02 -0.48917094271E+01  0.69177576376E+02  0.74406393386E+02  0.00000000000E+00 0.  1.
         21    1    1    2  502  501 -0.91384070212E+02  0.13280191421E+02 -0.10518761290E+03  0.13997087440E+03  0.00000000000E+00 0.  1.
<scales pt_clust_5="13000.00000" pt_clust_6="13000.00000" pt_clust_7="13000.00000" pt_clust_8="13000.00000" pt_clust_9="92.34399"></scales>
<clustering>
<clus scale="   89.644">  7  8 -1 -1</clus>
<clus scale="   90.768">  5  6 -1 -1</clus>
<clus scale="   92.344">  2  9  1 -1</clus>
<clus scale="  199.392">  1  7  2 -1</clus>
<clus scale="  199.392">  1  5  2 -1</clus>
</clustering>
</event>
<event>
 9    1  0.5300912E-006  0.1093052E+03  0.7546771E-02  0.1262884E+00
         -2   -1    0    0    0  501 -0.00000000000E+00  0.00000000000E+00  0.96063442336E+02  0.96063442336E+02  0.00000000000E+00 0.  1.
          2   -1    0    0  502    0  0.00000000000E+00 -0.00000000000E+00 -0.31315763093E+03  0.31315763093E+03  0.00000000000E+00 0. -1.
         23    2    1    2    0    0  0.31020006875E+02  0.16515633505E+02 -0.35408260283E+02  0.10619890755E+03  0.93752099135E+02 0.  0.
         23    2    1    2    0    0 -0.11948445764E+02 -0.93720688004E+02 -0.34592097991E+02  0.13580691581E+03  0.91217171748E+02 0.  0.
        -11    1    4    4    0    0 -0.32233901290E+02  0.27610242556E+01 -0.13080389834E+02  0.34896192422E+02  0.00000000000E+00 0. -1.
         11    1    4    4    0    0  0.20285455526E+02 -0.96481712259E+02 -0.21511708157E+02  0.10091072339E+03  0.00000000000E+00 0.  1.
        -11    1    3    3    0    0 -0.28645588904E+02  0.13671220065E+02  0.75453693918E+01  0.32625214497E+02  0.00000000000E+00 0.  1.
         11    1    3    3    0    0  0.59665595779E+02  0.28444134405E+01 -0.42953629675E+02  0.73573693055E+02  0.00000000000E+00 0. -1.
         21    1    1    2  502  501 -0.19071561111E+02  0.77205054498E+02 -0.14709383032E+03  0.16721524991E+03  0.00000000000E+00 0. -1.
<scales pt_clust_5="13000.00000" pt_clust_6="13000.00000" pt_clust_7="13000.00000" pt_clust_8="13000.00000" pt_clust_9="79.52575"></scales>
<clustering>
<clus scale="   79.526">  2  9  1 -1</clus>
<clus scale="   91.217">  5  6 -1 -1</clus>
<clus scale="   93.752">  7  8 -1 -1</clus>
<clus scale="  107.139">  2  5  1 -1</clus>
<clus scale="   79.526">  2  5  1 -1</clus>
</clustering>
</event>
<event>
 9    1  0.5300912E-006  0.2309929E+03  0.7546771E-02  0.1164395E+00
          1   -1    0    0  502    0  0.00000000000E+00  0.00000000000E+00  0.42503222265E+03  0.42503222265E+03  0.00000000000E+00 0. -1.
         -1   -1    0    0    0  501 -0.00000000000E+00 -0.00000000000E+00 -0.18564063018E+03  0.18564063018E+03  0.00000000000E+00 0.  1.
         23    2    1    2    0    0  0.78281849094E+01  0.47257316763E+01 -0.15829044854E+02  0.93475968054E+02  0.91671069176E+02 0.  0.
         23    2    1    2    0    0  0.47770532224E+02 -0.20961309667E+03  0.94774009504E+02  0.25108944396E+03  0.88567047724E+02 0.  0.
        -13    1    3    3    0    0  0.19116854896E+02 -0.40818981291E+02 -0.10231461746E+02  0.46220408741E+02  0.00000000000E+00 0. -1.
         13    1    3    3    0    0 -0.11288669987E+02  0.45544712967E+02 -0.55975831080E+01  0.47255559313E+02  0.00000000000E+00 0.  1.
        -13    1    4    4    0    0 -0.20950556501E+02 -0.56243206838E+02  0.47397706652E+02  0.76477230134E+02  0.00000000000E+00 0. -1.
         13    1    4    4    0    0  0.68721088725E+02 -0.15336988984E+03  0.47376302853E+02  0.17461221382E+03  0.00000000000E+00 0.  1.
         21    1    1    2  502  501 -0.55598717133E+02  0.20488736500E+03  0.16044662782E+03  0.26610744082E+03  0.00000000000E+00 0.  1.
<scales pt_clust_5="13000.00000" pt_clust_6="13000.00000" pt_clust_7="13000.00000" pt_clust_8="13000.00000" pt_clust_9="213.33916"></scales>
<clustering>
<clus scale="   88.567">  7  8 -1 -1</clus>
<clus scale="   91.671">  5  6 -1 -1</clus>
<clus scale="   92.126">  2  5  1 -1</clus>
<clus scale="  213.339">  1  9  2 -1</clus>
<clus scale="  213.339">  1  5  2 -1</clus>
</clustering>
</event>
<event>
 9    1  0.5300912E-006  0.9522581E+02  0.7546771E-02  0.1292634E+00
          3   -1    0    0  502    0  0.00000000000E+00  0.00000000000E+00  0.33265262890E+02  0.33265262890E+02  0.00000000000E+00 0. -1.
         -3   -1    0    0    0  501 -0.00000000000E+00 -0.00000000000E+00 -0.81026639711E+03  0.81026639711E+03  0.00000000000E+00 0.  1.
         23    2    1    2    0    0  0.18960990679E+02  0.53248416204E+02 -0.24976933552E+03  0.27093530825E+03  0.88466419015E+02 0.  0.
         23    2    1    2    0    0 -0.27150932711E+02  0.38127873383E+02 -0.13598405567E+03  0.17073630413E+03  0.92023444163E+02 0.  0.
        -11    1    3    3    0    0  0.41849578902E+02  0.18371177264E+01 -0.61318654598E+02  0.74261293132E+02  0.00000000000E+00 0.  1.
         11    1    3    3    0    0 -0.22888588223E+02  0.51411298478E+02 -0.18845068092E+03  0.19667401512E+03  0.00000000000E+00 0. -1.
        -13    1    4    4    0    0 -0.41809626598E+02  0.11773333007E+02 -0.13360206163E+03  0.14048546942E+03  0.00000000000E+00 0.  1.
         13    1    4    4    0    0  0.14658693887E+02  0.26354540376E+02 -0.23819940383E+01  0.30250834708E+02  0.00000000000E+00 0. -1.
         21    1    1    2  502  501  0.81899420317E+01 -0.91376289587E+02 -0.39124774303E+03  0.40186004762E+03  0.00000000000E+00 0.  1.
<scales pt_clust_5="13000.00000" pt_clust_6="13000.00000" pt_clust_7="13000.00000" pt_clust_8="13000.00000" pt_clust_9="91.74258"></scales>
<clustering>
<clus scale="   88.466">  5  6 -1 -1</clus>
<clus scale="   91.743">  2  9  1 -1</clus>
<clus scale="   91.793">  2  5  1 -1</clus>
<clus scale="   92.023">  7  8 -1 -1</clus>
<clus scale="   95.226">  1  5  2 -1</clus>
</clustering>
</event>
<event>
 9    1  0.5300912E-006  0.1085808E+03  0.7546771E-02  0.1265191E+00
          1   -1    0    0  502    0  0.00000000000E+00  0.00000000000E+00  0.12897400044E+03  0.12897400044E+03  0.00000000000E+00 0. -1.
         -1   -1    0    0    0  501 -0.00000000000E+00 -0.00000000000E+00 -0.29043888538E+03  0.29043888538E+03  0.00000000000E+00 0.  1.
         23    2    1    2    0    0 -0.49279798173E+02  0.37240106501E+02 -0.15243635033E+03  0.18998541677E+03  0.95090975615E+02 0.  0.
         23    2    1    2    0    0 -0.67863406488E+01 -0.57171135579E+02 -0.82241354823E+02  0.13508355092E+03  0.90384357740E+02 0.  0.
        -13    1    4    4    0    0  0.32516680336E+02 -0.59552747636E+01 -0.34731922042E+01  0.33239477458E+02  0.00000000000E+00 0. -1.
         13    1    4    4    0    0 -0.39303020985E+02 -0.51215860815E+02 -0.78768162619E+02  0.10184407346E+03  0.00000000000E+00 0.  1.
        -13    1    3    3    0    0 -0.59929689771E+02  0.64099827762E+01 -0.14428059255E+03  0.15636350271E+03  0.00000000000E+00 0.  1.
         13    1    3    3    0    0  0.10649891597E+02  0.30830123725E+02 -0.81557577854E+01  0.33621914059E+02  0.00000000000E+00 0. -1.
         21    1    1    2  502  501  0.56066138822E+02  0.19931029077E+02  0.73212820217E+02  0.94343918122E+02  0.00000000000E+00 0. -1.
<scales pt_clust_5="13000.00000" pt_clust_6="13000.00000" pt_clust_7="13000.00000" pt_clust_8="13000.00000" pt_clust_9="59.50343"></scales>
<clustering>
<clus scale="   59.503">  1  9  2 -1</clus>
<clus scale="   90.384">  5  6 -1 -1</clus>
<clus scale="   95.091">  7  8 -1 -1</clus>
<clus scale="  104.484">  1  5  2 -1</clus>
<clus scale="   59.503">  1  5  2 -1</clus>
</clustering>
</event>
<event>
 9    1  0.5300912E-006  0.9335608E+02  0.7546771E-02  0.1295131E+00
          1   -1    0    0  502    0  0.00000000000E+00  0.00000000000E+00  0.68429117284E+02  0.68429117284E+02  0.00000000000E+00 0. -1.
         -1   -1    0    0    0  501 -0.00000000000E+00 -0.00000000000E+00 -0.25773949521E+03  0.25773949521E+03  0.00000000000E+00 0.  1.
         23    2    1    2    0    0 -0.17205421147E+02  0.13644046765E+02 -0.17553355906E+03  0.19882464811E+03  0.90758050935E+02 0.  0.
         23    2    1    2    0    0 -0.96478282205E+01 -0.27840125030E+02 -0.58521826876E+01  0.95952476717E+02  0.91128900986E+02 0.  0.
        -11    1    3    3    0    0  0.15797354121E+01 -0.38170221264E+02 -0.75367632067E+02  0.84496989998E+02  0.00000000000E+00 0. -1.
         11    1    3    3    0    0 -0.18785156559E+02  0.51814268028E+02 -0.10016592699E+03  0.11432765811E+03  0.00000000000E+00 0.  1.
        -13    1    4    4    0    0 -0.27484784376E+02 -0.55577026294E+02  0.20728980295E+01  0.62036409713E+02  0.00000000000E+00 0. -1.
         13    1    4    4    0    0  0.17836956155E+02  0.27736901264E+02 -0.79250807171E+01  0.33916067004E+02  0.00000000000E+00 0.  1.
         21    1    1    2  502  501  0.26853249367E+02  0.14196078265E+02 -0.79246361795E+01  0.31391487672E+02  0.00000000000E+00 0.  1.
<scales pt_clust_5="13000.00000" pt_clust_6="13000.00000" pt_clust_7="13000.00000" pt_clust_8="13000.00000" pt_clust_9="30.37475"></scales>
<clustering>
<clus scale="   30.375">  1  9  2 -1</clus>
<clus scale="   90.758">  5  6 -1 -1</clus>
<clus scale="   91.129">  7  8 -1 -1</clus>
<clus scale="   92.994">  2  5  1 -1</clus>
<clus scale="   30.375">  1  5  2 -1</clus>
</clustering>
</event>
<event>
 9    1  0.5300912E-006  0.1131682E+03  0.7546771E-02  0.1257753E+00
          1   -1    0    0  502    0  0.00000000000E+00  0.00000000000E+00  0.47176302830E+03  0.47176302830E+03  0.00000000000E+00 0. -1.
         -1   -1    0    0    0  501 -0.00000000000E+00 -0.00000000000E+00 -0.43468245803E+02  0.43468245803E+02  0.00000000000E+00 0.  1.
         23    2    1    2    0    0 -0.77532824335E+01  0.32482677217E+02  0.94550535930E+02  0.13193899694E+03  0.85748803854E+02 0.  0.
         23    2    1    2    0    0 -0.53893620081E+00 -0.89037410830E+02  0.25658717045E+03  0.28726929460E+03  0.93588036648E+02 0.  0.
        -11    1    4    4    0    0 -0.24054180452E+02 -0.31991487564E+02  0.19860637603E+03  0.20259948538E+03  0.00000000000E+00 0.  1.
         11    1    4    4    0    0  0.23515244252E+02 -0.57045923266E+02  0.57980794415E+02  0.84669809227E+02  0.00000000000E+00 0. -1.
        -13    1    3    3    0    0  0.20423265759E+02  0.35471225528E+02  0.91229935114E+01  0.41935028739E+02  0.00000000000E+00 0.  1.
         13    1    3    3    0    0 -0.28176548193E+02 -0.29885483110E+01  0.85427542419E+02  0.90003968206E+02  0.00000000000E+00 0. -1.
         21    1    1    2  502  501  0.82922186343E+01  0.56554733613E+02  0.77157076123E+02  0.96022982560E+02  0.00000000000E+00 0.  1.
<scales pt_clust_5="13000.00000" pt_clust_6="13000.00000" pt_clust_7="13000.00000" pt_clust_8="13000.00000" pt_clust_9="57.15942"></scales>
<clustering>
<clus scale="   57.159">  2  9  1 -1</clus>
<clus scale="   85.749">  7  8 -1 -1</clus>
<clus scale="   93.588">  5  6 -1 -1</clus>
<clus scale="  106.776">  2  7  1 -1</clus>
<clus scale="  113.168">  1  5  2 -1</clus>
</clustering>
</event>
<event>
 9    1  0.5300912E-006  0.2088943E+03  0.7546771E-02  0.1142748E+00
         -1   -1    0    0    0  501 -0.00000000000E+00  0.00000000000E+00  0.10090728138E+03  0.10090728138E+03  0.00000000000E+00 0.  1.
          1   -1    0    0  502    0  0.00000000000E+00 -0.00000000000E+00 -0.82961403734E+03  0.82961403734E+03  0.00000000000E+00 0. -1.
         23    2    1    2    0    0 -0.82789696814E+02  0.21617849964E+03 -0.37597004327E+03  0.45046681330E+03  0.89328600329E+02 0.  0.
         23    2    1    2    0    0  0.87694309443E+02 -0.13905763233E+03 -0.35740753254E+03  0.40263680746E+03  0.85725943471E+02 0.  0.
        -11    1    3    3    0    0 -0.19954415426E+02 -0.28862397261E+01 -0.27793904935E+02  0.34336718339E+02  0.00000000000E+00 0. -1.
         11    1    3    3    0    0 -0.62835281388E+02  0.21906473937E+03 -0.34817613834E+03  0.41613009496E+03  0.00000000000E+00 0.  1.
        -13    1    4    4    0    0  0.36898851977E+02 -0.24955258002E+02 -0.34273032722E+02  0.56204367723E+02  0.00000000000E+00 0.  1.
         13    1    4    4    0    0  0.50795457465E+02 -0.11410237433E+03 -0.32313449982E+03  0.34643243974E+03  0.00000000000E+00 0. -1.
         21    1    1    2  502  501 -0.49046126292E+01 -0.77120867309E+02  0.46708198500E+01  0.77417697961E+02  0.00000000000E+00 0. -1.
<scales pt_clust_5="13000.00000" pt_clust_6="13000.00000" pt_clust_7="13000.00000" pt_clust_8="13000.00000" pt_clust_9="77.27667"></scales>
<clustering>
<clus scale="   77.277">  1  9  2 -1</clus>
<clus scale="   85.726">  7  8 -1 -1</clus>
<clus scale="   89.329">  5  6 -1 -1</clus>
<clus scale="  207.379">  2  7  1 -1</clus>
<clus scale="  207.379">  2  5  1 -1</clus>
</clustering>
</event>
<event>
 9    1  0.5300912E-006  0.1448615E+03  0.7546771E-02  0.1207545E+00
          3   -1    0    0  502    0  0.00000000000E+00  0.00000000000E+00  0.15614967603E+03  0.15614967603E+03  0.00000000000E+00 0. -1.
         -3   -1    0    0    0  501 -0.00000000000E+00 -0.00000000000E+00 -0.28901511609E+03  0.28901511609E+03  0.00000000000E+00 0.  1.
         23    2    1    2    0    0 -0.43173050155E+02 -0.10220702483E+03 -0.20996331294E+03  0.25463048586E+03  0.91879831117E+02 0.  0.
         23    2    1    2    0    0  0.65762180931E+02  0.99666766349E+02  0.77464285928E+02  0.16779983901E+03  0.88870364136E+02 0.  0.
        -13    1    3    3    0    0 -0.12256820241E+02 -0.11061414196E+03 -0.17310507772E+03  0.20579379479E+03  0.00000000000E+00 0.  1.
         13    1    3    3    0    0 -0.30916229914E+02  0.84071171362E+01 -0.36858235220E+02  0.48836691065E+02  0.00000000000E+00 0. -1.
        -13    1    4    4    0    0  0.29117252840E+02  0.90078981419E+01  0.61611677021E+02  0.68738310913E+02  0.00000000000E+00 0.  1.
         13    1    4    4    0    0  0.36644928091E+02  0.90658868207E+02  0.15852608907E+02  0.99061528095E+02  0.00000000000E+00 0. -1.
         21    1    1    2  502  501 -0.22589130776E+02  0.25402584788E+01 -0.36641305190E+00  0.22734467244E+02  0.00000000000E+00 0.  1.
<scales pt_clust_5="13000.00000" pt_clust_6="13000.00000" pt_clust_7="13000.00000" pt_clust_8="13000.00000" pt_clust_9="22.73151"></scales>
<clustering>
<clus scale="   22.732">  1  9  2 -1</clus>
<clus scale="   88.870">  7  8 -1 -1</clus>
<clus scale="   91.880">  5  6 -1 -1</clus>
<clus scale="  142.972">  1  7  2 -1</clus>
<clus scale="   22.732">  1  5  2 -1</clus>
</clustering>
</event>
<event>
 9    1  0.5300912E-006  0.1048619E+03  0.7546771E-02  0.1275915E+00
          2   -1    0    0  502    0  0.00000000000E+00  0.00000000000E+00  0.25321833354E+03  0.25321833354E+03  0.00000000000E+00 0. -1.
         -2   -1    0    0    0  501 -0.00000000000E+00 -0.00000000000E+00 -0.26935812106E+03  0.26935812106E+03  0.00000000000E+00 0.  1.
         23    2    1    2    0    0  0.30125570075E+02 -0.48748368782E+01 -0.23488282817E+03  0.25754567315E+03  0.10113612995E+03 0.  0.
         23    2    1    2    0    0  0.14065818178E+01  0.19832231325E+02  0.80560303580E+02  0.12250896180E+03  0.90128726485E+02 0.  0.
        -11    1    3    3    0    0  0.21579954584E+02  0.46846480348E+02 -0.13911597792E+03  0.14836961439E+03  0.00000000000E+00 0.  1.
         11    1    3    3    0    0  0.85456154901E+01 -0.51721317226E+02 -0.95766850248E+02  0.10917605876E+03  0.00000000000E+00 0. -1.
        -11    1    4    4    0    0 -0.41930092544E+02  0.51955363161E+01  0.57300151946E+02  0.71192932734E+02  0.00000000000E+00 0. -1.
         11    1    4    4    0    0  0.43336674361E+02  0.14636695009E+02  0.23260151634E+02  0.51316029070E+02  0.00000000000E+00 0.  1.
         21    1    1    2  502  501 -0.31532151892E+02 -0.14957394447E+02  0.13818273707E+03  0.14252181965E+03  0.00000000000E+00 0. -1.
<scales pt_clust_5="13000.00000" pt_clust_6="13000.00000" pt_clust_7="13000.00000" pt_clust_8="13000.00000" pt_clust_9="34.89986"></scales>
<clustering>
<clus scale="   34.900">  1  9  2 -1</clus>
<clus scale="   90.129">  7  8 -1 -1</clus>
<clus scale="   94.290">  1  7  2 -1</clus>
<clus scale="  101.136">  5  6 -1 -1</clus>
<clus scale="   34.900">  1  5  2 -1</clus>
</clustering>
</event>
<event>
 9    1  0.5300912E-006  0.1284186E+03  0.7546771E-02  0.1236308E+00
          1   -1    0    0  502    0  0.00000000000E+00  0.00000000000E+00  0.67690734915E+03  0.67690734915E+03  0.00000000000E+00 0. -1.
         -1   -1    0    0    0  501 -0.00000000000E+00 -0.00000000000E+00 -0.55979047543E+02  0.55979047543E+02  0.00000000000E+00 0.  1.
         23    2    1    2    0    0  0.73433283006E+02 -0.27026865118E+02  0.88348703862E+02  0.14949741558E+03  0.91766471546E+02 0.  0.
         23    2    1    2    0    0  0.81346194415E+01 -0.66374284743E+02  0.28836076605E+03  0.30949130814E+03  0.90339474805E+02 0.  0.
        -11    1    3    3    0    0  0.69252452352E+02  0.13649223894E+02  0.81870414474E+02  0.10809703158E+03  0.00000000000E+00 0.  1.
         11    1    3    3    0    0  0.41808306541E+01 -0.40676089012E+02  0.64782893880E+01  0.41400384004E+02  0.00000000000E+00 0. -1.
        -13    1    4    4    0    0 -0.26644161328E+02 -0.24010971272E+01  0.15732213938E+03  0.15958048796E+03  0.00000000000E+00 0. -1.
         13    1    4    4    0    0  0.34778780769E+02 -0.63973187616E+02  0.13103862668E+03  0.14991082018E+03  0.00000000000E+00 0.  1.
         21    1    1    2  502  501 -0.81567902448E+02  0.93401149862E+02  0.24421883170E+03  0.27389767297E+03  0.00000000000E+00 0. -1.
<scales pt_clust_5="13000.00000" pt_clust_6="13000.00000" pt_clust_7="13000.00000" pt_clust_8="13000.00000" pt_clust_9="89.83458"></scales>
<clustering>
<clus scale="   90.339">  7  8 -1 -1</clus>
<clus scale="   91.766">  5  6 -1 -1</clus>
<clus scale="  112.396">  1  7  2 -1</clus>
<clus scale="   89.835">  1  9  2 -1</clus>
<clus scale="  112.396">  1  5  2 -1</clus>
</clustering>
</event>
<event>
 9    1  0.5300912E-006  0.2187161E+03  0.7546771E-02  0.1169724E+00
          1   -1    0    0  502    0  0.00000000000E+00  0.00000000000E+00  0.68843350400E+03  0.68843350400E+03  0.00000000000E+00 0. -1.
         -1   -1    0    0    0  501 -0.00000000000E+00 -0.00000000000E+00 -0.97967541804E+02  0.97967541804E+02  0.00000000000E+00 0.  1.
         23    2    1    2    0    0  0.12887605714E+03  0.12732267702E+03  0.31169012978E+03  0.37307233259E+03  0.95979821601E+02 0.  0.
         23    2    1    2    0    0  0.31240833954E+02  0.30200800500E+01  0.11490435107E+03  0.14973714367E+03  0.90736385813E+02 0.  0.
        -11    1    4    4    0    0 -0.25958754533E+02 -0.80770862671E+01  0.73195551043E+02  0.78081271455E+02  0.00000000000E+00 0.  1.
         11    1    4    4    0    0  0.57199588487E+02  0.11097166317E+02  0.41708800023E+02  0.71655872214E+02  0.00000000000E+00 0. -1.
        -13    1    3    3    0    0 -0.40355328639E+01  0.29115140748E+02  0.13931155313E+02  0.32527742538E+02  0.00000000000E+00 0.  1.
         13    1    3    3    0    0  0.13291159001E+03  0.98207536271E+02  0.29775897447E+03  0.34054459005E+03  0.00000000000E+00 0. -1.
         21    1    1    2  502  501 -0.16011689110E+03 -0.13034275707E+03  0.16387148135E+03  0.26359156954E+03  0.00000000000E+00 0.  1.
<scales pt_clust_5="13000.00000" pt_clust_6="13000.00000" pt_clust_7="13000.00000" pt_clust_8="13000.00000" pt_clust_9="196.53140"></scales>
<clustering>
<clus scale="   90.736">  5  6 -1 -1</clus>
<clus scale="   95.980">  7  8 -1 -1</clus>
<clus scale="   96.011">  1  5  2 -1</clus>
<clus scale="  196.531">  2  9  1 -1</clus>
<clus scale="   96.011">  1  5  2 -1</clus>
</clustering>
</event>
<event>
 9    1  0.5300912E-006  0.1797011E+03  0.7546771E-02  0.1168192E+00
         -1   -1    0    0    0  501 -0.00000000000E+00  0.00000000000E+00  0.25287686924E+03  0.25287686924E+03  0.00000000000E+00 0.  1.
          1   -1    0    0  502    0  0.00000000000E+00 -0.00000000000E+00 -0.45756401539E+03  0.45756401539E+03  0.00000000000E+00 0. -1.
         23    2    1    2    0    0  0.15939534233E+03  0.71849018391E+02 -0.20252862866E+03  0.28327478599E+03  0.93046237696E+02 0.  0.
         23    2    1    2    0    0 -0.11957072061E+03 -0.65298027335E+02 -0.18019399993E+03  0.24461323236E+03  0.93833715866E+02 0.  0.
        -13    1    3    3    0    0  0.13305392187E+03  0.28747742034E+02 -0.18525533715E+03  0.22988979694E+03  0.00000000000E+00 0. -1.
         13    1    3    3    0    0  0.26341420466E+02  0.43101276357E+02 -0.17273291508E+02  0.53384989044E+02  0.00000000000E+00 0.  1.
        -13    1    4    4    0    0 -0.65870584843E+02  0.11712660091E+02 -0.10418550067E+03  0.12381736108E+03  0.00000000000E+00 0. -1.
         13    1    4    4    0    0 -0.53700135768E+02 -0.77010687426E+02 -0.76008499258E+02  0.12079587128E+03  0.00000000000E+00 0.  1.
         21    1    1    2  502  501 -0.39824621723E+02 -0.65509910564E+01  0.17803548244E+03  0.18255286628E+03  0.00000000000E+00 0.  1.
<scales pt_clust_5="13000.00000" pt_clust_6="13000.00000" pt_clust_7="13000.00000" pt_clust_8="13000.00000" pt_clust_9="40.35983"></scales>
<clustering>
<clus scale="   40.360">  1  9  2 -1</clus>
<clus scale="   93.046">  5  6 -1 -1</clus>
<clus scale="   93.834">  7  8 -1 -1</clus>
<clus scale="  179.291">  1  5  2 -1</clus>
<clus scale="  179.701">  2  5  1 -1</clus>
</clustering>
</event>
<event>
 9    1  0.5300912E-006  0.1378124E+03  0.7546771E-02  0.1217739E+00
         -1   -1    0    0    0  501 -0.00000000000E+00  0.00000000000E+00  0.62211126693E+02  0.62211126693E+02  0.00000000000E+00 0.  1.
          1   -1    0    0  502    0  0.00000000000E+00 -0.00000000000E+00 -0.11387645760E+04  0.11387645760E+04  0.00000000000E+00 0. -1.
         23    2    1    2    0    0  0.95714206933E+02 -0.39852708280E+02 -0.30265354765E+03  0.33295501714E+03  0.92251968912E+02 0.  0.
         23    2    1    2    0    0 -0.10004031339E+03 -0.57193455804E+02 -0.75561431340E+03  0.76917213524E+03  0.85986204251E+02 0.  0.
        -11    1    4    4    0    0 -0.74598778177E+02  0.62069949206E+01 -0.35959739563E+03  0.36730612768E+03  0.00000000000E+00 0.  1.
         11    1    4    4    0    0 -0.25441535215E+02 -0.63400450725E+02 -0.39601691778E+03  0.40186600756E+03  0.00000000000E+00 0. -1.
        -13    1    3    3    0    0  0.18097882252E+02 -0.22201806002E+02 -0.11080195796E+02  0.30711956477E+02  0.00000000000E+00 0.  1.
         13    1    3    3    0    0  0.77616324680E+02 -0.17650902279E+02 -0.29157335185E+03  0.30224306066E+03  0.00000000000E+00 0. -1.
         21    1    1    2  502  501  0.43261064597E+01  0.97046164085E+02 -0.18285588253E+02  0.98848550310E+02  0.00000000000E+00 0. -1.
<scales pt_clust_5="13000.00000" pt_clust_6="13000.00000" pt_clust_7="13000.00000" pt_clust_8="13000.00000" pt_clust_9="97.14254"></scales>
<clustering>
<clus scale="   85.986">  5  6 -1 -1</clus>
<clus scale="   92.252">  7  8 -1 -1</clus>
<clus scale="   97.143">  1  9  2 -1</clus>
<clus scale="  133.699">  2  5  1 -1</clus>
<clus scale="  133.699">  2  5  1 -1</clus>
</clustering>
</event>
<event>
 9    1  0.5300912E-006  0.3251108E+03  0.7546771E-02  0.1123037E+00
         -2   -1    0    0    0  501 -0.00000000000E+00  0.00000000000E+00  0.40836446742E+03  0.40836446742E+03  0.00000000000E+00 0.  1.
          2   -1    0    0  502    0  0.00000000000E+00 -0.00000000000E+00 -0.32531559301E+03  0.32531559301E+03  0.00000000000E+00 0. -1.
         23    2    1    2    0    0 -0.14141173467E+03 -0.28550365354E+03  0.22262274964E+02  0.33258629921E+03  0.92781585723E+02 0.  0.
         23    2    1    2    0    0  0.11917798960E+02  0.82987954647E+01 -0.55872326212E+00  0.89044948786E+02  0.87850935080E+02 0.  0.
        -11    1    3    3    0    0 -0.87667838066E+02 -0.10808749140E+03  0.43946411940E+02  0.14594465646E+03  0.00000000000E+00 0.  1.
         11    1    3    3    0    0 -0.53743896609E+02 -0.17741616214E+03 -0.21684136976E+02  0.18664164275E+03  0.00000000000E+00 0. -1.
        -13    1    4    4    0    0 -0.16307430441E+02 -0.16778332262E+02  0.31689623360E+02  0.39391330896E+02  0.00000000000E+00 0.  1.
         13    1    4    4    0    0  0.28225229401E+02  0.25077127727E+02 -0.32248346622E+02  0.49653617890E+02  0.00000000000E+00 0. -1.
         21    1    1    2  502  501  0.12949393571E+03  0.27720485807E+03  0.61345322707E+02  0.31204881244E+03  0.00000000000E+00 0.  1.
<scales pt_clust_5="13000.00000" pt_clust_6="13000.00000" pt_clust_7="13000.00000" pt_clust_8="13000.00000" pt_clust_9="311.59044"></scales>
<clustering>
<clus scale="   87.851">  7  8 -1 -1</clus>
<clus scale="   89.043">  2  7  1 -1</clus>
<clus scale="   92.782">  5  6 -1 -1</clus>
<clus scale="  311.590">  1  9  2 -1</clus>
<clus scale="   89.043">  2  5  1 -1</clus>
</clustering>
</event>
<event>
 9    1  0.5300912E-006  0.1783537E+03  0.7546771E-02  0.1170288E+00
         -2   -1    0    0    0  501 -0.00000000000E+00  0.00000000000E+00  0.46479152777E+02  0.46479152777E+02  0.00000000000E+00 0.  1.
          2   -1    0    0  502    0  0.00000000000E+00 -0.00000000000E+00 -0.89867638008E+03  0.89867638008E+03  0.00000000000E+00 0. -1.
         23    2    1    2    0    0  0.17357605800E+03  0.98795554154E+01 -0.38200989405E+03  0.42927070329E+03  0.90086203317E+02 0.  0.
         23    2    1    2    0    0 -0.13257178621E+03  0.13104443846E+02 -0.38100409517E+03  0.41507181214E+03  0.96816753469E+02 0.  0.
        -11    1    3    3    0    0  0.58967862496E+02 -0.25842318946E+02 -0.70725815172E+02  0.95640865678E+02  0.00000000000E+00 0.  1.
         11    1    3    3    0    0  0.11460819550E+03  0.35721874361E+02 -0.31128407888E+03  0.33362983761E+03  0.00000000000E+00 0. -1.
        -13    1    4    4    0    0 -0.29681341584E+01  0.32797866806E+02 -0.92309535144E+02  0.98007959707E+02  0.00000000000E+00 0. -1.
         13    1    4    4    0    0 -0.12960365205E+03 -0.19693422960E+02 -0.28869456003E+03  0.31706385244E+03  0.00000000000E+00 0.  1.
         21    1    1    2  502  501 -0.41004271785E+02 -0.22983999261E+02 -0.89183238086E+02  0.10081301742E+03  0.00000000000E+00 0.  1.
<scales pt_clust_5="13000.00000" pt_clust_6="13000.00000" pt_clust_7="13000.00000" pt_clust_8="13000.00000" pt_clust_9="47.00654"></scales>
<clustering>
<clus scale="   47.007">  1  9  2 -1</clus>
<clus scale="   90.086">  5  6 -1 -1</clus>
<clus scale="   96.817">  7  8 -1 -1</clus>
<clus scale="  174.792">  1  5  2 -1</clus>
<clus scale="  178.354">  2  5  1 -1</clus>
</clustering>
</event>
<event>
 9    1  0.5300912E-006  0.3814046E+03  0.7546771E-02  0.1096993E+00
          2   -1    0    0  502    0  0.00000000000E+00  0.00000000000E+00  0.10444936746E+04  0.10444936746E+04  0.00000000000E+00 0. -1.
         -2   -1    0    0    0  501 -0.00000000000E+00 -0.00000000000E+00 -0.24079087485E+03  0.24079087485E+03  0.00000000000E+00 0.  1.
         23    2    1    2    0    0  0.36815972267E+03  0.14011709008E+03  0.54576005479E+03  0.67918997135E+03  0.90942836164E+02 0.  0.
         23    2    1    2    0    0 -0.14889296695E+02 -0.55161967688E+02  0.21504794797E+03  0.24022939762E+03  0.90553905064E+02 0.  0.
        -13    1    4    4    0    0 -0.19276655717E+02  0.15806158297E+02  0.18007101722E+02  0.30751907391E+02  0.00000000000E+00 0.  1.
         13    1    4    4    0    0  0.43873590221E+01 -0.70968125986E+02  0.19704084624E+03  0.20947749023E+03  0.00000000000E+00 0. -1.
        -13    1    3    3    0    0  0.26151761994E+03  0.85743007439E+02  0.30833847559E+03  0.41329885603E+03  0.00000000000E+00 0.  1.
         13    1    3    3    0    0  0.10664210272E+03  0.54374082642E+02  0.23742157920E+03  0.26589111532E+03  0.00000000000E+00 0. -1.
         21    1    1    2  502  501 -0.35327042597E+03 -0.84955122393E+02  0.42894797003E+02  0.36586518049E+03  0.00000000000E+00 0. -1.
<scales pt_clust_5="13000.00000" pt_clust_6="13000.00000" pt_clust_7="13000.00000" pt_clust_8="13000.00000" pt_clust_9="370.40370"></scales>
<clustering>
<clus scale="   90.554">  5  6 -1 -1</clus>
<clus scale="   90.943">  7  8 -1 -1</clus>
<clus scale="  107.073">  1  5  2 -1</clus>
<clus scale="  370.404">  2  9  1 -1</clus>
<clus scale="  107.073">  1  5  2 -1</clus>
</clustering>
</event>
<event>
 9    1  0.5300912E-006  0.9241073E+02  0.7546771E-02  0.1297915E+00
         -2   -1    0    0    0  501 -0.00000000000E+00  0.00000000000E+00  0.17205742962E+03  0.17205742962E+03  0.00000000000E+00 0.  1.
          2   -1    0    0  502    0  0.00000000000E+00 -0.00000000000E+00 -0.38921539098E+03  0.38921539098E+03  0.00000000000E+00 0. -1.
         23    2    1    2    0    0 -0.51603961904E+02 -0.92056195255E+01  0.12039565815E+03  0.16018497609E+03  0.91740938245E+02 0.  0.
         23    2    1    2    0    0 -0.64157150659E+01 -0.11262538434E+02 -0.32592899315E+03  0.33847506351E+03  0.90375073307E+02 0.  0.
        -11    1    4    4    0    0 -0.19293434920E+00  0.39462707608E+02 -0.12114955460E+03  0.12741490139E+03  0.00000000000E+00 0.  1.
         11    1    4    4    0    0 -0.62227807167E+01 -0.50725246043E+02 -0.20477943855E+03  0.21106016213E+03  0.00000000000E+00 0. -1.
        -13    1    3    3    0    0  0.12790124041E+02 -0.23957612743E+02  0.55872761293E+01  0.27726740448E+02  0.00000000000E+00 0. -1.
         13    1    3    3    0    0 -0.64394085944E+02  0.14751993218E+02  0.11480838202E+03  0.13245823564E+03  0.00000000000E+00 0.  1.
         21    1    1    2  502  501  0.58019676970E+02  0.20468157960E+02 -0.11624626367E+02  0.62612780996E+02  0.00000000000E+00 0. -1.
<scales pt_clust_5="13000.00000" pt_clust_6="13000.00000" pt_clust_7="13000.00000" pt_clust_8="13000.00000" pt_clust_9="61.52421"></scales>
<clustering>
<clus scale="   61.524">  1  9  2 -1</clus>
<clus scale="   90.375">  5  6 -1 -1</clus>
<clus scale="   91.055">  2  5  1 -1</clus>
<clus scale="   91.741">  7  8 -1 -1</clus>
<clus scale="   91.055">  2  5  1 -1</clus>
</clustering>
</event>
<event>
 9    1  0.5300912E-006  0.1052906E+03  0.7546771E-02  0.1269927E+00
          4   -1    0    0  502    0  0.00000000000E+00  0.00000000000E+00  0.37268446621E+02  0.37268446621E+02  0.00000000000E+00 0. -1.
         -4   -1    0    0    0  501 -0.00000000000E+00 -0.00000000000E+00 -0.46101203989E+03  0.46101203989E+03  0.00000000000E+00 0.  1.
         23    2    1    2    0    0  0.33283295545E+02 -0.31630004386E+02 -0.28024542976E+03  0.29928123366E+03  0.94464389997E+02 0.  0.
         23    2    1    2    0    0 -0.15348896721E+02  0.49602981215E+02 -0.13486168831E+03  0.17218024353E+03  0.93607248185E+02 0.  0.
        -13    1    3    3    0    0 -0.31781764951E+02 -0.22661289592E+02 -0.93419686053E+02  0.10124649313E+03  0.00000000000E+00 0. -1.
         13    1    3    3    0    0  0.65065060497E+02 -0.89687147942E+01 -0.18682574371E+03  0.19803474053E+03  0.00000000000E+00 0.  1.
        -13    1    4    4    0    0 -0.23077192003E+02  0.74592734250E+02 -0.82159871669E+02  0.11334406604E+03  0.00000000000E+00 0.  1.
         13    1    4    4    0    0  0.77282952821E+01 -0.24989753035E+02 -0.52701816638E+02  0.58836177490E+02  0.00000000000E+00 0. -1.
         21    1    1    2  502  501 -0.17934398824E+02 -0.17972976829E+02 -0.86364751999E+01  0.26819009324E+02  0.00000000000E+00 0.  1.
<scales pt_clust_5="13000.00000" pt_clust_6="13000.00000" pt_clust_7="13000.00000" pt_clust_8="13000.00000" pt_clust_9="25.39036"></scales>
<clustering>
<clus scale="   25.390">  1  9  2 -1</clus>
<clus scale="   93.607">  7  8 -1 -1</clus>
<clus scale="   94.464">  5  6 -1 -1</clus>
<clus scale="  104.522">  1  7  2 -1</clus>
<clus scale="   25.390">  1  5  2 -1</clus>
</clustering>
</event>
<event>
 9    1  0.5300912E-006  0.9959269E+02  0.7546771E-02  0.1282916E+00
          1   -1    0    0  502    0  0.00000000000E+00  0.00000000000E+00  0.10022596466E+03  0.10022596466E+03  0.00000000000E+00 0. -1.
         -1   -1    0    0    0  501 -0.00000000000E+00 -0.00000000000E+00 -0.60950901240E+03  0.60950901240E+03  0.00000000000E+00 0.  1.
         23    2    1    2    0    0  0.75859621972E+01  0.33208213137E+02 -0.37534481627E+03  0.38724683873E+03  0.88972190956E+02 0.  0.
         23    2    1    2    0    0 -0.55737930660E+02 -0.20974197587E+02 -0.20683299084E+03  0.23427289506E+03  0.92505510017E+02 0.  0.
        -11    1    4    4    0    0 -0.57692447373E+01  0.33670090821E+02 -0.86264888252E+02  0.92782488357E+02  0.00000000000E+00 0.  1.
         11    1    4    4    0    0 -0.49968685923E+02 -0.54644288407E+02 -0.12056810259E+03  0.14149040670E+03  0.00000000000E+00 0. -1.
        -11    1    3    3    0    0  0.35223792300E+02 -0.15975382908E+02 -0.16434421383E+03  0.16883408726E+03  0.00000000000E+00 0.  1.
         11    1    3    3    0    0 -0.27637830103E+02  0.49183596045E+02 -0.21100060244E+03  0.21841275147E+03  0.00000000000E+00 0. -1.
         21    1    1    2  502  501  0.48151968463E+02 -0.12234015550E+02  0.72894759363E+02  0.88215243275E+02  0.00000000000E+00 0. -1.
<scales pt_clust_5="13000.00000" pt_clust_6="13000.00000" pt_clust_7="13000.00000" pt_clust_8="13000.00000" pt_clust_9="49.68182"></scales>
<clustering>
<clus scale="   49.682">  1  9  2 -1</clus>
<clus scale="   88.972">  7  8 -1 -1</clus>
<clus scale="   92.506">  5  6 -1 -1</clus>
<clus scale="   96.320">  2  7  1 -1</clus>
<clus scale="   49.682">  1  5  2 -1</clus>
</clustering>
</event>
<event>
 9    1  0.5300912E-006  0.1655884E+03  0.7546771E-02  0.1202072E+00
          2   -1    0    0  502    0  0.00000000000E+00  0.00000000000E+00  0.44239516446E+03  0.44239516446E+03  0.00000000000E+00 0. -1.
         -2   -1    0    0    0  501 -0.00000000000E+00 -0.00000000000E+00 -0.32096339565E+03  0.32096339565E+03  0.00000000000E+00 0.  1.
         23    2    1    2    0    0 -0.62159987730E+02 -0.60811982505E+01 -0.18675030099E+03  0.21558163004E+03  0.87743485483E+02 0.  0.
         23    2    1    2    0    0 -0.73172603691E+02 -0.11169161749E+03  0.33014690665E+03  0.36703457066E+03  0.88815250623E+02 0.  0.
        -11    1    4    4    0    0 -0.65796332376E+02 -0.76204334477E+02  0.13422105174E+03  0.16778423251E+03  0.00000000000E+00 0.  1.
         11    1    4    4    0    0 -0.73762713152E+01 -0.35487283009E+02  0.19592585490E+03  0.19925033815E+03  0.00000000000E+00 0. -1.
        -13    1    3    3    0    0 -0.24152672550E+02 -0.34939589613E+02 -0.30728810627E+02  0.52425054280E+02  0.00000000000E+00 0. -1.
         13    1    3    3    0    0 -0.38007315179E+02  0.28858391363E+02 -0.15602149036E+03  0.16315657576E+03  0.00000000000E+00 0.  1.
         21    1    1    2  502  501  0.13533259142E+03  0.11777281574E+03 -0.21964836851E+02  0.18074235941E+03  0.00000000000E+00 0. -1.
<scales pt_clust_5="13000.00000" pt_clust_6="13000.00000" pt_clust_7="13000.00000" pt_clust_8="13000.00000" pt_clust_9="139.75473"></scales>
<clustering>
<clus scale="   87.743">  7  8 -1 -1</clus>
<clus scale="   88.815">  5  6 -1 -1</clus>
<clus scale="  107.702">  2  7  1 -1</clus>
<clus scale="  139.755">  2  9  1 -1</clus>
<clus scale="  165.588">  1  5  2 -1</clus>
</clustering>
</event>
<event>
 9    1  0.5300912E-006  0.1891302E+03  0.7546771E-02  0.1159316E+00
         -2   -1    0    0    0  501 -0.00000000000E+00  0.00000000000E+00  0.64236832099E+02  0.64236832099E+02  0.00000000000E+00 0.  1.
          2   -1    0    0  502    0  0.00000000000E+00 -0.00000000000E+00 -0.99812695169E+03  0.99812695169E+03  0.00000000000E+00 0. -1.
         23    2    1    2    0    0  0.87221508937E+02  0.12321593451E+03 -0.26900404215E+03  0.32154310410E+03  0.90758112394E+02 0.  0.
         23    2    1    2    0    0 -0.72377800182E+02 -0.15869514076E+03 -0.67325695011E+03  0.70146103951E+03  0.91378199899E+02 0.  0.
        -11    1    3    3    0    0 -0.10554128292E+02  0.54491227478E+02 -0.69014080830E+02  0.88564252658E+02  0.00000000000E+00 0. -1.
         11    1    3    3    0    0  0.97775637229E+02  0.68724707027E+02 -0.19998996132E+03  0.23297885144E+03  0.00000000000E+00 0.  1.
        -11    1    4    4    0    0 -0.90984554078E+02 -0.13007310678E+03 -0.59996016337E+03  0.62060406043E+03  0.00000000000E+00 0. -1.
         11    1    4    4    0    0  0.18606753896E+02 -0.28622033980E+02 -0.73296786742E+02  0.80856979083E+02  0.00000000000E+00 0.  1.
         21    1    1    2  502  501 -0.14843708755E+02  0.35479206256E+02  0.83708726649E+01  0.39359640183E+02  0.00000000000E+00 0.  1.
<scales pt_clust_5="13000.00000" pt_clust_6="13000.00000" pt_clust_7="13000.00000" pt_clust_8="13000.00000" pt_clust_9="38.45920"></scales>
<clustering>
<clus scale="   38.459">  1  9  2 -1</clus>
<clus scale="   90.758">  5  6 -1 -1</clus>
<clus scale="   91.378">  7  8 -1 -1</clus>
<clus scale="  188.831">  1  5  2 -1</clus>
<clus scale="  189.130">  2  5  1 -1</clus>
</clustering>
</event>
<event>
 9    1  0.5300912E-006  0.1066960E+03  0.7546771E-02  0.1275689E+00
          1   -1    0    0  502    0  0.00000000000E+00  0.00000000000E+00  0.12250967116E+03  0.12250967116E+03  0.00000000000E+00 0. -1.
         -1   -1    0    0    0  501 -0.00000000000E+00 -0.00000000000E+00 -0.26412846091E+03  0.26412846091E+03  0.00000000000E+00 0.  1.
         23    2    1    2    0    0 -0.11287419528E+02 -0.90919808078E+01 -0.19474754317E+03  0.21477550191E+03  0.89397095567E+02 0.  0.
         23    2    1    2    0    0 -0.24092877335E+02 -0.24609222206E+02  0.51393998810E+02  0.12296942138E+03  0.10627349117E+03 0.  0.
        -11    1    4    4    0    0 -0.60561716554E+02  0.94356517997E+01  0.22345325483E+02  0.65238536217E+02  0.00000000000E+00 0.  1.
         11    1    4    4    0    0  0.36468839219E+02 -0.34044874006E+02  0.29048673327E+02  0.57730885167E+02  0.00000000000E+00 0. -1.
        -13    1    3    3    0    0 -0.90218611263E+01 -0.49378637199E+02 -0.11008819355E+03  0.12099195902E+03  0.00000000000E+00 0. -1.
         13    1    3    3    0    0 -0.22655584016E+01  0.40286656391E+02 -0.84659349619E+02  0.93783542885E+02  0.00000000000E+00 0.  1.
         21    1    1    2  502  501  0.35380296863E+02  0.33701203014E+02  0.17347546035E+01  0.48893208774E+02  0.00000000000E+00 0.  1.
<scales pt_clust_5="13000.00000" pt_clust_6="13000.00000" pt_clust_7="13000.00000" pt_clust_8="13000.00000" pt_clust_9="48.86242"></scales>
<clustering>
<clus scale="   48.862">  1  9  2 -1</clus>
<clus scale="   89.397">  7  8 -1 -1</clus>
<clus scale="   89.899">  2  7  1 -1</clus>
<clus scale="  106.273">  5  6 -1 -1</clus>
<clus scale="   48.862">  1  5  2 -1</clus>
</clustering>
</event>
<event>
 9    1  0.5300912E-006  0.9788938E+02  0.7546771E-02  0.1284851E+00
         -1   -1    0    0    0  501 -0.00000000000E+00  0.00000000000E+00  0.26593327401E+03  0.26593327401E+03  0.00000000000E+00 0.  1.
          1   -1    0    0  502    0  0.00000000000E+00 -0.00000000000E+00 -0.21403486766E+03  0.21403486766E+03  0.00000000000E+00 0. -1.
         23    2    1    2    0    0  0.18562780355E+02  0.10284662957E+02 -0.15506774352E+02  0.95151909826E+02  0.91449848475E+02 0.  0.
         23    2    1    2    0    0  0.36543112621E+02 -0.37011658477E+02 -0.13622438439E+03  0.17217571006E+03  0.91553974727E+02 0.  0.
        -11    1    3    3    0    0  0.45909328878E+02  0.57583010492E+01 -0.37668042440E+02  0.59663271200E+02  0.00000000000E+00 0. -1.
         11    1    3    3    0    0 -0.27346548523E+02  0.45263619081E+01  0.22161268088E+02  0.35488638626E+02  0.00000000000E+00 0.  1.
        -11    1    4    4    0    0  0.20848087341E+02  0.26061529482E+02 -0.78290869199E+02  0.85107615785E+02  0.00000000000E+00 0.  1.
         11    1    4    4    0    0  0.15695025280E+02 -0.63073187959E+02 -0.57933515190E+02  0.87068094272E+02  0.00000000000E+00 0. -1.
         21    1    1    2  502  501 -0.55105892976E+02  0.26726995520E+02  0.20362956508E+03  0.21264052179E+03  0.00000000000E+00 0.  1.
<scales pt_clust_5="13000.00000" pt_clust_6="13000.00000" pt_clust_7="13000.00000" pt_clust_8="13000.00000" pt_clust_9="61.24534"></scales>
<clustering>
<clus scale="   61.245">  1  9  2 -1</clus>
<clus scale="   91.450">  5  6 -1 -1</clus>
<clus scale="   91.554">  7  8 -1 -1</clus>
<clus scale="   97.792">  1  5  2 -1</clus>
<clus scale="   97.889">  2  5  1 -1</clus>
</clustering>
</event>
<event>
 9    1  0.5300912E-006  0.9428379E+02  0.7546771E-02  0.1294849E+00
          1   -1    0    0  502    0  0.00000000000E+00  0.00000000000E+00  0.11041670232E+03  0.11041670232E+03  0.00000000000E+00 0. -1.
         -1   -1    0    0    0  501 -0.00000000000E+00 -0.00000000000E+00 -0.11052593443E+03  0.11052593443E+03  0.00000000000E+00 0.  1.
         23    2    1    2    0    0  0.86538752349E+01  0.28359328722E+02 -0.33461702191E+02  0.97876419801E+02  0.87068748454E+02 0.  0.
         23    2    1    2    0    0 -0.22713383111E+02 -0.87527886372E+01  0.30452792950E+02  0.98766128396E+02  0.90746164870E+02 0.  0.
        -11    1    3    3    0    0 -0.46323475947E+01 -0.30506256999E+02 -0.17422617404E+02  0.35434982116E+02  0.00000000000E+00 0.  1.
         11    1    3    3    0    0  0.13286222830E+02  0.58865585721E+02 -0.16039084787E+02  0.62441437685E+02  0.00000000000E+00 0. -1.
        -11    1    4    4    0    0 -0.39265869457E+02  0.12179672614E+02 -0.16869477286E+02  0.44437958922E+02  0.00000000000E+00 0.  1.
         11    1    4    4    0    0  0.16552486346E+02 -0.20932461251E+02  0.47322270235E+02  0.54328169475E+02  0.00000000000E+00 0. -1.
         21    1    1    2  502  501  0.14059507876E+02 -0.19606540085E+02  0.28996771300E+01  0.24300088545E+02  0.00000000000E+00 0.  1.
<scales pt_clust_5="13000.00000" pt_clust_6="13000.00000" pt_clust_7="13000.00000" pt_clust_8="13000.00000" pt_clust_9="24.12646"></scales>
<clustering>
<clus scale="   24.126">  1  9  2 -1</clus>
<clus scale="   87.069">  5  6 -1 -1</clus>
<clus scale="   90.746">  7  8 -1 -1</clus>
<clus scale="   90.750">  2  5  1 -1</clus>
<clus scale="   24.126">  1  5  2 -1</clus>
</clustering>
</event>
<event>
 9    1  0.5300912E-006  0.9342682E+02  0.7546771E-02  0.1296500E+00
          1   -1    0    0  502    0  0.00000000000E+00  0.00000000000E+00  0.26732692297E+03  0.26732692297E+03  0.00000000000E+00 0. -1.
         -1   -1    0    0    0  501 -0.00000000000E+00 -0.00000000000E+00 -0.51286014548E+02  0.51286014548E+02  0.00000000000E+00 0.  1.
         23    2    1    2    0    0  0.15441575854E+02  0.17458193048E+01  0.76758715090E+02  0.12049874021E+03  0.91578140947E+02 0.  0.
         23    2    1    2    0    0  0.15983320053E+01  0.31261274646E+02  0.12901119090E+03  0.15957434519E+03  0.88545255699E+02 0.  0.
        -11    1    3    3    0    0 -0.26740859125E+02  0.21878767432E+02  0.62869753692E+02  0.71738134492E+02  0.00000000000E+00 0. -1.
         11    1    3    3    0    0  0.42182434978E+02 -0.20132948127E+02  0.13888961398E+02  0.48760605715E+02  0.00000000000E+00 0.  1.
        -13    1    4    4    0    0 -0.30986737406E+02  0.12248899781E+02  0.10092343882E+02  0.34814779131E+02  0.00000000000E+00 0. -1.
         13    1    4    4    0    0  0.32585069411E+02  0.19012374865E+02  0.11891884702E+03  0.12475956606E+03  0.00000000000E+00 0.  1.
         21    1    1    2  502  501 -0.17039907859E+02 -0.33007093951E+02  0.10271002436E+02  0.38539852127E+02  0.00000000000E+00 0. -1.
<scales pt_clust_5="13000.00000" pt_clust_6="13000.00000" pt_clust_7="13000.00000" pt_clust_8="13000.00000" pt_clust_9="37.14602"></scales>
<clustering>
<clus scale="   37.146">  2  9  1 -1</clus>
<clus scale="   88.545">  7  8 -1 -1</clus>
<clus scale="   90.456">  1  7  2 -1</clus>
<clus scale="   91.578">  5  6 -1 -1</clus>
<clus scale="   90.456">  1  5  2 -1</clus>
</clustering>
</event>
<event>
 9    1  0.5300912E-006  0.9966174E+02  0.7546771E-02  0.1283497E+00
          1   -1    0    0  502    0  0.00000000000E+00  0.00000000000E+00  0.96604935461E+02  0.96604935461E+02  0.00000000000E+00 0. -1.
         -1   -1    0    0    0  501 -0.00000000000E+00 -0.00000000000E+00 -0.16590470832E+03  0.16590470832E+03  0.00000000000E+00 0.  1.
         23    2    1    2    0    0  0.44924974934E+02  0.13974758007E+02 -0.52766434622E+02  0.11969937049E+03  0.96592419162E+02 0.  0.
         23    2    1    2    0    0 -0.20409027070E+01  0.14872560057E+01 -0.27527953662E+02  0.95916786570E+02  0.91846962382E+02 0.  0.
        -11    1    3    3    0    0 -0.15471074829E+02  0.30595919597E+02  0.48054576874E+01  0.34620180184E+02  0.00000000000E+00 0.  1.
         11    1    3    3    0    0  0.60396049764E+02 -0.16621161591E+02 -0.57571892309E+02  0.85079190309E+02  0.00000000000E+00 0. -1.
        -11    1    4    4    0    0 -0.23477611730E+02  0.37014627035E+02 -0.31873810620E+02  0.54196131509E+02  0.00000000000E+00 0.  1.
         11    1    4    4    0    0  0.21436709023E+02 -0.35527371030E+02  0.43458569580E+01  0.41720655061E+02  0.00000000000E+00 0. -1.
         21    1    1    2  502  501 -0.42884072227E+02 -0.15462014012E+02  0.10994615426E+02  0.46893486717E+02  0.00000000000E+00 0. -1.
<scales pt_clust_5="13000.00000" pt_clust_6="13000.00000" pt_clust_7="13000.00000" pt_clust_8="13000.00000" pt_clust_9="45.58637"></scales>
<clustering>
<clus scale="   45.586">  1  9  2 -1</clus>
<clus scale="   91.847">  7  8 -1 -1</clus>
<clus scale="   95.070">  1  7  2 -1</clus>
<clus scale="   96.592">  5  6 -1 -1</clus>
<clus scale="   45.586">  1  5  2 -1</clus>
</clustering>
</event>
<event>
 9    1  0.5300912E-006  0.1051211E+03  0.7546771E-02  0.1271886E+00
          1   -1    0    0  502    0  0.00000000000E+00  0.00000000000E+00  0.69071384815E+02  0.69071384815E+02  0.00000000000E+00 0. -1.
         -1   -1    0    0    0  501 -0.00000000000E+00 -0.00000000000E+00 -0.22630970429E+03  0.22630970429E+03  0.00000000000E+00 0.  1.
         23    2    1    2    0    0 -0.27138705229E+02  0.34248577379E+02 -0.86136306785E+02  0.13503468355E+03  0.94368575494E+02 0.  0.
         23    2    1    2    0    0  0.45420639317E+02 -0.20191619959E+02 -0.20521884255E+02  0.10475704903E+03  0.89900809766E+02 0.  0.
        -11    1    4    4    0    0 -0.16724090414E+02  0.20167775314E+02  0.44233141849E+01  0.26570661822E+02  0.00000000000E+00 0. -1.
         11    1    4    4    0    0  0.62144729731E+02 -0.40359395273E+02 -0.24945198440E+02  0.78186387212E+02  0.00000000000E+00 0.  1.
        -13    1    3    3    0    0  0.27294289367E+02  0.39401522143E+02 -0.29346773247E+02  0.56202235536E+02  0.00000000000E+00 0.  1.
         13    1    3    3    0    0 -0.54432994595E+02 -0.51529447641E+01 -0.56789533538E+02  0.78832448013E+02  0.00000000000E+00 0. -1.
         21    1    1    2  502  501 -0.18281934088E+02 -0.14056957421E+02 -0.50580128432E+02  0.55589356518E+02  0.00000000000E+00 0. -1.
<scales pt_clust_5="13000.00000" pt_clust_6="13000.00000" pt_clust_7="13000.00000" pt_clust_8="13000.00000" pt_clust_9="23.06138"></scales>
<clustering>
<clus scale="   23.061">  2  9  1 -1</clus>
<clus scale="   89.901">  5  6 -1 -1</clus>
<clus scale="   94.369">  7  8 -1 -1</clus>
<clus scale="  101.129">  1  5  2 -1</clus>
<clus scale="  101.129">  1  5  2 -1</clus>
</clustering>
</event>
<event>
 9    1  0.5300912E-006  0.9341538E+02  0.7546771E-02  0.1296134E+00
          2   -1    0    0  502    0  0.00000000000E+00  0.00000000000E+00  0.14893541708E+03  0.14893541708E+03  0.00000000000E+00 0. -1.
         -2   -1    0    0    0  501 -0.00000000000E+00 -0.00000000000E+00 -0.22199628565E+03  0.22199628565E+03  0.00000000000E+00 0.  1.
         23    2    1    2    0    0 -0.18619109667E+02  0.16148086579E+01 -0.14333788336E+03  0.16928324928E+03  0.88101026268E+02 0.  0.
         23    2    1    2    0    0  0.48280275301E+02  0.60986708847E+02  0.50812818997E+02  0.12969298347E+03  0.90487367897E+02 0.  0.
        -13    1    3    3    0    0 -0.43382136287E+02 -0.26123059126E+02 -0.10065305972E+03  0.11267414254E+03  0.00000000000E+00 0.  1.
         13    1    3    3    0    0  0.24763026620E+02  0.27737867784E+02 -0.42684823642E+02  0.56609106740E+02  0.00000000000E+00 0. -1.
        -13    1    4    4    0    0  0.68043779691E+02  0.69871668219E+02  0.39240827074E+02  0.10512777218E+03  0.00000000000E+00 0. -1.
         13    1    4    4    0    0 -0.19763504390E+02 -0.88849593720E+01  0.11571991923E+02  0.24565211293E+02  0.00000000000E+00 0.  1.
         21    1    1    2  502  501 -0.29661165634E+02 -0.62601517505E+02  0.19464195797E+02  0.71955469971E+02  0.00000000000E+00 0.  1.
<scales pt_clust_5="13000.00000" pt_clust_6="13000.00000" pt_clust_7="13000.00000" pt_clust_8="13000.00000" pt_clust_9="69.27290"></scales>
<clustering>
<clus scale="   69.273">  1  9  2 -1</clus>
<clus scale="   88.101">  5  6 -1 -1</clus>
<clus scale="   90.487">  7  8 -1 -1</clus>
<clus scale="   91.106">  2  5  1 -1</clus>
<clus scale="   69.273">  1  5  2 -1</clus>
</clustering>
</event>
<event>
 9    1  0.5300912E-006  0.1136247E+03  0.7546771E-02  0.1254476E+00
         -2   -1    0    0    0  501 -0.00000000000E+00  0.00000000000E+00  0.82040954994E+02  0.82040954994E+02  0.00000000000E+00 0.  1.
          2   -1    0    0  502    0  0.00000000000E+00 -0.00000000000E+00 -0.63328084547E+03  0.63328084547E+03  0.00000000000E+00 0. -1.
         23    2    1    2    0    0 -0.86580500603E+02  0.82530224949E+02 -0.22221143000E+03  0.26838903652E+03  0.91363746565E+02 0.  0.
         23    2    1    2    0    0  0.59307367258E+02  0.20935112393E+02 -0.32141721922E+03  0.33966286683E+03  0.90034390922E+02 0.  0.
        -11    1    3    3    0    0 -0.38268499061E+02  0.62849956785E+02 -0.19730864833E+03  0.21058323246E+03  0.00000000000E+00 0. -1.
         11    1    3    3    0    0 -0.48312001542E+02  0.19680268164E+02 -0.24902781673E+02  0.57805804060E+02  0.00000000000E+00 0.  1.
        -13    1    4    4    0    0  0.35400342655E+02  0.44896392876E+02 -0.28186213480E+03  0.28760238766E+03  0.00000000000E+00 0. -1.
         13    1    4    4    0    0  0.23907024603E+02 -0.23961280484E+02 -0.39555084421E+02  0.52060479169E+02  0.00000000000E+00 0.  1.
         21    1    1    2  502  501  0.27273133345E+02 -0.10346533734E+03 -0.76112412538E+01  0.10726989711E+03  0.00000000000E+00 0.  1.
<scales pt_clust_5="13000.00000" pt_clust_6="13000.00000" pt_clust_7="13000.00000" pt_clust_8="13000.00000" pt_clust_9="106.99953"></scales>
<clustering>
<clus scale="   90.034">  7  8 -1 -1</clus>
<clus scale="   91.364">  5  6 -1 -1</clus>
<clus scale="  107.000">  1  9  2 -1</clus>
<clus scale="  112.559">  2  7  1 -1</clus>
<clus scale="  112.559">  2  5  1 -1</clus>
</clustering>
</event>
<event>
 9    1  0.5300912E-006  0.1467312E+03  0.7546771E-02  0.1208012E+00
         -2   -1    0    0    0  501 -0.00000000000E+00  0.00000000000E+00  0.91371888465E+02  0.91371888465E+02  0.00000000000E+00 0.  1.
          2   -1    0    0  502    0  0.00000000000E+00 -0.00000000000E+00 -0.62063445923E+03  0.62063445923E+03  0.00000000000E+00 0. -1.
         23    2    1    2    0    0  0.85692544763E+02  0.27361437640E+01 -0.29723250560E+02  0.13697723848E+03  0.10260893493E+03 0.  0.
         23    2    1    2    0    0 -0.55340480493E+02  0.10755075368E+03 -0.38654496385E+03  0.41424300246E+03  0.86893743262E+02 0.  0.
        -11    1    3    3    0    0  0.57896917717E+02  0.48550273934E+02 -0.34727187130E+02  0.83157439272E+02  0.00000000000E+00 0.  1.
         11    1    3    3    0    0  0.27795627045E+02 -0.45814130170E+02  0.50039365700E+01  0.53819799212E+02  0.00000000000E+00 0. -1.
        -13    1    4    4    0    0  0.77065843867E+01  0.60373769092E+02 -0.99912637842E+02  0.11699110495E+03  0.00000000000E+00 0. -1.
         13    1    4    4    0    0 -0.63047064879E+02  0.47176984588E+02 -0.28663232600E+03  0.29725189751E+03  0.00000000000E+00 0.  1.
         21    1    1    2  502  501 -0.30352064270E+02 -0.11028689744E+03 -0.11299435635E+03  0.16078610674E+03  0.00000000000E+00 0. -1.
<scales pt_clust_5="13000.00000" pt_clust_6="13000.00000" pt_clust_7="13000.00000" pt_clust_8="13000.00000" pt_clust_9="114.38727"></scales>
<clustering>
<clus scale="   86.894">  7  8 -1 -1</clus>
<clus scale="  102.609">  5  6 -1 -1</clus>
<clus scale="  114.387">  1  9  2 -1</clus>
<clus scale="  136.206">  2  7  1 -1</clus>
<clus scale="  136.206">  2  5  1 -1</clus>
</clustering>
</event>
<event>
 9    1  0.5300912E-006  0.1009908E+03  0.7546771E-02  0.1279261E+00
          3   -1    0    0  502    0  0.00000000000E+00  0.00000000000E+00  0.91748045201E+02  0.91748045201E+02  0.00000000000E+00 0. -1.
         -3   -1    0    0    0  501 -0.00000000000E+00 -0.00000000000E+00 -0.22620083572E+03  0.22620083572E+03  0.00000000000E+00 0.  1.
         23    2    1    2    0    0 -0.73138442821E+02 -0.32779707337E+01 -0.63859963292E+02  0.13334764291E+03  0.91342881754E+02 0.  0.
         23    2    1    2    0    0  0.11861953517E+02 -0.26437605447E+02 -0.20322026851E+02  0.99955050977E+02  0.93479273197E+02 0.  0.
        -11    1    3    3    0    0 -0.39251743343E+02  0.15490978154E+02  0.15567032899E+02  0.44977797555E+02  0.00000000000E+00 0. -1.
         11    1    3    3    0    0 -0.33886699477E+02 -0.18768948888E+02 -0.79426996191E+02  0.88369845353E+02  0.00000000000E+00 0.  1.
        -13    1    4    4    0    0  0.12236978867E+02  0.18925619552E+02  0.26482063199E+02  0.34773875230E+02  0.00000000000E+00 0. -1.
         13    1    4    4    0    0 -0.37502534997E+00 -0.45363224999E+02 -0.46804090050E+02  0.65181175747E+02  0.00000000000E+00 0.  1.
         21    1    1    2  502  501  0.61276489304E+02  0.29715576181E+02 -0.50270800376E+02  0.84646187036E+02  0.00000000000E+00 0. -1.
<scales pt_clust_5="13000.00000" pt_clust_6="13000.00000" pt_clust_7="13000.00000" pt_clust_8="13000.00000" pt_clust_9="68.10157"></scales>
<clustering>
<clus scale="   68.102">  2  9  1 -1</clus>
<clus scale="   91.343">  5  6 -1 -1</clus>
<clus scale="   93.479">  7  8 -1 -1</clus>
<clus scale="   99.017">  2  5  1 -1</clus>
<clus scale="  100.991">  1  5  2 -1</clus>
</clustering>
</event>
<event>
 9    1  0.5300912E-006  0.1079050E+03  0.7546771E-02  0.1270501E+00
          4   -1    0    0  502    0  0.00000000000E+00  0.00000000000E+00  0.21506589064E+03  0.21506589064E+03  0.00000000000E+00 0. -1.
         -4   -1    0    0    0  501 -0.00000000000E+00 -0.00000000000E+00 -0.81635131257E+02  0.81635131257E+02  0.00000000000E+00 0.  1.
         23    2    1    2    0    0 -0.38477397732E+02  0.67833638992E+01 -0.59405383681E+01  0.11022303509E+03  0.10289462234E+03 0.  0.
         23    2    1    2    0    0  0.29246473031E+02  0.13358527082E+02  0.13191444212E+03  0.16310042408E+03  0.90368810251E+02 0.  0.
        -13    1    4    4    0    0 -0.30381226335E+02  0.18658677293E+02  0.42161447050E+02  0.55215512035E+02  0.00000000000E+00 0.  1.
         13    1    4    4    0    0  0.59627699366E+02 -0.53001502115E+01  0.89752995065E+02  0.10788491205E+03  0.00000000000E+00 0. -1.
        -13    1    3    3    0    0 -0.45050491188E+02 -0.38897395227E+02  0.11982808680E+02  0.60713604864E+02  0.00000000000E+00 0.  1.
         13    1    3    3    0    0  0.65730934558E+01  0.45680759127E+02 -0.17923347048E+02  0.49509430227E+02  0.00000000000E+00 0. -1.
         21    1    1    2  502  501  0.92309247009E+01 -0.20141890981E+02  0.74568556398E+01  0.23377562729E+02  0.00000000000E+00 0. -1.
<scales pt_clust_5="13000.00000" pt_clust_6="13000.00000" pt_clust_7="13000.00000" pt_clust_8="13000.00000" pt_clust_9="22.15639"></scales>
<clustering>
<clus scale="   22.156">  2  9  1 -1</clus>
<clus scale="   90.369">  5  6 -1 -1</clus>
<clus scale="   96.035">  1  5  2 -1</clus>
<clus scale="  102.895">  7  8 -1 -1</clus>
<clus scale="   96.035">  1  5  2 -1</clus>
</clustering>
</event>
<event>
 9    1  0.5300912E-006  0.2249983E+03  0.7546771E-02  0.1150946E+00
         -2   -1    0    0    0  501 -0.00000000000E+00  0.00000000000E+00  0.13876776503E+03  0.13876776503E+03  0.00000000000E+00 0.  1.
          2   -1    0    0  502    0  0.00000000000E+00 -0.00000000000E+00 -0.81255452214E+03  0.81255452214E+03  0.00000000000E+00 0. -1.
         23    2    1    2    0    0 -0.28849044843E+01 -0.17107170501E+03 -0.93271436750E+02  0.21590675659E+03  0.92964055952E+02 0.  0.
         23    2    1    2    0    0  0.42946788293E+02 -0.91873457340E+02 -0.37564815911E+03  0.39968399097E+03  0.91381586786E+02 0.  0.
        -13    1    3    3    0    0 -0.37738853261E+02 -0.12876828253E+03 -0.41360759252E+02  0.14041440110E+03  0.00000000000E+00 0.  1.
         13    1    3    3    0    0  0.34853948777E+02 -0.42303422481E+02 -0.51910677498E+02  0.75492355489E+02  0.00000000000E+00 0. -1.
        -13    1    4    4    0    0 -0.21494402692E+02 -0.57523859175E+02 -0.13745964573E+03  0.15055284098E+03  0.00000000000E+00 0.  1.
         13    1    4    4    0    0  0.64441190985E+02 -0.34349598165E+02 -0.23818851338E+03  0.24913114999E+03  0.00000000000E+00 0. -1.
         21    1    1    2  502  501 -0.40061883808E+02  0.26294516235E+03 -0.20486716125E+03  0.33573153962E+03  0.00000000000E+00 0. -1.
<scales pt_clust_5="13000.00000" pt_clust_6="13000.00000" pt_clust_7="13000.00000" pt_clust_8="13000.00000" pt_clust_9="204.89494"></scales>
<clustering>
<clus scale="   91.382">  7  8 -1 -1</clus>
<clus scale="   92.964">  5  6 -1 -1</clus>
<clus scale="  136.513">  2  7  1 -1</clus>
<clus scale="  204.895">  2  9  1 -1</clus>
<clus scale="  136.513">  2  5  1 -1</clus>
</clustering>
</event>
<event>
 9    1  0.5300912E-006  0.1800646E+03  0.7546771E-02  0.1186620E+00
          1   -1    0    0  502    0  0.00000000000E+00  0.00000000000E+00  0.10650370944E+04  0.10650370944E+04  0.00000000000E+00 0. -1.
         -1   -1    0    0    0  501 -0.00000000000E+00 -0.00000000000E+00 -0.72977206295E+02  0.72977206295E+02  0.00000000000E+00 0.  1.
         23    2    1    2    0    0 -0.62992679662E+01  0.72960515620E+02  0.48387151337E+02  0.12711465773E+03  0.91945104155E+02 0.  0.
         23    2    1    2    0    0  0.42352026046E+02  0.10195742051E+03  0.19307893311E+03  0.23935110669E+03  0.88433410862E+02 0.  0.
        -13    1    3    3    0    0  0.82497688325E+01  0.51248804168E+02 -0.18654473094E+02  0.55158752532E+02  0.00000000000E+00 0.  1.
         13    1    3    3    0    0 -0.14549036799E+02  0.21711711451E+02  0.67041624432E+02  0.71955905195E+02  0.00000000000E+00 0. -1.
        -13    1    4    4    0    0 -0.25268404234E+02  0.47408653769E+02  0.86803493356E+02  0.10208290339E+03  0.00000000000E+00 0. -1.
         13    1    4    4    0    0  0.67620430280E+02  0.54548766738E+02  0.10627543976E+03  0.13726820331E+03  0.00000000000E+00 0.  1.
         21    1    1    2  502  501 -0.36052758080E+02 -0.17491793613E+03  0.75059380367E+03  0.77154853629E+03  0.00000000000E+00 0. -1.
<scales pt_clust_5="13000.00000" pt_clust_6="13000.00000" pt_clust_7="13000.00000" pt_clust_8="13000.00000" pt_clust_9="156.85273"></scales>
<clustering>
<clus scale="   88.433">  7  8 -1 -1</clus>
<clus scale="   91.945">  5  6 -1 -1</clus>
<clus scale="  117.545">  2  5  1 -1</clus>
<clus scale="  156.853">  1  9  2 -1</clus>
<clus scale="  156.853">  1  5  2 -1</clus>
</clustering>
</event>
<event>
 9    1  0.5300912E-006  0.1173228E+03  0.7546771E-02  0.1274160E+00
         -1   -1    0    0    0  501 -0.00000000000E+00  0.00000000000E+00  0.46857543083E+02  0.46857543083E+02  0.00000000000E+00 0.  1.
          1   -1    0    0  502    0  0.00000000000E+00 -0.00000000000E+00 -0.40917327183E+03  0.40917327183E+03  0.00000000000E+00 0. -1.
         23    2    1    2    0    0  0.28450591415E+02  0.65187023157E+02 -0.18168423589E+03  0.21525070352E+03  0.90911603527E+02 0.  0.
         23    2    1    2    0    0 -0.63172849595E+01  0.67550200348E+01 -0.13725533836E+03  0.15390645824E+03  0.69011822135E+02 0.  0.
        -13    1    3    3    0    0  0.54667124415E+02  0.18627525938E+02 -0.65229904229E+02  0.87123014296E+02  0.00000000000E+00 0. -1.
         13    1    3    3    0    0 -0.26216533000E+02  0.46559497219E+02 -0.11645433166E+03  0.12812768922E+03  0.00000000000E+00 0.  1.
        -13    1    4    4    0    0 -0.36909229106E+02  0.89850696629E+01 -0.88456114640E+02  0.96267891258E+02  0.00000000000E+00 0.  1.
         13    1    4    4    0    0  0.30591944146E+02 -0.22300496281E+01 -0.48799223723E+02  0.57638566983E+02  0.00000000000E+00 0. -1.
         21    1    1    2  502  501 -0.22133306456E+02 -0.71942043192E+02 -0.43376154503E+02  0.86873653157E+02  0.00000000000E+00 0. -1.
<scales pt_clust_5="13000.00000" pt_clust_6="13000.00000" pt_clust_7="13000.00000" pt_clust_8="13000.00000" pt_clust_9="74.16009"></scales>
<clustering>
<clus scale="   69.012">  7  8 -1 -1</clus>
<clus scale="   69.629">  2  7  1 -1</clus>
<clus scale="   74.160">  1  9  2 -1</clus>
<clus scale="   90.912">  5  6 -1 -1</clus>
<clus scale="   69.629">  2  5  1 -1</clus>
</clustering>
</event>
<event>
 9    1  0.5300912E-006  0.1146402E+03  0.7546771E-02  0.1253453E+00
         -1   -1    0    0    0  501 -0.00000000000E+00  0.00000000000E+00  0.37177554252E+03  0.37177554252E+03  0.00000000000E+00 0.  1.
          1   -1    0    0  502    0  0.00000000000E+00 -0.00000000000E+00 -0.59893332006E+02  0.59893332006E+02  0.00000000000E+00 0. -1.
         23    2    1    2    0    0  0.62108011171E+02 -0.15229692070E+02  0.15667046894E+03  0.19229517888E+03  0.91337021012E+02 0.  0.
         23    2    1    2    0    0 -0.48012298515E+02  0.60455774504E+02  0.56427339660E+02  0.12981802164E+03  0.87798591115E+02 0.  0.
        -11    1    3    3    0    0  0.80184396496E+02  0.94894019968E+01  0.11766426518E+03  0.14270411869E+03  0.00000000000E+00 0. -1.
         11    1    3    3    0    0 -0.18076385325E+02 -0.24719094066E+02  0.39006203767E+02  0.49591060184E+02  0.00000000000E+00 0.  1.
        -13    1    4    4    0    0 -0.71707224798E+02  0.58489218953E+02  0.50036328673E+02  0.10519766637E+03  0.00000000000E+00 0.  1.
         13    1    4    4    0    0  0.23694926283E+02  0.19665555505E+01  0.63910109872E+01  0.24620355272E+02  0.00000000000E+00 0. -1.
         21    1    1    2  502  501 -0.14095712657E+02 -0.45226082434E+02  0.98784401911E+02  0.10955567401E+03  0.00000000000E+00 0.  1.
<scales pt_clust_5="13000.00000" pt_clust_6="13000.00000" pt_clust_7="13000.00000" pt_clust_8="13000.00000" pt_clust_9="47.37180"></scales>
<clustering>
<clus scale="   47.372">  1  9  2 -1</clus>
<clus scale="   87.799">  7  8 -1 -1</clus>
<clus scale="   91.337">  5  6 -1 -1</clus>
<clus scale="  111.842">  2  7  1 -1</clus>
<clus scale="  111.842">  2  5  1 -1</clus>
</clustering>
</event>
<event>
 9    1  0.5300912E-006  0.4407409E+03  0.7546771E-02  0.1077607E+00
         -1   -1    0    0    0  501 -0.00000000000E+00  0.00000000000E+00  0.56486095594E+03  0.56486095594E+03  0.00000000000E+00 0.  1.
          1   -1    0    0  502    0  0.00000000000E+00 -0.00000000000E+00 -0.61735044133E+03  0.61735044133E+03  0.00000000000E+00 0. -1.
         23    2    1    2    0    0 -0.20774598593E+03 -0.39601249118E+03  0.32378967633E+03  0.55949022217E+03  0.90582925347E+02 0.  0.
         23    2    1    2    0    0  0.37284044509E+02  0.59719961593E+02 -0.60692060670E+02  0.13104530903E+03  0.92373010149E+02 0.  0.
        -11    1    4    4    0    0  0.56196851274E+02  0.15457403101E+02 -0.66290792038E+01  0.58659714411E+02  0.00000000000E+00 0. -1.
         11    1    4    4    0    0 -0.18912806765E+02  0.44262558492E+02 -0.54062981466E+02  0.72385594623E+02  0.00000000000E+00 0.  1.
        -13    1    3    3    0    0 -0.14028860797E+03 -0.26737780323E+03  0.26854580171E+03  0.40408987960E+03  0.00000000000E+00 0.  1.
         13    1    3    3    0    0 -0.67457377958E+02 -0.12863468795E+03  0.55243874624E+02  0.15540034256E+03  0.00000000000E+00 0. -1.
         21    1    1    2  502  501  0.17046194142E+03  0.33629252958E+03 -0.31558710105E+03  0.49167586607E+03  0.00000000000E+00 0. -1.
<scales pt_clust_5="13000.00000" pt_clust_6="13000.00000" pt_clust_7="13000.00000" pt_clust_8="13000.00000" pt_clust_9="431.33193"></scales>
<clustering>
<clus scale="   90.583">  7  8 -1 -1</clus>
<clus scale="   92.373">  5  6 -1 -1</clus>
<clus scale="  116.144">  2  5  1 -1</clus>
<clus scale="  431.332">  2  9  1 -1</clus>
<clus scale="  116.144">  2  5  1 -1</clus>
</clustering>
</event>
<event>
 9    1  0.5300912E-006  0.9136128E+02  0.7546771E-02  0.1300271E+00
         -3   -1    0    0    0  501 -0.00000000000E+00  0.00000000000E+00  0.38614464563E+03  0.38614464563E+03  0.00000000000E+00 0.  1.
          3   -1    0    0  502    0  0.00000000000E+00 -0.00000000000E+00 -0.15967386292E+03  0.15967386292E+03  0.00000000000E+00 0. -1.
         23    2    1    2    0    0  0.13019328991E+02 -0.19844499367E+02  0.20624100452E+03  0.22591813872E+03  0.89108621206E+02 0.  0.
         23    2    1    2    0    0  0.22548265714E+02  0.20255574801E+02  0.15486218504E+03  0.18064841204E+03  0.87936567020E+02 0.  0.
        -11    1    3    3    0    0  0.50077038233E+02 -0.13246775095E+02  0.14565545318E+03  0.15459203683E+03  0.00000000000E+00 0. -1.
         11    1    3    3    0    0 -0.37057709242E+02 -0.65977242716E+01  0.60585551338E+02  0.71326101890E+02  0.00000000000E+00 0.  1.
        -13    1    4    4    0    0 -0.19367746074E+02  0.40232095774E+02  0.94278075803E+02  0.10431724064E+03  0.00000000000E+00 0.  1.
         13    1    4    4    0    0  0.41916011788E+02 -0.19976520973E+02  0.60584109237E+02  0.76331171395E+02  0.00000000000E+00 0. -1.
         21    1    1    2  502  501 -0.35567594705E+02 -0.41107543363E+00 -0.13463240684E+03  0.13925195779E+03  0.00000000000E+00 0. -1.
<scales pt_clust_5="13000.00000" pt_clust_6="13000.00000" pt_clust_7="13000.00000" pt_clust_8="13000.00000" pt_clust_9="35.56997"></scales>
<clustering>
<clus scale="   35.570">  2  9  1 -1</clus>
<clus scale="   87.937">  7  8 -1 -1</clus>
<clus scale="   89.109">  5  6 -1 -1</clus>
<clus scale="   90.218">  2  7  1 -1</clus>
<clus scale="   35.570">  2  5  1 -1</clus>
</clustering>
</event>
<event>
 9    1  0.5300912E-006  0.1029740E+03  0.7546771E-02  0.1274558E+00
         -3   -1    0    0    0  501 -0.00000000000E+00  0.00000000000E+00  0.69277566917E+03  0.69277566917E+03  0.00000000000E+00 0.  1.
          3   -1    0    0  502    0  0.00000000000E+00 -0.00000000000E+00 -0.15300711789E+03  0.15300711789E+03  0.00000000000E+00 0. -1.
         23    2    1    2    0    0  0.30823323854E+02 -0.51819864162E+02  0.52842533615E+03  0.53965546202E+03  0.91429241404E+02 0.  0.
         23    2    1    2    0    0  0.25560688150E+02  0.40664702587E+02 -0.12293681919E+03  0.16006322248E+03  0.90552784961E+02 0.  0.
        -13    1    3    3    0    0  0.60859059677E+02 -0.50352785824E+02  0.40382887195E+03  0.41148145281E+03  0.00000000000E+00 0.  1.
         13    1    3    3    0    0 -0.30035735823E+02 -0.14670783376E+01  0.12459646420E+03  0.12817400920E+03  0.00000000000E+00 0. -1.
        -13    1    4    4    0    0 -0.62427865952E+01  0.37406193402E+02 -0.54607529472E+01  0.38314690551E+02  0.00000000000E+00 0.  1.
         13    1    4    4    0    0  0.31803474745E+02  0.32585091848E+01 -0.11747606624E+03  0.12174853193E+03  0.00000000000E+00 0. -1.
         21    1    1    2  502  501 -0.56384012004E+02  0.11155161575E+02  0.13428003432E+03  0.14606410255E+03  0.00000000000E+00 0.  1.
<scales pt_clust_5="13000.00000" pt_clust_6="13000.00000" pt_clust_7="13000.00000" pt_clust_8="13000.00000" pt_clust_9="57.47690"></scales>
<clustering>
<clus scale="   57.477">  1  9  2 -1</clus>
<clus scale="   90.553">  7  8 -1 -1</clus>
<clus scale="   91.429">  5  6 -1 -1</clus>
<clus scale="  102.197">  2  7  1 -1</clus>
<clus scale="  102.197">  2  5  1 -1</clus>
</clustering>
</event>
<event>
 9    1  0.5300912E-006  0.1409335E+03  0.7546771E-02  0.1212587E+00
          1   -1    0    0  502    0  0.00000000000E+00  0.00000000000E+00  0.72972632750E+03  0.72972632750E+03  0.00000000000E+00 0. -1.
         -1   -1    0    0    0  501 -0.00000000000E+00 -0.00000000000E+00 -0.13618048421E+03  0.13618048421E+03  0.00000000000E+00 0.  1.
         23    2    1    2    0    0  0.21341464568E+01 -0.82212085372E+02  0.22483418946E+03  0.25610957557E+03  0.90985275661E+02 0.  0.
         23    2    1    2    0    0 -0.44108614159E+02  0.11946694681E+03  0.46900948327E+03  0.49486492897E+03  0.93292450421E+02 0.  0.
        -11    1    3    3    0    0  0.43972512514E+02 -0.61535891143E+02  0.14820086514E+03  0.16638432674E+03  0.00000000000E+00 0. -1.
         11    1    3    3    0    0 -0.41838366057E+02 -0.20676194229E+02  0.76633324320E+02  0.89725248834E+02  0.00000000000E+00 0.  1.
        -13    1    4    4    0    0 -0.14384627519E+02  0.46812546737E+02  0.55703091876E+02  0.74169848897E+02  0.00000000000E+00 0.  1.
         13    1    4    4    0    0 -0.29723986640E+02  0.72654400075E+02  0.41330639139E+03  0.42069508007E+03  0.00000000000E+00 0. -1.
         21    1    1    2  502  501  0.41974467703E+02 -0.37254861440E+02 -0.10029782944E+03  0.11493230717E+03  0.00000000000E+00 0.  1.
<scales pt_clust_5="13000.00000" pt_clust_6="13000.00000" pt_clust_7="13000.00000" pt_clust_8="13000.00000" pt_clust_9="56.12291"></scales>
<clustering>
<clus scale="   56.123">  2  9  1 -1</clus>
<clus scale="   90.985">  5  6 -1 -1</clus>
<clus scale="   93.292">  7  8 -1 -1</clus>
<clus scale="  139.417">  2  5  1 -1</clus>
<clus scale="  140.933">  1  5  2 -1</clus>
</clustering>
</event>
<event>
 9    1  0.5300912E-006  0.6929728E+03  0.7546771E-02  0.1017935E+00
         -2   -1    0    0    0  501 -0.00000000000E+00  0.00000000000E+00  0.10394237204E+04  0.10394237204E+04  0.00000000000E+00 0.  1.
          2   -1    0    0  502    0  0.00000000000E+00 -0.00000000000E+00 -0.69469352670E+03  0.69469352670E+03  0.00000000000E+00 0. -1.
         23    2    1    2    0    0  0.99267984161E+02  0.95985157680E+02  0.38833608854E+02  0.16993542003E+03  0.91119233046E+02 0.  0.
         23    2    1    2    0    0 -0.75517293732E+03 -0.13272028511E+03  0.44720919686E+03  0.89222198339E+03  0.90350221626E+02 0.  0.
        -11    1    3    3    0    0  0.45953462056E+02  0.80200604398E+02  0.60267598165E+02  0.11034509962E+03  0.00000000000E+00 0. -1.
         11    1    3    3    0    0  0.53314522105E+02  0.15784553283E+02 -0.21433989312E+02  0.59590320417E+02  0.00000000000E+00 0.  1.
        -11    1    4    4    0    0 -0.71973558025E+03 -0.13413697100E+03  0.40357780840E+03  0.83599466500E+03  0.00000000000E+00 0.  1.
         11    1    4    4    0    0 -0.35437357070E+02  0.14166858878E+01  0.43631388460E+02  0.56227318395E+02  0.00000000000E+00 0. -1.
         21    1    1    2  502  501  0.65590495316E+03  0.36735127430E+02 -0.14131261204E+03  0.67195984365E+03  0.00000000000E+00 0. -1.
<scales pt_clust_5="13000.00000" pt_clust_6="13000.00000" pt_clust_7="13000.00000" pt_clust_8="13000.00000" pt_clust_9="687.05757"></scales>
<clustering>
<clus scale="   90.350">  7  8 -1 -1</clus>
<clus scale="   91.119">  5  6 -1 -1</clus>
<clus scale="  165.439">  1  5  2 -1</clus>
<clus scale="  687.058">  2  9  1 -1</clus>
<clus scale="  687.058">  2  5  1 -1</clus>
</clustering>
</event>
<event>
 9    1  0.5300912E-006  0.2217186E+03  0.7546771E-02  0.1134506E+00
         -1   -1    0    0    0  501 -0.00000000000E+00  0.00000000000E+00  0.85765527510E+03  0.85765527510E+03  0.00000000000E+00 0.  1.
          1   -1    0    0  502    0  0.00000000000E+00 -0.00000000000E+00 -0.17430652442E+03  0.17430652442E+03  0.00000000000E+00 0. -1.
         23    2    1    2    0    0 -0.11753117126E+03  0.14228215944E+03  0.57425734279E+03  0.60997274968E+03  0.90760511698E+02 0.  0.
         23    2    1    2    0    0  0.23649390914E+03 -0.94425493123E+02  0.89293343591E+02  0.29224176909E+03  0.11218915983E+03 0.  0.
        -11    1    3    3    0    0 -0.18667940517E+02  0.42692422370E+02  0.54982425780E+02  0.72070812925E+02  0.00000000000E+00 0. -1.
         11    1    3    3    0    0 -0.98863230746E+02  0.99589737069E+02  0.51927491701E+03  0.53790193675E+03  0.00000000000E+00 0.  1.
        -13    1    4    4    0    0  0.13972004163E+02 -0.36323739562E+02  0.42351744744E+02  0.57517834095E+02  0.00000000000E+00 0.  1.
         13    1    4    4    0    0  0.22252190497E+03 -0.58101753561E+02  0.46941598847E+02  0.23472393500E+03  0.00000000000E+00 0. -1.
         21    1    1    2  502  501 -0.11896273787E+03 -0.47856666317E+02  0.19798064292E+02  0.12974728075E+03  0.00000000000E+00 0. -1.
<scales pt_clust_5="13000.00000" pt_clust_6="13000.00000" pt_clust_7="13000.00000" pt_clust_8="13000.00000" pt_clust_9="128.22790"></scales>
<clustering>
<clus scale="   90.761">  5  6 -1 -1</clus>
<clus scale="  112.189">  7  8 -1 -1</clus>
<clus scale="  128.228">  2  9  1 -1</clus>
<clus scale="  211.684">  1  5  2 -1</clus>
<clus scale="  128.228">  2  5  1 -1</clus>
</clustering>
</event>
<event>
 9    1  0.5300912E-006  0.1009304E+03  0.7546771E-02  0.1279517E+00
          4   -1    0    0  502    0  0.00000000000E+00  0.00000000000E+00  0.27735002277E+02  0.27735002277E+02  0.00000000000E+00 0. -1.
         -4   -1    0    0    0  501 -0.00000000000E+00 -0.00000000000E+00 -0.48544787928E+03  0.48544787928E+03  0.00000000000E+00 0.  1.
         23    2    1    2    0    0  0.66752820830E+01  0.40913421633E+02 -0.27834769944E+03  0.29638579158E+03  0.92998001096E+02 0.  0.
         23    2    1    2    0    0  0.46292067854E+01 -0.20647850328E+02 -0.15453001975E+03  0.18280782825E+03  0.95348895051E+02 0.  0.
        -13    1    3    3    0    0 -0.37709270114E+02  0.33331153287E+02 -0.19784561620E+03  0.20414662055E+03  0.00000000000E+00 0.  1.
         13    1    3    3    0    0  0.44384552197E+02  0.75822683462E+01 -0.80502083238E+02  0.92239171032E+02  0.00000000000E+00 0. -1.
        -13    1    4    4    0    0  0.38243080932E+02 -0.42343194519E+02 -0.80670299878E+02  0.98808788292E+02  0.00000000000E+00 0. -1.
         13    1    4    4    0    0 -0.33613874146E+02  0.21695344191E+02 -0.73859719867E+02  0.83999039956E+02  0.00000000000E+00 0.  1.
         21    1    1    2  502  501 -0.11304488868E+02 -0.20265571305E+02 -0.24835157816E+02  0.33989261725E+02  0.00000000000E+00 0. -1.
<scales pt_clust_5="13000.00000" pt_clust_6="13000.00000" pt_clust_7="13000.00000" pt_clust_8="13000.00000" pt_clust_9="23.20528"></scales>
<clustering>
<clus scale="   23.205">  1  9  2 -1</clus>
<clus scale="   92.998">  5  6 -1 -1</clus>
<clus scale="   95.349">  7  8 -1 -1</clus>
<clus scale="   98.713">  2  5  1 -1</clus>
<clus scale="   23.205">  1  5  2 -1</clus>
</clustering>
</event>
<event>
 9    1  0.5300912E-006  0.1287433E+03  0.7546771E-02  0.1229389E+00
          1   -1    0    0  502    0  0.00000000000E+00  0.00000000000E+00  0.19468730171E+03  0.19468730171E+03  0.00000000000E+00 0. -1.
         -1   -1    0    0    0  501 -0.00000000000E+00 -0.00000000000E+00 -0.24904092662E+03  0.24904092662E+03  0.00000000000E+00 0.  1.
         23    2    1    2    0    0 -0.12809552968E+02 -0.12016294288E+03 -0.13718384727E+03  0.20524592981E+03  0.93291297888E+02 0.  0.
         23    2    1    2    0    0 -0.36777851940E+02  0.40568636121E+02 -0.70570205834E+01  0.10858279568E+03  0.93498648909E+02 0.  0.
        -13    1    4    4    0    0  0.29144187914E+02  0.29548114429E+02 -0.18657631892E+01  0.41544624535E+02  0.00000000000E+00 0. -1.
         13    1    4    4    0    0 -0.65922039854E+02  0.11020521692E+02 -0.51912573943E+01  0.67038171144E+02  0.00000000000E+00 0.  1.
        -13    1    3    3    0    0  0.36084460844E+02 -0.68576624932E+02 -0.47800117182E+02  0.91047751230E+02  0.00000000000E+00 0. -1.
         13    1    3    3    0    0 -0.48894013811E+02 -0.51586317952E+02 -0.89383730084E+02  0.11419817858E+03  0.00000000000E+00 0.  1.
         21    1    1    2  502  501  0.49587404908E+02  0.79594306763E+02  0.89887242941E+02  0.12989950284E+03  0.00000000000E+00 0. -1.
<scales pt_clust_5="13000.00000" pt_clust_6="13000.00000" pt_clust_7="13000.00000" pt_clust_8="13000.00000" pt_clust_9="93.77721"></scales>
<clustering>
<clus scale="   93.291">  7  8 -1 -1</clus>
<clus scale="   93.499">  5  6 -1 -1</clus>
<clus scale="   93.777">  1  9  2 -1</clus>
<clus scale="  128.593">  2  7  1 -1</clus>
<clus scale="   93.777">  1  5  2 -1</clus>
</clustering>
</event>
<event>
 9    1  0.5300912E-006  0.1486953E+03  0.7546771E-02  0.1202721E+00
         -2   -1    0    0    0  501 -0.00000000000E+00  0.00000000000E+00  0.21200490676E+03  0.21200490676E+03  0.00000000000E+00 0.  1.
          2   -1    0    0  502    0  0.00000000000E+00 -0.00000000000E+00 -0.17342066835E+03  0.17342066835E+03  0.00000000000E+00 0. -1.
         23    2    1    2    0    0  0.28517769972E+02  0.10893311047E+03  0.11276581928E+03  0.18498436260E+03  0.93932947607E+02 0.  0.
         23    2    1    2    0    0 -0.58814436678E+02 -0.11122732104E+03 -0.55251342842E+02  0.16464309346E+03  0.90686175518E+02 0.  0.
        -11    1    4    4    0    0 -0.52050615848E+02 -0.84493102811E+02 -0.80092984549E+02  0.12752739787E+03  0.00000000000E+00 0. -1.
         11    1    4    4    0    0 -0.67638208309E+01 -0.26734218230E+02  0.24841641707E+02  0.37115695592E+02  0.00000000000E+00 0.  1.
        -13    1    3    3    0    0  0.52131831129E+02  0.31625126265E+02  0.72326499121E+02  0.94599148533E+02  0.00000000000E+00 0.  1.
         13    1    3    3    0    0 -0.23614061157E+02  0.77307984206E+02  0.40439320161E+02  0.90385214064E+02  0.00000000000E+00 0. -1.
         21    1    1    2  502  501  0.30296666706E+02  0.22942105695E+01 -0.18930238031E+02  0.35798119050E+02  0.00000000000E+00 0. -1.
<scales pt_clust_5="13000.00000" pt_clust_6="13000.00000" pt_clust_7="13000.00000" pt_clust_8="13000.00000" pt_clust_9="30.38341"></scales>
<clustering>
<clus scale="   30.383">  2  9  1 -1</clus>
<clus scale="   90.686">  5  6 -1 -1</clus>
<clus scale="   93.933">  7  8 -1 -1</clus>
<clus scale="  146.666">  2  5  1 -1</clus>
<clus scale="   30.383">  2  5  1 -1</clus>
</clustering>
</event>
<event>
 9    1  0.5300912E-006  0.1678984E+03  0.7546771E-02  0.1180311E+00
          2   -1    0    0  502    0  0.00000000000E+00  0.00000000000E+00  0.46489629767E+03  0.46489629767E+03  0.00000000000E+00 0. -1.
         -2   -1    0    0    0  501 -0.00000000000E+00 -0.00000000000E+00 -0.13128021787E+03  0.13128021787E+03  0.00000000000E+00 0.  1.
         23    2    1    2    0    0  0.49618682302E+02  0.20511565791E+03  0.16884473823E+03  0.28535677551E+03  0.91572359070E+02 0.  0.
         23    2    1    2    0    0  0.22083826560E+02 -0.98966227301E+02  0.84426964184E+02  0.15961071129E+03  0.89809004760E+02 0.  0.
        -13    1    3    3    0    0  0.44553903470E+02  0.95930119808E+02  0.32590074434E+02  0.11067859392E+03  0.00000000000E+00 0.  1.
         13    1    3    3    0    0  0.50647788318E+01  0.10918553810E+03  0.13625466380E+03  0.17467818158E+03  0.00000000000E+00 0. -1.
        -13    1    4    4    0    0  0.48852398797E+02 -0.96702310338E+02  0.71414143108E+02  0.12976083203E+03  0.00000000000E+00 0. -1.
         13    1    4    4    0    0 -0.26768572237E+02 -0.22639169629E+01  0.13012821076E+02  0.29849879262E+02  0.00000000000E+00 0.  1.
         21    1    1    2  502  501 -0.71702508862E+02 -0.10614943061E+03  0.80344377387E+02  0.15120902874E+03  0.00000000000E+00 0.  1.
<scales pt_clust_5="13000.00000" pt_clust_6="13000.00000" pt_clust_7="13000.00000" pt_clust_8="13000.00000" pt_clust_9="128.09743"></scales>
<clustering>
<clus scale="   89.809">  7  8 -1 -1</clus>
<clus scale="   91.572">  5  6 -1 -1</clus>
<clus scale="  128.097">  2  9  1 -1</clus>
<clus scale="  166.943">  1  7  2 -1</clus>
<clus scale="  166.943">  1  5  2 -1</clus>
</clustering>
</event>
<event>
 9    1  0.5300912E-006  0.1850651E+03  0.7546771E-02  0.1163437E+00
         -1   -1    0    0    0  501 -0.00000000000E+00  0.00000000000E+00  0.65059207707E+03  0.65059207707E+03  0.00000000000E+00 0.  1.
          1   -1    0    0  502    0  0.00000000000E+00 -0.00000000000E+00 -0.11122278461E+03  0.11122278461E+03  0.00000000000E+00 0. -1.
         23    2    1    2    0    0 -0.12504590837E+03  0.81606495163E+02  0.37324284732E+03  0.41175874562E+03  0.89100742238E+02 0.  0.
         23    2    1    2    0    0  0.12281562640E+03 -0.16411637843E+03  0.13034650759E+03  0.26009468585E+03  0.92957892677E+02 0.  0.
        -11    1    3    3    0    0 -0.37575939489E+02 -0.11833334022E+02  0.14305006859E+03  0.14837554093E+03  0.00000000000E+00 0.  1.
         11    1    3    3    0    0 -0.87469968886E+02  0.93439829185E+02  0.23019277872E+03  0.26338320469E+03  0.00000000000E+00 0. -1.
        -11    1    4    4    0    0  0.42998158304E+02 -0.77099593368E+00  0.30014990979E+02  0.52443643426E+02  0.00000000000E+00 0. -1.
         11    1    4    4    0    0  0.79817468100E+02 -0.16334538249E+03  0.10033151661E+03  0.20765104243E+03  0.00000000000E+00 0.  1.
         21    1    1    2  502  501  0.22302819704E+01  0.82509883264E+02  0.35779937553E+02  0.89961430208E+02  0.00000000000E+00 0.  1.
<scales pt_clust_5="13000.00000" pt_clust_6="13000.00000" pt_clust_7="13000.00000" pt_clust_8="13000.00000" pt_clust_9="82.54002"></scales>
<clustering>
<clus scale="   82.540">  2  9  1 -1</clus>
<clus scale="   89.101">  5  6 -1 -1</clus>
<clus scale="   92.958">  7  8 -1 -1</clus>
<clus scale="  183.158">  1  5  2 -1</clus>
<clus scale="   82.540">  2  5  1 -1</clus>
</clustering>
</event>
<event>
 9    1  0.5300912E-006  0.1142473E+03  0.7546771E-02  0.1254885E+00
          1   -1    0    0  502    0  0.00000000000E+00  0.00000000000E+00  0.70161885173E+03  0.70161885173E+03  0.00000000000E+00 0. -1.
         -1   -1    0    0    0  501 -0.00000000000E+00 -0.00000000000E+00 -0.26281397005E+02  0.26281397005E+02  0.00000000000E+00 0.  1.
         23    2    1    2    0    0 -0.50603887966E+02  0.45093348471E+02  0.19606845050E+03  0.22606977681E+03  0.89836201799E+02 0.  0.
         23    2    1    2    0    0  0.60238952270E+02 -0.11138841129E+02  0.35144102840E+03  0.36921925657E+03  0.95180133576E+02 0.  0.
        -11    1    4    4    0    0  0.36600531398E+02  0.40994959369E+02  0.14782426429E+03  0.15770922200E+03  0.00000000000E+00 0.  1.
         11    1    4    4    0    0  0.23638420873E+02 -0.52133800498E+02  0.20361676412E+03  0.21151003457E+03  0.00000000000E+00 0. -1.
        -13    1    3    3    0    0 -0.28792648425E+02  0.65310734993E+02  0.84526264917E+02  0.11063090965E+03  0.00000000000E+00 0.  1.
         13    1    3    3    0    0 -0.21811239542E+02 -0.20217386522E+02  0.11154218558E+03  0.11543886716E+03  0.00000000000E+00 0. -1.
         21    1    1    2  502  501 -0.96350643041E+01 -0.33954507342E+02  0.12782797583E+03  0.13261121535E+03  0.00000000000E+00 0.  1.
<scales pt_clust_5="13000.00000" pt_clust_6="13000.00000" pt_clust_7="13000.00000" pt_clust_8="13000.00000" pt_clust_9="35.29509"></scales>
<clustering>
<clus scale="   35.295">  1  9  2 -1</clus>
<clus scale="   89.836">  7  8 -1 -1</clus>
<clus scale="   95.180">  5  6 -1 -1</clus>
<clus scale="  109.835">  2  7  1 -1</clus>
<clus scale="   35.295">  1  5  2 -1</clus>
</clustering>
</event>
<event>
 9    1  0.5300912E-006  0.9284705E+02  0.7546771E-02  0.1296462E+00
          2   -1    0    0  502    0  0.00000000000E+00  0.00000000000E+00  0.45048169506E+02  0.45048169506E+02  0.00000000000E+00 0. -1.
         -2   -1    0    0    0  501 -0.00000000000E+00 -0.00000000000E+00 -0.26414842020E+03  0.26414842020E+03  0.00000000000E+00 0.  1.
         23    2    1    2    0    0  0.16193466342E+02 -0.19058948306E+01 -0.12833936820E+03  0.15877698618E+03  0.92050405342E+02 0.  0.
         23    2    1    2    0    0  0.36441453572E+01  0.19364930857E+02 -0.71146858199E+02  0.11750974594E+03  0.91424201488E+02 0.  0.
        -11    1    4    4    0    0 -0.34314460041E+02  0.37931948617E+02 -0.41882260265E+02  0.66109292983E+02  0.00000000000E+00 0.  1.
         11    1    4    4    0    0  0.37958605398E+02 -0.18567017761E+02 -0.29264597934E+02  0.51400452960E+02  0.00000000000E+00 0. -1.
        -13    1    3    3    0    0  0.19211096442E+02  0.24251641837E+02 -0.34367447832E+01  0.31129079218E+02  0.00000000000E+00 0. -1.
         13    1    3    3    0    0 -0.30176300998E+01 -0.26157536667E+02 -0.12490262341E+03  0.12764790696E+03  0.00000000000E+00 0.  1.
         21    1    1    2  502  501 -0.19837611699E+02 -0.17459036026E+02 -0.19614024297E+02  0.32909857582E+02  0.00000000000E+00 0.  1.
<scales pt_clust_5="13000.00000" pt_clust_6="13000.00000" pt_clust_7="13000.00000" pt_clust_8="13000.00000" pt_clust_9="26.42629"></scales>
<clustering>
<clus scale="   26.426">  1  9  2 -1</clus>
<clus scale="   91.424">  5  6 -1 -1</clus>
<clus scale="   92.050">  7  8 -1 -1</clus>
<clus scale="   92.226">  1  5  2 -1</clus>
<clus scale="   26.426">  1  5  2 -1</clus>
</clustering>
</event>
<event>
 9    1  0.5300912E-006  0.9416943E+02  0.7546771E-02  0.1293978E+00
          1   -1    0    0  502    0  0.00000000000E+00  0.00000000000E+00  0.86763182692E+02  0.86763182692E+02  0.00000000000E+00 0. -1.
         -1   -1    0    0    0  501 -0.00000000000E+00 -0.00000000000E+00 -0.33640819816E+03  0.33640819816E+03  0.00000000000E+00 0.  1.
         23    2    1    2    0    0 -0.30669749236E+02 -0.36947357800E+01 -0.26887272620E+03  0.28639675914E+03  0.93681781380E+02 0.  0.
         23    2    1    2    0    0  0.57602860916E+01  0.51721949650E+01  0.43355047525E+02  0.10206449897E+03  0.92073716703E+02 0.  0.
        -11    1    4    4    0    0 -0.27551343148E+02  0.33923077742E+02  0.55524418383E+01  0.44053164735E+02  0.00000000000E+00 0.  1.
         11    1    4    4    0    0  0.33311629240E+02 -0.28750882777E+02  0.37802605687E+02  0.58011334236E+02  0.00000000000E+00 0. -1.
        -13    1    3    3    0    0  0.22644346483E+02 -0.86583401281E+01 -0.18862213427E+02  0.30716711686E+02  0.00000000000E+00 0. -1.
         13    1    3    3    0    0 -0.53314095720E+02  0.49636043481E+01 -0.25001051277E+03  0.25568004746E+03  0.00000000000E+00 0.  1.
         21    1    1    2  502  501  0.24909463145E+02 -0.14774591849E+01 -0.24127336794E+02  0.34710122740E+02  0.00000000000E+00 0.  1.
<scales pt_clust_5="13000.00000" pt_clust_6="13000.00000" pt_clust_7="13000.00000" pt_clust_8="13000.00000" pt_clust_9="24.95324"></scales>
<clustering>
<clus scale="   24.953">  2  9  1 -1</clus>
<clus scale="   92.074">  5  6 -1 -1</clus>
<clus scale="   92.570">  1  5  2 -1</clus>
<clus scale="   93.682">  7  8 -1 -1</clus>
<clus scale="   92.570">  1  5  2 -1</clus>
</clustering>
</event>
<event>
 9    1  0.5300912E-006  0.2126251E+03  0.7546771E-02  0.1139754E+00
          1   -1    0    0  502    0  0.00000000000E+00  0.00000000000E+00  0.42359453311E+03  0.42359453311E+03  0.00000000000E+00 0. -1.
         -1   -1    0    0    0  501 -0.00000000000E+00 -0.00000000000E+00 -0.25077866526E+03  0.25077866526E+03  0.00000000000E+00 0.  1.
         23    2    1    2    0    0  0.13058538156E+03 -0.13852460975E+03 -0.14760539618E+03  0.25669031626E+03  0.88662033019E+02 0.  0.
         23    2    1    2    0    0 -0.15199346954E+03  0.12953673796E+03  0.20691498429E+03  0.30182623098E+03  0.91670506250E+02 0.  0.
        -11    1    3    3    0    0  0.11305272309E+03 -0.99561882756E+02 -0.15167307172E+03  0.21377139046E+03  0.00000000000E+00 0. -1.
         11    1    3    3    0    0  0.17532658477E+02 -0.38962726990E+02  0.40676755393E+01  0.42918925803E+02  0.00000000000E+00 0.  1.
        -11    1    4    4    0    0 -0.65942465520E+02  0.31201486800E+02  0.13301552097E+03  0.15170718624E+03  0.00000000000E+00 0. -1.
         11    1    4    4    0    0 -0.86051004024E+02  0.98335251162E+02  0.73899463324E+02  0.15011904474E+03  0.00000000000E+00 0.  1.
         21    1    1    2  502  501  0.21408087979E+02  0.89878717845E+01  0.11350627974E+03  0.11585665113E+03  0.00000000000E+00 0.  1.
<scales pt_clust_5="13000.00000" pt_clust_6="13000.00000" pt_clust_7="13000.00000" pt_clust_8="13000.00000" pt_clust_9="23.21827"></scales>
<clustering>
<clus scale="   23.218">  1  9  2 -1</clus>
<clus scale="   88.662">  5  6 -1 -1</clus>
<clus scale="   91.671">  7  8 -1 -1</clus>
<clus scale="  211.345">  2  5  1 -1</clus>
<clus scale="   23.218">  1  5  2 -1</clus>
</clustering>
</event>
<event>
 9    1  0.5300912E-006  0.9505628E+02  0.7546771E-02  0.1291400E+00
         -1   -1    0    0    0  501 -0.00000000000E+00  0.00000000000E+00  0.14175043288E+03  0.14175043288E+03  0.00000000000E+00 0.  1.
          1   -1    0    0  502    0  0.00000000000E+00 -0.00000000000E+00 -0.26227088773E+03  0.26227088773E+03  0.00000000000E+00 0. -1.
         23    2    1    2    0    0  0.25208364623E+02 -0.26698288033E+02  0.99195467180E+02  0.14021321065E+03  0.92042074621E+02 0.  0.
         23    2    1    2    0    0 -0.49939573773E+01  0.19566598443E+02 -0.22280098550E+03  0.24215168197E+03  0.92678835519E+02 0.  0.
        -11    1    3    3    0    0  0.68619885716E+00 -0.58639133928E+02  0.54578054315E+02  0.80111066086E+02  0.00000000000E+00 0. -1.
         11    1    3    3    0    0  0.24522165766E+02  0.31940845894E+02  0.44617412865E+02  0.60102144563E+02  0.00000000000E+00 0.  1.
        -13    1    4    4    0    0 -0.32844167439E+02 -0.23506950719E+02 -0.68185086703E+02  0.79249745208E+02  0.00000000000E+00 0. -1.
         13    1    4    4    0    0  0.27850210061E+02  0.43073549162E+02 -0.15461589880E+03  0.16290193676E+03  0.00000000000E+00 0.  1.
         21    1    1    2  502  501 -0.20214407246E+02  0.71316895899E+01  0.30850634757E+01  0.21656427992E+02  0.00000000000E+00 0.  1.
<scales pt_clust_5="13000.00000" pt_clust_6="13000.00000" pt_clust_7="13000.00000" pt_clust_8="13000.00000" pt_clust_9="21.43556"></scales>
<clustering>
<clus scale="   21.436">  1  9  2 -1</clus>
<clus scale="   92.042">  5  6 -1 -1</clus>
<clus scale="   92.679">  7  8 -1 -1</clus>
<clus scale="   94.436">  1  5  2 -1</clus>
<clus scale="   95.056">  2  5  1 -1</clus>
</clustering>
</event>
<event>
 9    1  0.5300912E-006  0.2290066E+03  0.7546771E-02  0.1154543E+00
          2   -1    0    0  502    0  0.00000000000E+00  0.00000000000E+00  0.13583567271E+04  0.13583567271E+04  0.00000000000E+00 0. -1.
         -2   -1    0    0    0  501 -0.00000000000E+00 -0.00000000000E+00 -0.85146734283E+02  0.85146734283E+02  0.00000000000E+00 0.  1.
         23    2    1    2    0    0 -0.13525854506E+03 -0.13676473275E+03  0.58625051786E+03  0.62329138371E+03  0.88334665756E+02 0.  0.
         23    2    1    2    0    0 -0.57256033923E+02  0.31105095471E+02  0.54704058091E+03  0.55982175722E+03  0.99504885842E+02 0.  0.
        -11    1    4    4    0    0  0.91465655034E+01  0.47820078049E+02  0.18112397428E+03  0.18755349526E+03  0.00000000000E+00 0.  1.
         11    1    4    4    0    0 -0.66402599427E+02 -0.16714982578E+02  0.36591660663E+03  0.37226826196E+03  0.00000000000E+00 0. -1.
        -13    1    3    3    0    0 -0.10835147917E+03 -0.12174179729E+03  0.55859623629E+03  0.58188561027E+03  0.00000000000E+00 0. -1.
         13    1    3    3    0    0 -0.26907065885E+02 -0.15022935464E+02  0.27654281576E+02  0.41405773438E+02  0.00000000000E+00 0.  1.
         21    1    1    2  502  501  0.19251457898E+03  0.10565963728E+03  0.13991889402E+03  0.26039032043E+03  0.00000000000E+00 0.  1.
<scales pt_clust_5="13000.00000" pt_clust_6="13000.00000" pt_clust_7="13000.00000" pt_clust_8="13000.00000" pt_clust_9="211.28420"></scales>
<clustering>
<clus scale="   88.335">  7  8 -1 -1</clus>
<clus scale="   99.505">  5  6 -1 -1</clus>
<clus scale="  118.941">  1  5  2 -1</clus>
<clus scale="  211.284">  2  9  1 -1</clus>
<clus scale="  118.941">  1  5  2 -1</clus>
</clustering>
</event>
<event>
 9    1  0.5300912E-006  0.9584255E+02  0.7546771E-02  0.1289548E+00
         -1   -1    0    0    0  501 -0.00000000000E+00  0.00000000000E+00  0.32315901432E+02  0.32315901432E+02  0.00000000000E+00 0.  1.
          1   -1    0    0  502    0  0.00000000000E+00 -0.00000000000E+00 -0.42998773811E+03  0.42998773811E+03  0.00000000000E+00 0. -1.
         23    2    1    2    0    0  0.22867944106E+02  0.13336390586E+02 -0.13344463262E+03  0.16368366726E+03  0.91016870798E+02 0.  0.
         23    2    1    2    0    0  0.47544731949E+01 -0.37960642888E+02 -0.21726091322E+03  0.23882712811E+03  0.91501241997E+02 0.  0.
        -13    1    3    3    0    0  0.31497760361E+02 -0.30456762421E+02 -0.36758862569E+02  0.57192108392E+02  0.00000000000E+00 0.  1.
         13    1    3    3    0    0 -0.86298162558E+01  0.43793153007E+02 -0.96685770052E+02  0.10649155887E+03  0.00000000000E+00 0. -1.
        -13    1    4    4    0    0  0.45670863712E+02 -0.80117372236E+01 -0.12841689005E+03  0.13653173029E+03  0.00000000000E+00 0.  1.
         13    1    4    4    0    0 -0.40916390517E+02 -0.29948905664E+02 -0.88844023163E+02  0.10229539782E+03  0.00000000000E+00 0. -1.
         21    1    1    2  502  501 -0.27622417301E+02  0.24624252302E+02 -0.46966290836E+02  0.59792844169E+02  0.00000000000E+00 0. -1.
<scales pt_clust_5="13000.00000" pt_clust_6="13000.00000" pt_clust_7="13000.00000" pt_clust_8="13000.00000" pt_clust_9="37.00475"></scales>
<clustering>
<clus scale="   37.005">  1  9  2 -1</clus>
<clus scale="   91.017">  5  6 -1 -1</clus>
<clus scale="   91.501">  7  8 -1 -1</clus>
<clus scale="   95.380">  1  5  2 -1</clus>
<clus scale="   95.843">  2  5  1 -1</clus>
</clustering>
</event>
<event>
 9    1  0.5300912E-006  0.2504583E+03  0.7546771E-02  0.1113100E+00
          1   -1    0    0  502    0  0.00000000000E+00  0.00000000000E+00  0.11645234421E+03  0.11645234421E+03  0.00000000000E+00 0. -1.
         -1   -1    0    0    0  501 -0.00000000000E+00 -0.00000000000E+00 -0.10693439992E+04  0.10693439992E+04  0.00000000000E+00 0.  1.
         23    2    1    2    0    0 -0.30840920401E+03 -0.50056256753E+02 -0.31105042596E+03  0.45000508633E+03  0.90168421734E+02 0.  0.
         23    2    1    2    0    0  0.17124289148E+03 -0.24754758944E+02 -0.28007438861E+03  0.34172713514E+03  0.91645216826E+02 0.  0.
        -11    1    4    4    0    0  0.14277161663E+03 -0.51947455756E+02 -0.24848098491E+03  0.29124744211E+03  0.00000000000E+00 0.  1.
         11    1    4    4    0    0  0.28471274850E+02  0.27192696812E+02 -0.31593403700E+02  0.50479693034E+02  0.00000000000E+00 0. -1.
        -13    1    3    3    0    0 -0.21757380879E+03 -0.75269885847E+02 -0.20700210016E+03  0.30960262831E+03  0.00000000000E+00 0.  1.
         13    1    3    3    0    0 -0.90835395219E+02  0.25213629094E+02 -0.10404832580E+03  0.14040245802E+03  0.00000000000E+00 0. -1.
         21    1    1    2  502  501  0.13716631253E+03  0.74811015697E+02 -0.36176684043E+03  0.39406412194E+03  0.00000000000E+00 0. -1.
<scales pt_clust_5="13000.00000" pt_clust_6="13000.00000" pt_clust_7="13000.00000" pt_clust_8="13000.00000" pt_clust_9="156.24111"></scales>
<clustering>
<clus scale="   90.168">  7  8 -1 -1</clus>
<clus scale="   91.645">  5  6 -1 -1</clus>
<clus scale="  156.241">  2  9  1 -1</clus>
<clus scale="  249.922">  2  7  1 -1</clus>
<clus scale="  250.458">  1  5  2 -1</clus>
</clustering>
</event>
<event>
 9    1  0.5300912E-006  0.9602865E+02  0.7546771E-02  0.1294439E+00
         -1   -1    0    0    0  501 -0.00000000000E+00  0.00000000000E+00  0.25166933433E+02  0.25166933433E+02  0.00000000000E+00 0.  1.
          1   -1    0    0  502    0  0.00000000000E+00 -0.00000000000E+00 -0.46606274681E+03  0.46606274681E+03  0.00000000000E+00 0. -1.
         23    2    1    2    0    0 -0.11596684535E+02  0.31888457231E+01 -0.17490003671E+03  0.19920711489E+03  0.94598096984E+02 0.  0.
         23    2    1    2    0    0  0.11163765339E+02  0.21846449022E+02 -0.24069833815E+03  0.25642883279E+03  0.84959751099E+02 0.  0.
        -11    1    4    4    0    0  0.53580057928E+01  0.49253357637E+02 -0.86306915215E+02  0.99516255349E+02  0.00000000000E+00 0. -1.
         11    1    4    4    0    0  0.58057595458E+01 -0.27406908615E+02 -0.15439142294E+03  0.15691257744E+03  0.00000000000E+00 0.  1.
        -11    1    3    3    0    0 -0.30583786436E+02  0.33412157454E+02 -0.42615020777E+02  0.62191480561E+02  0.00000000000E+00 0.  1.
         11    1    3    3    0    0  0.18987101902E+02 -0.30223311731E+02 -0.13228501593E+03  0.13701563433E+03  0.00000000000E+00 0. -1.
         21    1    1    2  502  501  0.43291919609E+00 -0.25035294746E+02 -0.25297438513E+02  0.35593732557E+02  0.00000000000E+00 0.  1.
<scales pt_clust_5="13000.00000" pt_clust_6="13000.00000" pt_clust_7="13000.00000" pt_clust_8="13000.00000" pt_clust_9="25.03904"></scales>
<clustering>
<clus scale="   25.039">  1  9  2 -1</clus>
<clus scale="   84.960">  5  6 -1 -1</clus>
<clus scale="   86.550">  2  5  1 -1</clus>
<clus scale="   94.598">  7  8 -1 -1</clus>
<clus scale="   86.550">  2  5  1 -1</clus>
</clustering>
</event>
<event>
 9    1  0.5636914E-006  0.9945116E+02  0.7546771E-02  0.1283224E+00
          2   -1    0    0  502    0  0.00000000000E+00  0.00000000000E+00  0.26248412416E+03  0.26248412416E+03  0.00000000000E+00 0. -1.
         -2   -1    0    0    0  501 -0.00000000000E+00 -0.00000000000E+00 -0.25258849937E+03  0.25258849937E+03  0.00000000000E+00 0.  1.
         23    2    1    2    0    0  0.34931607914E+01 -0.23027185531E+02 -0.16919118759E+03  0.19320329257E+03  0.90329401956E+02 0.  0.
         23    2    1    2    0    0 -0.57718747969E+02  0.84748027101E+02  0.16824301647E+02  0.13999300215E+03  0.93815252284E+02 0.  0.
        -11    1    3    3    0    0 -0.21613943413E+02 -0.45851535815E+02 -0.58391845925E+02  0.77324857304E+02  0.00000000000E+00 0. -1.
         11    1    3    3    0    0  0.25107104205E+02  0.22824350284E+02 -0.11079934167E+03  0.11587843527E+03  0.00000000000E+00 0.  1.
        -13    1    4    4    0    0 -0.32394845192E+02  0.10017788383E+03 -0.11967635368E+01  0.10529229149E+03  0.00000000000E+00 0.  1.
         13    1    4    4    0    0 -0.25323902777E+02 -0.15429856727E+02  0.18021065184E+02  0.34700710667E+02  0.00000000000E+00 0. -1.
         21    1    1    2  502  501  0.54225587177E+02 -0.61720841570E+02  0.16226251073E+03  0.18187632880E+03  0.00000000000E+00 0. -1.
<scales pt_clust_5="13000.00000" pt_clust_6="13000.00000" pt_clust_7="13000.00000" pt_clust_8="13000.00000" pt_clust_9="82.15763"></scales>
<clustering>
<clus scale="   82.158">  1  9  2 -1</clus>
<clus scale="   90.329">  5  6 -1 -1</clus>
<clus scale="   93.815">  7  8 -1 -1</clus>
<clus scale="   96.170">  2  5  1 -1</clus>
<clus scale="   82.158">  1  5  2 -1</clus>
</clustering>
</event>
<event>
 9    1  0.5300912E-006  0.1209888E+03  0.7546771E-02  0.1243188E+00
         -1   -1    0    0    0  501 -0.00000000000E+00  0.00000000000E+00  0.30143486484E+03  0.30143486484E+03  0.00000000000E+00 0.  1.
          1   -1    0    0  502    0  0.00000000000E+00 -0.00000000000E+00 -0.13699538451E+03  0.13699538451E+03  0.00000000000E+00 0. -1.
         23    2    1    2    0    0  0.40513094623E+02  0.13181376304E+03  0.11925013624E+03  0.20335795441E+03  0.90098189027E+02 0.  0.
         23    2    1    2    0    0 -0.58516458811E+02 -0.24031284984E+02 -0.55536043967E+01  0.11458980444E+03  0.95385020570E+02 0.  0.
        -11    1    3    3    0    0 -0.24994601757E+02  0.21377441270E+02  0.42590590571E+02  0.53811555613E+02  0.00000000000E+00 0.  1.
         11    1    3    3    0    0  0.65507696381E+02  0.11043632177E+03  0.76659545664E+02  0.14954639879E+03  0.00000000000E+00 0. -1.
        -13    1    4    4    0    0  0.13993285606E+01  0.20106217715E+02  0.26725010691E+02  0.33473038519E+02  0.00000000000E+00 0.  1.
         13    1    4    4    0    0 -0.59915787372E+02 -0.44137502699E+02 -0.32278615088E+02  0.81116765917E+02  0.00000000000E+00 0. -1.
         21    1    1    2  502  501  0.18003364188E+02 -0.10778247805E+03  0.50742948498E+02  0.12048249051E+03  0.00000000000E+00 0.  1.
<scales pt_clust_5="13000.00000" pt_clust_6="13000.00000" pt_clust_7="13000.00000" pt_clust_8="13000.00000" pt_clust_9="109.27572"></scales>
<clustering>
<clus scale="   90.098">  5  6 -1 -1</clus>
<clus scale="   95.385">  7  8 -1 -1</clus>
<clus scale="  109.276">  1  9  2 -1</clus>
<clus scale="  116.866">  1  5  2 -1</clus>
<clus scale="  120.989">  2  5  1 -1</clus>
</clustering>
</event>
<event>
 9    1  0.5300912E-006  0.1093663E+03  0.7546771E-02  0.1262629E+00
         -1   -1    0    0    0  501 -0.00000000000E+00  0.00000000000E+00  0.41054235971E+03  0.41054235971E+03  0.00000000000E+00 0.  1.
          1   -1    0    0  502    0  0.00000000000E+00 -0.00000000000E+00 -0.77350866247E+02  0.77350866247E+02  0.00000000000E+00 0. -1.
         23    2    1    2    0    0  0.66806563660E+02 -0.38780767970E+02  0.29495145387E+03  0.31825359895E+03  0.91224602987E+02 0.  0.
         23    2    1    2    0    0  0.45242957273E+01  0.23888022708E+02  0.25159076373E+02  0.95605871455E+02  0.88974134736E+02 0.  0.
        -11    1    3    3    0    0  0.83079833786E+02 -0.64738560107E+01  0.20896636047E+03  0.22496912989E+03  0.00000000000E+00 0.  1.
         11    1    3    3    0    0 -0.16273270126E+02 -0.32306911959E+02  0.85985093395E+02  0.93284469056E+02  0.00000000000E+00 0. -1.
        -11    1    4    4    0    0 -0.34555747936E+02 -0.14442128125E+02  0.87729240435E+01  0.38466075658E+02  0.00000000000E+00 0. -1.
         11    1    4    4    0    0  0.39080043664E+02  0.38330150833E+02  0.16386152329E+02  0.57139795797E+02  0.00000000000E+00 0.  1.
         21    1    1    2  502  501 -0.71330859387E+02  0.14892745262E+02  0.13080963217E+02  0.74033755551E+02  0.00000000000E+00 0. -1.
<scales pt_clust_5="13000.00000" pt_clust_6="13000.00000" pt_clust_7="13000.00000" pt_clust_8="13000.00000" pt_clust_9="72.86896"></scales>
<clustering>
<clus scale="   72.869">  2  9  1 -1</clus>
<clus scale="   88.974">  7  8 -1 -1</clus>
<clus scale="   91.225">  5  6 -1 -1</clus>
<clus scale="  107.496">  2  7  1 -1</clus>
<clus scale="   72.869">  2  5  1 -1</clus>
</clustering>
</event>
<event>
 9    1  0.5300912E-006  0.1927158E+03  0.7546771E-02  0.1173584E+00
         -1   -1    0    0    0  501 -0.00000000000E+00  0.00000000000E+00  0.42698685217E+03  0.42698685217E+03  0.00000000000E+00 0.  1.
          1   -1    0    0  502    0  0.00000000000E+00 -0.00000000000E+00 -0.14900807350E+03  0.14900807350E+03  0.00000000000E+00 0. -1.
         23    2    1    2    0    0 -0.12711942867E+03  0.40912500443E+02  0.63563415787E+02  0.17232217352E+03  0.88438915763E+02 0.  0.
         23    2    1    2    0    0 -0.48965556713E+02  0.75286226851E+02  0.57783714310E+02  0.14091518397E+03  0.91937422941E+02 0.  0.
        -11    1    3    3    0    0 -0.63109380337E+02  0.64714306252E+02  0.24527318497E+02  0.93660689048E+02  0.00000000000E+00 0. -1.
         11    1    3    3    0    0 -0.64010048332E+02 -0.23801805809E+02  0.39036097290E+02  0.78661484469E+02  0.00000000000E+00 0.  1.
        -11    1    4    4    0    0 -0.22921036181E+02  0.80114476859E+02  0.69798921389E+01  0.83620704352E+02  0.00000000000E+00 0. -1.
         11    1    4    4    0    0 -0.26044520532E+02 -0.48282500079E+01  0.50803822171E+02  0.57294479621E+02  0.00000000000E+00 0.  1.
         21    1    1    2  502  501  0.17608498538E+03 -0.11619872729E+03  0.15663164857E+03  0.26275756818E+03  0.00000000000E+00 0.  1.
<scales pt_clust_5="13000.00000" pt_clust_6="13000.00000" pt_clust_7="13000.00000" pt_clust_8="13000.00000" pt_clust_9="171.22480"></scales>
<clustering>
<clus scale="   88.439">  5  6 -1 -1</clus>
<clus scale="   91.937">  7  8 -1 -1</clus>
<clus scale="  128.523">  2  7  1 -1</clus>
<clus scale="  171.225">  2  9  1 -1</clus>
<clus scale="  128.523">  2  5  1 -1</clus>
</clustering>
</event>
<event>
 9    1  0.5300912E-006  0.3112692E+03  0.7546771E-02  0.1126623E+00
         -2   -1    0    0    0  501 -0.00000000000E+00  0.00000000000E+00  0.27821820093E+03  0.27821820093E+03  0.00000000000E+00 0.  1.
          2   -1    0    0  502    0  0.00000000000E+00 -0.00000000000E+00 -0.45930062153E+03  0.45930062153E+03  0.00000000000E+00 0. -1.
         23    2    1    2    0    0 -0.48928186541E+01  0.21540361248E+02 -0.85960186912E+01  0.93226152989E+02  0.90162615460E+02 0.  0.
         23    2    1    2    0    0  0.29192381970E+03  0.62667082428E+02 -0.28869011601E+02  0.31247397812E+03  0.87520782922E+02 0.  0.
        -13    1    4    4    0    0  0.71305728143E+02  0.16141428545E+02 -0.45960796412E+02  0.86356513294E+02  0.00000000000E+00 0.  1.
         13    1    4    4    0    0  0.22061809155E+03  0.46525653884E+02  0.17091784811E+02  0.22611746482E+03  0.00000000000E+00 0. -1.
        -13    1    3    3    0    0 -0.35751403441E+02  0.39421664031E+02  0.81260765057E+01  0.53835523239E+02  0.00000000000E+00 0. -1.
         13    1    3    3    0    0  0.30858584787E+02 -0.17881302783E+02 -0.16722095197E+02  0.39390629750E+02  0.00000000000E+00 0.  1.
         21    1    1    2  502  501 -0.28703100104E+03 -0.84207443677E+02 -0.14361739031E+03  0.33181869135E+03  0.00000000000E+00 0.  1.
<scales pt_clust_5="13000.00000" pt_clust_6="13000.00000" pt_clust_7="13000.00000" pt_clust_8="13000.00000" pt_clust_9="298.71166"></scales>
<clustering>
<clus scale="   87.521">  5  6 -1 -1</clus>
<clus scale="   90.163">  7  8 -1 -1</clus>
<clus scale="   92.829">  1  7  2 -1</clus>
<clus scale="  298.712">  2  9  1 -1</clus>
<clus scale="  298.712">  2  5  1 -1</clus>
</clustering>
</event>
<event>
 9    1  0.5300912E-006  0.1073605E+03  0.7546771E-02  0.1265687E+00
         -1   -1    0    0    0  501 -0.00000000000E+00  0.00000000000E+00  0.72744473629E+02  0.72744473629E+02  0.00000000000E+00 0.  1.
          1   -1    0    0  502    0  0.00000000000E+00 -0.00000000000E+00 -0.27234400306E+03  0.27234400306E+03  0.00000000000E+00 0. -1.
         23    2    1    2    0    0 -0.59938446108E+02 -0.25488759227E+02 -0.35061899280E+02  0.11780993531E+03  0.91692692776E+02 0.  0.
         23    2    1    2    0    0  0.48214211005E+02 -0.23084117453E+02 -0.99409158093E+02  0.14519017490E+03  0.91326444987E+02 0.  0.
        -11    1    4    4    0    0  0.73267167126E+02 -0.23668420232E+01 -0.68157024812E+02  0.10009525339E+03  0.00000000000E+00 0. -1.
         11    1    4    4    0    0 -0.25052956121E+02 -0.20717275430E+02 -0.31252133281E+02  0.45094921513E+02  0.00000000000E+00 0.  1.
        -13    1    3    3    0    0  0.15653448665E+02 -0.30444459667E+02  0.24073132147E+00  0.34233806845E+02  0.00000000000E+00 0. -1.
         13    1    3    3    0    0 -0.75591894773E+02  0.49557004404E+01 -0.35302630602E+02  0.83576128467E+02  0.00000000000E+00 0.  1.
         21    1    1    2  502  501  0.11724235103E+02  0.48572876680E+02 -0.65128472057E+02  0.82088366473E+02  0.00000000000E+00 0. -1.
<scales pt_clust_5="13000.00000" pt_clust_6="13000.00000" pt_clust_7="13000.00000" pt_clust_8="13000.00000" pt_clust_9="49.96781"></scales>
<clustering>
<clus scale="   49.968">  2  9  1 -1</clus>
<clus scale="   91.326">  5  6 -1 -1</clus>
<clus scale="   91.693">  7  8 -1 -1</clus>
<clus scale="  107.048">  2  5  1 -1</clus>
<clus scale="   49.968">  2  5  1 -1</clus>
</clustering>
</event>
<event>
 9    1  0.5300912E-006  0.1235976E+03  0.7546771E-02  0.1240547E+00
         -1   -1    0    0    0  501 -0.00000000000E+00  0.00000000000E+00  0.14033783397E+03  0.14033783397E+03  0.00000000000E+00 0.  1.
          1   -1    0    0  502    0  0.00000000000E+00 -0.00000000000E+00 -0.14241634575E+03  0.14241634575E+03  0.00000000000E+00 0. -1.
         23    2    1    2    0    0  0.10955941276E+02 -0.53559636246E+02  0.39024149238E+02  0.12312866716E+03  0.10319455978E+03 0.  0.
         23    2    1    2    0    0 -0.59856563085E+00  0.74667092325E+02 -0.55647152293E+02  0.13197877389E+03  0.93521431997E+02 0.  0.
        -11    1    4    4    0    0 -0.21288191969E+02  0.74217427879E+02 -0.72023968510E+02  0.10558818948E+03  0.00000000000E+00 0. -1.
         11    1    4    4    0    0  0.20689626338E+02  0.44966444611E+00  0.16376816217E+02  0.26390584410E+02  0.00000000000E+00 0.  1.
        -13    1    3    3    0    0 -0.24746327083E+02 -0.58791016248E+02  0.54468966178E+02  0.83878677696E+02  0.00000000000E+00 0.  1.
         13    1    3    3    0    0  0.35702268359E+02  0.52313800021E+01 -0.15444816939E+02  0.39249989465E+02  0.00000000000E+00 0. -1.
         21    1    1    2  502  501 -0.10357375645E+02 -0.21107456079E+02  0.14544491273E+02  0.27646738665E+02  0.00000000000E+00 0. -1.
<scales pt_clust_5="13000.00000" pt_clust_6="13000.00000" pt_clust_7="13000.00000" pt_clust_8="13000.00000" pt_clust_9="23.51170"></scales>
<clustering>
<clus scale="   23.512">  1  9  2 -1</clus>
<clus scale="   93.521">  5  6 -1 -1</clus>
<clus scale="  103.195">  7  8 -1 -1</clus>
<clus scale="  115.644">  2  5  1 -1</clus>
<clus scale="  115.644">  2  5  1 -1</clus>
</clustering>
</event>
<event>
 9    1  0.5300912E-006  0.1651755E+03  0.7546771E-02  0.1209706E+00
          1   -1    0    0  502    0  0.00000000000E+00  0.00000000000E+00  0.48406364334E+02  0.48406364334E+02  0.00000000000E+00 0. -1.
         -1   -1    0    0    0  501 -0.00000000000E+00 -0.00000000000E+00 -0.84182800655E+03  0.84182800655E+03  0.00000000000E+00 0.  1.
         23    2    1    2    0    0  0.19307815388E+02  0.11976788355E+02 -0.23315118942E+03  0.25067712207E+03  0.89237364430E+02 0.  0.
         23    2    1    2    0    0 -0.15255532120E+03 -0.19920963888E-01 -0.29601976692E+03  0.34337100763E+03  0.83682853949E+02 0.  0.
        -13    1    4    4    0    0 -0.20456718997E+02 -0.24221404091E+02 -0.10631182445E+03  0.11093853157E+03  0.00000000000E+00 0.  1.
         13    1    4    4    0    0 -0.13209860220E+03  0.24201483127E+02 -0.18970794247E+03  0.23243247606E+03  0.00000000000E+00 0. -1.
        -13    1    3    3    0    0 -0.22657348266E+02 -0.17909754591E+02 -0.15078009720E+03  0.15352117917E+03  0.00000000000E+00 0. -1.
         13    1    3    3    0    0  0.41965163654E+02  0.29886542946E+02 -0.82371092214E+02  0.97155942908E+02  0.00000000000E+00 0.  1.
         21    1    1    2  502  501  0.13324750581E+03 -0.11956867391E+02 -0.26425068587E+03  0.29618624118E+03  0.00000000000E+00 0.  1.
<scales pt_clust_5="13000.00000" pt_clust_6="13000.00000" pt_clust_7="13000.00000" pt_clust_8="13000.00000" pt_clust_9="142.40835"></scales>
<clustering>
<clus scale="   83.683">  5  6 -1 -1</clus>
<clus scale="   89.237">  7  8 -1 -1</clus>
<clus scale="   92.084">  2  7  1 -1</clus>
<clus scale="  142.408">  2  9  1 -1</clus>
<clus scale="  165.176">  1  5  2 -1</clus>
</clustering>
</event>
<event>
 9    1  0.5300912E-006  0.1542056E+03  0.7546771E-02  0.1218747E+00
         -2   -1    0    0    0  501 -0.00000000000E+00  0.00000000000E+00  0.19457718076E+03  0.19457718076E+03  0.00000000000E+00 0.  1.
          2   -1    0    0  502    0  0.00000000000E+00 -0.00000000000E+00 -0.98776711393E+03  0.98776711393E+03  0.00000000000E+00 0. -1.
         23    2    1    2    0    0  0.96251796355E+01 -0.24677780624E+02  0.92455100187E+02  0.13144121084E+03  0.89594695248E+02 0.  0.
         23    2    1    2    0    0  0.11525767725E+03  0.31223786850E+02  0.63731239001E+01  0.15016173862E+03  0.90822210987E+02 0.  0.
        -11    1    4    4    0    0  0.10360071965E+03  0.59226045462E+02  0.92558351616E+01  0.11969337516E+03  0.00000000000E+00 0.  1.
         11    1    4    4    0    0  0.11656957597E+02 -0.28002258612E+02 -0.28827112615E+01  0.30468363461E+02  0.00000000000E+00 0. -1.
        -11    1    3    3    0    0  0.34400736982E+02  0.65481988304E+01  0.83558263124E+02  0.90599519585E+02  0.00000000000E+00 0.  1.
         11    1    3    3    0    0 -0.24775557346E+02 -0.31225979454E+02  0.88968370635E+01  0.40841691253E+02  0.00000000000E+00 0. -1.
         21    1    1    2  502  501 -0.12488285688E+03 -0.65460062258E+01 -0.89201815726E+03  0.90074134523E+03  0.00000000000E+00 0. -1.
<scales pt_clust_5="13000.00000" pt_clust_6="13000.00000" pt_clust_7="13000.00000" pt_clust_8="13000.00000" pt_clust_9="124.62219"></scales>
<clustering>
<clus scale="   89.595">  7  8 -1 -1</clus>
<clus scale="   90.822">  5  6 -1 -1</clus>
<clus scale="   93.428">  1  7  2 -1</clus>
<clus scale="  124.622">  2  9  1 -1</clus>
<clus scale="  124.622">  2  5  1 -1</clus>
</clustering>
</event>
<event>
 9    1  0.5300912E-006  0.9205436E+02  0.7546771E-02  0.1298329E+00
         -1   -1    0    0    0  501 -0.00000000000E+00  0.00000000000E+00  0.67976916150E+02  0.67976916150E+02  0.00000000000E+00 0.  1.
          1   -1    0    0  502    0  0.00000000000E+00 -0.00000000000E+00 -0.26114605289E+03  0.26114605289E+03  0.00000000000E+00 0. -1.
         23    2    1    2    0    0  0.10168451401E+02  0.24158120479E+02 -0.23442793653E+02  0.96654630271E+02  0.90030776902E+02 0.  0.
         23    2    1    2    0    0 -0.17470283401E+02  0.51777093449E+01 -0.17845690581E+03  0.20100200140E+03  0.90680305788E+02 0.  0.
        -11    1    3    3    0    0  0.41232309423E+02  0.18326410275E+01  0.13549086013E+02  0.43440069582E+02  0.00000000000E+00 0.  1.
         11    1    3    3    0    0 -0.31063858023E+02  0.22325479452E+02 -0.36991879667E+02  0.53214560689E+02  0.00000000000E+00 0. -1.
        -13    1    4    4    0    0 -0.45639936696E+02 -0.36230470428E+01 -0.44549761732E+02  0.63881230122E+02  0.00000000000E+00 0. -1.
         13    1    4    4    0    0  0.28169653295E+02  0.88007563878E+01 -0.13390714408E+03  0.13712077127E+03  0.00000000000E+00 0.  1.
         21    1    1    2  502  501  0.73018320002E+01 -0.29335829824E+02  0.87305627249E+01  0.31466337371E+02  0.00000000000E+00 0.  1.
<scales pt_clust_5="13000.00000" pt_clust_6="13000.00000" pt_clust_7="13000.00000" pt_clust_8="13000.00000" pt_clust_9="30.23091"></scales>
<clustering>
<clus scale="   30.231">  1  9  2 -1</clus>
<clus scale="   90.031">  5  6 -1 -1</clus>
<clus scale="   90.680">  7  8 -1 -1</clus>
<clus scale="   91.415">  1  5  2 -1</clus>
<clus scale="   92.054">  2  5  1 -1</clus>
</clustering>
</event>
<event>
 9    1  0.5300912E-006  0.1613255E+03  0.7546771E-02  0.1187411E+00
          2   -1    0    0  502    0  0.00000000000E+00  0.00000000000E+00  0.21401309338E+03  0.21401309338E+03  0.00000000000E+00 0. -1.
         -2   -1    0    0    0  501 -0.00000000000E+00 -0.00000000000E+00 -0.45165915767E+03  0.45165915767E+03  0.00000000000E+00 0.  1.
         23    2    1    2    0    0  0.74329446742E+02  0.40613374989E+02 -0.33206590151E+03  0.35405656272E+03  0.88960518105E+02 0.  0.
         23    2    1    2    0    0 -0.61393770412E+02 -0.12712497432E+03  0.13500767850E+03  0.21518456576E+03  0.90262782731E+02 0.  0.
        -13    1    3    3    0    0  0.29454562427E+02  0.44537479810E+02 -0.28071356986E+03  0.28574685765E+03  0.00000000000E+00 0.  1.
         13    1    3    3    0    0  0.44874884316E+02 -0.39241048207E+01 -0.51352331652E+02  0.68309705073E+02  0.00000000000E+00 0. -1.
        -13    1    4    4    0    0  0.22729142550E+02 -0.15866364832E+02  0.17310494408E+02  0.32680401936E+02  0.00000000000E+00 0.  1.
         13    1    4    4    0    0 -0.84122912962E+02 -0.11125860949E+03  0.11769718409E+03  0.18250416382E+03  0.00000000000E+00 0. -1.
         21    1    1    2  502  501 -0.12935676330E+02  0.86511599329E+02 -0.40587841282E+02  0.96431122571E+02  0.00000000000E+00 0.  1.
<scales pt_clust_5="13000.00000" pt_clust_6="13000.00000" pt_clust_7="13000.00000" pt_clust_8="13000.00000" pt_clust_9="87.47336"></scales>
<clustering>
<clus scale="   87.473">  2  9  1 -1</clus>
<clus scale="   88.961">  5  6 -1 -1</clus>
<clus scale="   90.263">  7  8 -1 -1</clus>
<clus scale="  160.600">  2  5  1 -1</clus>
<clus scale="  161.325">  1  5  2 -1</clus>
</clustering>
</event>
<event>
 9    1  0.5300912E-006  0.1735475E+03  0.7546771E-02  0.1174360E+00
         -1   -1    0    0    0  501 -0.00000000000E+00  0.00000000000E+00  0.97035599960E+02  0.97035599960E+02  0.00000000000E+00 0.  1.
          1   -1    0    0  502    0  0.00000000000E+00 -0.00000000000E+00 -0.42150550889E+03  0.42150550889E+03  0.00000000000E+00 0. -1.
         23    2    1    2    0    0  0.12929732748E+03  0.57783391668E+02 -0.83886958872E+02  0.18781432004E+03  0.90445993256E+02 0.  0.
         23    2    1    2    0    0 -0.13303643754E+03 -0.81554449838E+02 -0.14423407048E+03  0.23141842690E+03  0.91658055928E+02 0.  0.
        -11    1    3    3    0    0  0.10050905897E+03  0.69781129727E+02 -0.94785637785E+02  0.15477659426E+03  0.00000000000E+00 0.  1.
         11    1    3    3    0    0  0.28788268513E+02 -0.11997738059E+02  0.10898678913E+02  0.33037725778E+02  0.00000000000E+00 0. -1.
        -13    1    4    4    0    0 -0.37595294202E+02 -0.76341276005E+02 -0.61378385505E+02  0.10492236547E+03  0.00000000000E+00 0.  1.
         13    1    4    4    0    0 -0.95441143342E+02 -0.52131738328E+01 -0.82855684975E+02  0.12649606143E+03  0.00000000000E+00 0. -1.
         21    1    1    2  502  501  0.37391100609E+01  0.23771058169E+02 -0.96348879576E+02  0.99308361915E+02  0.00000000000E+00 0. -1.
<scales pt_clust_5="13000.00000" pt_clust_6="13000.00000" pt_clust_7="13000.00000" pt_clust_8="13000.00000" pt_clust_9="24.06334"></scales>
<clustering>
<clus scale="   24.063">  2  9  1 -1</clus>
<clus scale="   90.446">  5  6 -1 -1</clus>
<clus scale="   91.658">  7  8 -1 -1</clus>
<clus scale="  172.910">  1  5  2 -1</clus>
<clus scale="   24.063">  2  5  1 -1</clus>
</clustering>
</event>
<event>
 9    1  0.5300912E-006  0.1199554E+03  0.7546771E-02  0.1248838E+00
         -1   -1    0    0    0  501 -0.00000000000E+00  0.00000000000E+00  0.14481379712E+03  0.14481379712E+03  0.00000000000E+00 0.  1.
          1   -1    0    0  502    0  0.00000000000E+00 -0.00000000000E+00 -0.22483434533E+03  0.22483434533E+03  0.00000000000E+00 0. -1.
         23    2    1    2    0    0 -0.97186289040E+01 -0.72684282768E+02  0.55650390231E+02  0.11678610656E+03  0.71864956991E+02 0.  0.
         23    2    1    2    0    0  0.63118468020E+02  0.99791669438E+02 -0.12017739763E+03  0.19100410967E+03  0.89986914132E+02 0.  0.
        -13    1    3    3    0    0  0.26477694829E+02 -0.55839293547E+02  0.41447703781E+02  0.74411068908E+02  0.00000000000E+00 0.  1.
         13    1    3    3    0    0 -0.36196323733E+02 -0.16844989221E+02  0.14202686449E+02  0.42375037652E+02  0.00000000000E+00 0. -1.
        -13    1    4    4    0    0  0.61601069602E+02  0.39384288333E+02 -0.10627860799E+03  0.12899983124E+03  0.00000000000E+00 0. -1.
         13    1    4    4    0    0  0.15173984180E+01  0.60407381105E+02 -0.13898789637E+02  0.62004278427E+02  0.00000000000E+00 0.  1.
         21    1    1    2  502  501 -0.53399839116E+02 -0.27107386670E+02 -0.15493540805E+02  0.61857926221E+02  0.00000000000E+00 0.  1.
<scales pt_clust_5="13000.00000" pt_clust_6="13000.00000" pt_clust_7="13000.00000" pt_clust_8="13000.00000" pt_clust_9="59.88617"></scales>
<clustering>
<clus scale="   59.886">  2  9  1 -1</clus>
<clus scale="   71.865">  5  6 -1 -1</clus>
<clus scale="   89.987">  7  8 -1 -1</clus>
<clus scale="  107.034">  1  5  2 -1</clus>
<clus scale="   59.886">  2  5  1 -1</clus>
</clustering>
</event>
<event>
 9    1  0.5300912E-006  0.9539225E+02  0.7546771E-02  0.1291409E+00
         -1   -1    0    0    0  501 -0.00000000000E+00  0.00000000000E+00  0.23554994515E+03  0.23554994515E+03  0.00000000000E+00 0.  1.
          1   -1    0    0  502    0  0.00000000000E+00 -0.00000000000E+00 -0.30649047212E+03  0.30649047212E+03  0.00000000000E+00 0. -1.
         23    2    1    2    0    0  0.23753416786E+02 -0.19323735831E+02  0.19475426992E+03  0.21620289135E+03  0.88751523935E+02 0.  0.
         23    2    1    2    0    0  0.30917307083E+02  0.27392778086E+02 -0.24878443842E+03  0.26804515865E+03  0.90819965355E+02 0.  0.
        -13    1    4    4    0    0  0.46039343985E+01 -0.32631992925E+02 -0.64077647499E+02  0.72055451447E+02  0.00000000000E+00 0.  1.
         13    1    4    4    0    0  0.26313372685E+02  0.60024771012E+02 -0.18470679092E+03  0.19598970720E+03  0.00000000000E+00 0. -1.
        -13    1    3    3    0    0  0.15664317710E+02 -0.52245864204E+02  0.82169334929E+02  0.98624544503E+02  0.00000000000E+00 0.  1.
         13    1    3    3    0    0  0.80890990758E+01  0.32922128373E+02  0.11258493499E+03  0.11757834685E+03  0.00000000000E+00 0. -1.
         21    1    1    2  502  501 -0.54670723869E+02 -0.80690422551E+01 -0.16910358471E+02  0.57792367272E+02  0.00000000000E+00 0.  1.
<scales pt_clust_5="13000.00000" pt_clust_6="13000.00000" pt_clust_7="13000.00000" pt_clust_8="13000.00000" pt_clust_9="55.26298"></scales>
<clustering>
<clus scale="   55.263">  2  9  1 -1</clus>
<clus scale="   88.752">  7  8 -1 -1</clus>
<clus scale="   90.820">  5  6 -1 -1</clus>
<clus scale="   93.425">  1  7  2 -1</clus>
<clus scale="   55.263">  2  5  1 -1</clus>
</clustering>
</event>
<event>
 9    1  0.5300912E-006  0.9288866E+02  0.7546771E-02  0.1296862E+00
          1   -1    0    0  502    0  0.00000000000E+00  0.00000000000E+00  0.13324953462E+03  0.13324953462E+03  0.00000000000E+00 0. -1.
         -1   -1    0    0    0  501 -0.00000000000E+00 -0.00000000000E+00 -0.10212362177E+03  0.10212362177E+03  0.00000000000E+00 0.  1.
         23    2    1    2    0    0 -0.28685293126E+02 -0.45551554620E+01 -0.18807404566E+02  0.95797505687E+02  0.89329995781E+02 0.  0.
         23    2    1    2    0    0  0.12697435335E+01 -0.20360601502E+02  0.39159017664E+02  0.10099466005E+03  0.90831307120E+02 0.  0.
        -11    1    3    3    0    0 -0.40010914026E+01  0.33206994758E+02 -0.34481158680E+02  0.48038146688E+02  0.00000000000E+00 0. -1.
         11    1    3    3    0    0 -0.24684201723E+02 -0.37762150220E+02  0.15673754115E+02  0.47759358999E+02  0.00000000000E+00 0.  1.
        -11    1    4    4    0    0 -0.29556022936E+01  0.35122253003E+02  0.26048984282E+02  0.43827592029E+02  0.00000000000E+00 0. -1.
         11    1    4    4    0    0  0.42253458271E+01 -0.55482854505E+02  0.13110033382E+02  0.57167068026E+02  0.00000000000E+00 0.  1.
         21    1    1    2  502  501  0.27415549592E+02  0.24915756964E+02  0.10774299753E+02  0.38580990652E+02  0.00000000000E+00 0. -1.
<scales pt_clust_5="13000.00000" pt_clust_6="13000.00000" pt_clust_7="13000.00000" pt_clust_8="13000.00000" pt_clust_9="37.04602"></scales>
<clustering>
<clus scale="   37.046">  1  9  2 -1</clus>
<clus scale="   89.330">  5  6 -1 -1</clus>
<clus scale="   90.831">  7  8 -1 -1</clus>
<clus scale="   91.421">  2  5  1 -1</clus>
<clus scale="   37.046">  1  5  2 -1</clus>
</clustering>
</event>
<event>
 9    1  0.5300912E-006  0.2728968E+03  0.7546771E-02  0.1099676E+00
         -1   -1    0    0    0  501 -0.00000000000E+00  0.00000000000E+00  0.20196638454E+03  0.20196638454E+03  0.00000000000E+00 0.  1.
          1   -1    0    0  502    0  0.00000000000E+00 -0.00000000000E+00 -0.71406013377E+03  0.71406013377E+03  0.00000000000E+00 0. -1.
         23    2    1    2    0    0  0.34814994652E+02  0.29247633155E+03 -0.17524731011E+02  0.30881728275E+03  0.91140054630E+02 0.  0.
         23    2    1    2    0    0  0.54072715012E+02 -0.18504163586E+03 -0.29932243746E+03  0.36728327600E+03  0.90215396445E+02 0.  0.
        -13    1    4    4    0    0 -0.10570192335E+02 -0.10811700371E+03 -0.12107409018E+03  0.16266514922E+03  0.00000000000E+00 0.  1.
         13    1    4    4    0    0  0.64642907348E+02 -0.76924632150E+02 -0.17824834728E+03  0.20461812679E+03  0.00000000000E+00 0. -1.
        -13    1    3    3    0    0 -0.17713815385E+02  0.97676317969E+01 -0.57467279963E+01  0.21028808075E+02  0.00000000000E+00 0.  1.
         13    1    3    3    0    0  0.52528810037E+02  0.28270869975E+03 -0.11778003015E+02  0.28778847467E+03  0.00000000000E+00 0. -1.
         21    1    1    2  502  501 -0.88887709665E+02 -0.10743469569E+03 -0.19524658077E+03  0.23992595955E+03  0.00000000000E+00 0.  1.
<scales pt_clust_5="13000.00000" pt_clust_6="13000.00000" pt_clust_7="13000.00000" pt_clust_8="13000.00000" pt_clust_9="139.43901"></scales>
<clustering>
<clus scale="   90.215">  5  6 -1 -1</clus>
<clus scale="   91.140">  7  8 -1 -1</clus>
<clus scale="  139.439">  2  9  1 -1</clus>
<clus scale="  272.589">  2  5  1 -1</clus>
<clus scale="  139.439">  2  5  1 -1</clus>
</clustering>
</event>
<event>
 9    1  0.5300912E-006  0.9171265E+02  0.7546771E-02  0.1301336E+00
          1   -1    0    0  502    0  0.00000000000E+00  0.00000000000E+00  0.50218859360E+03  0.50218859360E+03  0.00000000000E+00 0. -1.
         -1   -1    0    0    0  501 -0.00000000000E+00 -0.00000000000E+00 -0.50458762477E+02  0.50458762477E+02  0.00000000000E+00 0.  1.
         23    2    1    2    0    0 -0.93596997633E+01 -0.81118189760E+01  0.46041531916E+01  0.87818869942E+02  0.86819065328E+02 0.  0.
         23    2    1    2    0    0 -0.16064149119E+02  0.73400618509E+01  0.40600937533E+03  0.41648060055E+03  0.91107323434E+02 0.  0.
        -11    1    3    3    0    0  0.22724213900E+02 -0.37418296598E+02 -0.22103127284E+01  0.43833825980E+02  0.00000000000E+00 0.  1.
         11    1    3    3    0    0 -0.32083913663E+02  0.29306477622E+02  0.68144659200E+01  0.43985043962E+02  0.00000000000E+00 0. -1.
        -13    1    4    4    0    0 -0.73348728801E+01 -0.41680900806E+02  0.16152099708E+03  0.16697344204E+03  0.00000000000E+00 0.  1.
         13    1    4    4    0    0 -0.87292762389E+01  0.49020962656E+02  0.24448837825E+03  0.24950715850E+03  0.00000000000E+00 0. -1.
         21    1    1    2  502  501  0.25423848882E+02  0.77175712504E+00  0.41116302608E+02  0.48347885592E+02  0.00000000000E+00 0. -1.
<scales pt_clust_5="13000.00000" pt_clust_6="13000.00000" pt_clust_7="13000.00000" pt_clust_8="13000.00000" pt_clust_9="25.43556"></scales>
<clustering>
<clus scale="   25.436">  1  9  2 -1</clus>
<clus scale="   86.819">  5  6 -1 -1</clus>
<clus scale="   87.454">  2  5  1 -1</clus>
<clus scale="   91.107">  7  8 -1 -1</clus>
<clus scale="   25.436">  1  5  2 -1</clus>
</clustering>
</event>
<event>
 9    1  0.5300912E-006  0.1325520E+03  0.7546771E-02  0.1223744E+00
          2   -1    0    0  502    0  0.00000000000E+00  0.00000000000E+00  0.55949192424E+03  0.55949192424E+03  0.00000000000E+00 0. -1.
         -2   -1    0    0    0  501 -0.00000000000E+00 -0.00000000000E+00 -0.11122327020E+03  0.11122327020E+03  0.00000000000E+00 0.  1.
         23    2    1    2    0    0 -0.25378533048E+02 -0.10860441450E+03 -0.13460104054E+02  0.14460206307E+03  0.91047204538E+02 0.  0.
         23    2    1    2    0    0  0.94079361811E+02  0.99611390100E+01  0.22280098380E+03  0.25864952450E+03  0.91154525587E+02 0.  0.
        -11    1    4    4    0    0 -0.81934586657E+01 -0.18267733837E+02  0.13972123935E+02  0.24414403776E+02  0.00000000000E+00 0.  1.
         11    1    4    4    0    0  0.10227282048E+03  0.28228872847E+02  0.20882885986E+03  0.23423512073E+03  0.00000000000E+00 0. -1.
        -13    1    3    3    0    0 -0.54685818362E+02 -0.96496778521E+02 -0.21511480540E+01  0.11093599250E+03  0.00000000000E+00 0.  1.
         13    1    3    3    0    0  0.29307285314E+02 -0.12107635979E+02 -0.11308956000E+02  0.33666070565E+02  0.00000000000E+00 0. -1.
         21    1    1    2  502  501 -0.68700828762E+02  0.98643275489E+02  0.23892777429E+03  0.26746360687E+03  0.00000000000E+00 0. -1.
<scales pt_clust_5="13000.00000" pt_clust_6="13000.00000" pt_clust_7="13000.00000" pt_clust_8="13000.00000" pt_clust_9="120.20940"></scales>
<clustering>
<clus scale="   91.047">  7  8 -1 -1</clus>
<clus scale="   91.155">  5  6 -1 -1</clus>
<clus scale="  120.209">  1  9  2 -1</clus>
<clus scale="  132.478">  2  7  1 -1</clus>
<clus scale="  120.209">  1  5  2 -1</clus>
</clustering>
</event>
<event>
 9    1  0.1044117E-005  0.1655745E+03  0.7546771E-02  0.1200559E+00
         -2   -1    0    0    0  501 -0.00000000000E+00  0.00000000000E+00  0.74462626237E+03  0.74462626237E+03  0.00000000000E+00 0.  1.
          2   -1    0    0  502    0  0.00000000000E+00 -0.00000000000E+00 -0.40836775437E+03  0.40836775437E+03  0.00000000000E+00 0. -1.
         23    2    1    2    0    0 -0.89294895654E+02 -0.12083508137E+03 -0.14542841903E+03  0.22885219956E+03  0.93001123129E+02 0.  0.
         23    2    1    2    0    0 -0.32985499497E+02  0.58910229394E+02 -0.19995590868E+03  0.22885472697E+03  0.88507978943E+02 0.  0.
        -13    1    4    4    0    0 -0.57846792345E+02  0.13279141964E+02 -0.10761548860E+03  0.12289703163E+03  0.00000000000E+00 0. -1.
         13    1    4    4    0    0  0.24861292849E+02  0.45631087430E+02 -0.92340420078E+02  0.10595769534E+03  0.00000000000E+00 0.  1.
        -13    1    3    3    0    0 -0.26731567680E+02  0.12009587466E+02 -0.17717017395E+02  0.34244701884E+02  0.00000000000E+00 0.  1.
         13    1    3    3    0    0 -0.62563327974E+02 -0.13284466883E+03 -0.12771140163E+03  0.19460749767E+03  0.00000000000E+00 0. -1.
         21    1    1    2  502  501  0.12228039515E+03  0.61924851972E+02  0.68164283572E+03  0.69528709021E+03  0.00000000000E+00 0.  1.
<scales pt_clust_5="13000.00000" pt_clust_6="13000.00000" pt_clust_7="13000.00000" pt_clust_8="13000.00000" pt_clust_9="136.98798"></scales>
<clustering>
<clus scale="   88.508">  5  6 -1 -1</clus>
<clus scale="   93.001">  7  8 -1 -1</clus>
<clus scale="  111.320">  2  5  1 -1</clus>
<clus scale="  136.988">  1  9  2 -1</clus>
<clus scale="  111.320">  2  5  1 -1</clus>
</clustering>
</event>
<event>
 9    1  0.5300912E-006  0.1244768E+03  0.7546771E-02  0.1237584E+00
         -2   -1    0    0    0  501 -0.00000000000E+00  0.00000000000E+00  0.78285162247E+03  0.78285162247E+03  0.00000000000E+00 0.  1.
          2   -1    0    0  502    0  0.00000000000E+00 -0.00000000000E+00 -0.53054941816E+02  0.53054941816E+02  0.00000000000E+00 0. -1.
         23    2    1    2    0    0 -0.61802980706E+02 -0.11602736445E+03  0.18393761523E+03  0.24178537194E+03  0.85703920906E+02 0.  0.
         23    2    1    2    0    0 -0.13593699773E+02  0.56981613375E+02  0.14065939184E+03  0.17775856721E+03  0.91549717456E+02 0.  0.
        -11    1    3    3    0    0 -0.37725065399E+02 -0.12215326852E+03  0.12964500801E+03  0.18207808674E+03  0.00000000000E+00 0.  1.
         11    1    3    3    0    0 -0.24077915307E+02  0.61259040693E+01  0.54292607221E+02  0.59707285192E+02  0.00000000000E+00 0. -1.
        -13    1    4    4    0    0 -0.36810854274E+02 -0.96756131847E+01  0.46942020814E+02  0.60433515544E+02  0.00000000000E+00 0.  1.
         13    1    4    4    0    0  0.23217154501E+02  0.66657226559E+02  0.93717371031E+02  0.11732505167E+03  0.00000000000E+00 0. -1.
         21    1    1    2  502  501  0.75396680479E+02  0.59045751076E+02  0.40519967358E+03  0.41636262514E+03  0.00000000000E+00 0. -1.
<scales pt_clust_5="13000.00000" pt_clust_6="13000.00000" pt_clust_7="13000.00000" pt_clust_8="13000.00000" pt_clust_9="95.76565"></scales>
<clustering>
<clus scale="   85.704">  5  6 -1 -1</clus>
<clus scale="   91.550">  7  8 -1 -1</clus>
<clus scale="   95.766">  1  9  2 -1</clus>
<clus scale="  120.243">  1  5  2 -1</clus>
<clus scale="  124.477">  2  5  1 -1</clus>
</clustering>
</event>
<event>
 9    1  0.5300912E-006  0.1576761E+03  0.7546771E-02  0.1192155E+00
          2   -1    0    0  502    0  0.00000000000E+00  0.00000000000E+00  0.21158905180E+03  0.21158905180E+03  0.00000000000E+00 0. -1.
         -2   -1    0    0    0  501 -0.00000000000E+00 -0.00000000000E+00 -0.28525257562E+03  0.28525257562E+03  0.00000000000E+00 0.  1.
         23    2    1    2    0    0 -0.77152952686E+02  0.98745912872E+02 -0.19027886963E+03  0.24692338437E+03  0.95193361659E+02 0.  0.
         23    2    1    2    0    0  0.93067987816E+02 -0.84923814106E+02  0.14648417262E+03  0.21336026755E+03  0.90505725688E+02 0.  0.
        -11    1    4    4    0    0  0.35145927103E+02  0.77258503827E+01  0.73864190447E+02  0.82163517369E+02  0.00000000000E+00 0.  1.
         11    1    4    4    0    0  0.57922060713E+02 -0.92649664488E+02  0.72619982172E+02  0.13119675018E+03  0.00000000000E+00 0. -1.
        -13    1    3    3    0    0 -0.52617488212E+02  0.94360771874E+02 -0.19367242387E+03  0.22176916626E+03  0.00000000000E+00 0.  1.
         13    1    3    3    0    0 -0.24535464474E+02  0.43851409978E+01  0.33935542397E+01  0.25154218113E+02  0.00000000000E+00 0. -1.
         21    1    1    2  502  501 -0.15915035130E+02 -0.13822098766E+02 -0.29868826811E+02  0.36557975499E+02  0.00000000000E+00 0.  1.
<scales pt_clust_5="13000.00000" pt_clust_6="13000.00000" pt_clust_7="13000.00000" pt_clust_8="13000.00000" pt_clust_9="21.07934"></scales>
<clustering>
<clus scale="   21.079">  2  9  1 -1</clus>
<clus scale="   90.506">  5  6 -1 -1</clus>
<clus scale="   95.193">  7  8 -1 -1</clus>
<clus scale="  154.891">  1  5  2 -1</clus>
<clus scale="  154.891">  1  5  2 -1</clus>
</clustering>
</event>
<event>
 9    1  0.5300912E-006  0.1498619E+03  0.7546771E-02  0.1214513E+00
          2   -1    0    0  502    0  0.00000000000E+00  0.00000000000E+00  0.27003576251E+03  0.27003576251E+03  0.00000000000E+00 0. -1.
         -2   -1    0    0    0  501 -0.00000000000E+00 -0.00000000000E+00 -0.23062149369E+03  0.23062149369E+03  0.00000000000E+00 0.  1.
         23    2    1    2    0    0 -0.55203867518E+02  0.26444480629E+02 -0.76149816981E+02  0.13486428203E+03  0.92966673583E+02 0.  0.
         23    2    1    2    0    0 -0.94979247511E+02 -0.57372277902E+02  0.15119322601E+03  0.20837336829E+03  0.90815380261E+02 0.  0.
        -13    1    3    3    0    0 -0.37183670309E+02  0.36085679043E+02 -0.94256594448E+02  0.10755978415E+03  0.00000000000E+00 0. -1.
         13    1    3    3    0    0 -0.18020197209E+02 -0.96411984139E+01  0.18106777467E+02  0.27304497881E+02  0.00000000000E+00 0.  1.
        -13    1    4    4    0    0 -0.28592184448E+02  0.22685839698E+02  0.22373300998E+02  0.42810336741E+02  0.00000000000E+00 0.  1.
         13    1    4    4    0    0 -0.66387063063E+02 -0.80058117600E+02  0.12881992501E+03  0.16556303155E+03  0.00000000000E+00 0. -1.
         21    1    1    2  502  501  0.15018311503E+03  0.30927797273E+02 -0.35629140199E+02  0.15741960588E+03  0.00000000000E+00 0.  1.
<scales pt_clust_5="13000.00000" pt_clust_6="13000.00000" pt_clust_7="13000.00000" pt_clust_8="13000.00000" pt_clust_9="119.21061"></scales>
<clustering>
<clus scale="   90.815">  7  8 -1 -1</clus>
<clus scale="   92.967">  5  6 -1 -1</clus>
<clus scale="  111.308">  2  5  1 -1</clus>
<clus scale="  119.211">  2  9  1 -1</clus>
<clus scale="  149.862">  1  5  2 -1</clus>
</clustering>
</event>
<event>
 9    1  0.5300912E-006  0.9314118E+02  0.7546771E-02  0.1295438E+00
          3   -1    0    0  502    0  0.00000000000E+00  0.00000000000E+00  0.25178789811E+03  0.25178789811E+03  0.00000000000E+00 0. -1.
         -3   -1    0    0    0  501 -0.00000000000E+00 -0.00000000000E+00 -0.57296820378E+02  0.57296820378E+02  0.00000000000E+00 0.  1.
         23    2    1    2    0    0  0.70172144031E+01  0.32569058409E+00  0.59312758163E+02  0.10974979655E+03  0.92074248238E+02 0.  0.
         23    2    1    2    0    0  0.11147910075E+02 -0.20323157717E+02  0.14258381499E+03  0.17132221409E+03  0.92107817818E+02 0.  0.
        -11    1    3    3    0    0  0.39615183505E+02 -0.11711226280E+02  0.35272483124E+00  0.41311499608E+02  0.00000000000E+00 0. -1.
         11    1    3    3    0    0 -0.32597969102E+02  0.12036916864E+02  0.58960033332E+02  0.68438296937E+02  0.00000000000E+00 0.  1.
        -13    1    4    4    0    0 -0.34760734007E+02 -0.20132870296E+02  0.31248846446E+02  0.50893334527E+02  0.00000000000E+00 0.  1.
         13    1    4    4    0    0  0.45908644083E+02 -0.19028742133E+00  0.11133496855E+03  0.12042887956E+03  0.00000000000E+00 0. -1.
         21    1    1    2  502  501 -0.18165124478E+02  0.19997467133E+02 -0.74054954228E+01  0.28012707857E+02  0.00000000000E+00 0.  1.
<scales pt_clust_5="13000.00000" pt_clust_6="13000.00000" pt_clust_7="13000.00000" pt_clust_8="13000.00000" pt_clust_9="27.01611"></scales>
<clustering>
<clus scale="   27.016">  2  9  1 -1</clus>
<clus scale="   92.074">  5  6 -1 -1</clus>
<clus scale="   92.108">  7  8 -1 -1</clus>
<clus scale="   93.108">  2  5  1 -1</clus>
<clus scale="   93.141">  1  5  2 -1</clus>
</clustering>
</event>
<event>
 9    1  0.5300912E-006  0.1011943E+03  0.7546771E-02  0.1279618E+00
         -1   -1    0    0    0  501 -0.00000000000E+00  0.00000000000E+00  0.63521948528E+03  0.63521948528E+03  0.00000000000E+00 0.  1.
          1   -1    0    0  502    0  0.00000000000E+00 -0.00000000000E+00 -0.30367476363E+02  0.30367476363E+02  0.00000000000E+00 0. -1.
         23    2    1    2    0    0  0.10160408374E+01  0.25487972750E+02  0.36189700542E+03  0.37510253569E+03  0.95298481890E+02 0.  0.
         23    2    1    2    0    0  0.39813139616E+02 -0.45528483583E+02  0.19874054903E+03  0.22705287202E+03  0.91636630016E+02 0.  0.
        -11    1    3    3    0    0  0.16726209996E+02 -0.33182859488E+02  0.16052874535E+03  0.16477362152E+03  0.00000000000E+00 0. -1.
         11    1    3    3    0    0 -0.15710169159E+02  0.58670832237E+02  0.20136826007E+03  0.21032891417E+03  0.00000000000E+00 0.  1.
        -13    1    4    4    0    0  0.48426632149E+02 -0.27240653792E+02  0.19922942307E+03  0.20683219029E+03  0.00000000000E+00 0. -1.
         13    1    4    4    0    0 -0.86134925322E+01 -0.18287829791E+02 -0.48887404182E+00  0.20220681736E+02  0.00000000000E+00 0.  1.
         21    1    1    2  502  501 -0.40829180454E+02  0.20040510833E+02  0.44214454462E+02  0.63431553933E+02  0.00000000000E+00 0.  1.
<scales pt_clust_5="13000.00000" pt_clust_6="13000.00000" pt_clust_7="13000.00000" pt_clust_8="13000.00000" pt_clust_9="45.48235"></scales>
<clustering>
<clus scale="   45.482">  2  9  1 -1</clus>
<clus scale="   91.637">  7  8 -1 -1</clus>
<clus scale="   95.298">  5  6 -1 -1</clus>
<clus scale="   97.754">  2  7  1 -1</clus>
<clus scale="   45.482">  2  5  1 -1</clus>
</clustering>
</event>
<event>
 9    1  0.5300912E-006  0.1872998E+03  0.7546771E-02  0.1186547E+00
         -1   -1    0    0    0  501 -0.00000000000E+00  0.00000000000E+00  0.30012376429E+03  0.30012376429E+03  0.00000000000E+00 0.  1.
          1   -1    0    0  502    0  0.00000000000E+00 -0.00000000000E+00 -0.20720830074E+03  0.20720830074E+03  0.00000000000E+00 0. -1.
         23    2    1    2    0    0 -0.64696105271E+02  0.17701379445E+03  0.71255667832E+02  0.22043440193E+03  0.89411889000E+02 0.  0.
         23    2    1    2    0    0  0.43600318195E+02 -0.27378011659E+02 -0.54191067476E+02  0.11781409450E+03  0.91065612604E+02 0.  0.
        -11    1    3    3    0    0 -0.88378015763E+01  0.35063473286E+02 -0.21338085368E+02  0.41986519059E+02  0.00000000000E+00 0. -1.
         11    1    3    3    0    0 -0.55858303695E+02  0.14195032116E+03  0.92593753200E+02  0.17844788287E+03  0.00000000000E+00 0.  1.
        -11    1    4    4    0    0  0.63800604662E+02  0.75030262053E+01 -0.31303564686E+02  0.71461358227E+02  0.00000000000E+00 0.  1.
         11    1    4    4    0    0 -0.20200286467E+02 -0.34881037865E+02 -0.22887502790E+02  0.46352736271E+02  0.00000000000E+00 0. -1.
         21    1    1    2  502  501  0.21095787076E+02 -0.14963578279E+03  0.75850863202E+02  0.16908356860E+03  0.00000000000E+00 0. -1.
<scales pt_clust_5="13000.00000" pt_clust_6="13000.00000" pt_clust_7="13000.00000" pt_clust_8="13000.00000" pt_clust_9="164.58045"></scales>
<clustering>
<clus scale="   89.412">  5  6 -1 -1</clus>
<clus scale="   91.066">  7  8 -1 -1</clus>
<clus scale="  104.611">  2  7  1 -1</clus>
<clus scale="  164.580">  1  9  2 -1</clus>
<clus scale="  104.611">  2  5  1 -1</clus>
</clustering>
</event>
<event>
 9    1  0.5300912E-006  0.1282395E+03  0.7546771E-02  0.1239374E+00
          3   -1    0    0  502    0  0.00000000000E+00  0.00000000000E+00  0.73397290956E+03  0.73397290956E+03  0.00000000000E+00 0. -1.
         -3   -1    0    0    0  501 -0.00000000000E+00 -0.00000000000E+00 -0.35850316422E+02  0.35850316422E+02  0.00000000000E+00 0.  1.
         23    2    1    2    0    0  0.76622217242E+02 -0.21720204212E+02  0.19515187137E+03  0.22945137300E+03  0.90669444842E+02 0.  0.
         23    2    1    2    0    0 -0.89485284576E+01  0.38018421444E+02  0.25469360004E+03  0.28252133579E+03  0.11586198146E+03 0.  0.
        -11    1    3    3    0    0  0.81633741419E+02  0.12151332903E+02  0.16189418514E+03  0.18171805032E+03  0.00000000000E+00 0. -1.
         11    1    3    3    0    0 -0.50115241776E+01 -0.33871537116E+02  0.33257686228E+02  0.47733322683E+02  0.00000000000E+00 0.  1.
        -13    1    4    4    0    0  0.47968987581E+02 -0.13338441932E+01  0.14587326713E+03  0.15356370982E+03  0.00000000000E+00 0. -1.
         13    1    4    4    0    0 -0.56917516039E+02  0.39352265637E+02  0.10882033291E+03  0.12895762598E+03  0.00000000000E+00 0.  1.
         21    1    1    2  502  501 -0.67673688784E+02 -0.16298217232E+02  0.24827712174E+03  0.25785051719E+03  0.00000000000E+00 0. -1.
<scales pt_clust_5="13000.00000" pt_clust_6="13000.00000" pt_clust_7="13000.00000" pt_clust_8="13000.00000" pt_clust_9="69.60862"></scales>
<clustering>
<clus scale="   69.609">  1  9  2 -1</clus>
<clus scale="   90.669">  5  6 -1 -1</clus>
<clus scale="  106.030">  2  5  1 -1</clus>
<clus scale="  115.862">  7  8 -1 -1</clus>
<clus scale="   69.609">  1  5  2 -1</clus>
</clustering>
</event>
<event>
 9    1  0.5300912E-006  0.1998646E+03  0.7546771E-02  0.1181685E+00
         -1   -1    0    0    0  501 -0.00000000000E+00  0.00000000000E+00  0.14236833173E+03  0.14236833173E+03  0.00000000000E+00 0.  1.
          1   -1    0    0  502    0  0.00000000000E+00 -0.00000000000E+00 -0.59707804863E+03  0.59707804863E+03  0.00000000000E+00 0. -1.
         23    2    1    2    0    0  0.15864744921E+02  0.23805766344E+02 -0.86908322385E+01  0.96357486971E+02  0.91601474266E+02 0.  0.
         23    2    1    2    0    0 -0.14189522155E+03 -0.11687669789E+03 -0.44078120871E+03  0.48633012142E+03  0.91839515702E+02 0.  0.
        -11    1    3    3    0    0 -0.84352728514E+01  0.42244134802E+02 -0.35443118511E+02  0.55784723743E+02  0.00000000000E+00 0. -1.
         11    1    3    3    0    0  0.24300017772E+02 -0.18438368458E+02  0.26752286272E+02  0.40572763228E+02  0.00000000000E+00 0.  1.
        -13    1    4    4    0    0 -0.29670530216E+02 -0.10184209282E+02 -0.18189258952E+02  0.36261654998E+02  0.00000000000E+00 0.  1.
         13    1    4    4    0    0 -0.11222469133E+03 -0.10669248861E+03 -0.42259194976E+03  0.45006846643E+03  0.00000000000E+00 0. -1.
         21    1    1    2  502  501  0.12603047663E+03  0.93070931549E+02 -0.52376759561E+01  0.15675877196E+03  0.00000000000E+00 0.  1.
<scales pt_clust_5="13000.00000" pt_clust_6="13000.00000" pt_clust_7="13000.00000" pt_clust_8="13000.00000" pt_clust_9="177.51439"></scales>
<clustering>
<clus scale="   91.601">  5  6 -1 -1</clus>
<clus scale="   91.840">  7  8 -1 -1</clus>
<clus scale="   95.965">  1  5  2 -1</clus>
<clus scale="  177.514">  1  9  2 -1</clus>
<clus scale="  199.865">  2  5  1 -1</clus>
</clustering>
</event>
<event>
 9    1  0.5300912E-006  0.1128699E+03  0.7546771E-02  0.1256879E+00
         -2   -1    0    0    0  501 -0.00000000000E+00  0.00000000000E+00  0.37424811628E+02  0.37424811628E+02  0.00000000000E+00 0.  1.
          2   -1    0    0  502    0  0.00000000000E+00 -0.00000000000E+00 -0.63585727629E+03  0.63585727629E+03  0.00000000000E+00 0. -1.
         23    2    1    2    0    0 -0.28486337797E+02 -0.74541775440E+02 -0.14127451363E+03  0.18581056259E+03  0.90549043309E+02 0.  0.
         23    2    1    2    0    0 -0.13728979654E+02  0.41908195302E+02 -0.20864202734E+03  0.23329196692E+03  0.94598438364E+02 0.  0.
        -13    1    4    4    0    0 -0.48677864533E+02  0.57392942815E+01 -0.67219316210E+02  0.83192009629E+02  0.00000000000E+00 0.  1.
         13    1    4    4    0    0  0.34948884879E+02  0.36168901021E+02 -0.14142271113E+03  0.15009995729E+03  0.00000000000E+00 0. -1.
        -13    1    3    3    0    0 -0.42967447948E+02 -0.89250291138E+02 -0.12521681537E+03  0.15965922116E+03  0.00000000000E+00 0.  1.
         13    1    3    3    0    0  0.14481110151E+02  0.14708515699E+02 -0.16057698257E+02  0.26151341430E+02  0.00000000000E+00 0. -1.
         21    1    1    2  502  501  0.42215317451E+02  0.32633580137E+02 -0.24851592370E+03  0.25417955841E+03  0.00000000000E+00 0. -1.
<scales pt_clust_5="13000.00000" pt_clust_6="13000.00000" pt_clust_7="13000.00000" pt_clust_8="13000.00000" pt_clust_9="53.35807"></scales>
<clustering>
<clus scale="   53.358">  2  9  1 -1</clus>
<clus scale="   90.549">  7  8 -1 -1</clus>
<clus scale="   94.598">  5  6 -1 -1</clus>
<clus scale="  109.498">  1  7  2 -1</clus>
<clus scale="   53.358">  2  5  1 -1</clus>
</clustering>
</event>
<event>
 9    1  0.5300912E-006  0.1158875E+03  0.7546771E-02  0.1250180E+00
         -1   -1    0    0    0  501 -0.00000000000E+00  0.00000000000E+00  0.86407355500E+02  0.86407355500E+02  0.00000000000E+00 0.  1.
          1   -1    0    0  502    0  0.00000000000E+00 -0.00000000000E+00 -0.35039345080E+03  0.35039345080E+03  0.00000000000E+00 0. -1.
         23    2    1    2    0    0 -0.71205366254E+00  0.76563406436E+02  0.47180358363E+01  0.11981924881E+03  0.92043089351E+02 0.  0.
         23    2    1    2    0    0 -0.24147874912E+02 -0.55031343487E+02 -0.11135530376E+03  0.15623237628E+03  0.91635053849E+02 0.  0.
        -11    1    4    4    0    0 -0.47259094500E+02 -0.57106334694E+02 -0.11044071606E+03  0.13301017720E+03  0.00000000000E+00 0.  1.
         11    1    4    4    0    0  0.23111219588E+02  0.20749912072E+01 -0.91458769816E+00  0.23222199078E+02  0.00000000000E+00 0. -1.
        -13    1    3    3    0    0 -0.22450676278E+02  0.85028462979E+02  0.22159633823E+02  0.90691354346E+02  0.00000000000E+00 0.  1.
         13    1    3    3    0    0  0.21738622615E+02 -0.84650565428E+01 -0.17441597987E+02  0.29127894462E+02  0.00000000000E+00 0. -1.
         21    1    1    2  502  501  0.24859928574E+02 -0.21532062949E+02 -0.15734882737E+03  0.16074918121E+03  0.00000000000E+00 0. -1.
<scales pt_clust_5="13000.00000" pt_clust_6="13000.00000" pt_clust_7="13000.00000" pt_clust_8="13000.00000" pt_clust_9="32.88838"></scales>
<clustering>
<clus scale="   32.888">  2  9  1 -1</clus>
<clus scale="   91.635">  5  6 -1 -1</clus>
<clus scale="   92.043">  7  8 -1 -1</clus>
<clus scale="  115.564">  2  5  1 -1</clus>
<clus scale="   32.888">  2  5  1 -1</clus>
</clustering>
</event>
<event>
 9    1  0.5300912E-006  0.1347559E+03  0.7546771E-02  0.1237209E+00
          1   -1    0    0  502    0  0.00000000000E+00  0.00000000000E+00  0.39537041266E+03  0.39537041266E+03  0.00000000000E+00 0. -1.
         -1   -1    0    0    0  501 -0.00000000000E+00 -0.00000000000E+00 -0.10842831702E+03  0.10842831702E+03  0.00000000000E+00 0.  1.
         23    2    1    2    0    0 -0.76105904410E+02 -0.67727620888E+02 -0.18947480115E+02  0.13682810976E+03  0.89352030200E+02 0.  0.
         23    2    1    2    0    0 -0.15039828962E+02  0.25267278361E+02  0.10256464453E+03  0.14014149248E+03  0.90859780952E+02 0.  0.
        -11    1    3    3    0    0 -0.56280140625E+02 -0.86566251513E+02 -0.29703044900E+02  0.10744040677E+03  0.00000000000E+00 0.  1.
         11    1    3    3    0    0 -0.19825763785E+02  0.18838630624E+02  0.10755564785E+02  0.29387702995E+02  0.00000000000E+00 0. -1.
        -11    1    4    4    0    0  0.22204301480E+02  0.46364600555E+02  0.67260861496E+02  0.84656545394E+02  0.00000000000E+00 0. -1.
         11    1    4    4    0    0 -0.37244130442E+02 -0.21097322194E+02  0.35303783033E+02  0.55484947081E+02  0.00000000000E+00 0.  1.
         21    1    1    2  502  501  0.91145733372E+02  0.42460342527E+02  0.20332493122E+03  0.22682912744E+03  0.00000000000E+00 0. -1.
<scales pt_clust_5="13000.00000" pt_clust_6="13000.00000" pt_clust_7="13000.00000" pt_clust_8="13000.00000" pt_clust_9="100.87301"></scales>
<clustering>
<clus scale="   89.352">  5  6 -1 -1</clus>
<clus scale="   90.860">  7  8 -1 -1</clus>
<clus scale="   95.499">  1  7  2 -1</clus>
<clus scale="  100.873">  1  9  2 -1</clus>
<clus scale="   95.499">  1  5  2 -1</clus>
</clustering>
</event>
<event>
 9    1  0.5300912E-006  0.9301842E+02  0.7546771E-02  0.1296569E+00
          1   -1    0    0  502    0  0.00000000000E+00  0.00000000000E+00  0.18579030688E+03  0.18579030688E+03  0.00000000000E+00 0. -1.
         -1   -1    0    0    0  501 -0.00000000000E+00 -0.00000000000E+00 -0.82112350979E+02  0.82112350979E+02  0.00000000000E+00 0.  1.
         23    2    1    2    0    0 -0.74477258321E+01 -0.12208597425E+02  0.29326533181E+01  0.92344030709E+02  0.91182789390E+02 0.  0.
         23    2    1    2    0    0 -0.32747186547E+02 -0.83239223720E+01  0.69265325796E+02  0.12052950496E+03  0.92671518270E+02 0.  0.
        -13    1    3    3    0    0 -0.29867879563E+02 -0.32666664731E+02 -0.25222349298E+02  0.50944755552E+02  0.00000000000E+00 0.  1.
         13    1    3    3    0    0  0.22420153730E+02  0.20458067306E+02  0.28155002616E+02  0.41399275157E+02  0.00000000000E+00 0. -1.
        -13    1    4    4    0    0 -0.34636122868E+02 -0.37377636458E+02  0.65398320747E+01  0.51376240794E+02  0.00000000000E+00 0.  1.
         13    1    4    4    0    0  0.18889363208E+01  0.29053714086E+02  0.62725493721E+02  0.69153264169E+02  0.00000000000E+00 0. -1.
         21    1    1    2  502  501  0.40194912379E+02  0.20532519797E+02  0.31479976791E+02  0.55029122191E+02  0.00000000000E+00 0.  1.
<scales pt_clust_5="13000.00000" pt_clust_6="13000.00000" pt_clust_7="13000.00000" pt_clust_8="13000.00000" pt_clust_9="45.13552"></scales>
<clustering>
<clus scale="   45.136">  1  9  2 -1</clus>
<clus scale="   91.183">  5  6 -1 -1</clus>
<clus scale="   91.535">  2  5  1 -1</clus>
<clus scale="   92.672">  7  8 -1 -1</clus>
<clus scale="   45.136">  1  5  2 -1</clus>
</clustering>
</event>
<event>
 9    1  0.5300912E-006  0.1014937E+03  0.7546771E-02  0.1278097E+00
         -2   -1    0    0    0  501 -0.00000000000E+00  0.00000000000E+00  0.19843067133E+03  0.19843067133E+03  0.00000000000E+00 0.  1.
          2   -1    0    0  502    0  0.00000000000E+00 -0.00000000000E+00 -0.15683168704E+03  0.15683168704E+03  0.00000000000E+00 0. -1.
         23    2    1    2    0    0 -0.17229831759E+02  0.34703862663E+02  0.10850810556E+03  0.14598106931E+03  0.89639491502E+02 0.  0.
         23    2    1    2    0    0 -0.33650679772E+02 -0.82934482493E+02 -0.46920612069E+02  0.13638026271E+03  0.91583489688E+02 0.  0.
        -11    1    3    3    0    0 -0.27971576561E+02  0.16639557650E+02  0.11837186202E+03  0.12276474125E+03  0.00000000000E+00 0.  1.
         11    1    3    3    0    0  0.10741744802E+02  0.18064305014E+02 -0.98637564626E+01  0.23216328060E+02  0.00000000000E+00 0. -1.
        -13    1    4    4    0    0 -0.59338700475E+02 -0.28370786219E+02 -0.12528379646E+02  0.66954784604E+02  0.00000000000E+00 0.  1.
         13    1    4    4    0    0  0.25688020704E+02 -0.54563696274E+02 -0.34392232422E+02  0.69425478102E+02  0.00000000000E+00 0. -1.
         21    1    1    2  502  501  0.50880511531E+02  0.48230619830E+02 -0.19988509206E+02  0.72901026351E+02  0.00000000000E+00 0. -1.
<scales pt_clust_5="13000.00000" pt_clust_6="13000.00000" pt_clust_7="13000.00000" pt_clust_8="13000.00000" pt_clust_9="70.10720"></scales>
<clustering>
<clus scale="   70.107">  2  9  1 -1</clus>
<clus scale="   89.639">  5  6 -1 -1</clus>
<clus scale="   91.583">  7  8 -1 -1</clus>
<clus scale="   99.743">  1  5  2 -1</clus>
<clus scale="   70.107">  2  5  1 -1</clus>
</clustering>
</event>
<event>
 9    1  0.5300912E-006  0.1267110E+03  0.7546771E-02  0.1245652E+00
          1   -1    0    0  502    0  0.00000000000E+00  0.00000000000E+00  0.46122014968E+03  0.46122014968E+03  0.00000000000E+00 0. -1.
         -1   -1    0    0    0  501 -0.00000000000E+00 -0.00000000000E+00 -0.54048831409E+02  0.54048831409E+02  0.00000000000E+00 0.  1.
         23    2    1    2    0    0  0.38287466005E+02 -0.20634311756E+02  0.55826633610E+02  0.11647990945E+03  0.92516222413E+02 0.  0.
         23    2    1    2    0    0 -0.62219869900E+00 -0.22559020721E+02  0.19134350055E+03  0.22883403274E+03  0.12346409514E+03 0.  0.
        -11    1    4    4    0    0  0.55123691141E+01  0.40972592922E+02  0.14274495474E+03  0.14861110890E+03  0.00000000000E+00 0.  1.
         11    1    4    4    0    0 -0.61345678131E+01 -0.63531613643E+02  0.48598545803E+02  0.80222923834E+02  0.00000000000E+00 0. -1.
        -13    1    3    3    0    0  0.63142028032E+02 -0.35022284209E+02  0.48035880747E+02  0.86723249099E+02  0.00000000000E+00 0. -1.
         13    1    3    3    0    0 -0.24854562026E+02  0.14387972453E+02  0.77907528621E+01  0.29756660346E+02  0.00000000000E+00 0.  1.
         21    1    1    2  502  501 -0.37665267306E+02  0.43193332478E+02  0.16000118411E+03  0.16995503890E+03  0.00000000000E+00 0.  1.
<scales pt_clust_5="13000.00000" pt_clust_6="13000.00000" pt_clust_7="13000.00000" pt_clust_8="13000.00000" pt_clust_9="57.30913"></scales>
<clustering>
<clus scale="   57.309">  1  9  2 -1</clus>
<clus scale="   92.516">  7  8 -1 -1</clus>
<clus scale="   96.807">  2  7  1 -1</clus>
<clus scale="  123.464">  5  6 -1 -1</clus>
<clus scale="   57.309">  1  5  2 -1</clus>
</clustering>
</event>
<event>
 9    1  0.5300912E-006  0.1213262E+03  0.7546771E-02  0.1240963E+00
         -1   -1    0    0    0  501 -0.00000000000E+00  0.00000000000E+00  0.82684824583E+02  0.82684824583E+02  0.00000000000E+00 0.  1.
          1   -1    0    0  502    0  0.00000000000E+00 -0.00000000000E+00 -0.45550113954E+03  0.45550113954E+03  0.00000000000E+00 0. -1.
         23    2    1    2    0    0 -0.38039693417E+01  0.93302831939E+02 -0.34178917501E+01  0.13080910983E+03  0.91539350015E+02 0.  0.
         23    2    1    2    0    0  0.22418087843E+02 -0.24443597247E+02 -0.24946903157E+03  0.26783783254E+03  0.91663769954E+02 0.  0.
        -11    1    3    3    0    0 -0.24120636661E+02  0.58744984634E+00 -0.23623316272E+02  0.33767014702E+02  0.00000000000E+00 0. -1.
         11    1    3    3    0    0  0.20316667319E+02  0.92715382093E+02  0.20205424522E+02  0.97042095132E+02  0.00000000000E+00 0.  1.
        -13    1    4    4    0    0 -0.33178194277E+02 -0.58089340512E+01 -0.52931231438E+02  0.62739553328E+02  0.00000000000E+00 0.  1.
         13    1    4    4    0    0  0.55596282120E+02 -0.18634663196E+02 -0.19653780013E+03  0.20509827922E+03  0.00000000000E+00 0. -1.
         21    1    1    2  502  501 -0.18614118502E+02 -0.68859234692E+02 -0.11992939164E+03  0.13953902174E+03  0.00000000000E+00 0. -1.
<scales pt_clust_5="13000.00000" pt_clust_6="13000.00000" pt_clust_7="13000.00000" pt_clust_8="13000.00000" pt_clust_9="71.33078"></scales>
<clustering>
<clus scale="   71.331">  2  9  1 -1</clus>
<clus scale="   91.539">  5  6 -1 -1</clus>
<clus scale="   91.664">  7  8 -1 -1</clus>
<clus scale="  121.232">  1  5  2 -1</clus>
<clus scale="   71.331">  2  5  1 -1</clus>
</clustering>
</event>
<event>
 9    1  0.5300912E-006  0.9580681E+02  0.7546771E-02  0.1290144E+00
          2   -1    0    0  502    0  0.00000000000E+00  0.00000000000E+00  0.48550458027E+03  0.48550458027E+03  0.00000000000E+00 0. -1.
         -2   -1    0    0    0  501 -0.00000000000E+00 -0.00000000000E+00 -0.49212340070E+02  0.49212340070E+02  0.00000000000E+00 0.  1.
         23    2    1    2    0    0  0.44063773295E+02  0.35107825276E+02  0.45137358165E+02  0.11625799268E+03  0.91128284568E+02 0.  0.
         23    2    1    2    0    0 -0.26895627038E+02  0.47769104904E+01  0.33261135576E+03  0.34556940947E+03  0.89675577229E+02 0.  0.
        -11    1    3    3    0    0  0.64884956127E+02  0.49674702115E+02  0.35111637440E+02  0.88940770435E+02  0.00000000000E+00 0.  1.
         11    1    3    3    0    0 -0.20821182832E+02 -0.14566876839E+02  0.10025720726E+02  0.27317222250E+02  0.00000000000E+00 0. -1.
        -13    1    4    4    0    0 -0.40663757985E+02 -0.23564760909E+02  0.28244553378E+03  0.28632903926E+03  0.00000000000E+00 0. -1.
         13    1    4    4    0    0  0.13768130947E+02  0.28341671400E+02  0.50165821974E+02  0.59240370203E+02  0.00000000000E+00 0.  1.
         21    1    1    2  502  501 -0.17168146257E+02 -0.39884735767E+02  0.58543526274E+02  0.72889518188E+02  0.00000000000E+00 0. -1.
<scales pt_clust_5="13000.00000" pt_clust_6="13000.00000" pt_clust_7="13000.00000" pt_clust_8="13000.00000" pt_clust_9="43.42278"></scales>
<clustering>
<clus scale="   43.423">  2  9  1 -1</clus>
<clus scale="   89.676">  7  8 -1 -1</clus>
<clus scale="   91.128">  5  6 -1 -1</clus>
<clus scale="   94.426">  1  7  2 -1</clus>
<clus scale="   94.426">  1  5  2 -1</clus>
</clustering>
</event>
<event>
 9    1  0.5300912E-006  0.1330403E+03  0.7546771E-02  0.1238495E+00
         -1   -1    0    0    0  501 -0.00000000000E+00  0.00000000000E+00  0.56291555282E+02  0.56291555282E+02  0.00000000000E+00 0.  1.
          1   -1    0    0  502    0  0.00000000000E+00 -0.00000000000E+00 -0.56100554366E+03  0.56100554366E+03  0.00000000000E+00 0. -1.
         23    2    1    2    0    0 -0.65972912792E+02 -0.41222422887E+02 -0.19489949678E+03  0.22832722823E+03  0.89976641058E+02 0.  0.
         23    2    1    2    0    0 -0.16493358381E+02 -0.27387657859E+02 -0.24560357949E+03  0.26394559189E+03  0.91236190978E+02 0.  0.
        -11    1    3    3    0    0 -0.41206100891E+02  0.24982430396E+02 -0.82866126318E+02  0.95858538848E+02  0.00000000000E+00 0.  1.
         11    1    3    3    0    0 -0.24766811901E+02 -0.66204853283E+02 -0.11203337046E+03  0.13246868938E+03  0.00000000000E+00 0. -1.
        -13    1    4    4    0    0 -0.47694402933E+02  0.88655728990E+01 -0.13460991568E+03  0.14308453394E+03  0.00000000000E+00 0.  1.
         13    1    4    4    0    0  0.31201044551E+02 -0.36253230758E+02 -0.11099366381E+03  0.12086105794E+03  0.00000000000E+00 0. -1.
         21    1    1    2  502  501  0.82466271173E+02  0.68610080747E+02 -0.64210912104E+02  0.12502427882E+03  0.00000000000E+00 0.  1.
<scales pt_clust_5="13000.00000" pt_clust_6="13000.00000" pt_clust_7="13000.00000" pt_clust_8="13000.00000" pt_clust_9="97.99967"></scales>
<clustering>
<clus scale="   89.977">  5  6 -1 -1</clus>
<clus scale="   91.236">  7  8 -1 -1</clus>
<clus scale="   96.676">  2  7  1 -1</clus>
<clus scale="   98.000">  1  9  2 -1</clus>
<clus scale="   96.676">  2  5  1 -1</clus>
</clustering>
</event>
<event>
 9    1  0.5300912E-006  0.1271645E+03  0.7546771E-02  0.1240630E+00
         -1   -1    0    0    0  501 -0.00000000000E+00  0.00000000000E+00  0.11748677957E+03  0.11748677957E+03  0.00000000000E+00 0.  1.
          1   -1    0    0  502    0  0.00000000000E+00 -0.00000000000E+00 -0.23161629591E+03  0.23161629591E+03  0.00000000000E+00 0. -1.
         23    2    1    2    0    0  0.20528684097E+02 -0.52702936731E+02 -0.33071810890E+02  0.11104262631E+03  0.89653186062E+02 0.  0.
         23    2    1    2    0    0  0.60038419527E+02 -0.22619293958E+02 -0.22426213168E+02  0.11315188857E+03  0.90466405766E+02 0.  0.
        -11    1    3    3    0    0 -0.17554935244E+02  0.10612027371E+02 -0.30944242852E+02  0.37125961833E+02  0.00000000000E+00 0. -1.
         11    1    3    3    0    0  0.38083619341E+02 -0.63314964103E+02 -0.21275680380E+01  0.73916664476E+02  0.00000000000E+00 0.  1.
        -13    1    4    4    0    0  0.67855267742E+02 -0.45830669224E+02 -0.30801949606E+01  0.81940681000E+02  0.00000000000E+00 0.  1.
         13    1    4    4    0    0 -0.78168482145E+01  0.23211375265E+02 -0.19346018208E+02  0.31211207574E+02  0.00000000000E+00 0. -1.
         21    1    1    2  502  501 -0.80567103624E+02  0.75322230690E+02 -0.58631492286E+02  0.12490856060E+03  0.00000000000E+00 0. -1.
<scales pt_clust_5="13000.00000" pt_clust_6="13000.00000" pt_clust_7="13000.00000" pt_clust_8="13000.00000" pt_clust_9="89.36805"></scales>
<clustering>
<clus scale="   89.653">  5  6 -1 -1</clus>
<clus scale="   90.466">  7  8 -1 -1</clus>
<clus scale="  106.003">  1  5  2 -1</clus>
<clus scale="   89.368">  1  9  2 -1</clus>
<clus scale="  127.165">  2  5  1 -1</clus>
</clustering>
</event>
<event>
 9    1  0.5300912E-006  0.1392566E+03  0.7546771E-02  0.1230839E+00
          1   -1    0    0  502    0  0.00000000000E+00  0.00000000000E+00  0.40460099498E+03  0.40460099498E+03  0.00000000000E+00 0. -1.
         -1   -1    0    0    0  501 -0.00000000000E+00 -0.00000000000E+00 -0.23158402943E+03  0.23158402943E+03  0.00000000000E+00 0.  1.
         23    2    1    2    0    0  0.12148765130E+02  0.10072725925E+03 -0.17252783180E+03  0.22032620066E+03  0.92109764423E+02 0.  0.
         23    2    1    2    0    0 -0.23374729063E+02  0.29958394395E+02  0.17279376336E+03  0.19895404722E+03  0.91000796137E+02 0.  0.
        -11    1    3    3    0    0  0.34580609602E+02  0.71403919124E+02 -0.16437131275E+03  0.18251648332E+03  0.00000000000E+00 0.  1.
         11    1    3    3    0    0 -0.22431844472E+02  0.29323340130E+02 -0.81565190489E+01  0.37809717346E+02  0.00000000000E+00 0. -1.
        -13    1    4    4    0    0 -0.44602974204E+02  0.50912867371E+02  0.13287688933E+03  0.14912348269E+03  0.00000000000E+00 0.  1.
         13    1    4    4    0    0  0.21228245141E+02 -0.20954472976E+02  0.39916874028E+02  0.49830564532E+02  0.00000000000E+00 0. -1.
         21    1    1    2  502  501  0.11225963933E+02 -0.13068565365E+03  0.17275103399E+03  0.21690477653E+03  0.00000000000E+00 0. -1.
<scales pt_clust_5="13000.00000" pt_clust_6="13000.00000" pt_clust_7="13000.00000" pt_clust_8="13000.00000" pt_clust_9="104.44231"></scales>
<clustering>
<clus scale="   91.001">  7  8 -1 -1</clus>
<clus scale="   92.110">  5  6 -1 -1</clus>
<clus scale="   98.616">  1  7  2 -1</clus>
<clus scale="  104.442">  1  9  2 -1</clus>
<clus scale="   98.616">  1  5  2 -1</clus>
</clustering>
</event>
<event>
 9    1  0.5300912E-006  0.1713918E+03  0.7546771E-02  0.1196261E+00
         -1   -1    0    0    0  501 -0.00000000000E+00  0.00000000000E+00  0.15562358543E+03  0.15562358543E+03  0.00000000000E+00 0.  1.
          1   -1    0    0  502    0  0.00000000000E+00 -0.00000000000E+00 -0.50523437238E+03  0.50523437238E+03  0.00000000000E+00 0. -1.
         23    2    1    2    0    0 -0.68682393179E+02  0.93334103915E+02 -0.36272504525E+02  0.15213379031E+03  0.91654075111E+02 0.  0.
         23    2    1    2    0    0 -0.34454990421E+01  0.62532523532E+02 -0.31836703289E+03  0.33690412583E+03  0.90689770105E+02 0.  0.
        -11    1    4    4    0    0  0.27565842800E+01 -0.22810849412E+02 -0.94174612699E+02  0.96937048050E+02  0.00000000000E+00 0.  1.
         11    1    4    4    0    0 -0.62020833221E+01  0.85343372943E+02 -0.22419242020E+03  0.23996707778E+03  0.00000000000E+00 0. -1.
        -13    1    3    3    0    0  0.13158501541E+02  0.15132275232E+02  0.17682707142E+02  0.26735931784E+02  0.00000000000E+00 0.  1.
         13    1    3    3    0    0 -0.81840894720E+02  0.78201828683E+02 -0.53955211667E+02  0.12539785853E+03  0.00000000000E+00 0. -1.
         21    1    1    2  502  501  0.72127892221E+02 -0.15586662745E+03  0.50287504760E+01  0.17182004167E+03  0.00000000000E+00 0.  1.
<scales pt_clust_5="13000.00000" pt_clust_6="13000.00000" pt_clust_7="13000.00000" pt_clust_8="13000.00000" pt_clust_9="144.82635"></scales>
<clustering>
<clus scale="   90.690">  5  6 -1 -1</clus>
<clus scale="   91.654">  7  8 -1 -1</clus>
<clus scale="  110.213">  2  5  1 -1</clus>
<clus scale="  144.826">  2  9  1 -1</clus>
<clus scale="  110.213">  2  5  1 -1</clus>
</clustering>
</event>
<event>
 9    1  0.5300912E-006  0.1770983E+03  0.7546771E-02  0.1173540E+00
          4   -1    0    0  502    0  0.00000000000E+00  0.00000000000E+00  0.83136845154E+03  0.83136845154E+03  0.00000000000E+00 0. -1.
         -4   -1    0    0    0  501 -0.00000000000E+00 -0.00000000000E+00 -0.16596115092E+03  0.16596115092E+03  0.00000000000E+00 0.  1.
         23    2    1    2    0    0 -0.20684665285E+02 -0.12894979725E+03  0.23576947473E+03  0.27810819974E+03  0.68563984417E+02 0.  0.
         23    2    1    2    0    0  0.15807869464E+03  0.11582440498E+03  0.51373890128E+03  0.55759719009E+03  0.92643408951E+02 0.  0.
        -11    1    3    3    0    0  0.67625945632E+01 -0.38770913973E+02  0.13279396441E+03  0.13850326147E+03  0.00000000000E+00 0. -1.
         11    1    3    3    0    0 -0.27447259849E+02 -0.90178883278E+02  0.10297551033E+03  0.13960493827E+03  0.00000000000E+00 0.  1.
        -13    1    4    4    0    0  0.13552258153E+02  0.43671029835E+02  0.19466345084E+03  0.19996170044E+03  0.00000000000E+00 0.  1.
         13    1    4    4    0    0  0.14452643649E+03  0.72153375146E+02  0.31907545044E+03  0.35763548966E+03  0.00000000000E+00 0. -1.
         21    1    1    2  502  501 -0.13739402936E+03  0.13125392271E+02 -0.84101075397E+02  0.16162421263E+03  0.00000000000E+00 0.  1.
<scales pt_clust_5="13000.00000" pt_clust_6="13000.00000" pt_clust_7="13000.00000" pt_clust_8="13000.00000" pt_clust_9="138.01955"></scales>
<clustering>
<clus scale="   68.564">  5  6 -1 -1</clus>
<clus scale="   92.643">  7  8 -1 -1</clus>
<clus scale="  138.020">  2  9  1 -1</clus>
<clus scale="  165.777">  2  5  1 -1</clus>
<clus scale="  177.098">  1  5  2 -1</clus>
</clustering>
</event>
<event>
 9    1  0.5300912E-006  0.1084927E+03  0.7546771E-02  0.1267108E+00
         -1   -1    0    0    0  501 -0.00000000000E+00  0.00000000000E+00  0.16014414289E+02  0.16014414289E+02  0.00000000000E+00 0.  1.
          1   -1    0    0  502    0  0.00000000000E+00 -0.00000000000E+00 -0.90728501609E+03  0.90728501609E+03  0.00000000000E+00 0. -1.
         23    2    1    2    0    0  0.51520727348E+02 -0.86619270130E+01 -0.31371166164E+03  0.32915854854E+03  0.84858288358E+02 0.  0.
         23    2    1    2    0    0 -0.50939596234E+02  0.31719362329E+02 -0.40395496461E+03  0.41901143439E+03  0.93755044151E+02 0.  0.
        -11    1    4    4    0    0 -0.17134934538E+02  0.52876058137E+02 -0.33309179249E+03  0.33769753587E+03  0.00000000000E+00 0. -1.
         11    1    4    4    0    0 -0.33804661697E+02 -0.21156695808E+02 -0.70863172119E+02  0.81313898521E+02  0.00000000000E+00 0.  1.
        -11    1    3    3    0    0  0.53313827318E+02 -0.30991727908E+02 -0.29021435017E+03  0.29669381596E+03  0.00000000000E+00 0. -1.
         11    1    3    3    0    0 -0.17930999694E+01  0.22329800895E+02 -0.23497311468E+02  0.32464732584E+02  0.00000000000E+00 0.  1.
         21    1    1    2  502  501 -0.58113111432E+00 -0.23057435316E+02 -0.17360397555E+03  0.17512944745E+03  0.00000000000E+00 0.  1.
<scales pt_clust_5="13000.00000" pt_clust_6="13000.00000" pt_clust_7="13000.00000" pt_clust_8="13000.00000" pt_clust_9="23.06476"></scales>
<clustering>
<clus scale="   23.065">  2  9  1 -1</clus>
<clus scale="   84.858">  7  8 -1 -1</clus>
<clus scale="   93.755">  5  6 -1 -1</clus>
<clus scale="  100.904">  1  7  2 -1</clus>
<clus scale="   23.065">  2  5  1 -1</clus>
</clustering>
</event>
<event>
 9    1  0.5300912E-006  0.1195996E+03  0.7546771E-02  0.1248872E+00
         -1   -1    0    0    0  501 -0.00000000000E+00  0.00000000000E+00  0.13837901208E+03  0.13837901208E+03  0.00000000000E+00 0.  1.
          1   -1    0    0  502    0  0.00000000000E+00 -0.00000000000E+00 -0.34339960055E+03  0.34339960055E+03  0.00000000000E+00 0. -1.
         23    2    1    2    0    0 -0.25488956181E+02 -0.51091090800E+02  0.59427351987E+02  0.12319960395E+03  0.91578085821E+02 0.  0.
         23    2    1    2    0    0 -0.25029493039E+02 -0.55777357615E+02 -0.18974830444E+03  0.21874691436E+03  0.90045568254E+02 0.  0.
        -11    1    4    4    0    0  0.24884944933E+02  0.62405731822E+01 -0.25246602005E+02  0.35994390546E+02  0.00000000000E+00 0.  1.
         11    1    4    4    0    0 -0.49914437972E+02 -0.62017930797E+02 -0.16450170243E+03  0.18275252382E+03  0.00000000000E+00 0. -1.
        -13    1    3    3    0    0 -0.20116038915E+02  0.24608978615E+02  0.13818463930E+02  0.34658430367E+02  0.00000000000E+00 0. -1.
         13    1    3    3    0    0 -0.53729172663E+01 -0.75700069416E+02  0.45608888057E+02  0.88541173582E+02  0.00000000000E+00 0.  1.
         21    1    1    2  502  501  0.50518449220E+02  0.10686844842E+03 -0.74699636022E+02  0.13983209431E+03  0.00000000000E+00 0. -1.
<scales pt_clust_5="13000.00000" pt_clust_6="13000.00000" pt_clust_7="13000.00000" pt_clust_8="13000.00000" pt_clust_9="78.71381"></scales>
<clustering>
<clus scale="   90.046">  5  6 -1 -1</clus>
<clus scale="   91.578">  7  8 -1 -1</clus>
<clus scale="  107.919">  1  7  2 -1</clus>
<clus scale="   78.714">  1  9  2 -1</clus>
<clus scale="  119.600">  2  5  1 -1</clus>
</clustering>
</event>
<event>
 9    1  0.5300912E-006  0.1650453E+03  0.7546771E-02  0.1183921E+00
         -2   -1    0    0    0  501 -0.00000000000E+00  0.00000000000E+00  0.21092286182E+03  0.21092286182E+03  0.00000000000E+00 0.  1.
          2   -1    0    0  502    0  0.00000000000E+00 -0.00000000000E+00 -0.30289432152E+03  0.30289432152E+03  0.00000000000E+00 0. -1.
         23    2    1    2    0    0 -0.12009953259E+03  0.62205908795E+02  0.10301363533E+03  0.19331302448E+03  0.92003497495E+02 0.  0.
         23    2    1    2    0    0  0.14288822852E+03  0.88954690667E+01 -0.10043577004E+03  0.20002882756E+03  0.97097954316E+02 0.  0.
        -13    1    3    3    0    0 -0.32057206332E+02  0.61812869670E+02  0.71490273712E+02  0.99796565923E+02  0.00000000000E+00 0.  1.
         13    1    3    3    0    0 -0.88042326261E+02  0.39303912523E+00  0.31523361618E+02  0.93516458556E+02  0.00000000000E+00 0. -1.
        -13    1    4    4    0    0  0.47205568745E+02  0.50350427598E+01  0.15239545486E+02  0.49859413582E+02  0.00000000000E+00 0.  1.
         13    1    4    4    0    0  0.95682659778E+02  0.38604263069E+01 -0.11567531552E+03  0.15016941398E+03  0.00000000000E+00 0. -1.
         21    1    1    2  502  501 -0.22788695929E+02 -0.71101377861E+02 -0.94549324990E+02  0.12047533130E+03  0.00000000000E+00 0. -1.
<scales pt_clust_5="13000.00000" pt_clust_6="13000.00000" pt_clust_7="13000.00000" pt_clust_8="13000.00000" pt_clust_9="74.66412"></scales>
<clustering>
<clus scale="   74.664">  2  9  1 -1</clus>
<clus scale="   92.003">  5  6 -1 -1</clus>
<clus scale="   97.098">  7  8 -1 -1</clus>
<clus scale="  162.101">  1  5  2 -1</clus>
<clus scale="   74.664">  2  5  1 -1</clus>
</clustering>
</event>
<event>
 9    1  0.5300912E-006  0.1524251E+03  0.7546771E-02  0.1200477E+00
         -2   -1    0    0    0  501 -0.00000000000E+00  0.00000000000E+00  0.64876624685E+02  0.64876624685E+02  0.00000000000E+00 0.  1.
          2   -1    0    0  502    0  0.00000000000E+00 -0.00000000000E+00 -0.95390151053E+03  0.95390151053E+03  0.00000000000E+00 0. -1.
         23    2    1    2    0    0  0.11452314052E+03 -0.90302140175E+02 -0.26681549028E+03  0.31712244431E+03  0.90033952458E+02 0.  0.
         23    2    1    2    0    0 -0.11706722468E+03 -0.67077969058E+02 -0.37168248360E+03  0.40578628599E+03  0.91161681961E+02 0.  0.
        -13    1    3    3    0    0  0.99666562826E+02 -0.10807083058E+03 -0.24218121491E+03  0.28330984632E+03  0.00000000000E+00 0. -1.
         13    1    3    3    0    0  0.14856577695E+02  0.17768690405E+02 -0.24634275374E+02  0.33812597988E+02  0.00000000000E+00 0.  1.
        -13    1    4    4    0    0  0.12776061469E+01 -0.33141186010E+02 -0.13481001652E+03  0.13882979162E+03  0.00000000000E+00 0.  1.
         13    1    4    4    0    0 -0.11834483082E+03 -0.33936783048E+02 -0.23687246709E+03  0.26695649438E+03  0.00000000000E+00 0. -1.
         21    1    1    2  502  501  0.25440841556E+01  0.15738010923E+03 -0.25052691196E+03  0.29586940491E+03  0.00000000000E+00 0.  1.
<scales pt_clust_5="13000.00000" pt_clust_6="13000.00000" pt_clust_7="13000.00000" pt_clust_8="13000.00000" pt_clust_9="157.40067"></scales>
<clustering>
<clus scale="   90.034">  5  6 -1 -1</clus>
<clus scale="   91.162">  7  8 -1 -1</clus>
<clus scale="  157.401">  1  9  2 -1</clus>
<clus scale="  157.401">  1  5  2 -1</clus>
<clus scale="  147.607">  2  5  1 -1</clus>
</clustering>
</event>
<event>
 9    1  0.5300912E-006  0.1100266E+03  0.7546771E-02  0.1262534E+00
          1   -1    0    0  502    0  0.00000000000E+00  0.00000000000E+00  0.20789278150E+03  0.20789278150E+03  0.00000000000E+00 0. -1.
         -1   -1    0    0    0  501 -0.00000000000E+00 -0.00000000000E+00 -0.22481690888E+03  0.22481690888E+03  0.00000000000E+00 0.  1.
         23    2    1    2    0    0 -0.14288919177E+02  0.49866226186E+01 -0.45778816517E+02  0.10406035925E+03  0.92216152100E+02 0.  0.
         23    2    1    2    0    0  0.75090975974E+02 -0.55735725108E+02 -0.10652803217E+03  0.17180277318E+03  0.97071342365E+02 0.  0.
        -13    1    3    3    0    0 -0.47729916552E+02  0.11133661537E+02 -0.49739444886E+02  0.69829189677E+02  0.00000000000E+00 0. -1.
         13    1    3    3    0    0  0.33440997376E+02 -0.61470389186E+01  0.39606283687E+01  0.34231169568E+02  0.00000000000E+00 0.  1.
        -13    1    4    4    0    0 -0.17294297256E+02 -0.16961461389E+02  0.17431092369E+01  0.24286257839E+02  0.00000000000E+00 0. -1.
         13    1    4    4    0    0  0.92385273230E+02 -0.38774263720E+02 -0.10827114141E+03  0.14751651534E+03  0.00000000000E+00 0.  1.
         21    1    1    2  502  501 -0.60802056797E+02  0.50749102490E+02  0.13538272131E+03  0.15684655796E+03  0.00000000000E+00 0. -1.
<scales pt_clust_5="13000.00000" pt_clust_6="13000.00000" pt_clust_7="13000.00000" pt_clust_8="13000.00000" pt_clust_9="79.19824"></scales>
<clustering>
<clus scale="   79.198">  1  9  2 -1</clus>
<clus scale="   92.216">  5  6 -1 -1</clus>
<clus scale="   97.071">  7  8 -1 -1</clus>
<clus scale="  105.768">  2  5  1 -1</clus>
<clus scale="   79.198">  1  5  2 -1</clus>
</clustering>
</event>
<event>
 9    1  0.5300912E-006  0.1818333E+03  0.7546771E-02  0.1197230E+00
          1   -1    0    0  502    0  0.00000000000E+00  0.00000000000E+00  0.14658604518E+03  0.14658604518E+03  0.00000000000E+00 0. -1.
         -1   -1    0    0    0  501 -0.00000000000E+00 -0.00000000000E+00 -0.43905795826E+03  0.43905795826E+03  0.00000000000E+00 0.  1.
         23    2    1    2    0    0 -0.11751754917E+02  0.17634284965E+02 -0.81975852117E+02  0.12200632900E+03  0.87843225324E+02 0.  0.
         23    2    1    2    0    0 -0.14730274787E+03 -0.16191811015E+02 -0.24512107128E+03  0.30085159725E+03  0.92016681699E+02 0.  0.
        -11    1    4    4    0    0 -0.10501806074E+03  0.11686842864E+02 -0.22055445134E+03  0.24456009770E+03  0.00000000000E+00 0. -1.
         11    1    4    4    0    0 -0.42284687124E+02 -0.27878653880E+02 -0.24566619942E+02  0.56291499560E+02  0.00000000000E+00 0.  1.
        -11    1    3    3    0    0  0.24688191847E+02 -0.10953882428E+02 -0.68710402072E+02  0.73828271752E+02  0.00000000000E+00 0.  1.
         11    1    3    3    0    0 -0.36439946764E+02  0.28588167393E+02 -0.13265450045E+02  0.48178057246E+02  0.00000000000E+00 0. -1.
         21    1    1    2  502  501  0.15905450278E+03 -0.14424739494E+01  0.34625010326E+02  0.16278607719E+03  0.00000000000E+00 0.  1.
<scales pt_clust_5="13000.00000" pt_clust_6="13000.00000" pt_clust_7="13000.00000" pt_clust_8="13000.00000" pt_clust_9="156.83198"></scales>
<clustering>
<clus scale="   87.843">  7  8 -1 -1</clus>
<clus scale="   90.363">  2  7  1 -1</clus>
<clus scale="   92.017">  5  6 -1 -1</clus>
<clus scale="  156.832">  1  9  2 -1</clus>
<clus scale="  156.832">  1  5  2 -1</clus>
</clustering>
</event>
<event>
 9    1  0.5300912E-006  0.1294719E+03  0.7546771E-02  0.1228448E+00
         -1   -1    0    0    0  501 -0.00000000000E+00  0.00000000000E+00  0.12604128227E+03  0.12604128227E+03  0.00000000000E+00 0.  1.
          1   -1    0    0  502    0  0.00000000000E+00 -0.00000000000E+00 -0.33356280915E+03  0.33356280915E+03  0.00000000000E+00 0. -1.
         23    2    1    2    0    0  0.99072582791E+02 -0.86078191104E+02  0.26362703330E+02  0.16113219730E+03  0.89687018212E+02 0.  0.
         23    2    1    2    0    0 -0.68751877139E+02  0.51256148956E+02 -0.21512296869E+03  0.24863310657E+03  0.90479371185E+02 0.  0.
        -13    1    4    4    0    0 -0.81599013964E+02  0.30808014300E+02 -0.20435873992E+03  0.22219367094E+03  0.00000000000E+00 0. -1.
         13    1    4    4    0    0  0.12847136826E+02  0.20448134656E+02 -0.10764228773E+02  0.26439435633E+02  0.00000000000E+00 0.  1.
        -13    1    3    3    0    0  0.19858308574E+02  0.18576118593E+02  0.94804736828E+01  0.28797638491E+02  0.00000000000E+00 0. -1.
         13    1    3    3    0    0  0.79214274217E+02 -0.10465430970E+03  0.16882229647E+02  0.13233455881E+03  0.00000000000E+00 0.  1.
         21    1    1    2  502  501 -0.30320705653E+02  0.34822042148E+02 -0.18761261525E+02  0.49838787552E+02  0.00000000000E+00 0.  1.
<scales pt_clust_5="13000.00000" pt_clust_6="13000.00000" pt_clust_7="13000.00000" pt_clust_8="13000.00000" pt_clust_9="46.17272"></scales>
<clustering>
<clus scale="   46.173">  1  9  2 -1</clus>
<clus scale="   89.687">  7  8 -1 -1</clus>
<clus scale="   90.479">  5  6 -1 -1</clus>
<clus scale="  128.919">  1  7  2 -1</clus>
<clus scale="  129.472">  2  5  1 -1</clus>
</clustering>
</event>
<event>
 9    1  0.5300912E-006  0.2717200E+03  0.7546771E-02  0.1123879E+00
         -2   -1    0    0    0  501 -0.00000000000E+00  0.00000000000E+00  0.22337802244E+03  0.22337802244E+03  0.00000000000E+00 0.  1.
          2   -1    0    0  502    0  0.00000000000E+00 -0.00000000000E+00 -0.87808688085E+03  0.87808688085E+03  0.00000000000E+00 0. -1.
         23    2    1    2    0    0  0.10066536326E+03 -0.57996131516E+02  0.30681605822E+02  0.15248362059E+03  0.93876658337E+02 0.  0.
         23    2    1    2    0    0 -0.33415718938E+03  0.38676982083E+01 -0.17928262874E+03  0.38898712085E+03  0.86560573689E+02 0.  0.
        -13    1    4    4    0    0 -0.20412348440E+03 -0.32357282313E+02 -0.13528272215E+03  0.24701175177E+03  0.00000000000E+00 0.  1.
         13    1    4    4    0    0 -0.13003370498E+03  0.36224980521E+02 -0.43999906583E+02  0.14197536908E+03  0.00000000000E+00 0. -1.
        -13    1    3    3    0    0  0.55515838228E+01 -0.47405527432E+02 -0.95396581754E+01  0.48673495787E+02  0.00000000000E+00 0. -1.
         13    1    3    3    0    0  0.95113779434E+02 -0.10590604084E+02  0.40221263997E+02  0.10381012480E+03  0.00000000000E+00 0.  1.
         21    1    1    2  502  501  0.23349182612E+03  0.54128433308E+02 -0.50610783550E+03  0.55999416186E+03  0.00000000000E+00 0.  1.
<scales pt_clust_5="13000.00000" pt_clust_6="13000.00000" pt_clust_7="13000.00000" pt_clust_8="13000.00000" pt_clust_9="257.56362"></scales>
<clustering>
<clus scale="   86.561">  5  6 -1 -1</clus>
<clus scale="   93.877">  7  8 -1 -1</clus>
<clus scale="  149.365">  1  7  2 -1</clus>
<clus scale="  257.564">  2  9  1 -1</clus>
<clus scale="  257.564">  2  5  1 -1</clus>
</clustering>
</event>
<event>
 9    1  0.5300912E-006  0.1110156E+03  0.7546771E-02  0.1259305E+00
         -1   -1    0    0    0  501 -0.00000000000E+00  0.00000000000E+00  0.44939677162E+03  0.44939677162E+03  0.00000000000E+00 0.  1.
          1   -1    0    0  502    0  0.00000000000E+00 -0.00000000000E+00 -0.62960086761E+02  0.62960086761E+02  0.00000000000E+00 0. -1.
         23    2    1    2    0    0  0.13885215259E+02 -0.41557562840E+02  0.16522716003E+03  0.19387652115E+03  0.91478198535E+02 0.  0.
         23    2    1    2    0    0 -0.86279005781E+02  0.42290707837E+01  0.61067096016E+02  0.13881432840E+03  0.89879228275E+02 0.  0.
        -11    1    4    4    0    0 -0.14247748356E+02 -0.36767628511E+02  0.32658505303E+02  0.51199949298E+02  0.00000000000E+00 0. -1.
         11    1    4    4    0    0 -0.72031257425E+02  0.40996699294E+02  0.28408590713E+02  0.87614379103E+02  0.00000000000E+00 0.  1.
        -13    1    3    3    0    0  0.29467819038E+02 -0.11536686804E+02  0.15549160988E+03  0.15867919916E+03  0.00000000000E+00 0.  1.
         13    1    3    3    0    0 -0.15582603779E+02 -0.30020876036E+02  0.97355501509E+01  0.35197321989E+02  0.00000000000E+00 0. -1.
         21    1    1    2  502  501  0.72393790522E+02  0.37328492056E+02  0.16014242881E+03  0.17966600883E+03  0.00000000000E+00 0. -1.
<scales pt_clust_5="13000.00000" pt_clust_6="13000.00000" pt_clust_7="13000.00000" pt_clust_8="13000.00000" pt_clust_9="81.45107"></scales>
<clustering>
<clus scale="   81.451">  1  9  2 -1</clus>
<clus scale="   89.879">  5  6 -1 -1</clus>
<clus scale="   91.478">  7  8 -1 -1</clus>
<clus scale="  109.702">  2  5  1 -1</clus>
<clus scale="  109.702">  2  5  1 -1</clus>
</clustering>
</event>
<event>
 9    1  0.5300912E-006  0.1286620E+03  0.7546771E-02  0.1233267E+00
         -1   -1    0    0    0  501 -0.00000000000E+00  0.00000000000E+00  0.10381506304E+03  0.10381506304E+03  0.00000000000E+00 0.  1.
          1   -1    0    0  502    0  0.00000000000E+00 -0.00000000000E+00 -0.42581666439E+03  0.42581666439E+03  0.00000000000E+00 0. -1.
         23    2    1    2    0    0  0.72217633669E+02  0.85276852690E+02 -0.11372230563E+03  0.19016129749E+03  0.10363893114E+03 0.  0.
         23    2    1    2    0    0 -0.51305930150E+02 -0.40745427240E+02 -0.25055800251E+03  0.27460259319E+03  0.91295034132E+02 0.  0.
        -11    1    3    3    0    0  0.30641590578E+02  0.48371302369E+02  0.65783152885E+01  0.57636483221E+02  0.00000000000E+00 0.  1.
         11    1    3    3    0    0  0.41576043090E+02  0.36905550321E+02 -0.12030062092E+03  0.13252481427E+03  0.00000000000E+00 0. -1.
        -11    1    4    4    0    0 -0.38349787345E+02  0.15425366071E+02 -0.17357338730E+03  0.17842748916E+03  0.00000000000E+00 0.  1.
         11    1    4    4    0    0 -0.12956142805E+02 -0.56170793310E+02 -0.76984615210E+02  0.96175104037E+02  0.00000000000E+00 0. -1.
         21    1    1    2  502  501 -0.20911703518E+02 -0.44531425450E+02  0.42278706783E+02  0.64867836745E+02  0.00000000000E+00 0.  1.
<scales pt_clust_5="13000.00000" pt_clust_6="13000.00000" pt_clust_7="13000.00000" pt_clust_8="13000.00000" pt_clust_9="49.19702"></scales>
<clustering>
<clus scale="   49.197">  1  9  2 -1</clus>
<clus scale="   91.295">  7  8 -1 -1</clus>
<clus scale="  103.639">  5  6 -1 -1</clus>
<clus scale="  118.944">  2  7  1 -1</clus>
<clus scale="  118.944">  2  5  1 -1</clus>
</clustering>
</event>
<event>
 9    1  0.5300912E-006  0.1456608E+03  0.7546771E-02  0.1226426E+00
         -1   -1    0    0    0  501 -0.00000000000E+00  0.00000000000E+00  0.27414592984E+03  0.27414592984E+03  0.00000000000E+00 0.  1.
          1   -1    0    0  502    0  0.00000000000E+00 -0.00000000000E+00 -0.21240000316E+03  0.21240000316E+03  0.00000000000E+00 0. -1.
         23    2    1    2    0    0 -0.26173995028E+01  0.21596317021E+02  0.83175150810E+02  0.12582443428E+03  0.91871817551E+02 0.  0.
         23    2    1    2    0    0 -0.55288140805E+02  0.94706014589E+02 -0.12872282484E+03  0.19222461243E+03  0.91404202724E+02 0.  0.
        -11    1    4    4    0    0 -0.73996909627E+02  0.43820878520E+02 -0.96054511275E+02  0.12892742596E+03  0.00000000000E+00 0. -1.
         11    1    4    4    0    0  0.18708768822E+02  0.50885136068E+02 -0.32668313566E+02  0.63297186468E+02  0.00000000000E+00 0.  1.
        -11    1    3    3    0    0 -0.27968667636E+02  0.21088329482E+02 -0.37952661928E+01  0.35233053447E+02  0.00000000000E+00 0. -1.
         11    1    3    3    0    0  0.25351268134E+02  0.50798753869E+00  0.86970417002E+02  0.90591380831E+02  0.00000000000E+00 0.  1.
         21    1    1    2  502  501  0.57905540308E+02 -0.11630233161E+03  0.10729360071E+03  0.16849688629E+03  0.00000000000E+00 0.  1.
<scales pt_clust_5="13000.00000" pt_clust_6="13000.00000" pt_clust_7="13000.00000" pt_clust_8="13000.00000" pt_clust_9="113.41229"></scales>
<clustering>
<clus scale="   91.404">  5  6 -1 -1</clus>
<clus scale="   91.872">  7  8 -1 -1</clus>
<clus scale="   94.412">  1  7  2 -1</clus>
<clus scale="  113.412">  1  9  2 -1</clus>
<clus scale="  145.661">  2  5  1 -1</clus>
</clustering>
</event>
<event>
 9    1  0.5300912E-006  0.1001649E+03  0.7546771E-02  0.1279962E+00
         -1   -1    0    0    0  501 -0.00000000000E+00  0.00000000000E+00  0.27072932652E+03  0.27072932652E+03  0.00000000000E+00 0.  1.
          1   -1    0    0  502    0  0.00000000000E+00 -0.00000000000E+00 -0.20228778011E+03  0.20228778011E+03  0.00000000000E+00 0. -1.
         23    2    1    2    0    0  0.57687014888E+01 -0.37478615032E+02  0.23757179499E+03  0.25787762904E+03  0.92857898317E+02 0.  0.
         23    2    1    2    0    0 -0.29709315571E+02  0.25663632728E+02 -0.15505036312E+03  0.18495686697E+03  0.92882517500E+02 0.  0.
        -11    1    4    4    0    0 -0.10361997274E+02 -0.34133551617E+02 -0.38127271277E+02  0.52212633993E+02  0.00000000000E+00 0.  1.
         11    1    4    4    0    0 -0.19347318297E+02  0.59797184345E+02 -0.11692309185E+03  0.13274423298E+03  0.00000000000E+00 0. -1.
        -13    1    3    3    0    0 -0.14146975197E+02  0.28155195710E+02  0.82594292624E+02  0.88400617231E+02  0.00000000000E+00 0. -1.
         13    1    3    3    0    0  0.19915676686E+02 -0.65633810741E+02  0.15497750237E+03  0.16947701181E+03  0.00000000000E+00 0.  1.
         21    1    1    2  502  501  0.23940614082E+02  0.11814982304E+02 -0.14079885462E+02  0.30182610624E+02  0.00000000000E+00 0. -1.
<scales pt_clust_5="13000.00000" pt_clust_6="13000.00000" pt_clust_7="13000.00000" pt_clust_8="13000.00000" pt_clust_9="26.69732"></scales>
<clustering>
<clus scale="   26.697">  2  9  1 -1</clus>
<clus scale="   92.858">  7  8 -1 -1</clus>
<clus scale="   92.883">  5  6 -1 -1</clus>
<clus scale="  100.142">  1  7  2 -1</clus>
<clus scale="   26.697">  2  5  1 -1</clus>
</clustering>
</event>
<event>
 9    1  0.5300912E-006  0.4143101E+03  0.7546771E-02  0.1082678E+00
         -2   -1    0    0    0  501 -0.00000000000E+00  0.00000000000E+00  0.29406265797E+03  0.29406265797E+03  0.00000000000E+00 0.  1.
          2   -1    0    0  502    0  0.00000000000E+00 -0.00000000000E+00 -0.86573861312E+03  0.86573861312E+03  0.00000000000E+00 0. -1.
         23    2    1    2    0    0 -0.70439326268E+02 -0.41208768775E+02 -0.30755950216E+02  0.12579107482E+03  0.90651005081E+02 0.  0.
         23    2    1    2    0    0  0.70281097039E+02  0.43157584653E+03 -0.12599450267E+03  0.46431760122E+03  0.92298841782E+02 0.  0.
        -13    1    3    3    0    0 -0.47700401858E+02  0.19289234910E+02 -0.32992639048E+02  0.61122149440E+02  0.00000000000E+00 0. -1.
         13    1    3    3    0    0 -0.22738924409E+02 -0.60498003684E+02  0.22366888319E+01  0.64668925382E+02  0.00000000000E+00 0.  1.
        -13    1    4    4    0    0  0.84286499746E+02  0.40358680168E+03 -0.13103638289E+03  0.43261652092E+03  0.00000000000E+00 0.  1.
         13    1    4    4    0    0 -0.14005402708E+02  0.27989044848E+02  0.50418802140E+01  0.31701080307E+02  0.00000000000E+00 0. -1.
         21    1    1    2  502  501  0.15822922903E+00 -0.39036707775E+03 -0.41492550226E+03  0.56969259505E+03  0.00000000000E+00 0. -1.
<scales pt_clust_5="13000.00000" pt_clust_6="13000.00000" pt_clust_7="13000.00000" pt_clust_8="13000.00000" pt_clust_9="403.89827"></scales>
<clustering>
<clus scale="   90.651">  5  6 -1 -1</clus>
<clus scale="   92.299">  7  8 -1 -1</clus>
<clus scale="  121.973">  1  5  2 -1</clus>
<clus scale="  403.898">  2  9  1 -1</clus>
<clus scale="  403.898">  2  5  1 -1</clus>
</clustering>
</event>
<event>
 9    1  0.5300912E-006  0.1753274E+03  0.7546771E-02  0.1178358E+00
         -1   -1    0    0    0  501 -0.00000000000E+00  0.00000000000E+00  0.11495671127E+03  0.11495671127E+03  0.00000000000E+00 0.  1.
          1   -1    0    0  502    0  0.00000000000E+00 -0.00000000000E+00 -0.55941071750E+03  0.55941071750E+03  0.00000000000E+00 0. -1.
         23    2    1    2    0    0  0.11814490552E+03  0.40602511918E+02 -0.10536105172E+03  0.18593185681E+03  0.88673115898E+02 0.  0.
         23    2    1    2    0    0 -0.10147506128E+03  0.12516206492E+03 -0.19776216278E+03  0.26996321368E+03  0.88360246478E+02 0.  0.
        -11    1    4    4    0    0 -0.50264453387E+02  0.11757694922E+03 -0.11301731357E+03  0.17065687043E+03  0.00000000000E+00 0. -1.
         11    1    4    4    0    0 -0.51210607889E+02  0.75851157040E+01 -0.84744849210E+02  0.99306343243E+02  0.00000000000E+00 0.  1.
        -13    1    3    3    0    0  0.49098009235E+02 -0.10112671667E+02  0.97671007978E-02  0.50128641857E+02  0.00000000000E+00 0.  1.
         13    1    3    3    0    0  0.69046896283E+02  0.50715183585E+02 -0.10537081882E+03  0.13580321495E+03  0.00000000000E+00 0. -1.
         21    1    1    2  502  501 -0.16669844241E+02 -0.16576457684E+03 -0.14133079173E+03  0.21847235828E+03  0.00000000000E+00 0.  1.
<scales pt_clust_5="13000.00000" pt_clust_6="13000.00000" pt_clust_7="13000.00000" pt_clust_8="13000.00000" pt_clust_9="151.43372"></scales>
<clustering>
<clus scale="   88.360">  5  6 -1 -1</clus>
<clus scale="   88.673">  7  8 -1 -1</clus>
<clus scale="  153.198">  1  7  2 -1</clus>
<clus scale="  151.434">  1  9  2 -1</clus>
<clus scale="  175.327">  2  5  1 -1</clus>
</clustering>
</event>
<event>
 9    1  0.5300912E-006  0.1861483E+03  0.7546771E-02  0.1192322E+00
         -2   -1    0    0    0  501 -0.00000000000E+00  0.00000000000E+00  0.45483341679E+03  0.45483341679E+03  0.00000000000E+00 0.  1.
          2   -1    0    0  502    0  0.00000000000E+00 -0.00000000000E+00 -0.16599589610E+03  0.16599589610E+03  0.00000000000E+00 0. -1.
         23    2    1    2    0    0 -0.11311200645E+03 -0.11110597434E+03  0.28619652006E+03  0.33983307490E+03  0.91865157493E+02 0.  0.
         23    2    1    2    0    0  0.43088715682E+01 -0.20325087236E+02 -0.44744943933E+02  0.10391525694E+03  0.91458160228E+02 0.  0.
        -11    1    3    3    0    0 -0.59689091810E+02 -0.19318206392E+02  0.17573904086E+03  0.18660169147E+03  0.00000000000E+00 0. -1.
         11    1    3    3    0    0 -0.53422914641E+02 -0.91787767952E+02  0.11045747921E+03  0.15323138343E+03  0.00000000000E+00 0.  1.
        -13    1    4    4    0    0 -0.36732489359E+02 -0.33916375912E+02 -0.29626581586E+02  0.58114805910E+02  0.00000000000E+00 0.  1.
         13    1    4    4    0    0  0.41041360927E+02  0.13591288676E+02 -0.15118362347E+02  0.45800451031E+02  0.00000000000E+00 0. -1.
         21    1    1    2  502  501  0.10880313488E+03  0.13143106158E+03  0.47385944556E+02  0.17708098105E+03  0.00000000000E+00 0. -1.
<scales pt_clust_5="13000.00000" pt_clust_6="13000.00000" pt_clust_7="13000.00000" pt_clust_8="13000.00000" pt_clust_9="161.90119"></scales>
<clustering>
<clus scale="   91.458">  7  8 -1 -1</clus>
<clus scale="   91.865">  5  6 -1 -1</clus>
<clus scale="   93.788">  2  7  1 -1</clus>
<clus scale="  161.901">  2  9  1 -1</clus>
<clus scale="   93.788">  2  5  1 -1</clus>
</clustering>
</event>
<event>
 9    1  0.5300912E-006  0.2255364E+03  0.7546771E-02  0.1159170E+00
          1   -1    0    0  502    0  0.00000000000E+00  0.00000000000E+00  0.46977170263E+03  0.46977170263E+03  0.00000000000E+00 0. -1.
         -1   -1    0    0    0  501 -0.00000000000E+00 -0.00000000000E+00 -0.33461644459E+03  0.33461644459E+03  0.00000000000E+00 0.  1.
         23    2    1    2    0    0 -0.18585586182E+03 -0.36070904214E+02 -0.13116864759E+03  0.24871876243E+03  0.93873836466E+02 0.  0.
         23    2    1    2    0    0 -0.50261104069E+02  0.42860401181E+02  0.29714020901E+03  0.31745317333E+03  0.90116706968E+02 0.  0.
        -11    1    3    3    0    0 -0.26142592132E+02  0.20753932612E+02  0.15642649976E+01  0.33415681457E+02  0.00000000000E+00 0. -1.
         11    1    3    3    0    0 -0.15971326968E+03 -0.56824836826E+02 -0.13273291259E+03  0.21530308097E+03  0.00000000000E+00 0.  1.
        -13    1    4    4    0    0 -0.37566693211E+02  0.71231224896E+02  0.22087358340E+03  0.23509632852E+03  0.00000000000E+00 0. -1.
         13    1    4    4    0    0 -0.12694410858E+02 -0.28370823714E+02  0.76266625607E+02  0.82356844808E+02  0.00000000000E+00 0.  1.
         21    1    1    2  502  501  0.23611696589E+03 -0.67894969670E+01 -0.30816303373E+02  0.23821621146E+03  0.00000000000E+00 0.  1.
<scales pt_clust_5="13000.00000" pt_clust_6="13000.00000" pt_clust_7="13000.00000" pt_clust_8="13000.00000" pt_clust_9="205.07161"></scales>
<clustering>
<clus scale="   90.117">  7  8 -1 -1</clus>
<clus scale="   93.874">  5  6 -1 -1</clus>
<clus scale="  111.733">  1  7  2 -1</clus>
<clus scale="  205.072">  1  9  2 -1</clus>
<clus scale="  111.733">  1  5  2 -1</clus>
</clustering>
</event>
<event>
 9    1  0.5300912E-006  0.4008888E+03  0.7546771E-02  0.1082966E+00
         -2   -1    0    0    0  501 -0.00000000000E+00  0.00000000000E+00  0.86430342355E+03  0.86430342355E+03  0.00000000000E+00 0.  1.
          2   -1    0    0  502    0  0.00000000000E+00 -0.00000000000E+00 -0.36104819805E+03  0.36104819805E+03  0.00000000000E+00 0. -1.
         23    2    1    2    0    0 -0.26943794431E+03  0.29110760613E+03  0.36822277717E+03  0.54893497402E+03  0.91657775993E+02 0.  0.
         23    2    1    2    0    0 -0.56194257143E+02 -0.77698032277E+02 -0.14474758698E+03  0.19698276790E+03  0.93035305971E+02 0.  0.
        -13    1    3    3    0    0 -0.20695587188E+03  0.20818251665E+03  0.32064768571E+03  0.43472477672E+03  0.00000000000E+00 0.  1.
         13    1    3    3    0    0 -0.62482072427E+02  0.82925089485E+02  0.47575091460E+02  0.11421019730E+03  0.00000000000E+00 0. -1.
        -13    1    4    4    0    0 -0.73919173187E+02 -0.26918866188E+02 -0.73050001387E+02  0.10735442340E+03  0.00000000000E+00 0.  1.
         13    1    4    4    0    0  0.17724916044E+02 -0.50779166089E+02 -0.71697585588E+02  0.89628344493E+02  0.00000000000E+00 0. -1.
         21    1    1    2  502  501  0.32563220145E+03 -0.21340957385E+03  0.27978003531E+03  0.47943387969E+03  0.00000000000E+00 0. -1.
<scales pt_clust_5="13000.00000" pt_clust_6="13000.00000" pt_clust_7="13000.00000" pt_clust_8="13000.00000" pt_clust_9="390.26997"></scales>
<clustering>
<clus scale="   91.658">  5  6 -1 -1</clus>
<clus scale="   93.035">  7  8 -1 -1</clus>
<clus scale="  133.605">  2  7  1 -1</clus>
<clus scale="  390.270">  2  9  1 -1</clus>
<clus scale="  133.605">  2  5  1 -1</clus>
</clustering>
</event>
<event>
 9    1  0.5300912E-006  0.9331612E+02  0.7546771E-02  0.1295481E+00
          1   -1    0    0  502    0  0.00000000000E+00  0.00000000000E+00  0.21501925624E+02  0.21501925624E+02  0.00000000000E+00 0. -1.
         -1   -1    0    0    0  501 -0.00000000000E+00 -0.00000000000E+00 -0.50647778886E+03  0.50647778886E+03  0.00000000000E+00 0.  1.
         23    2    1    2    0    0  0.23386875391E+01  0.19539416107E+02 -0.25406823399E+03  0.27092469190E+03  0.91990558851E+02 0.  0.
         23    2    1    2    0    0  0.14724016595E+02 -0.87718859490E+01 -0.19090316688E+03  0.21225064125E+03  0.91173312628E+02 0.  0.
        -13    1    3    3    0    0  0.38941328959E+02  0.78920399657E+01 -0.53106744896E+02  0.66325242174E+02  0.00000000000E+00 0.  1.
         13    1    3    3    0    0 -0.36602641420E+02  0.11647376142E+02 -0.20096148910E+03  0.20459944973E+03  0.00000000000E+00 0. -1.
        -13    1    4    4    0    0 -0.12585147847E+02 -0.43828879085E+02 -0.71049440631E+02  0.84423809451E+02  0.00000000000E+00 0. -1.
         13    1    4    4    0    0  0.27309164442E+02  0.35056993136E+02 -0.11985372625E+03  0.12782683179E+03  0.00000000000E+00 0.  1.
         21    1    1    2  502  501 -0.17062704134E+02 -0.10767530159E+02 -0.40004462357E+02  0.44804381332E+02  0.00000000000E+00 0.  1.
<scales pt_clust_5="13000.00000" pt_clust_6="13000.00000" pt_clust_7="13000.00000" pt_clust_8="13000.00000" pt_clust_9="20.17611"></scales>
<clustering>
<clus scale="   20.176">  1  9  2 -1</clus>
<clus scale="   91.173">  7  8 -1 -1</clus>
<clus scale="   91.991">  5  6 -1 -1</clus>
<clus scale="   92.511">  1  7  2 -1</clus>
<clus scale="   20.176">  1  5  2 -1</clus>
</clustering>
</event>
<event>
 9    1  0.5300912E-006  0.1270167E+03  0.7546771E-02  0.1235776E+00
          1   -1    0    0  502    0  0.00000000000E+00  0.00000000000E+00  0.24131912527E+03  0.24131912527E+03  0.00000000000E+00 0. -1.
         -1   -1    0    0    0  501 -0.00000000000E+00 -0.00000000000E+00 -0.15871996125E+03  0.15871996125E+03  0.00000000000E+00 0.  1.
         23    2    1    2    0    0 -0.64542832679E+02 -0.64659394398E+02 -0.97397645580E+02  0.15626716172E+03  0.81157315963E+02 0.  0.
         23    2    1    2    0    0  0.23914024032E+02  0.40623398466E+02  0.16173008952E+03  0.19315471177E+03  0.94498570230E+02 0.  0.
        -11    1    4    4    0    0  0.11458134329E+02 -0.26386300960E+02  0.88756339980E+02  0.93301734214E+02  0.00000000000E+00 0.  1.
         11    1    4    4    0    0  0.12455889703E+02  0.67009699426E+02  0.72973749537E+02  0.99852977557E+02  0.00000000000E+00 0. -1.
        -13    1    3    3    0    0 -0.92473162077E+01 -0.60082343709E+02 -0.74725457191E+02  0.96329096513E+02  0.00000000000E+00 0.  1.
         13    1    3    3    0    0 -0.55295516471E+02 -0.45770506896E+01 -0.22672188389E+02  0.59938065210E+02  0.00000000000E+00 0. -1.
         21    1    1    2  502  501  0.40628808647E+02  0.24035995932E+02  0.18266720079E+02  0.50617213031E+02  0.00000000000E+00 0. -1.
<scales pt_clust_5="13000.00000" pt_clust_6="13000.00000" pt_clust_7="13000.00000" pt_clust_8="13000.00000" pt_clust_9="47.20624"></scales>
<clustering>
<clus scale="   47.206">  1  9  2 -1</clus>
<clus scale="   81.157">  7  8 -1 -1</clus>
<clus scale="   94.499">  5  6 -1 -1</clus>
<clus scale="  117.430">  2  7  1 -1</clus>
<clus scale="   47.206">  1  5  2 -1</clus>
</clustering>
</event>
<event>
 9    1  0.5300912E-006  0.1123674E+03  0.7546771E-02  0.1259826E+00
          1   -1    0    0  502    0  0.00000000000E+00  0.00000000000E+00  0.94190437202E+02  0.94190437202E+02  0.00000000000E+00 0. -1.
         -1   -1    0    0    0  501 -0.00000000000E+00 -0.00000000000E+00 -0.17814189255E+03  0.17814189255E+03  0.00000000000E+00 0.  1.
         23    2    1    2    0    0 -0.71705179557E+02 -0.16894578881E+02 -0.83417893504E+02  0.13763070243E+03  0.80972870295E+02 0.  0.
         23    2    1    2    0    0  0.45505091738E+02  0.28888994117E+02  0.39318425631E+01  0.10554257323E+03  0.90655876940E+02 0.  0.
        -11    1    4    4    0    0 -0.23410901822E+02  0.27913461369E+02 -0.98514687240E+00  0.36444508010E+02  0.00000000000E+00 0.  1.
         11    1    4    4    0    0  0.68915993561E+02  0.97553274732E+00  0.49169894355E+01  0.69098065224E+02  0.00000000000E+00 0. -1.
        -13    1    3    3    0    0 -0.31411256920E+02 -0.11784649343E+02  0.10625121368E+02  0.35191451029E+02  0.00000000000E+00 0. -1.
         13    1    3    3    0    0 -0.40293922637E+02 -0.51099295380E+01 -0.94043014872E+02  0.10243925140E+03  0.00000000000E+00 0.  1.
         21    1    1    2  502  501  0.26200087818E+02 -0.11994415236E+02 -0.44654044026E+01  0.29159054083E+02  0.00000000000E+00 0.  1.
<scales pt_clust_5="13000.00000" pt_clust_6="13000.00000" pt_clust_7="13000.00000" pt_clust_8="13000.00000" pt_clust_9="28.81511"></scales>
<clustering>
<clus scale="   28.815">  1  9  2 -1</clus>
<clus scale="   80.973">  7  8 -1 -1</clus>
<clus scale="   90.656">  5  6 -1 -1</clus>
<clus scale="  104.712">  2  7  1 -1</clus>
<clus scale="   28.815">  1  5  2 -1</clus>
</clustering>
</event>
<event>
 9    1  0.5300912E-006  0.2071906E+03  0.7546771E-02  0.1170575E+00
         -1   -1    0    0    0  501 -0.00000000000E+00  0.00000000000E+00  0.10526659056E+03  0.10526659056E+03  0.00000000000E+00 0.  1.
          1   -1    0    0  502    0  0.00000000000E+00 -0.00000000000E+00 -0.63285573683E+03  0.63285573683E+03  0.00000000000E+00 0. -1.
         23    2    1    2    0    0  0.21340304502E+03 -0.19406891446E+02 -0.14585144689E+03  0.27499211096E+03  0.91817914754E+02 0.  0.
         23    2    1    2    0    0 -0.63145289497E+02  0.15257516355E+02 -0.14078366429E+03  0.17913469281E+03  0.89716657584E+02 0.  0.
        -11    1    3    3    0    0  0.16144733593E+03 -0.54526148092E+02 -0.10765446324E+03  0.20156345542E+03  0.00000000000E+00 0.  1.
         11    1    3    3    0    0  0.51955709092E+02  0.35119256646E+02 -0.38196983643E+02  0.73428655537E+02  0.00000000000E+00 0. -1.
        -13    1    4    4    0    0 -0.79837850536E+02  0.31369050655E+02 -0.96296498836E+02  0.12896168193E+03  0.00000000000E+00 0. -1.
         13    1    4    4    0    0  0.16692561039E+02 -0.16111534300E+02 -0.44487165452E+02  0.50173010887E+02  0.00000000000E+00 0.  1.
         21    1    1    2  502  501 -0.15025775553E+03  0.41493750902E+01 -0.24095403509E+03  0.28399552362E+03  0.00000000000E+00 0. -1.
<scales pt_clust_5="13000.00000" pt_clust_6="13000.00000" pt_clust_7="13000.00000" pt_clust_8="13000.00000" pt_clust_9="185.73478"></scales>
<clustering>
<clus scale="   89.717">  7  8 -1 -1</clus>
<clus scale="   91.818">  5  6 -1 -1</clus>
<clus scale="  110.766">  2  7  1 -1</clus>
<clus scale="  185.735">  2  9  1 -1</clus>
<clus scale="  110.766">  2  5  1 -1</clus>
</clustering>
</event>
<event>
 9    1  0.5300912E-006  0.2068957E+03  0.7546771E-02  0.1144411E+00
         -2   -1    0    0    0  501 -0.00000000000E+00  0.00000000000E+00  0.86985213823E+02  0.86985213823E+02  0.00000000000E+00 0.  1.
          2   -1    0    0  502    0  0.00000000000E+00 -0.00000000000E+00 -0.13845761775E+04  0.13845761775E+04  0.00000000000E+00 0. -1.
         23    2    1    2    0    0  0.14908164445E+03  0.17379234394E+03 -0.32360076068E+03  0.40755875283E+03  0.94644435507E+02 0.  0.
         23    2    1    2    0    0 -0.83001184722E+02 -0.15337788470E+03 -0.97521920210E+03  0.99482975546E+03  0.90662991498E+02 0.  0.
        -13    1    4    4    0    0  0.17296613278E+02 -0.47884012989E+02 -0.24050288719E+03  0.24583264689E+03  0.00000000000E+00 0.  1.
         13    1    4    4    0    0 -0.10029779800E+03 -0.10549387171E+03 -0.73471631491E+03  0.74899710857E+03  0.00000000000E+00 0. -1.
        -13    1    3    3    0    0  0.81297677385E+02  0.38017199563E+02 -0.78257474236E+02  0.11907498513E+03  0.00000000000E+00 0.  1.
         13    1    3    3    0    0  0.67783967065E+02  0.13577514438E+03 -0.24534328645E+03  0.28848376770E+03  0.00000000000E+00 0. -1.
         21    1    1    2  502  501 -0.66080459727E+02 -0.20414459235E+02  0.12289991333E+01  0.69172883000E+02  0.00000000000E+00 0. -1.
<scales pt_clust_5="13000.00000" pt_clust_6="13000.00000" pt_clust_7="13000.00000" pt_clust_8="13000.00000" pt_clust_9="69.16196"></scales>
<clustering>
<clus scale="   69.162">  1  9  2 -1</clus>
<clus scale="   90.663">  5  6 -1 -1</clus>
<clus scale="   94.644">  7  8 -1 -1</clus>
<clus scale="  205.105">  2  5  1 -1</clus>
<clus scale="  205.105">  2  5  1 -1</clus>
</clustering>
</event>
<event>
 9    1  0.5300912E-006  0.9844182E+02  0.7546771E-02  0.1284316E+00
          2   -1    0    0  502    0  0.00000000000E+00  0.00000000000E+00  0.11503774277E+04  0.11503774277E+04  0.00000000000E+00 0. -1.
         -2   -1    0    0    0  501 -0.00000000000E+00 -0.00000000000E+00 -0.20527615045E+02  0.20527615045E+02  0.00000000000E+00 0.  1.
         23    2    1    2    0    0  0.28906097148E+02 -0.39904118293E+02  0.27773922679E+03  0.29588915089E+03  0.89349932343E+02 0.  0.
         23    2    1    2    0    0  0.55662225111E+02  0.34547337419E+02  0.41917416799E+03  0.43386462737E+03  0.90772958228E+02 0.  0.
        -11    1    4    4    0    0  0.20753914664E+02  0.62683042461E+02  0.27839562800E+03  0.28611888172E+03  0.00000000000E+00 0.  1.
         11    1    4    4    0    0  0.34908310447E+02 -0.28135705042E+02  0.14077853999E+03  0.14774574565E+03  0.00000000000E+00 0. -1.
        -13    1    3    3    0    0 -0.10079774485E+02  0.23314786448E+02  0.10167610600E+03  0.10480081895E+03  0.00000000000E+00 0.  1.
         13    1    3    3    0    0  0.38985871633E+02 -0.63218904741E+02  0.17606312079E+03  0.19108833195E+03  0.00000000000E+00 0. -1.
         21    1    1    2  502  501 -0.84568322259E+02  0.53567808742E+01  0.43293641785E+03  0.44115126446E+03  0.00000000000E+00 0. -1.
<scales pt_clust_5="13000.00000" pt_clust_6="13000.00000" pt_clust_7="13000.00000" pt_clust_8="13000.00000" pt_clust_9="84.73781"></scales>
<clustering>
<clus scale="   84.738">  1  9  2 -1</clus>
<clus scale="   89.350">  7  8 -1 -1</clus>
<clus scale="   90.773">  5  6 -1 -1</clus>
<clus scale="   97.131">  2  7  1 -1</clus>
<clus scale="   84.738">  1  5  2 -1</clus>
</clustering>
</event>
<event>
 9    1  0.5300912E-006  0.1359574E+03  0.7546771E-02  0.1219276E+00
         -1   -1    0    0    0  501 -0.00000000000E+00  0.00000000000E+00  0.91471504747E+02  0.91471504747E+02  0.00000000000E+00 0.  1.
          1   -1    0    0  502    0  0.00000000000E+00 -0.00000000000E+00 -0.75861042714E+03  0.75861042714E+03  0.00000000000E+00 0. -1.
         23    2    1    2    0    0  0.49201916487E+02  0.50420144668E+02 -0.89439633183E+02  0.14556240960E+03  0.90697009492E+02 0.  0.
         23    2    1    2    0    0 -0.14363782633E+03 -0.17306317588E+02 -0.64542169856E+02  0.18169555979E+03  0.88973316102E+02 0.  0.
        -13    1    4    4    0    0 -0.12950401130E+03  0.18301091536E+02 -0.56895129181E+02  0.14262985178E+03  0.00000000000E+00 0. -1.
         13    1    4    4    0    0 -0.14133815033E+02 -0.35607409124E+02 -0.76470406747E+01  0.39065708018E+02  0.00000000000E+00 0.  1.
        -13    1    3    3    0    0 -0.25724461526E+02  0.96121854947E+01 -0.34458383135E+02  0.44062707577E+02  0.00000000000E+00 0.  1.
         13    1    3    3    0    0  0.74926378014E+02  0.40807959174E+02 -0.54981250049E+02  0.10149970202E+03  0.00000000000E+00 0. -1.
         21    1    1    2  502  501  0.94435909841E+02 -0.33113827081E+02 -0.51315711935E+03  0.52282396249E+03  0.00000000000E+00 0. -1.
<scales pt_clust_5="13000.00000" pt_clust_6="13000.00000" pt_clust_7="13000.00000" pt_clust_8="13000.00000" pt_clust_9="100.07331"></scales>
<clustering>
<clus scale="   88.973">  5  6 -1 -1</clus>
<clus scale="   90.697">  7  8 -1 -1</clus>
<clus scale="  100.073">  2  9  1 -1</clus>
<clus scale="  134.814">  2  5  1 -1</clus>
<clus scale="  100.073">  2  5  1 -1</clus>
</clustering>
</event>
<event>
 9    1  0.5300912E-006  0.2174058E+03  0.7546771E-02  0.1163853E+00
          2   -1    0    0  502    0  0.00000000000E+00  0.00000000000E+00  0.12732113079E+04  0.12732113079E+04  0.00000000000E+00 0. -1.
         -2   -1    0    0    0  501 -0.00000000000E+00 -0.00000000000E+00 -0.72682581403E+02  0.72682581403E+02  0.00000000000E+00 0.  1.
         23    2    1    2    0    0  0.20228510033E+02  0.63631365600E+02  0.48813025144E+02  0.12207768643E+03  0.89789235398E+02 0.  0.
         23    2    1    2    0    0 -0.19200509784E+02  0.15024060992E+03  0.62635256264E+03  0.65658723129E+03  0.12589026617E+03 0.  0.
        -13    1    3    3    0    0  0.36654035711E+02  0.80251331751E+02  0.42161466208E+02  0.97782328744E+02  0.00000000000E+00 0.  1.
         13    1    3    3    0    0 -0.16425525678E+02 -0.16619966151E+02  0.66515589365E+01  0.24295357683E+02  0.00000000000E+00 0. -1.
        -13    1    4    4    0    0 -0.52890439059E+02  0.10455395609E+03  0.54458409712E+03  0.55704646765E+03  0.00000000000E+00 0.  1.
         13    1    4    4    0    0  0.33689929275E+02  0.45686653830E+02  0.81768465519E+02  0.99540763640E+02  0.00000000000E+00 0. -1.
         21    1    1    2  502  501 -0.10280002497E+01 -0.21387197552E+03  0.52536313872E+03  0.56722897159E+03  0.00000000000E+00 0. -1.
<scales pt_clust_5="13000.00000" pt_clust_6="13000.00000" pt_clust_7="13000.00000" pt_clust_8="13000.00000" pt_clust_9="177.24817"></scales>
<clustering>
<clus scale="   89.789">  5  6 -1 -1</clus>
<clus scale="  111.894">  2  5  1 -1</clus>
<clus scale="  125.890">  7  8 -1 -1</clus>
<clus scale="  177.248">  2  9  1 -1</clus>
<clus scale="  217.406">  1  5  2 -1</clus>
</clustering>
</event>
<event>
 9    1  0.5300912E-006  0.9218958E+02  0.7546771E-02  0.1298445E+00
          1   -1    0    0  502    0  0.00000000000E+00  0.00000000000E+00  0.14096875655E+03  0.14096875655E+03  0.00000000000E+00 0. -1.
         -1   -1    0    0    0  501 -0.00000000000E+00 -0.00000000000E+00 -0.13413695647E+03  0.13413695647E+03  0.00000000000E+00 0.  1.
         23    2    1    2    0    0  0.26395920254E+01 -0.56877994393E+01 -0.52440715790E+02  0.10463127154E+03  0.90323617088E+02 0.  0.
         23    2    1    2    0    0  0.31291039096E+02 -0.35965711415E+02  0.23686756561E+02  0.10603339119E+03  0.91702541329E+02 0.  0.
        -11    1    3    3    0    0  0.31089475922E+02 -0.20805275214E+02 -0.60764445892E+02  0.71356379353E+02  0.00000000000E+00 0.  1.
         11    1    3    3    0    0 -0.28449883896E+02  0.15117475775E+02  0.83237301019E+01  0.33274892191E+02  0.00000000000E+00 0. -1.
        -13    1    4    4    0    0 -0.39204475267E+01 -0.40402380132E+02  0.48113751422E+02  0.62949625138E+02  0.00000000000E+00 0. -1.
         13    1    4    4    0    0  0.35211486623E+02  0.44366687177E+01 -0.24426994860E+02  0.43083766054E+02  0.00000000000E+00 0.  1.
         21    1    1    2  502  501 -0.33930631122E+02  0.41653510854E+02  0.35585759308E+02  0.64441050273E+02  0.00000000000E+00 0. -1.
<scales pt_clust_5="13000.00000" pt_clust_6="13000.00000" pt_clust_7="13000.00000" pt_clust_8="13000.00000" pt_clust_9="53.72432"></scales>
<clustering>
<clus scale="   53.724">  1  9  2 -1</clus>
<clus scale="   90.324">  5  6 -1 -1</clus>
<clus scale="   90.818">  2  5  1 -1</clus>
<clus scale="   91.703">  7  8 -1 -1</clus>
<clus scale="   53.724">  1  5  2 -1</clus>
</clustering>
</event>
<event>
 9    1  0.5300912E-006  0.9327717E+02  0.7546771E-02  0.1295812E+00
         -1   -1    0    0    0  501 -0.00000000000E+00  0.00000000000E+00  0.10896429250E+03  0.10896429250E+03  0.00000000000E+00 0.  1.
          1   -1    0    0  502    0  0.00000000000E+00 -0.00000000000E+00 -0.14223708700E+03  0.14223708700E+03  0.00000000000E+00 0. -1.
         23    2    1    2    0    0  0.22120038295E+01  0.12565232290E+02  0.35750389387E+02  0.99516532219E+02  0.91992781348E+02 0.  0.
         23    2    1    2    0    0 -0.56911875152E+01  0.24965165582E+02 -0.42489872256E+02  0.10559089856E+03  0.93211584611E+02 0.  0.
        -13    1    4    4    0    0  0.34326026124E+02  0.32615404406E+02 -0.88317664727E+00  0.47358427709E+02  0.00000000000E+00 0.  1.
         13    1    4    4    0    0 -0.40017213640E+02 -0.76502388241E+01 -0.41606695609E+02  0.58232470848E+02  0.00000000000E+00 0. -1.
        -13    1    3    3    0    0  0.11782770796E+02  0.50874886841E+02  0.12514106233E+02  0.53700006085E+02  0.00000000000E+00 0. -1.
         13    1    3    3    0    0 -0.95707669666E+01 -0.38309654551E+02  0.23236283154E+02  0.45816526134E+02  0.00000000000E+00 0.  1.
         21    1    1    2  502  501  0.34791836857E+01 -0.37530397872E+02 -0.26533311627E+02  0.46093948729E+02  0.00000000000E+00 0.  1.
<scales pt_clust_5="13000.00000" pt_clust_6="13000.00000" pt_clust_7="13000.00000" pt_clust_8="13000.00000" pt_clust_9="37.69132"></scales>
<clustering>
<clus scale="   37.691">  2  9  1 -1</clus>
<clus scale="   91.993">  7  8 -1 -1</clus>
<clus scale="   92.059">  1  7  2 -1</clus>
<clus scale="   93.212">  5  6 -1 -1</clus>
<clus scale="   37.691">  2  5  1 -1</clus>
</clustering>
</event>
<event>
 9    1  0.5300912E-006  0.1219811E+03  0.7546771E-02  0.1240724E+00
         -1   -1    0    0    0  501 -0.00000000000E+00  0.00000000000E+00  0.32728479623E+03  0.32728479623E+03  0.00000000000E+00 0.  1.
          1   -1    0    0  502    0  0.00000000000E+00 -0.00000000000E+00 -0.88025211583E+02  0.88025211583E+02  0.00000000000E+00 0. -1.
         23    2    1    2    0    0  0.12144693748E+03 -0.29993725925E+01  0.91853261006E+02  0.17899126701E+03  0.94034553484E+02 0.  0.
         23    2    1    2    0    0 -0.44068062565E+02  0.22103871917E+02  0.69540026105E+02  0.12489328379E+03  0.91279470930E+02 0.  0.
        -11    1    3    3    0    0  0.23280477500E+02  0.12123852747E+02  0.73419732541E+02  0.77970671182E+02  0.00000000000E+00 0.  1.
         11    1    3    3    0    0  0.98166459983E+02 -0.15123225340E+02  0.18433528465E+02  0.10102059583E+03  0.00000000000E+00 0. -1.
        -13    1    4    4    0    0 -0.23976055337E+02  0.42528782197E+02  0.80557720431E+02  0.94197106461E+02  0.00000000000E+00 0.  1.
         13    1    4    4    0    0 -0.20092007228E+02 -0.20424910279E+02 -0.11017694325E+02  0.30696177329E+02  0.00000000000E+00 0. -1.
         21    1    1    2  502  501 -0.77378874917E+02 -0.19104499325E+02  0.77866297531E+02  0.11142545701E+03  0.00000000000E+00 0.  1.
<scales pt_clust_5="13000.00000" pt_clust_6="13000.00000" pt_clust_7="13000.00000" pt_clust_8="13000.00000" pt_clust_9="79.70240"></scales>
<clustering>
<clus scale="   79.702">  1  9  2 -1</clus>
<clus scale="   91.279">  7  8 -1 -1</clus>
<clus scale="   94.035">  5  6 -1 -1</clus>
<clus scale="  119.870">  2  7  1 -1</clus>
<clus scale="  119.870">  2  5  1 -1</clus>
</clustering>
</event>
<event>
 9    1  0.5300912E-006  0.2078232E+03  0.7546771E-02  0.1155258E+00
          1   -1    0    0  502    0  0.00000000000E+00  0.00000000000E+00  0.86784485012E+03  0.86784485012E+03  0.00000000000E+00 0. -1.
         -1   -1    0    0    0  501 -0.00000000000E+00 -0.00000000000E+00 -0.14202740247E+03  0.14202740247E+03  0.00000000000E+00 0.  1.
         23    2    1    2    0    0  0.12647790813E+03  0.99493805028E+01  0.10348824785E+03  0.18761815924E+03  0.91624804591E+02 0.  0.
         23    2    1    2    0    0 -0.22995984126E+03 -0.14876770557E+03  0.16305523572E+03  0.33142661659E+03  0.90792254499E+02 0.  0.
        -11    1    4    4    0    0 -0.79538438284E+02 -0.10047809506E+03  0.51908024229E+02  0.13826298757E+03  0.00000000000E+00 0.  1.
         11    1    4    4    0    0 -0.15042140297E+03 -0.48289610512E+02  0.11114721149E+03  0.19316362902E+03  0.00000000000E+00 0. -1.
        -11    1    3    3    0    0  0.49246611244E+02 -0.40694094703E+02  0.47617118340E+02  0.79678278230E+02  0.00000000000E+00 0.  1.
         11    1    3    3    0    0  0.77231296890E+02  0.50643475206E+02  0.55871129509E+02  0.10793988101E+03  0.00000000000E+00 0. -1.
         21    1    1    2  502  501  0.10348193312E+03  0.13881832507E+03  0.45927396409E+03  0.49082747676E+03  0.00000000000E+00 0. -1.
<scales pt_clust_5="13000.00000" pt_clust_6="13000.00000" pt_clust_7="13000.00000" pt_clust_8="13000.00000" pt_clust_9="186.94188"></scales>
<clustering>
<clus scale="   90.792">  5  6 -1 -1</clus>
<clus scale="   91.625">  7  8 -1 -1</clus>
<clus scale="  156.495">  2  7  1 -1</clus>
<clus scale="  186.942">  1  9  2 -1</clus>
<clus scale="  186.942">  1  5  2 -1</clus>
</clustering>
</event>
<event>
 9    1  0.5300912E-006  0.1089507E+03  0.7546771E-02  0.1264208E+00
         -1   -1    0    0    0  501 -0.00000000000E+00  0.00000000000E+00  0.37462382745E+03  0.37462382745E+03  0.00000000000E+00 0.  1.
          1   -1    0    0  502    0  0.00000000000E+00 -0.00000000000E+00 -0.99376201355E+02  0.99376201355E+02  0.00000000000E+00 0. -1.
         23    2    1    2    0    0 -0.59878360003E+01 -0.31941013176E+02  0.17175978891E+03  0.19502366520E+03  0.86468042654E+02 0.  0.
         23    2    1    2    0    0  0.61484054369E+02  0.30854709614E+02 -0.43475130705E+02  0.12188045583E+03  0.90732885303E+02 0.  0.
        -13    1    3    3    0    0 -0.29838551517E+02 -0.39040135884E+02  0.16023458984E+03  0.16759950820E+03  0.00000000000E+00 0.  1.
         13    1    3    3    0    0  0.23850715516E+02  0.70991227082E+01  0.11525199067E+02  0.27424157004E+02  0.00000000000E+00 0. -1.
        -13    1    4    4    0    0  0.62142834294E+02 -0.18042751770E+02 -0.28760430066E+02  0.70812676006E+02  0.00000000000E+00 0. -1.
         13    1    4    4    0    0 -0.65877992490E+00  0.48897461384E+02 -0.14714700639E+02  0.51067779820E+02  0.00000000000E+00 0.  1.
         21    1    1    2  502  501 -0.55496218369E+02  0.10863035617E+01  0.14696296789E+03  0.15709590777E+03  0.00000000000E+00 0. -1.
<scales pt_clust_5="13000.00000" pt_clust_6="13000.00000" pt_clust_7="13000.00000" pt_clust_8="13000.00000" pt_clust_9="55.50685"></scales>
<clustering>
<clus scale="   55.507">  1  9  2 -1</clus>
<clus scale="   86.468">  5  6 -1 -1</clus>
<clus scale="   90.733">  7  8 -1 -1</clus>
<clus scale="  105.425">  1  5  2 -1</clus>
<clus scale="  108.951">  2  5  1 -1</clus>
</clustering>
</event>
<event>
 9    1  0.5300912E-006  0.1531890E+03  0.7546771E-02  0.1215594E+00
          2   -1    0    0  502    0  0.00000000000E+00  0.00000000000E+00  0.15280749871E+03  0.15280749871E+03  0.00000000000E+00 0. -1.
         -2   -1    0    0    0  501 -0.00000000000E+00 -0.00000000000E+00 -0.37984785108E+03  0.37984785108E+03  0.00000000000E+00 0.  1.
         23    2    1    2    0    0 -0.15959804310E+02 -0.43195962861E+02 -0.78806748411E+02  0.12878320431E+03  0.90851546802E+02 0.  0.
         23    2    1    2    0    0 -0.90358798365E+02  0.88897373974E+02  0.58813100189E+02  0.16667897114E+03  0.90859469097E+02 0.  0.
        -11    1    3    3    0    0  0.29067324058E+02 -0.40018384521E+01  0.71249037488E+00  0.29350156412E+02  0.00000000000E+00 0.  1.
         11    1    3    3    0    0 -0.45027128368E+02 -0.39194124409E+02 -0.79519238786E+02  0.99433047898E+02  0.00000000000E+00 0. -1.
        -13    1    4    4    0    0 -0.13948889062E+02 -0.15182322688E+02 -0.69788398149E+01  0.21766456612E+02  0.00000000000E+00 0.  1.
         13    1    4    4    0    0 -0.76409909302E+02  0.10407969666E+03  0.65791940004E+02  0.14491251453E+03  0.00000000000E+00 0. -1.
         21    1    1    2  502  501  0.10631860267E+03 -0.45701411113E+02 -0.20704670415E+03  0.23719317434E+03  0.00000000000E+00 0.  1.
<scales pt_clust_5="13000.00000" pt_clust_6="13000.00000" pt_clust_7="13000.00000" pt_clust_8="13000.00000" pt_clust_9="123.33465"></scales>
<clustering>
<clus scale="   90.852">  5  6 -1 -1</clus>
<clus scale="   90.859">  7  8 -1 -1</clus>
<clus scale="  101.856">  2  5  1 -1</clus>
<clus scale="  123.335">  2  9  1 -1</clus>
<clus scale="  153.189">  1  5  2 -1</clus>
</clustering>
</event>
<event>
 9    1  0.5300912E-006  0.9805983E+02  0.7546771E-02  0.1288802E+00
          1   -1    0    0  502    0  0.00000000000E+00  0.00000000000E+00  0.32932379755E+03  0.32932379755E+03  0.00000000000E+00 0. -1.
         -1   -1    0    0    0  501 -0.00000000000E+00 -0.00000000000E+00 -0.19766512156E+03  0.19766512156E+03  0.00000000000E+00 0.  1.
         23    2    1    2    0    0 -0.34323648137E+02  0.11972734475E+02 -0.14398645123E+03  0.17615195921E+03  0.94741518898E+02 0.  0.
         23    2    1    2    0    0 -0.36066575510E+02 -0.20492857078E+02  0.38866392435E+02  0.10366992060E+03  0.86695449224E+02 0.  0.
        -11    1    3    3    0    0 -0.15701818646E+02  0.33450907691E+02 -0.14301141856E+03  0.14770841606E+03  0.00000000000E+00 0.  1.
         11    1    3    3    0    0 -0.18621829491E+02 -0.21478173216E+02 -0.97503266406E+00  0.28443543151E+02  0.00000000000E+00 0. -1.
        -13    1    4    4    0    0 -0.13440586616E+02  0.33145770480E+02  0.44522663433E+01  0.36043226061E+02  0.00000000000E+00 0.  1.
         13    1    4    4    0    0 -0.22625988894E+02 -0.53638627558E+02  0.34414126092E+02  0.67626694540E+02  0.00000000000E+00 0. -1.
         21    1    1    2  502  501  0.70390223647E+02  0.85201226031E+01  0.23677873478E+03  0.24716703931E+03  0.00000000000E+00 0. -1.
<scales pt_clust_5="13000.00000" pt_clust_6="13000.00000" pt_clust_7="13000.00000" pt_clust_8="13000.00000" pt_clust_9="70.90399"></scales>
<clustering>
<clus scale="   70.904">  1  9  2 -1</clus>
<clus scale="   86.695">  7  8 -1 -1</clus>
<clus scale="   90.310">  1  7  2 -1</clus>
<clus scale="   94.742">  5  6 -1 -1</clus>
<clus scale="   70.904">  1  5  2 -1</clus>
</clustering>
</event>
<event>
 9    1  0.5300912E-006  0.1103585E+03  0.7546771E-02  0.1260890E+00
         -1   -1    0    0    0  501 -0.00000000000E+00  0.00000000000E+00  0.64726957505E+02  0.64726957505E+02  0.00000000000E+00 0.  1.
          1   -1    0    0  502    0  0.00000000000E+00 -0.00000000000E+00 -0.31876882431E+03  0.31876882431E+03  0.00000000000E+00 0. -1.
         23    2    1    2    0    0 -0.37479679428E+02 -0.36839172946E+01 -0.79156688240E+02  0.12786287162E+03  0.93085095636E+02 0.  0.
         23    2    1    2    0    0  0.81734721420E+02  0.40498639545E+02 -0.11358812999E+03  0.17154271647E+03  0.90575580648E+02 0.  0.
        -13    1    3    3    0    0  0.12269994267E+02  0.31223065495E+02 -0.83888339413E+01  0.34580415167E+02  0.00000000000E+00 0.  1.
         13    1    3    3    0    0 -0.49749673695E+02 -0.34906982789E+02 -0.70767854299E+02  0.93282456455E+02  0.00000000000E+00 0. -1.
        -13    1    4    4    0    0  0.46010270380E+02  0.51261000783E+02 -0.11517230557E+03  0.13419871516E+03  0.00000000000E+00 0. -1.
         13    1    4    4    0    0  0.35724451040E+02 -0.10762361239E+02  0.15841755774E+01  0.37344001309E+02  0.00000000000E+00 0.  1.
         21    1    1    2  502  501 -0.44255041992E+02 -0.36814722250E+02 -0.61297048575E+02  0.84090193721E+02  0.00000000000E+00 0.  1.
<scales pt_clust_5="13000.00000" pt_clust_6="13000.00000" pt_clust_7="13000.00000" pt_clust_8="13000.00000" pt_clust_9="57.56590"></scales>
<clustering>
<clus scale="   57.566">  2  9  1 -1</clus>
<clus scale="   90.576">  7  8 -1 -1</clus>
<clus scale="   93.085">  5  6 -1 -1</clus>
<clus scale="  108.250">  2  7  1 -1</clus>
<clus scale="   57.566">  2  5  1 -1</clus>
</clustering>
</event>
<event>
 9    1  0.5300912E-006  0.1218211E+03  0.7546771E-02  0.1242492E+00
          3   -1    0    0  502    0  0.00000000000E+00  0.00000000000E+00  0.18722231234E+03  0.18722231234E+03  0.00000000000E+00 0. -1.
         -3   -1    0    0    0  501 -0.00000000000E+00 -0.00000000000E+00 -0.90891418490E+02  0.90891418490E+02  0.00000000000E+00 0.  1.
         23    2    1    2    0    0  0.18270863394E+02  0.59473720382E+02  0.33151364532E+02  0.11463310421E+03  0.90392409779E+02 0.  0.
         23    2    1    2    0    0 -0.25041447080E+02 -0.79705615648E+02  0.60354133627E+02  0.14195963105E+03  0.97620982198E+02 0.  0.
        -11    1    3    3    0    0  0.46160593758E+02  0.25025374653E+01  0.16071186720E+02  0.48942273674E+02  0.00000000000E+00 0. -1.
         11    1    3    3    0    0 -0.27889730363E+02  0.56971182917E+02  0.17080177812E+02  0.65690830538E+02  0.00000000000E+00 0.  1.
        -13    1    4    4    0    0 -0.29940306284E+02 -0.90265999839E+01 -0.18194765254E+02  0.36179426893E+02  0.00000000000E+00 0.  1.
         13    1    4    4    0    0  0.48988592046E+01 -0.70679015664E+02  0.78548898881E+02  0.10578020416E+03  0.00000000000E+00 0. -1.
         21    1    1    2  502  501  0.67705836851E+01  0.20231895266E+02  0.28253956950E+01  0.21520995570E+02  0.00000000000E+00 0.  1.
<scales pt_clust_5="13000.00000" pt_clust_6="13000.00000" pt_clust_7="13000.00000" pt_clust_8="13000.00000" pt_clust_9="21.33472"></scales>
<clustering>
<clus scale="   21.335">  2  9  1 -1</clus>
<clus scale="   90.392">  5  6 -1 -1</clus>
<clus scale="   97.621">  7  8 -1 -1</clus>
<clus scale="  116.109">  2  5  1 -1</clus>
<clus scale="  121.821">  1  5  2 -1</clus>
</clustering>
</event>
<event>
 9    1  0.5300912E-006  0.1183990E+03  0.7546771E-02  0.1251615E+00
         -2   -1    0    0    0  501 -0.00000000000E+00  0.00000000000E+00  0.82814063537E+02  0.82814063537E+02  0.00000000000E+00 0.  1.
          2   -1    0    0  502    0  0.00000000000E+00 -0.00000000000E+00 -0.37804639741E+03  0.37804639741E+03  0.00000000000E+00 0. -1.
         23    2    1    2    0    0  0.18825633574E+02  0.25800254401E+02  0.14868650012E+02  0.99248167899E+02  0.92785044438E+02 0.  0.
         23    2    1    2    0    0 -0.23325499035E+02 -0.47958618067E+02 -0.31621272287E+03  0.33819018335E+03  0.10741511094E+03 0.  0.
        -11    1    4    4    0    0  0.35538744405E+02 -0.39603526157E+01 -0.17899335537E+03  0.18253029341E+03  0.00000000000E+00 0. -1.
         11    1    4    4    0    0 -0.58864243440E+02 -0.43998265451E+02 -0.13721936750E+03  0.15565988994E+03  0.00000000000E+00 0.  1.
        -11    1    3    3    0    0  0.41015547465E+02  0.39531158280E+01  0.41346439811E+02  0.58373198847E+02  0.00000000000E+00 0. -1.
         11    1    3    3    0    0 -0.22189913891E+02  0.21847138573E+02 -0.26477789799E+02  0.40874969051E+02  0.00000000000E+00 0.  1.
         21    1    1    2  502  501  0.44998654614E+01  0.22158363666E+02  0.61117389811E+01  0.23422109702E+02  0.00000000000E+00 0. -1.
<scales pt_clust_5="13000.00000" pt_clust_6="13000.00000" pt_clust_7="13000.00000" pt_clust_8="13000.00000" pt_clust_9="22.61066"></scales>
<clustering>
<clus scale="   22.611">  1  9  2 -1</clus>
<clus scale="   92.785">  7  8 -1 -1</clus>
<clus scale="  105.306">  1  7  2 -1</clus>
<clus scale="  107.415">  5  6 -1 -1</clus>
<clus scale="  118.399">  2  5  1 -1</clus>
</clustering>
</event>
<event>
 9    1  0.5300912E-006  0.9614378E+02  0.7546771E-02  0.1289529E+00
          1   -1    0    0  502    0  0.00000000000E+00  0.00000000000E+00  0.41187252125E+02  0.41187252125E+02  0.00000000000E+00 0. -1.
         -1   -1    0    0    0  501 -0.00000000000E+00 -0.00000000000E+00 -0.54943453551E+03  0.54943453551E+03  0.00000000000E+00 0.  1.
         23    2    1    2    0    0  0.17718982758E+02 -0.66562447647E+01 -0.37911732938E+03  0.39119424786E+03  0.94576541368E+02 0.  0.
         23    2    1    2    0    0  0.15186739355E+02  0.39863488083E+02 -0.69393747412E+02  0.12357292927E+03  0.92924926337E+02 0.  0.
        -11    1    3    3    0    0 -0.15905582161E+02 -0.40933684599E+02 -0.12275151886E+03  0.13037058511E+03  0.00000000000E+00 0.  1.
         11    1    3    3    0    0  0.33624564919E+02  0.34277439835E+02 -0.25636581052E+03  0.26082366275E+03  0.00000000000E+00 0. -1.
        -13    1    4    4    0    0  0.45104545180E+02  0.52863718272E+02 -0.44205175052E+02  0.82359518010E+02  0.00000000000E+00 0. -1.
         13    1    4    4    0    0 -0.29917805825E+02 -0.13000230189E+02 -0.25188572360E+02  0.41213411263E+02  0.00000000000E+00 0.  1.
         21    1    1    2  502  501 -0.32905722113E+02 -0.33207243319E+02 -0.59736206590E+02  0.75854610502E+02  0.00000000000E+00 0.  1.
<scales pt_clust_5="13000.00000" pt_clust_6="13000.00000" pt_clust_7="13000.00000" pt_clust_8="13000.00000" pt_clust_9="46.74941"></scales>
<clustering>
<clus scale="   46.749">  1  9  2 -1</clus>
<clus scale="   92.925">  7  8 -1 -1</clus>
<clus scale="   94.520">  1  7  2 -1</clus>
<clus scale="   94.577">  5  6 -1 -1</clus>
<clus scale="   46.749">  1  5  2 -1</clus>
</clustering>
</event>
<event>
 9    1  0.5300912E-006  0.1676484E+03  0.7546771E-02  0.1205664E+00
         -2   -1    0    0    0  501 -0.00000000000E+00  0.00000000000E+00  0.20756224409E+03  0.20756224409E+03  0.00000000000E+00 0.  1.
          2   -1    0    0  502    0  0.00000000000E+00 -0.00000000000E+00 -0.23349034784E+03  0.23349034784E+03  0.00000000000E+00 0. -1.
         23    2    1    2    0    0 -0.11153330638E+03  0.53955162887E+02 -0.72590274261E+02  0.16540451373E+03  0.82088167305E+02 0.  0.
         23    2    1    2    0    0 -0.33169077006E+02  0.21372594526E+01 -0.32550423541E+02  0.10140751273E+03  0.90106592530E+02 0.  0.
        -11    1    3    3    0    0 -0.11571148945E+03  0.24192131773E+02 -0.62380920525E+02  0.13366296149E+03  0.00000000000E+00 0.  1.
         11    1    3    3    0    0  0.41781830667E+01  0.29763031114E+02 -0.10209353736E+02  0.31741552239E+02  0.00000000000E+00 0. -1.
        -13    1    4    4    0    0 -0.22558602571E+02 -0.32653966710E+02 -0.47659548569E+02  0.62021001779E+02  0.00000000000E+00 0.  1.
         13    1    4    4    0    0 -0.10610474435E+02  0.34791226162E+02  0.15109125028E+02  0.39386510949E+02  0.00000000000E+00 0. -1.
         21    1    1    2  502  501  0.14470238339E+03 -0.56092422339E+02  0.79212594052E+02  0.17424056548E+03  0.00000000000E+00 0.  1.
<scales pt_clust_5="13000.00000" pt_clust_6="13000.00000" pt_clust_7="13000.00000" pt_clust_8="13000.00000" pt_clust_9="146.17634"></scales>
<clustering>
<clus scale="   82.088">  5  6 -1 -1</clus>
<clus scale="   90.107">  7  8 -1 -1</clus>
<clus scale="   96.041">  2  7  1 -1</clus>
<clus scale="  146.176">  1  9  2 -1</clus>
<clus scale="   96.041">  2  5  1 -1</clus>
</clustering>
</event>
<event>
 9    1  0.5300912E-006  0.1074780E+03  0.7546771E-02  0.1266545E+00
          2   -1    0    0  502    0  0.00000000000E+00  0.00000000000E+00  0.10822284010E+03  0.10822284010E+03  0.00000000000E+00 0. -1.
         -2   -1    0    0    0  501 -0.00000000000E+00 -0.00000000000E+00 -0.13205869559E+03  0.13205869559E+03  0.00000000000E+00 0.  1.
         23    2    1    2    0    0  0.42372928523E+02 -0.46762925372E+02 -0.26432934037E+02  0.11078968874E+03  0.87140225319E+02 0.  0.
         23    2    1    2    0    0 -0.18968476513E+02  0.51470384007E+02  0.31945002538E+01  0.10561119676E+03  0.90191554588E+02 0.  0.
        -11    1    4    4    0    0 -0.46152187240E+02  0.61068332640E+02 -0.49200612257E+00  0.76548074493E+02  0.00000000000E+00 0.  1.
         11    1    4    4    0    0  0.27183710727E+02 -0.95979486336E+01  0.36865063763E+01  0.29063122271E+02  0.00000000000E+00 0. -1.
        -13    1    3    3    0    0  0.13293941317E+02 -0.65735877378E+02 -0.34091251936E+02  0.75233954495E+02  0.00000000000E+00 0. -1.
         13    1    3    3    0    0  0.29078987206E+02  0.18972952006E+02  0.76583178983E+01  0.35555734246E+02  0.00000000000E+00 0.  1.
         21    1    1    2  502  501 -0.23404452010E+02 -0.47074586347E+01 -0.59742171373E+00  0.23880650187E+02  0.00000000000E+00 0.  1.
<scales pt_clust_5="13000.00000" pt_clust_6="13000.00000" pt_clust_7="13000.00000" pt_clust_8="13000.00000" pt_clust_9="23.87318"></scales>
<clustering>
<clus scale="   23.873">  1  9  2 -1</clus>
<clus scale="   87.140">  7  8 -1 -1</clus>
<clus scale="   90.192">  5  6 -1 -1</clus>
<clus scale="  104.931">  2  7  1 -1</clus>
<clus scale="   23.873">  1  5  2 -1</clus>
</clustering>
</event>
<event>
 9    1  0.5300912E-006  0.1155744E+03  0.7546771E-02  0.1250909E+00
         -2   -1    0    0    0  501 -0.00000000000E+00  0.00000000000E+00  0.93747975420E+02  0.93747975420E+02  0.00000000000E+00 0.  1.
          2   -1    0    0  502    0  0.00000000000E+00 -0.00000000000E+00 -0.43356672796E+03  0.43356672796E+03  0.00000000000E+00 0. -1.
         23    2    1    2    0    0 -0.23968103315E+02 -0.33544412959E+02 -0.74159773154E+02  0.12555572482E+03  0.92546585366E+02 0.  0.
         23    2    1    2    0    0  0.61545501209E+02  0.54643715476E+02 -0.31382829774E+03  0.33712520542E+03  0.91604690427E+02 0.  0.
        -11    1    3    3    0    0 -0.46957200537E+02 -0.20916962706E+02 -0.50698306010E+01  0.51654633804E+02  0.00000000000E+00 0. -1.
         11    1    3    3    0    0  0.22989097222E+02 -0.12627450253E+02 -0.69089942553E+02  0.73901091014E+02  0.00000000000E+00 0.  1.
        -13    1    4    4    0    0  0.13682694754E+02  0.16807743825E+02 -0.48870297561E+01  0.22217098102E+02  0.00000000000E+00 0.  1.
         13    1    4    4    0    0  0.47862806456E+02  0.37835971650E+02 -0.30894126798E+03  0.31490810732E+03  0.00000000000E+00 0. -1.
         21    1    1    2  502  501 -0.37577397894E+02 -0.21099302516E+02  0.48169318356E+02  0.64633773138E+02  0.00000000000E+00 0.  1.
<scales pt_clust_5="13000.00000" pt_clust_6="13000.00000" pt_clust_7="13000.00000" pt_clust_8="13000.00000" pt_clust_9="43.09572"></scales>
<clustering>
<clus scale="   43.096">  1  9  2 -1</clus>
<clus scale="   91.605">  7  8 -1 -1</clus>
<clus scale="   92.547">  5  6 -1 -1</clus>
<clus scale="  114.822">  2  7  1 -1</clus>
<clus scale="  114.822">  2  5  1 -1</clus>
</clustering>
</event>
<event>
 9    1  0.5300912E-006  0.7574392E+02  0.7546771E-02  0.1346536E+00
         -2   -1    0    0    0  501 -0.00000000000E+00  0.00000000000E+00  0.25171642574E+02  0.25171642574E+02  0.00000000000E+00 0.  1.
          2   -1    0    0  502    0  0.00000000000E+00 -0.00000000000E+00 -0.43077878965E+03  0.43077878965E+03  0.00000000000E+00 0. -1.
         23    2    1    2    0    0 -0.24904437758E+02  0.24883342990E+02 -0.63985800144E+02  0.10017119537E+03  0.68561461356E+02 0.  0.
         23    2    1    2    0    0  0.29731604633E+02  0.15932926733E+01 -0.28469312090E+03  0.29280990547E+03  0.61651932305E+02 0.  0.
        -13    1    4    4    0    0  0.40774582352E+02 -0.18824377481E+02 -0.17336609065E+03  0.17908859579E+03  0.00000000000E+00 0. -1.
         13    1    4    4    0    0 -0.11042977719E+02  0.20417670154E+02 -0.11132703025E+03  0.11372130968E+03  0.00000000000E+00 0.  1.
        -13    1    3    3    0    0  0.63144872814E+01  0.19723615949E+02 -0.65296098332E+02  0.68501636719E+02  0.00000000000E+00 0. -1.
         13    1    3    3    0    0 -0.31218925040E+02  0.51597270412E+01  0.13102981887E+01  0.31669558650E+02  0.00000000000E+00 0.  1.
         21    1    1    2  502  501 -0.48271668750E+01 -0.26476635663E+02 -0.56928226028E+02  0.62969331382E+02  0.00000000000E+00 0.  1.
<scales pt_clust_5="13000.00000" pt_clust_6="13000.00000" pt_clust_7="13000.00000" pt_clust_8="13000.00000" pt_clust_9="26.91308"></scales>
<clustering>
<clus scale="   26.913">  2  9  1 -1</clus>
<clus scale="   61.652">  5  6 -1 -1</clus>
<clus scale="   68.561">  7  8 -1 -1</clus>
<clus scale="   69.552">  2  5  1 -1</clus>
<clus scale="   26.913">  2  5  1 -1</clus>
</clustering>
</event>
<event>
 9    1  0.5300912E-006  0.1009217E+03  0.7546771E-02  0.1281144E+00
         -2   -1    0    0    0  501 -0.00000000000E+00  0.00000000000E+00  0.24032064297E+03  0.24032064297E+03  0.00000000000E+00 0.  1.
          2   -1    0    0  502    0  0.00000000000E+00 -0.00000000000E+00 -0.54959165370E+02  0.54959165370E+02  0.00000000000E+00 0. -1.
         23    2    1    2    0    0 -0.30065674682E+02  0.36958757046E+02  0.11051961957E+03  0.15292644152E+03  0.94350493860E+02 0.  0.
         23    2    1    2    0    0  0.22212124036E+02 -0.97060721279E+01  0.63506537032E+02  0.11181033823E+03  0.88774349895E+02 0.  0.
        -13    1    4    4    0    0 -0.42394479108E+00 -0.36836950805E+02 -0.25183285834E+01  0.36925365979E+02  0.00000000000E+00 0.  1.
         13    1    4    4    0    0  0.22636068827E+02  0.27130878677E+02  0.66024865615E+02  0.74884972253E+02  0.00000000000E+00 0. -1.
        -13    1    3    3    0    0 -0.47263869063E+02  0.58460960596E+02  0.95574503697E+02  0.12159787412E+03  0.00000000000E+00 0.  1.
         13    1    3    3    0    0  0.17198194380E+02 -0.21502203551E+02  0.14945115870E+02  0.31328567408E+02  0.00000000000E+00 0. -1.
         21    1    1    2  502  501  0.78535506464E+01 -0.27252684918E+02  0.11335321004E+02  0.30543028587E+02  0.00000000000E+00 0.  1.
<scales pt_clust_5="13000.00000" pt_clust_6="13000.00000" pt_clust_7="13000.00000" pt_clust_8="13000.00000" pt_clust_9="28.36172"></scales>
<clustering>
<clus scale="   28.362">  2  9  1 -1</clus>
<clus scale="   88.774">  5  6 -1 -1</clus>
<clus scale="   94.350">  7  8 -1 -1</clus>
<clus scale="   95.729">  2  5  1 -1</clus>
<clus scale="   28.362">  2  5  1 -1</clus>
</clustering>
</event>
<event>
 9    1  0.5300912E-006  0.9255395E+02  0.7546771E-02  0.1298157E+00
          1   -1    0    0  502    0  0.00000000000E+00  0.00000000000E+00  0.22281344639E+03  0.22281344639E+03  0.00000000000E+00 0. -1.
         -1   -1    0    0    0  501 -0.00000000000E+00 -0.00000000000E+00 -0.63316635924E+02  0.63316635924E+02  0.00000000000E+00 0.  1.
         23    2    1    2    0    0  0.12299133456E+02  0.10927580766E+02  0.18536790044E+02  0.95520405388E+02  0.92248872921E+02 0.  0.
         23    2    1    2    0    0  0.40358518658E+01  0.19727885736E+02  0.11433804183E+03  0.14684531796E+03  0.89915971998E+02 0.  0.
        -13    1    3    3    0    0 -0.30951944681E+02  0.66212285314E+01 -0.19991936538E+02  0.37437161663E+02  0.00000000000E+00 0.  1.
         13    1    3    3    0    0  0.43251078137E+02  0.43063522345E+01  0.38528726582E+02  0.58083243725E+02  0.00000000000E+00 0. -1.
        -13    1    4    4    0    0  0.28002141079E+02  0.25434595696E+02  0.92982359402E+01  0.38955047873E+02  0.00000000000E+00 0. -1.
         13    1    4    4    0    0 -0.23966289213E+02 -0.57067099602E+01  0.10503980589E+03  0.10789027008E+03  0.00000000000E+00 0.  1.
         21    1    1    2  502  501 -0.16334985322E+02 -0.30655466502E+02  0.26621978591E+02  0.43764358969E+02  0.00000000000E+00 0.  1.
<scales pt_clust_5="13000.00000" pt_clust_6="13000.00000" pt_clust_7="13000.00000" pt_clust_8="13000.00000" pt_clust_9="34.73600"></scales>
<clustering>
<clus scale="   34.736">  1  9  2 -1</clus>
<clus scale="   89.916">  7  8 -1 -1</clus>
<clus scale="   90.229">  1  7  2 -1</clus>
<clus scale="   92.249">  5  6 -1 -1</clus>
<clus scale="   34.736">  1  5  2 -1</clus>
</clustering>
</event>
<event>
 9    1  0.5300912E-006  0.9154620E+02  0.7546771E-02  0.1299444E+00
         -1   -1    0    0    0  501 -0.00000000000E+00  0.00000000000E+00  0.25073153625E+03  0.25073153625E+03  0.00000000000E+00 0.  1.
          1   -1    0    0  502    0  0.00000000000E+00 -0.00000000000E+00 -0.51318833542E+02  0.51318833542E+02  0.00000000000E+00 0. -1.
         23    2    1    2    0    0  0.99146100260E+01  0.25450260730E+02  0.94146267575E+02  0.13349664810E+03  0.90619093425E+02 0.  0.
         23    2    1    2    0    0  0.75219605887E+01  0.23965555474E+01  0.49932942499E+02  0.10420098609E+03  0.91116537394E+02 0.  0.
        -11    1    4    4    0    0  0.12762705291E+02  0.33573749882E+02 -0.92619918141E+01  0.37092692270E+02  0.00000000000E+00 0.  1.
         11    1    4    4    0    0 -0.52407447019E+01 -0.31177194335E+02  0.59194934313E+02  0.67108293823E+02  0.00000000000E+00 0. -1.
        -13    1    3    3    0    0  0.44233565715E+02  0.84526161699E+01  0.81589842413E+02  0.93193119064E+02  0.00000000000E+00 0.  1.
         13    1    3    3    0    0 -0.34318955689E+02  0.16997644560E+02  0.12556425162E+02  0.40303529039E+02  0.00000000000E+00 0. -1.
         21    1    1    2  502  501 -0.17436570615E+02 -0.27846816277E+02  0.55333492635E+02  0.64352735597E+02  0.00000000000E+00 0.  1.
<scales pt_clust_5="13000.00000" pt_clust_6="13000.00000" pt_clust_7="13000.00000" pt_clust_8="13000.00000" pt_clust_9="32.85543"></scales>
<clustering>
<clus scale="   32.855">  1  9  2 -1</clus>
<clus scale="   90.619">  7  8 -1 -1</clus>
<clus scale="   91.051">  1  7  2 -1</clus>
<clus scale="   91.117">  5  6 -1 -1</clus>
<clus scale="   91.546">  2  5  1 -1</clus>
</clustering>
</event>
<event>
 9    1  0.5300912E-006  0.9569580E+02  0.7546771E-02  0.1290053E+00
          1   -1    0    0  502    0  0.00000000000E+00  0.00000000000E+00  0.39993975877E+03  0.39993975877E+03  0.00000000000E+00 0. -1.
         -1   -1    0    0    0  501 -0.00000000000E+00 -0.00000000000E+00 -0.96368947827E+02  0.96368947827E+02  0.00000000000E+00 0.  1.
         23    2    1    2    0    0 -0.33010027036E+02  0.13129905702E+02 -0.38906954770E+02  0.10526441558E+03  0.91130619166E+02 0.  0.
         23    2    1    2    0    0 -0.30074334937E+01 -0.10011689550E+02  0.69612070760E+02  0.11579409898E+03  0.91941037511E+02 0.  0.
        -13    1    4    4    0    0 -0.39480146924E+02  0.18623332916E+02  0.47200995249E+02  0.64291869490E+02  0.00000000000E+00 0.  1.
         13    1    4    4    0    0  0.36472713430E+02 -0.28635022466E+02  0.22411075511E+02  0.51502229487E+02  0.00000000000E+00 0. -1.
        -13    1    3    3    0    0 -0.51279394329E+02 -0.15513372048E+02 -0.45935556004E+02  0.70571356091E+02  0.00000000000E+00 0.  1.
         13    1    3    3    0    0  0.18269367293E+02  0.28643277750E+02  0.70286012338E+01  0.34693059491E+02  0.00000000000E+00 0. -1.
         21    1    1    2  502  501  0.36017460530E+02 -0.31182161522E+01  0.27286569495E+03  0.27525019203E+03  0.00000000000E+00 0. -1.
<scales pt_clust_5="13000.00000" pt_clust_6="13000.00000" pt_clust_7="13000.00000" pt_clust_8="13000.00000" pt_clust_9="36.15219"></scales>
<clustering>
<clus scale="   36.152">  1  9  2 -1</clus>
<clus scale="   91.131">  7  8 -1 -1</clus>
<clus scale="   91.941">  5  6 -1 -1</clus>
<clus scale="   94.917">  2  7  1 -1</clus>
<clus scale="   36.152">  1  5  2 -1</clus>
</clustering>
</event>
<event>
 9    1  0.5300912E-006  0.1054262E+03  0.7546771E-02  0.1272272E+00
          1   -1    0    0  502    0  0.00000000000E+00  0.00000000000E+00  0.36266158301E+03  0.36266158301E+03  0.00000000000E+00 0. -1.
         -1   -1    0    0    0  501 -0.00000000000E+00 -0.00000000000E+00 -0.14602108470E+03  0.14602108470E+03  0.00000000000E+00 0.  1.
         23    2    1    2    0    0  0.17470294392E+02 -0.43820414352E+02 -0.84424669297E+02  0.12837363341E+03  0.84420525168E+02 0.  0.
         23    2    1    2    0    0  0.19302017552E+02  0.93671643118E+02  0.89034911762E+02  0.15941499335E+03  0.91318015665E+02 0.  0.
        -11    1    3    3    0    0 -0.28579456456E+02 -0.98910816369E+01 -0.57901844949E+02  0.65324133946E+02  0.00000000000E+00 0.  1.
         11    1    3    3    0    0  0.46049750848E+02 -0.33929332715E+02 -0.26522824348E+02  0.63049499467E+02  0.00000000000E+00 0. -1.
        -13    1    4    4    0    0 -0.32600433589E+02  0.12249990244E+02  0.15885443579E+02  0.38277902880E+02  0.00000000000E+00 0.  1.
         13    1    4    4    0    0  0.51902451141E+02  0.81421652875E+02  0.73149468183E+02  0.12113709047E+03  0.00000000000E+00 0. -1.
         21    1    1    2  502  501 -0.36772311944E+02 -0.49851228767E+02  0.21203025584E+03  0.22089404095E+03  0.00000000000E+00 0.  1.
<scales pt_clust_5="13000.00000" pt_clust_6="13000.00000" pt_clust_7="13000.00000" pt_clust_8="13000.00000" pt_clust_9="61.94633"></scales>
<clustering>
<clus scale="   61.946">  1  9  2 -1</clus>
<clus scale="   84.421">  5  6 -1 -1</clus>
<clus scale="   91.318">  7  8 -1 -1</clus>
<clus scale="   99.511">  2  5  1 -1</clus>
<clus scale="   61.946">  1  5  2 -1</clus>
</clustering>
</event>
<event>
 9    1  0.5300912E-006  0.1316044E+03  0.7546771E-02  0.1234676E+00
         -1   -1    0    0    0  501 -0.00000000000E+00  0.00000000000E+00  0.11654483348E+03  0.11654483348E+03  0.00000000000E+00 0.  1.
          1   -1    0    0  502    0  0.00000000000E+00 -0.00000000000E+00 -0.33876272311E+03  0.33876272311E+03  0.00000000000E+00 0. -1.
         23    2    1    2    0    0 -0.44393649662E+02  0.37674012420E+02  0.29648415203E+02  0.11197165218E+03  0.90931265395E+02 0.  0.
         23    2    1    2    0    0 -0.66109796447E+02  0.37868445025E+01 -0.10242398676E+03  0.15290738582E+03  0.92223371211E+02 0.  0.
        -11    1    4    4    0    0 -0.62531695355E+02  0.32857114065E+02 -0.33829694250E+02  0.78321459905E+02  0.00000000000E+00 0. -1.
         11    1    4    4    0    0 -0.35781010918E+01 -0.29070269562E+02 -0.68594292510E+02  0.74585925917E+02  0.00000000000E+00 0.  1.
        -13    1    3    3    0    0 -0.21938638909E+02 -0.10747909689E+02 -0.25437320286E+02  0.35268664607E+02  0.00000000000E+00 0. -1.
         13    1    3    3    0    0 -0.22455010754E+02  0.48421922109E+02  0.55085735489E+02  0.76702987576E+02  0.00000000000E+00 0.  1.
         21    1    1    2  502  501  0.11050344611E+03 -0.41460856922E+02 -0.14944231807E+03  0.19042851858E+03  0.00000000000E+00 0. -1.
<scales pt_clust_5="13000.00000" pt_clust_6="13000.00000" pt_clust_7="13000.00000" pt_clust_8="13000.00000" pt_clust_9="93.88593"></scales>
<clustering>
<clus scale="   90.931">  7  8 -1 -1</clus>
<clus scale="   92.223">  5  6 -1 -1</clus>
<clus scale="  107.975">  1  7  2 -1</clus>
<clus scale="   93.886">  1  9  2 -1</clus>
<clus scale="  131.604">  2  5  1 -1</clus>
</clustering>
</event>
<event>
 9    1  0.5300912E-006  0.9458095E+02  0.7546771E-02  0.1295314E+00
         -1   -1    0    0    0  501 -0.00000000000E+00  0.00000000000E+00  0.44676273121E+03  0.44676273121E+03  0.00000000000E+00 0.  1.
          1   -1    0    0  502    0  0.00000000000E+00 -0.00000000000E+00 -0.69316482689E+02  0.69316482689E+02  0.00000000000E+00 0. -1.
         23    2    1    2    0    0  0.11145064549E+02 -0.13778052717E+01  0.37878972237E+03  0.39051318167E+03  0.94301540130E+02 0.  0.
         23    2    1    2    0    0  0.20759865012E+02  0.61129467692E+00  0.98326140666E+01  0.91751582513E+02  0.88827512167E+02 0.  0.
        -11    1    4    4    0    0  0.48718599781E+02 -0.18670420911E+02  0.20644123189E+02  0.56109414574E+02  0.00000000000E+00 0.  1.
         11    1    4    4    0    0 -0.27958734769E+02  0.19281715588E+02 -0.10811509122E+02  0.35642167939E+02  0.00000000000E+00 0. -1.
        -11    1    3    3    0    0  0.25632249657E+02 -0.43435100478E+02  0.20764430302E+03  0.21368148435E+03  0.00000000000E+00 0.  1.
         11    1    3    3    0    0 -0.14487185108E+02  0.42057295206E+02  0.17114541935E+03  0.17683169732E+03  0.00000000000E+00 0. -1.
         21    1    1    2  502  501 -0.31904929561E+02  0.76651059482E+00 -0.11176087916E+02  0.33814449720E+02  0.00000000000E+00 0. -1.
<scales pt_clust_5="13000.00000" pt_clust_6="13000.00000" pt_clust_7="13000.00000" pt_clust_8="13000.00000" pt_clust_9="31.91414"></scales>
<clustering>
<clus scale="   31.914">  2  9  1 -1</clus>
<clus scale="   88.828">  5  6 -1 -1</clus>
<clus scale="   89.124">  2  5  1 -1</clus>
<clus scale="   94.302">  7  8 -1 -1</clus>
<clus scale="   31.914">  2  5  1 -1</clus>
</clustering>
</event>
<event>
 9    1  0.5300912E-006  0.1042804E+03  0.7546771E-02  0.1272722E+00
          3   -1    0    0  502    0  0.00000000000E+00  0.00000000000E+00  0.35180368277E+03  0.35180368277E+03  0.00000000000E+00 0. -1.
         -3   -1    0    0    0  501 -0.00000000000E+00 -0.00000000000E+00 -0.31083122341E+03  0.31083122341E+03  0.00000000000E+00 0.  1.
         23    2    1    2    0    0  0.24625166839E+01  0.34587553378E+02 -0.14295041624E+03  0.17348725048E+03  0.91981746764E+02 0.  0.
         23    2    1    2    0    0 -0.76603275740E+02 -0.48784736676E+02 -0.12059580724E+03  0.17541203393E+03  0.89319765661E+02 0.  0.
        -11    1    3    3    0    0  0.46389334362E+02  0.27069066974E+02 -0.80090424912E+02  0.96432260639E+02  0.00000000000E+00 0.  1.
         11    1    3    3    0    0 -0.43926817678E+02  0.75184864041E+01 -0.62859991326E+02  0.77054989836E+02  0.00000000000E+00 0. -1.
        -13    1    4    4    0    0 -0.25398520950E+01  0.22876988222E+02 -0.32546217506E+02  0.39863062009E+02  0.00000000000E+00 0.  1.
         13    1    4    4    0    0 -0.74063423645E+02 -0.71661724897E+02 -0.88049589737E+02  0.13554897193E+03  0.00000000000E+00 0. -1.
         21    1    1    2  502  501  0.74140759056E+02  0.14197183298E+02  0.30451868284E+03  0.31373562177E+03  0.00000000000E+00 0.  1.
<scales pt_clust_5="13000.00000" pt_clust_6="13000.00000" pt_clust_7="13000.00000" pt_clust_8="13000.00000" pt_clust_9="75.48783"></scales>
<clustering>
<clus scale="   75.488">  1  9  2 -1</clus>
<clus scale="   89.320">  7  8 -1 -1</clus>
<clus scale="   91.982">  5  6 -1 -1</clus>
<clus scale="  101.940">  1  7  2 -1</clus>
<clus scale="   75.488">  1  5  2 -1</clus>
</clustering>
</event>
<event>
 9    1  0.5300912E-006  0.1086820E+03  0.7546771E-02  0.1263123E+00
          2   -1    0    0  502    0  0.00000000000E+00  0.00000000000E+00  0.84932981145E+03  0.84932981145E+03  0.00000000000E+00 0. -1.
         -2   -1    0    0    0  501 -0.00000000000E+00 -0.00000000000E+00 -0.26048611654E+02  0.26048611654E+02  0.00000000000E+00 0.  1.
         23    2    1    2    0    0 -0.59091717868E+02  0.52956048004E+02  0.19819961796E+03  0.23198711114E+03  0.90767599030E+02 0.  0.
         23    2    1    2    0    0  0.87670213890E+01 -0.25650756581E+02  0.37425280312E+03  0.38611086139E+03  0.91003377220E+02 0.  0.
        -11    1    4    4    0    0  0.39417711388E+02 -0.42312784966E+02  0.19082289503E+03  0.19939284092E+03  0.00000000000E+00 0. -1.
         11    1    4    4    0    0 -0.30650689999E+02  0.16662028386E+02  0.18342990809E+03  0.18671802047E+03  0.00000000000E+00 0.  1.
        -11    1    3    3    0    0 -0.18412588434E+02 -0.24609832870E+02  0.33612666170E+02  0.45546444579E+02  0.00000000000E+00 0. -1.
         11    1    3    3    0    0 -0.40679129433E+02  0.77565880874E+02  0.16458695179E+03  0.18644066656E+03  0.00000000000E+00 0.  1.
         21    1    1    2  502  501  0.50324696479E+02 -0.27305291423E+02  0.25082877872E+03  0.25728045057E+03  0.00000000000E+00 0.  1.
<scales pt_clust_5="13000.00000" pt_clust_6="13000.00000" pt_clust_7="13000.00000" pt_clust_8="13000.00000" pt_clust_9="57.25517"></scales>
<clustering>
<clus scale="   57.255">  1  9  2 -1</clus>
<clus scale="   90.768">  7  8 -1 -1</clus>
<clus scale="   91.003">  5  6 -1 -1</clus>
<clus scale="  108.485">  2  7  1 -1</clus>
<clus scale="   57.255">  1  5  2 -1</clus>
</clustering>
</event>
<event>
 9    1  0.5300912E-006  0.9241735E+02  0.7546771E-02  0.1297510E+00
          2   -1    0    0  502    0  0.00000000000E+00  0.00000000000E+00  0.28512053503E+03  0.28512053503E+03  0.00000000000E+00 0. -1.
         -2   -1    0    0    0  501 -0.00000000000E+00 -0.00000000000E+00 -0.49998557297E+02  0.49998557297E+02  0.00000000000E+00 0.  1.
         23    2    1    2    0    0  0.14244323417E+00 -0.30105285654E+02  0.63360497284E+02  0.11596727426E+03  0.92344504807E+02 0.  0.
         23    2    1    2    0    0 -0.97685760883E+00 -0.10281270308E+02  0.14053105077E+03  0.16809195235E+03  0.91647528302E+02 0.  0.
        -11    1    3    3    0    0  0.18109164887E+02 -0.97075828876E+01 -0.19765047896E+02  0.28510281246E+02  0.00000000000E+00 0. -1.
         11    1    3    3    0    0 -0.17966721652E+02 -0.20397702766E+02  0.83125545180E+02  0.87456993011E+02  0.00000000000E+00 0.  1.
        -13    1    4    4    0    0 -0.21522919031E+02 -0.26075229250E+02  0.10353963233E+02  0.35360404108E+02  0.00000000000E+00 0.  1.
         13    1    4    4    0    0  0.20546061422E+02  0.15793958942E+02  0.13017708753E+03  0.13273154824E+03  0.00000000000E+00 0. -1.
         21    1    1    2  502  501  0.83441437465E+00  0.40386555962E+02  0.31230429683E+02  0.51059865726E+02  0.00000000000E+00 0. -1.
<scales pt_clust_5="13000.00000" pt_clust_6="13000.00000" pt_clust_7="13000.00000" pt_clust_8="13000.00000" pt_clust_9="40.39517"></scales>
<clustering>
<clus scale="   40.395">  2  9  1 -1</clus>
<clus scale="   91.648">  7  8 -1 -1</clus>
<clus scale="   91.721">  1  7  2 -1</clus>
<clus scale="   92.345">  5  6 -1 -1</clus>
<clus scale="   91.721">  1  5  2 -1</clus>
</clustering>
</event>
<event>
 9    1  0.5300912E-006  0.9988557E+02  0.7546771E-02  0.1281964E+00
          4   -1    0    0  502    0  0.00000000000E+00  0.00000000000E+00  0.12147734177E+03  0.12147734177E+03  0.00000000000E+00 0. -1.
         -4   -1    0    0    0  501 -0.00000000000E+00 -0.00000000000E+00 -0.32349668053E+03  0.32349668053E+03  0.00000000000E+00 0.  1.
         23    2    1    2    0    0 -0.11765470590E+02 -0.56901568929E+02 -0.21238379859E+03  0.23792874813E+03  0.90149855453E+02 0.  0.
         23    2    1    2    0    0 -0.13725561152E+02 -0.65186250754E+01 -0.57756767233E+02  0.11054441777E+03  0.93023333833E+02 0.  0.
        -11    1    4    4    0    0 -0.15031428871E+01 -0.47090368650E+02 -0.47594325758E+02  0.66970008978E+02  0.00000000000E+00 0.  1.
         11    1    4    4    0    0 -0.12222418265E+02  0.40571743575E+02 -0.10162441475E+02  0.43574408793E+02  0.00000000000E+00 0. -1.
        -13    1    3    3    0    0 -0.44567629956E+02 -0.42885485794E+02 -0.81742264619E+02  0.10250481138E+03  0.00000000000E+00 0.  1.
         13    1    3    3    0    0  0.32802159366E+02 -0.14016083134E+02 -0.13064153397E+03  0.13542393675E+03  0.00000000000E+00 0. -1.
         21    1    1    2  502  501  0.25491031742E+02  0.63420194004E+02  0.68121227068E+02  0.96500856390E+02  0.00000000000E+00 0. -1.
<scales pt_clust_5="13000.00000" pt_clust_6="13000.00000" pt_clust_7="13000.00000" pt_clust_8="13000.00000" pt_clust_9="68.35140"></scales>
<clustering>
<clus scale="   68.351">  1  9  2 -1</clus>
<clus scale="   90.150">  7  8 -1 -1</clus>
<clus scale="   93.023">  5  6 -1 -1</clus>
<clus scale="   97.215">  2  7  1 -1</clus>
<clus scale="   68.351">  1  5  2 -1</clus>
</clustering>
</event>
<event>
 9    1  0.5300912E-006  0.9672825E+02  0.7546771E-02  0.1287766E+00
          2   -1    0    0  502    0  0.00000000000E+00  0.00000000000E+00  0.10934798926E+03  0.10934798926E+03  0.00000000000E+00 0. -1.
         -2   -1    0    0    0  501 -0.00000000000E+00 -0.00000000000E+00 -0.15917248610E+03  0.15917248610E+03  0.00000000000E+00 0.  1.
         23    2    1    2    0    0 -0.23226092146E+02 -0.14128600161E+02 -0.85273214635E+02  0.12786002780E+03  0.91310442320E+02 0.  0.
         23    2    1    2    0    0  0.44648148352E+02 -0.93593292659E+01  0.35800922336E+02  0.10886876046E+03  0.92139279187E+02 0.  0.
        -11    1    3    3    0    0  0.34123675902E+02 -0.16405272659E+02 -0.34978253472E+02  0.51546449383E+02  0.00000000000E+00 0.  1.
         11    1    3    3    0    0 -0.57349768048E+02  0.22766724980E+01 -0.50294961163E+02  0.76313578419E+02  0.00000000000E+00 0. -1.
        -13    1    4    4    0    0  0.70049485358E+01 -0.47250800217E+02  0.72779021030E+01  0.48318477668E+02  0.00000000000E+00 0.  1.
         13    1    4    4    0    0  0.37643199816E+02  0.37891470952E+02  0.28523020233E+02  0.60550282794E+02  0.00000000000E+00 0. -1.
         21    1    1    2  502  501 -0.21422056206E+02  0.23487929427E+02 -0.35220454088E+00  0.31791687104E+02  0.00000000000E+00 0.  1.
<scales pt_clust_5="13000.00000" pt_clust_6="13000.00000" pt_clust_7="13000.00000" pt_clust_8="13000.00000" pt_clust_9="31.78974"></scales>
<clustering>
<clus scale="   31.790">  1  9  2 -1</clus>
<clus scale="   91.310">  5  6 -1 -1</clus>
<clus scale="   92.139">  7  8 -1 -1</clus>
<clus scale="   95.939">  2  5  1 -1</clus>
<clus scale="   31.790">  1  5  2 -1</clus>
</clustering>
</event>
<event>
 9    1  0.5300912E-006  0.2803875E+03  0.7546771E-02  0.1125457E+00
         -1   -1    0    0    0  501 -0.00000000000E+00  0.00000000000E+00  0.11248883045E+04  0.11248883045E+04  0.00000000000E+00 0.  1.
          1   -1    0    0  502    0  0.00000000000E+00 -0.00000000000E+00 -0.12406601500E+03  0.12406601500E+03  0.00000000000E+00 0. -1.
         23    2    1    2    0    0 -0.30235873232E+03  0.74587013627E+02  0.67151295595E+03  0.74573597274E+03  0.90600581763E+02 0.  0.
         23    2    1    2    0    0  0.82944625722E+02 -0.50211496686E+02  0.35022883044E+02  0.13533082189E+03  0.87674532688E+02 0.  0.
        -11    1    4    4    0    0 -0.10571121331E+02 -0.34203538759E+02  0.11176592479E+02  0.37503958315E+02  0.00000000000E+00 0. -1.
         11    1    4    4    0    0  0.93515747054E+02 -0.16007957927E+02  0.23846290565E+02  0.97826863579E+02  0.00000000000E+00 0.  1.
        -13    1    3    3    0    0 -0.12665992704E+03 -0.14109034803E+02  0.25621384030E+03  0.28615963018E+03  0.00000000000E+00 0.  1.
         13    1    3    3    0    0 -0.17569880527E+03  0.88696048430E+02  0.41529911565E+03  0.45957634256E+03  0.00000000000E+00 0. -1.
         21    1    1    2  502  501  0.21941410659E+03 -0.24375516941E+02  0.29428645045E+03  0.36788752482E+03  0.00000000000E+00 0.  1.
<scales pt_clust_5="13000.00000" pt_clust_6="13000.00000" pt_clust_7="13000.00000" pt_clust_8="13000.00000" pt_clust_9="265.34631"></scales>
<clustering>
<clus scale="   87.675">  5  6 -1 -1</clus>
<clus scale="   90.601">  7  8 -1 -1</clus>
<clus scale="  130.720">  2  5  1 -1</clus>
<clus scale="  265.346">  2  9  1 -1</clus>
<clus scale="  130.720">  2  5  1 -1</clus>
</clustering>
</event>
<event>
 9    1  0.5300912E-006  0.1062907E+03  0.7546771E-02  0.1267716E+00
         -3   -1    0    0    0  501 -0.00000000000E+00  0.00000000000E+00  0.19021190652E+03  0.19021190652E+03  0.00000000000E+00 0.  1.
          3   -1    0    0  502    0  0.00000000000E+00 -0.00000000000E+00 -0.13359490191E+03  0.13359490191E+03  0.00000000000E+00 0. -1.
         23    2    1    2    0    0  0.20600199640E+02  0.34970075701E+02  0.44765258489E+02  0.10970362233E+03  0.91562448448E+02 0.  0.
         23    2    1    2    0    0  0.40829516819E+02 -0.81856373634E+02  0.33429879198E+02  0.13386883669E+03  0.91846574593E+02 0.  0.
        -11    1    3    3    0    0  0.54440643905E+02  0.14158389030E+02  0.41379050446E+02  0.69831722766E+02  0.00000000000E+00 0. -1.
         11    1    3    3    0    0 -0.33840444265E+02  0.20811686671E+02  0.33862080435E+01  0.39871899567E+02  0.00000000000E+00 0.  1.
        -13    1    4    4    0    0 -0.16333985377E+02 -0.20878743474E+02 -0.21262811495E+02  0.33982762690E+02  0.00000000000E+00 0. -1.
         13    1    4    4    0    0  0.57163502196E+02 -0.60977630159E+02  0.54692690693E+02  0.99886073996E+02  0.00000000000E+00 0.  1.
         21    1    1    2  502  501 -0.61429716459E+02  0.46886297933E+02 -0.21578133081E+02  0.80234349411E+02  0.00000000000E+00 0. -1.
<scales pt_clust_5="13000.00000" pt_clust_6="13000.00000" pt_clust_7="13000.00000" pt_clust_8="13000.00000" pt_clust_9="77.27830"></scales>
<clustering>
<clus scale="   77.278">  2  9  1 -1</clus>
<clus scale="   91.562">  5  6 -1 -1</clus>
<clus scale="   91.847">  7  8 -1 -1</clus>
<clus scale="  106.045">  1  5  2 -1</clus>
<clus scale="   77.278">  2  5  1 -1</clus>
</clustering>
</event>
<event>
 9    1  0.5300912E-006  0.9791910E+02  0.7546771E-02  0.1287311E+00
          2   -1    0    0  502    0  0.00000000000E+00  0.00000000000E+00  0.27070169807E+03  0.27070169807E+03  0.00000000000E+00 0. -1.
         -2   -1    0    0    0  501 -0.00000000000E+00 -0.00000000000E+00 -0.21697705249E+03  0.21697705249E+03  0.00000000000E+00 0.  1.
         23    2    1    2    0    0  0.95998375488E+01  0.12942825408E+02 -0.15353339001E+03  0.18203014159E+03  0.96451008222E+02 0.  0.
         23    2    1    2    0    0 -0.69954957945E+02  0.28718505404E+02  0.19905437394E+03  0.23185357454E+03  0.91733241228E+02 0.  0.
        -11    1    4    4    0    0 -0.60353302719E+01 -0.30862423013E+02  0.49605450550E+02  0.58733423959E+02  0.00000000000E+00 0.  1.
         11    1    4    4    0    0 -0.63919627673E+02  0.59580928417E+02  0.14944892339E+03  0.17312015058E+03  0.00000000000E+00 0. -1.
        -11    1    3    3    0    0  0.38129587324E+02 -0.26928945022E+01 -0.14271470937E+03  0.14774506888E+03  0.00000000000E+00 0.  1.
         11    1    3    3    0    0 -0.28529749776E+02  0.15635719910E+02 -0.10818680649E+02  0.34285072704E+02  0.00000000000E+00 0. -1.
         21    1    1    2  502  501  0.60355120396E+02 -0.41661330812E+02  0.82036616476E+01  0.73795034436E+02  0.00000000000E+00 0.  1.
<scales pt_clust_5="13000.00000" pt_clust_6="13000.00000" pt_clust_7="13000.00000" pt_clust_8="13000.00000" pt_clust_9="73.33762"></scales>
<clustering>
<clus scale="   73.338">  1  9  2 -1</clus>
<clus scale="   91.733">  5  6 -1 -1</clus>
<clus scale="   93.276">  1  5  2 -1</clus>
<clus scale="   96.451">  7  8 -1 -1</clus>
<clus scale="   73.338">  1  5  2 -1</clus>
</clustering>
</event>
<event>
 9    1  0.5300912E-006  0.1503434E+03  0.7546771E-02  0.1225971E+00
         -1   -1    0    0    0  501 -0.00000000000E+00  0.00000000000E+00  0.16732122650E+03  0.16732122650E+03  0.00000000000E+00 0.  1.
          1   -1    0    0  502    0  0.00000000000E+00 -0.00000000000E+00 -0.30454657734E+03  0.30454657734E+03  0.00000000000E+00 0. -1.
         23    2    1    2    0    0  0.91153715282E+02  0.39627473182E+02 -0.16249421852E+03  0.21103955649E+03  0.90851455185E+02 0.  0.
         23    2    1    2    0    0  0.21937729478E+02  0.92525162959E+01 -0.64792565147E+02  0.10821766472E+03  0.83343346628E+02 0.  0.
        -11    1    4    4    0    0  0.43058372495E+02  0.33473010022E+02 -0.41200849618E+02  0.68351853312E+02  0.00000000000E+00 0. -1.
         11    1    4    4    0    0 -0.21120643017E+02 -0.24220493726E+02 -0.23591715529E+02  0.39865811411E+02  0.00000000000E+00 0.  1.
        -13    1    3    3    0    0  0.50277591527E+02  0.65713583246E+02 -0.12426604772E+03  0.14929220290E+03  0.00000000000E+00 0. -1.
         13    1    3    3    0    0  0.40876123754E+02 -0.26086110064E+02 -0.38228170802E+02  0.61747353581E+02  0.00000000000E+00 0.  1.
         21    1    1    2  502  501 -0.11309144476E+03 -0.48879989478E+02  0.90061432824E+02  0.15261058263E+03  0.00000000000E+00 0.  1.
<scales pt_clust_5="13000.00000" pt_clust_6="13000.00000" pt_clust_7="13000.00000" pt_clust_8="13000.00000" pt_clust_9="119.78789"></scales>
<clustering>
<clus scale="   83.343">  5  6 -1 -1</clus>
<clus scale="   86.677">  2  5  1 -1</clus>
<clus scale="   90.851">  7  8 -1 -1</clus>
<clus scale="  119.788">  1  9  2 -1</clus>
<clus scale="   86.677">  2  5  1 -1</clus>
</clustering>
</event>
<event>
 9    1  0.5300912E-006  0.2300959E+03  0.7546771E-02  0.1163681E+00
          1   -1    0    0  502    0  0.00000000000E+00  0.00000000000E+00  0.29549705039E+03  0.29549705039E+03  0.00000000000E+00 0. -1.
         -1   -1    0    0    0  501 -0.00000000000E+00 -0.00000000000E+00 -0.25381044383E+03  0.25381044383E+03  0.00000000000E+00 0.  1.
         23    2    1    2    0    0 -0.57673936380E+01 -0.22607186775E+02 -0.21499216073E+02  0.97165755094E+02  0.91840186999E+02 0.  0.
         23    2    1    2    0    0 -0.10515238462E+03 -0.17237586222E+03  0.54734217182E+02  0.22765785053E+03  0.89787529808E+02 0.  0.
        -11    1    3    3    0    0  0.59223391217E+01 -0.40639024670E+02  0.23487227643E+02  0.47310192234E+02  0.00000000000E+00 0. -1.
         11    1    3    3    0    0 -0.11689732760E+02  0.18031837895E+02 -0.44986443716E+02  0.49855562860E+02  0.00000000000E+00 0.  1.
        -11    1    4    4    0    0 -0.72518154614E+02 -0.40828622102E+02  0.53036903692E+01  0.83390576583E+02  0.00000000000E+00 0.  1.
         11    1    4    4    0    0 -0.32634230010E+02 -0.13154724012E+03  0.49430526813E+02  0.14426727395E+03  0.00000000000E+00 0. -1.
         21    1    1    2  502  501  0.11091977826E+03  0.19498304899E+03  0.84516054534E+01  0.22448388860E+03  0.00000000000E+00 0.  1.
<scales pt_clust_5="13000.00000" pt_clust_6="13000.00000" pt_clust_7="13000.00000" pt_clust_8="13000.00000" pt_clust_9="211.85449"></scales>
<clustering>
<clus scale="   89.788">  7  8 -1 -1</clus>
<clus scale="   91.840">  5  6 -1 -1</clus>
<clus scale="   94.757">  2  5  1 -1</clus>
<clus scale="  211.854">  2  9  1 -1</clus>
<clus scale="  230.096">  1  5  2 -1</clus>
</clustering>
</event>
<event>
 9    1  0.5300912E-006  0.1329872E+03  0.7546771E-02  0.1231182E+00
         -3   -1    0    0    0  501 -0.00000000000E+00  0.00000000000E+00  0.37281476428E+03  0.37281476428E+03  0.00000000000E+00 0.  1.
          3   -1    0    0  502    0  0.00000000000E+00 -0.00000000000E+00 -0.92998271998E+02  0.92998271998E+02  0.00000000000E+00 0. -1.
         23    2    1    2    0    0 -0.53510768002E+02  0.44593307932E+02  0.15002907339E+03  0.18748308944E+03  0.88256560998E+02 0.  0.
         23    2    1    2    0    0 -0.70403533033E+02 -0.93685447230E+01  0.54303519056E+02  0.12902034541E+03  0.93021235500E+02 0.  0.
        -11    1    3    3    0    0 -0.25046503655E+01  0.55450027318E+02  0.50135444291E+02  0.74796668224E+02  0.00000000000E+00 0. -1.
         11    1    3    3    0    0 -0.51006117637E+02 -0.10856719386E+02  0.99893629094E+02  0.11268642121E+03  0.00000000000E+00 0.  1.
        -13    1    4    4    0    0  0.22191615142E+02 -0.59831101124E+00  0.19415093277E+01  0.22284416465E+02  0.00000000000E+00 0.  1.
         13    1    4    4    0    0 -0.92595148175E+02 -0.87702337118E+01  0.52362009729E+02  0.10673592895E+03  0.00000000000E+00 0. -1.
         21    1    1    2  502  501  0.12391430103E+03 -0.35224763209E+02  0.75483899836E+02  0.14930960143E+03  0.00000000000E+00 0. -1.
<scales pt_clust_5="13000.00000" pt_clust_6="13000.00000" pt_clust_7="13000.00000" pt_clust_8="13000.00000" pt_clust_9="95.04025"></scales>
<clustering>
<clus scale="   88.257">  5  6 -1 -1</clus>
<clus scale="   93.021">  7  8 -1 -1</clus>
<clus scale="  112.433">  1  5  2 -1</clus>
<clus scale="   95.040">  1  9  2 -1</clus>
<clus scale="  132.987">  2  5  1 -1</clus>
</clustering>
</event>
<event>
 9    1  0.5300912E-006  0.1117623E+03  0.7546771E-02  0.1258206E+00
          1   -1    0    0  502    0  0.00000000000E+00  0.00000000000E+00  0.69003895621E+02  0.69003895621E+02  0.00000000000E+00 0. -1.
         -1   -1    0    0    0  501 -0.00000000000E+00 -0.00000000000E+00 -0.37378409654E+03  0.37378409654E+03  0.00000000000E+00 0.  1.
         23    2    1    2    0    0 -0.93579644230E+02 -0.41273790180E+02 -0.17774036189E+03  0.22544820610E+03  0.93672737867E+02 0.  0.
         23    2    1    2    0    0  0.18445942676E+02  0.62816153295E+01 -0.67081180153E+02  0.11504332383E+03  0.91407713763E+02 0.  0.
        -11    1    4    4    0    0  0.13156483890E+02 -0.41947858965E+02 -0.23623119804E+02  0.49907591901E+02  0.00000000000E+00 0.  1.
         11    1    4    4    0    0  0.52894587864E+01  0.48229474294E+02 -0.43458060349E+02  0.65135731932E+02  0.00000000000E+00 0. -1.
        -11    1    3    3    0    0 -0.52095213924E+02 -0.41258947837E+02 -0.17094907994E+03  0.18341155913E+03  0.00000000000E+00 0.  1.
         11    1    3    3    0    0 -0.41484430306E+02 -0.14842343244E-01 -0.67912819522E+01  0.42036646972E+02  0.00000000000E+00 0. -1.
         21    1    1    2  502  501  0.75133701554E+02  0.34992174851E+02 -0.59958658874E+02  0.10229646223E+03  0.00000000000E+00 0.  1.
<scales pt_clust_5="13000.00000" pt_clust_6="13000.00000" pt_clust_7="13000.00000" pt_clust_8="13000.00000" pt_clust_9="82.88260"></scales>
<clustering>
<clus scale="   82.883">  1  9  2 -1</clus>
<clus scale="   91.408">  5  6 -1 -1</clus>
<clus scale="   93.673">  7  8 -1 -1</clus>
<clus scale="  109.871">  1  5  2 -1</clus>
<clus scale="   82.883">  1  5  2 -1</clus>
</clustering>
</event>
<event>
 9    1  0.5300912E-006  0.1940074E+03  0.7546771E-02  0.1186060E+00
          2   -1    0    0  502    0  0.00000000000E+00  0.00000000000E+00  0.27331747801E+03  0.27331747801E+03  0.00000000000E+00 0. -1.
         -2   -1    0    0    0  501 -0.00000000000E+00 -0.00000000000E+00 -0.33653717242E+03  0.33653717242E+03  0.00000000000E+00 0.  1.
         23    2    1    2    0    0  0.20411906972E+02  0.17576491314E+03 -0.23607523587E+03  0.30849563502E+03  0.90155916012E+02 0.  0.
         23    2    1    2    0    0  0.17146274858E+02 -0.29481314007E+02  0.56108457490E+02  0.11046797315E+03  0.88836205868E+02 0.  0.
        -13    1    4    4    0    0  0.18999322792E+02  0.29882925998E+02  0.16408287578E+02  0.39028136441E+02  0.00000000000E+00 0. -1.
         13    1    4    4    0    0 -0.18530479344E+01 -0.59364240006E+02  0.39700169912E+02  0.71439836710E+02  0.00000000000E+00 0.  1.
        -13    1    3    3    0    0  0.52978885876E+02  0.13618597398E+03 -0.18900204632E+03  0.23890407148E+03  0.00000000000E+00 0.  1.
         13    1    3    3    0    0 -0.32566978904E+02  0.39578939169E+02 -0.47073189554E+02  0.69591563537E+02  0.00000000000E+00 0. -1.
         21    1    1    2  502  501 -0.37558181830E+02 -0.14628359914E+03  0.11674708397E+03  0.19089104226E+03  0.00000000000E+00 0. -1.
<scales pt_clust_5="13000.00000" pt_clust_6="13000.00000" pt_clust_7="13000.00000" pt_clust_8="13000.00000" pt_clust_9="171.78702"></scales>
<clustering>
<clus scale="   88.836">  5  6 -1 -1</clus>
<clus scale="   90.156">  7  8 -1 -1</clus>
<clus scale="   95.158">  1  5  2 -1</clus>
<clus scale="  171.787">  1  9  2 -1</clus>
<clus scale="   95.158">  1  5  2 -1</clus>
</clustering>
</event>
<event>
 9    1  0.5300912E-006  0.1260803E+03  0.7546771E-02  0.1233562E+00
         -3   -1    0    0    0  501 -0.00000000000E+00  0.00000000000E+00  0.95252512959E+02  0.95252512959E+02  0.00000000000E+00 0.  1.
          3   -1    0    0  502    0  0.00000000000E+00 -0.00000000000E+00 -0.39142405065E+03  0.39142405065E+03  0.00000000000E+00 0. -1.
         23    2    1    2    0    0  0.37561733608E+02 -0.95305127487E+02 -0.75634008050E+02  0.15727458090E+03  0.92308393255E+02 0.  0.
         23    2    1    2    0    0  0.63861037379E+02  0.74289768795E+02 -0.85101203188E+02  0.15889913142E+03  0.91703420546E+02 0.  0.
        -11    1    3    3    0    0 -0.14199529397E+02 -0.57336015927E+02 -0.71787994203E+02  0.92965377798E+02  0.00000000000E+00 0. -1.
         11    1    3    3    0    0  0.51761263005E+02 -0.37969111560E+02 -0.38460138471E+01  0.64309203098E+02  0.00000000000E+00 0.  1.
        -11    1    4    4    0    0  0.71554927094E+02  0.16720887921E+02 -0.31802119861E+02  0.80069160805E+02  0.00000000000E+00 0.  1.
         11    1    4    4    0    0 -0.76938897146E+01  0.57568880874E+02 -0.53299083327E+02  0.78829970618E+02  0.00000000000E+00 0. -1.
         21    1    1    2  502  501 -0.10142277099E+03  0.21015358692E+02 -0.13543632645E+03  0.17050285129E+03  0.00000000000E+00 0. -1.
<scales pt_clust_5="13000.00000" pt_clust_6="13000.00000" pt_clust_7="13000.00000" pt_clust_8="13000.00000" pt_clust_9="103.57714"></scales>
<clustering>
<clus scale="   91.703">  7  8 -1 -1</clus>
<clus scale="   92.308">  5  6 -1 -1</clus>
<clus scale="  103.577">  2  9  1 -1</clus>
<clus scale="  125.638">  2  7  1 -1</clus>
<clus scale="  103.577">  2  5  1 -1</clus>
</clustering>
</event>
<event>
 9    1  0.5300912E-006  0.1772747E+03  0.7546771E-02  0.1195315E+00
          1   -1    0    0  502    0  0.00000000000E+00  0.00000000000E+00  0.44271970981E+03  0.44271970981E+03  0.00000000000E+00 0. -1.
         -1   -1    0    0    0  501 -0.00000000000E+00 -0.00000000000E+00 -0.11959808941E+03  0.11959808941E+03  0.00000000000E+00 0.  1.
         23    2    1    2    0    0 -0.16383948965E+03 -0.32995946737E+02  0.37049835395E+02  0.19394359531E+03  0.91155455065E+02 0.  0.
         23    2    1    2    0    0  0.43890760741E+02  0.25424218648E+01  0.86265155862E+02  0.13334696338E+03  0.91689000107E+02 0.  0.
        -11    1    4    4    0    0  0.70169689784E+02 -0.41061290269E+01  0.43333550283E+02  0.82573859302E+02  0.00000000000E+00 0.  1.
         11    1    4    4    0    0 -0.26278929043E+02  0.66485508917E+01  0.42931605579E+02  0.50773104083E+02  0.00000000000E+00 0. -1.
        -13    1    3    3    0    0 -0.43103547410E+02 -0.47867352697E+02 -0.64848837642E+01  0.64739887017E+02  0.00000000000E+00 0.  1.
         13    1    3    3    0    0 -0.12073594224E+03  0.14871405959E+02  0.43534719159E+02  0.12920370829E+03  0.00000000000E+00 0. -1.
         21    1    1    2  502  501  0.11994872891E+03  0.30453524873E+02  0.19980662914E+03  0.23502724054E+03  0.00000000000E+00 0.  1.
<scales pt_clust_5="13000.00000" pt_clust_6="13000.00000" pt_clust_7="13000.00000" pt_clust_8="13000.00000" pt_clust_9="152.04279"></scales>
<clustering>
<clus scale="   91.155">  7  8 -1 -1</clus>
<clus scale="   91.689">  5  6 -1 -1</clus>
<clus scale="  101.684">  1  5  2 -1</clus>
<clus scale="  152.043">  1  9  2 -1</clus>
<clus scale="  101.684">  1  5  2 -1</clus>
</clustering>
</event>
<event>
 9    1  0.5300912E-006  0.1890027E+03  0.7546771E-02  0.1160117E+00
         -1   -1    0    0    0  501 -0.00000000000E+00  0.00000000000E+00  0.11588003855E+03  0.11588003855E+03  0.00000000000E+00 0.  1.
          1   -1    0    0  502    0  0.00000000000E+00 -0.00000000000E+00 -0.61983226566E+03  0.61983226566E+03  0.00000000000E+00 0. -1.
         23    2    1    2    0    0  0.15395384514E+03  0.49592970127E+02 -0.81715840182E+02  0.20251525513E+03  0.90408522302E+02 0.  0.
         23    2    1    2    0    0 -0.12052848785E+03 -0.12339339165E+03 -0.40828139516E+03  0.45098696136E+03  0.83321643042E+02 0.  0.
        -11    1    3    3    0    0  0.11605851174E+03  0.93025108532E+01 -0.17460897444E+02  0.11773273884E+03  0.00000000000E+00 0.  1.
         11    1    3    3    0    0  0.37895333397E+02  0.40290459274E+02 -0.64254942738E+02  0.84782516287E+02  0.00000000000E+00 0. -1.
        -13    1    4    4    0    0 -0.76845310613E+02 -0.36975781841E+02 -0.26226508080E+03  0.27578140404E+03  0.00000000000E+00 0. -1.
         13    1    4    4    0    0 -0.43683177235E+02 -0.86417609805E+02 -0.14601631436E+03  0.17520555732E+03  0.00000000000E+00 0.  1.
         21    1    1    2  502  501 -0.33425357292E+02  0.73800421519E+02 -0.13954991772E+02  0.82210087713E+02  0.00000000000E+00 0.  1.
<scales pt_clust_5="13000.00000" pt_clust_6="13000.00000" pt_clust_7="13000.00000" pt_clust_8="13000.00000" pt_clust_9="81.01702"></scales>
<clustering>
<clus scale="   81.017">  1  9  2 -1</clus>
<clus scale="   83.322">  7  8 -1 -1</clus>
<clus scale="   90.409">  5  6 -1 -1</clus>
<clus scale="  185.717">  2  7  1 -1</clus>
<clus scale="  185.717">  2  5  1 -1</clus>
</clustering>
</event>
<event>
 9    1  0.5300912E-006  0.9306727E+02  0.7546771E-02  0.1296141E+00
          1   -1    0    0  502    0  0.00000000000E+00  0.00000000000E+00  0.35319111098E+03  0.35319111098E+03  0.00000000000E+00 0. -1.
         -1   -1    0    0    0  501 -0.00000000000E+00 -0.00000000000E+00 -0.69732392333E+02  0.69732392333E+02  0.00000000000E+00 0.  1.
         23    2    1    2    0    0 -0.62011681332E+02 -0.43403886392E+01  0.57145455612E+02  0.12320970419E+03  0.89725918852E+02 0.  0.
         23    2    1    2    0    0 -0.30802499426E+02  0.16009983222E+02  0.14885973936E+03  0.17826545654E+03  0.91729152724E+02 0.  0.
        -11    1    3    3    0    0 -0.50016729768E+02  0.39292693556E+02  0.28870100927E+02  0.69850352548E+02  0.00000000000E+00 0.  1.
         11    1    3    3    0    0 -0.11994951564E+02 -0.43633082195E+02  0.28275354685E+02  0.53359351640E+02  0.00000000000E+00 0. -1.
        -13    1    4    4    0    0  0.52285582067E+01  0.27645714497E+02  0.38547900462E+01  0.28398640060E+02  0.00000000000E+00 0.  1.
         13    1    4    4    0    0 -0.36031057632E+02 -0.11635731275E+02  0.14500494931E+03  0.14986681648E+03  0.00000000000E+00 0. -1.
         21    1    1    2  502  501  0.92814180758E+02 -0.11669594582E+02  0.77453523683E+02  0.12144834259E+03  0.00000000000E+00 0.  1.
<scales pt_clust_5="13000.00000" pt_clust_6="13000.00000" pt_clust_7="13000.00000" pt_clust_8="13000.00000" pt_clust_9="93.54492"></scales>
<clustering>
<clus scale="   89.726">  5  6 -1 -1</clus>
<clus scale="   91.729">  7  8 -1 -1</clus>
<clus scale="   93.545">  2  9  1 -1</clus>
<clus scale="   93.545">  2  5  1 -1</clus>
<clus scale="   92.592">  1  5  2 -1</clus>
</clustering>
</event>
<event>
 9    1  0.5300912E-006  0.1026001E+03  0.7546771E-02  0.1277241E+00
         -1   -1    0    0    0  501 -0.00000000000E+00  0.00000000000E+00  0.16561981833E+03  0.16561981833E+03  0.00000000000E+00 0.  1.
          1   -1    0    0  502    0  0.00000000000E+00 -0.00000000000E+00 -0.10291718445E+03  0.10291718445E+03  0.00000000000E+00 0. -1.
         23    2    1    2    0    0  0.50565334675E+02  0.64616877291E+01  0.59738268100E+02  0.12033076204E+03  0.91171405274E+02 0.  0.
         23    2    1    2    0    0 -0.23761718589E+02 -0.22237756337E+02 -0.27167840640E+02  0.10490187561E+03  0.95954024741E+02 0.  0.
        -11    1    3    3    0    0  0.44663199081E+01 -0.33652806933E+02 -0.12824288983E+01  0.33972106968E+02  0.00000000000E+00 0. -1.
         11    1    3    3    0    0  0.46099014767E+02  0.40114494662E+02  0.61020696998E+02  0.86358655076E+02  0.00000000000E+00 0.  1.
        -13    1    4    4    0    0  0.22277622414E+02 -0.36334273823E+02  0.10353234181E+02  0.43859564210E+02  0.00000000000E+00 0.  1.
         13    1    4    4    0    0 -0.46039341004E+02  0.14096517486E+02 -0.37521074820E+02  0.61042311399E+02  0.00000000000E+00 0. -1.
         21    1    1    2  502  501 -0.26803616086E+02  0.15776068608E+02  0.30132206415E+02  0.43304365131E+02  0.00000000000E+00 0.  1.
<scales pt_clust_5="13000.00000" pt_clust_6="13000.00000" pt_clust_7="13000.00000" pt_clust_8="13000.00000" pt_clust_9="31.10174"></scales>
<clustering>
<clus scale="   31.102">  1  9  2 -1</clus>
<clus scale="   91.171">  5  6 -1 -1</clus>
<clus scale="   95.954">  7  8 -1 -1</clus>
<clus scale="   98.142">  1  5  2 -1</clus>
<clus scale="  102.600">  2  5  1 -1</clus>
</clustering>
</event>
<event>
 9    1  0.5300912E-006  0.1228089E+03  0.7546771E-02  0.1243416E+00
          2   -1    0    0  502    0  0.00000000000E+00  0.00000000000E+00  0.79556093843E+03  0.79556093843E+03  0.00000000000E+00 0. -1.
         -2   -1    0    0    0  501 -0.00000000000E+00 -0.00000000000E+00 -0.53138261793E+02  0.53138261793E+02  0.00000000000E+00 0.  1.
         23    2    1    2    0    0 -0.42520557127E+01  0.68731021382E+02  0.69826584641E+02  0.13394813146E+03  0.91237693529E+02 0.  0.
         23    2    1    2    0    0  0.29882399036E+02  0.58169564818E+02  0.34557736618E+03  0.36303823091E+03  0.89979914670E+02 0.  0.
        -11    1    4    4    0    0 -0.22152641549E+02  0.44211870956E+02  0.23357366786E+03  0.23875109922E+03  0.00000000000E+00 0.  1.
         11    1    4    4    0    0  0.52035040585E+02  0.13957693862E+02  0.11200369831E+03  0.12428713168E+03  0.00000000000E+00 0. -1.
        -13    1    3    3    0    0 -0.19826430647E+02  0.54805715528E+02 -0.28271881445E+01  0.58350208222E+02  0.00000000000E+00 0.  1.
         13    1    3    3    0    0  0.15574374934E+02  0.13925305854E+02  0.72653772785E+02  0.75597923236E+02  0.00000000000E+00 0. -1.
         21    1    1    2  502  501 -0.25630343324E+02 -0.12690058620E+03  0.32701872582E+03  0.35171283785E+03  0.00000000000E+00 0. -1.
<scales pt_clust_5="13000.00000" pt_clust_6="13000.00000" pt_clust_7="13000.00000" pt_clust_8="13000.00000" pt_clust_9="82.20530"></scales>
<clustering>
<clus scale="   89.980">  5  6 -1 -1</clus>
<clus scale="   91.238">  7  8 -1 -1</clus>
<clus scale="  111.234">  1  5  2 -1</clus>
<clus scale="   82.205">  1  9  2 -1</clus>
<clus scale="  111.234">  1  5  2 -1</clus>
</clustering>
</event>
<event>
 9    1  0.5300912E-006  0.1099531E+03  0.7546771E-02  0.1269782E+00
          2   -1    0    0  502    0  0.00000000000E+00  0.00000000000E+00  0.54590513289E+02  0.54590513289E+02  0.00000000000E+00 0. -1.
         -2   -1    0    0    0  501 -0.00000000000E+00 -0.00000000000E+00 -0.45076725362E+03  0.45076725362E+03  0.00000000000E+00 0.  1.
         23    2    1    2    0    0  0.39367636778E+02  0.18134264990E+02 -0.11441082423E+03  0.16441913978E+03  0.10984149686E+03 0.  0.
         23    2    1    2    0    0  0.20300929310E+02  0.17448428438E+02 -0.71464380826E+02  0.11945905338E+03  0.91906106006E+02 0.  0.
        -11    1    4    4    0    0  0.42683814563E+02 -0.92013922776E+01 -0.72508786830E+02  0.84640993691E+02  0.00000000000E+00 0.  1.
         11    1    4    4    0    0 -0.22382885252E+02  0.26649820716E+02  0.10444060040E+01  0.34818059686E+02  0.00000000000E+00 0. -1.
        -13    1    3    3    0    0  0.35190953011E+00 -0.44376385509E+02 -0.44434543666E+02  0.62799809729E+02  0.00000000000E+00 0.  1.
         13    1    3    3    0    0  0.39015727247E+02  0.62510650499E+02 -0.69976280566E+02  0.10161933005E+03  0.00000000000E+00 0. -1.
         21    1    1    2  502  501 -0.59668566088E+02 -0.35582693428E+02 -0.21030153527E+03  0.22147957375E+03  0.00000000000E+00 0.  1.
<scales pt_clust_5="13000.00000" pt_clust_6="13000.00000" pt_clust_7="13000.00000" pt_clust_8="13000.00000" pt_clust_9="69.47277"></scales>
<clustering>
<clus scale="   69.473">  2  9  1 -1</clus>
<clus scale="   91.906">  5  6 -1 -1</clus>
<clus scale="   92.039">  1  5  2 -1</clus>
<clus scale="  109.841">  7  8 -1 -1</clus>
<clus scale="   92.039">  1  5  2 -1</clus>
</clustering>
</event>
<event>
 9    1  0.5300912E-006  0.1017704E+03  0.7546771E-02  0.1277048E+00
         -1   -1    0    0    0  501 -0.00000000000E+00  0.00000000000E+00  0.13265781996E+03  0.13265781996E+03  0.00000000000E+00 0.  1.
          1   -1    0    0  502    0  0.00000000000E+00 -0.00000000000E+00 -0.45122307415E+03  0.45122307415E+03  0.00000000000E+00 0. -1.
         23    2    1    2    0    0  0.58453019709E+01 -0.45491961626E+02  0.96465379253E+02  0.14102702383E+03  0.92083472616E+02 0.  0.
         23    2    1    2    0    0 -0.14554012142E+02  0.14059199544E+00 -0.35672487338E+03  0.36847544587E+03  0.91157445585E+02 0.  0.
        -13    1    3    3    0    0 -0.30543392494E+02  0.13562994541E+02  0.34136998363E+02  0.47772254533E+02  0.00000000000E+00 0.  1.
         13    1    3    3    0    0  0.36388694464E+02 -0.59054956168E+02  0.62328380890E+02  0.93254769300E+02  0.00000000000E+00 0. -1.
        -13    1    4    4    0    0 -0.31250038326E+02  0.38608705667E+02 -0.17053132686E+03  0.17761793403E+03  0.00000000000E+00 0.  1.
         13    1    4    4    0    0  0.16696026185E+02 -0.38468113671E+02 -0.18619354652E+03  0.19085751184E+03  0.00000000000E+00 0. -1.
         21    1    1    2  502  501  0.87087101708E+01  0.45351369631E+02 -0.58305760066E+02  0.74378424406E+02  0.00000000000E+00 0.  1.
<scales pt_clust_5="13000.00000" pt_clust_6="13000.00000" pt_clust_7="13000.00000" pt_clust_8="13000.00000" pt_clust_9="46.17996"></scales>
<clustering>
<clus scale="   46.180">  2  9  1 -1</clus>
<clus scale="   91.157">  7  8 -1 -1</clus>
<clus scale="   92.083">  5  6 -1 -1</clus>
<clus scale="  100.933">  2  7  1 -1</clus>
<clus scale="   46.180">  2  5  1 -1</clus>
</clustering>
</event>
<event>
 9    1  0.5300912E-006  0.1016021E+03  0.7546771E-02  0.1282274E+00
          1   -1    0    0  502    0  0.00000000000E+00  0.00000000000E+00  0.19011701811E+03  0.19011701811E+03  0.00000000000E+00 0. -1.
         -1   -1    0    0    0  501 -0.00000000000E+00 -0.00000000000E+00 -0.11906706261E+03  0.11906706261E+03  0.00000000000E+00 0.  1.
         23    2    1    2    0    0  0.26355325817E+01  0.88820793941E+00 -0.31662683933E+02  0.89524587114E+02  0.83692240971E+02 0.  0.
         23    2    1    2    0    0  0.19200459097E+02  0.47143921003E+02  0.12299046678E+03  0.16313439984E+03  0.94313151653E+02 0.  0.
        -11    1    4    4    0    0 -0.26980838196E+02 -0.11036825884E+02  0.55881074171E+02  0.63027546405E+02  0.00000000000E+00 0.  1.
         11    1    4    4    0    0  0.46181297293E+02  0.58180746887E+02  0.67109392613E+02  0.10010685344E+03  0.00000000000E+00 0. -1.
        -13    1    3    3    0    0 -0.34869337504E+02  0.20306017738E+02 -0.80767181715E+01  0.41151408612E+02  0.00000000000E+00 0.  1.
         13    1    3    3    0    0  0.37504870085E+02 -0.19417809798E+02 -0.23585965762E+02  0.48373178502E+02  0.00000000000E+00 0. -1.
         21    1    1    2  502  501 -0.21835991678E+02 -0.48032128943E+02 -0.20277827345E+02  0.56525093765E+02  0.00000000000E+00 0. -1.
<scales pt_clust_5="13000.00000" pt_clust_6="13000.00000" pt_clust_7="13000.00000" pt_clust_8="13000.00000" pt_clust_9="52.76264"></scales>
<clustering>
<clus scale="   52.763">  2  9  1 -1</clus>
<clus scale="   83.692">  7  8 -1 -1</clus>
<clus scale="   91.828">  2  7  1 -1</clus>
<clus scale="   94.313">  5  6 -1 -1</clus>
<clus scale="  101.602">  1  5  2 -1</clus>
</clustering>
</event>
<event>
 9    1  0.5300912E-006  0.2188827E+03  0.7546771E-02  0.1136137E+00
          2   -1    0    0  502    0  0.00000000000E+00  0.00000000000E+00  0.19208688880E+03  0.19208688880E+03  0.00000000000E+00 0. -1.
         -2   -1    0    0    0  501 -0.00000000000E+00 -0.00000000000E+00 -0.43033968035E+03  0.43033968035E+03  0.00000000000E+00 0.  1.
         23    2    1    2    0    0  0.11625204968E+03 -0.78896170831E+02 -0.15534118634E+03  0.23477324942E+03  0.10605870848E+03 0.  0.
         23    2    1    2    0    0 -0.16883035618E+03  0.13664347013E+03  0.43560319821E+02  0.23901154662E+03  0.89743472508E+02 0.  0.
        -11    1    4    4    0    0 -0.36416325581E+02  0.12130637183E+02  0.42473474357E+02  0.57247682497E+02  0.00000000000E+00 0.  1.
         11    1    4    4    0    0 -0.13241403060E+03  0.12451283295E+03  0.10868454637E+01  0.18176386412E+03  0.00000000000E+00 0. -1.
        -13    1    3    3    0    0  0.25187174349E+02  0.20813944259E+02 -0.56247417451E+01  0.33154965646E+02  0.00000000000E+00 0. -1.
         13    1    3    3    0    0  0.91064875336E+02 -0.99710115090E+02 -0.14971644460E+03  0.20161828378E+03  0.00000000000E+00 0.  1.
         21    1    1    2  502  501  0.52578306495E+02 -0.57747299301E+02 -0.12647192503E+03  0.14864177311E+03  0.00000000000E+00 0.  1.
<scales pt_clust_5="13000.00000" pt_clust_6="13000.00000" pt_clust_7="13000.00000" pt_clust_8="13000.00000" pt_clust_9="78.09756"></scales>
<clustering>
<clus scale="   78.098">  2  9  1 -1</clus>
<clus scale="   89.743">  5  6 -1 -1</clus>
<clus scale="  106.059">  7  8 -1 -1</clus>
<clus scale="  211.459">  1  5  2 -1</clus>
<clus scale="  211.459">  1  5  2 -1</clus>
</clustering>
</event>
<event>
 9    1  0.5300912E-006  0.1240256E+03  0.7546771E-02  0.1236878E+00
          1   -1    0    0  502    0  0.00000000000E+00  0.00000000000E+00  0.40383428618E+03  0.40383428618E+03  0.00000000000E+00 0. -1.
         -1   -1    0    0    0  501 -0.00000000000E+00 -0.00000000000E+00 -0.13561643601E+03  0.13561643601E+03  0.00000000000E+00 0.  1.
         23    2    1    2    0    0 -0.56608235637E+01  0.65793798715E+02 -0.11159552915E+02  0.11401906633E+03  0.92276448747E+02 0.  0.
         23    2    1    2    0    0  0.43839984754E+02 -0.75134920790E+02  0.33463778207E+03  0.35761857160E+03  0.91331248647E+02 0.  0.
        -11    1    3    3    0    0  0.31545926977E+02  0.23843802836E+02 -0.35265584373E+02  0.52984279590E+02  0.00000000000E+00 0. -1.
         11    1    3    3    0    0 -0.37206750540E+02  0.41949995879E+02  0.24106031459E+02  0.61034786742E+02  0.00000000000E+00 0.  1.
        -13    1    4    4    0    0  0.48800901690E+02 -0.28161741161E+02  0.27901024750E+03  0.28464245973E+03  0.00000000000E+00 0. -1.
         13    1    4    4    0    0 -0.49609169361E+01 -0.46973179629E+02  0.55627534567E+02  0.72976111868E+02  0.00000000000E+00 0.  1.
         21    1    1    2  502  501 -0.38179161190E+02  0.93411220753E+01 -0.55260378982E+02  0.67813084254E+02  0.00000000000E+00 0.  1.
<scales pt_clust_5="13000.00000" pt_clust_6="13000.00000" pt_clust_7="13000.00000" pt_clust_8="13000.00000" pt_clust_9="39.30528"></scales>
<clustering>
<clus scale="   39.305">  2  9  1 -1</clus>
<clus scale="   91.331">  7  8 -1 -1</clus>
<clus scale="   92.276">  5  6 -1 -1</clus>
<clus scale="  123.324">  1  7  2 -1</clus>
<clus scale="  123.324">  1  5  2 -1</clus>
</clustering>
</event>
<event>
 9    1  0.5300912E-006  0.1403076E+03  0.7546771E-02  0.1213355E+00
          1   -1    0    0  502    0  0.00000000000E+00  0.00000000000E+00  0.24653294640E+03  0.24653294640E+03  0.00000000000E+00 0. -1.
         -1   -1    0    0    0  501 -0.00000000000E+00 -0.00000000000E+00 -0.27458989010E+03  0.27458989010E+03  0.00000000000E+00 0.  1.
         23    2    1    2    0    0 -0.33722014717E+02 -0.86445986862E+02 -0.11958703906E+03  0.17695352615E+03  0.91659192591E+02 0.  0.
         23    2    1    2    0    0  0.72023855439E+02  0.10453850738E+03 -0.73332684073E+02  0.17395149006E+03  0.93625333445E+02 0.  0.
        -13    1    3    3    0    0 -0.61578301268E+02 -0.36997464176E+02 -0.81301255476E+02  0.10849236694E+03  0.00000000000E+00 0. -1.
         13    1    3    3    0    0  0.27856286551E+02 -0.49448522686E+02 -0.38285783580E+02  0.68461159211E+02  0.00000000000E+00 0.  1.
        -13    1    4    4    0    0  0.35296152295E+02 -0.78162205807E+01 -0.33300966101E+02  0.49151459941E+02  0.00000000000E+00 0. -1.
         13    1    4    4    0    0  0.36727703143E+02  0.11235472797E+03 -0.40031717972E+02  0.12480003012E+03  0.00000000000E+00 0.  1.
         21    1    1    2  502  501 -0.38301840722E+02 -0.18092520523E+02  0.16486277943E+03  0.17021782029E+03  0.00000000000E+00 0. -1.
<scales pt_clust_5="13000.00000" pt_clust_6="13000.00000" pt_clust_7="13000.00000" pt_clust_8="13000.00000" pt_clust_9="42.36001"></scales>
<clustering>
<clus scale="   42.360">  1  9  2 -1</clus>
<clus scale="   91.659">  5  6 -1 -1</clus>
<clus scale="   93.625">  7  8 -1 -1</clus>
<clus scale="  139.003">  2  5  1 -1</clus>
<clus scale="   42.360">  1  5  2 -1</clus>
</clustering>
</event>
<event>
 9    1  0.5300912E-006  0.1683918E+03  0.7546771E-02  0.1206006E+00
          1   -1    0    0  502    0  0.00000000000E+00  0.00000000000E+00  0.94254681490E+03  0.94254681490E+03  0.00000000000E+00 0. -1.
         -1   -1    0    0    0  501 -0.00000000000E+00 -0.00000000000E+00 -0.46608773718E+02  0.46608773718E+02  0.00000000000E+00 0.  1.
         23    2    1    2    0    0  0.11956570030E+03 -0.69330543976E+02  0.26688838421E+03  0.31270054388E+03  0.86310714863E+02 0.  0.
         23    2    1    2    0    0 -0.74940642053E-01 -0.27843340537E+02  0.26314928329E+03  0.27946148190E+03  0.89866107854E+02 0.  0.
        -11    1    4    4    0    0 -0.37803495529E+02 -0.20829831689E+02  0.67759333981E+02  0.80338742236E+02  0.00000000000E+00 0.  1.
         11    1    4    4    0    0  0.37728554887E+02 -0.70135088481E+01  0.19538994931E+03  0.19912273966E+03  0.00000000000E+00 0. -1.
        -11    1    3    3    0    0  0.24046709116E+00 -0.36213262138E+02  0.38210205887E+02  0.52644828930E+02  0.00000000000E+00 0.  1.
         11    1    3    3    0    0  0.11932523321E+03 -0.33117281838E+02  0.22867817833E+03  0.26005571495E+03  0.00000000000E+00 0. -1.
         21    1    1    2  502  501 -0.11949075966E+03  0.97173884513E+02  0.36590037368E+03  0.39699356284E+03  0.00000000000E+00 0.  1.
<scales pt_clust_5="13000.00000" pt_clust_6="13000.00000" pt_clust_7="13000.00000" pt_clust_8="13000.00000" pt_clust_9="144.58997"></scales>
<clustering>
<clus scale="   86.311">  7  8 -1 -1</clus>
<clus scale="   89.866">  5  6 -1 -1</clus>
<clus scale="   94.081">  1  5  2 -1</clus>
<clus scale="  144.590">  1  9  2 -1</clus>
<clus scale="   94.081">  1  5  2 -1</clus>
</clustering>
</event>
<event>
 9    1  0.5300912E-006  0.1019674E+03  0.7546771E-02  0.1276944E+00
          1   -1    0    0  502    0  0.00000000000E+00  0.00000000000E+00  0.17292894286E+03  0.17292894286E+03  0.00000000000E+00 0. -1.
         -1   -1    0    0    0  501 -0.00000000000E+00 -0.00000000000E+00 -0.94501213476E+02  0.94501213476E+02  0.00000000000E+00 0.  1.
         23    2    1    2    0    0  0.13090877448E+02  0.15692828904E+02  0.21066184711E+02  0.97404132361E+02  0.92877041896E+02 0.  0.
         23    2    1    2    0    0 -0.30193228103E+02 -0.50870577913E+02  0.69456128454E+02  0.12908407263E+03  0.91318658037E+02 0.  0.
        -13    1    3    3    0    0  0.87288439777E+01  0.53872005389E+02  0.22595325060E+01  0.54621343529E+02  0.00000000000E+00 0.  1.
         13    1    3    3    0    0  0.43620334704E+01 -0.38179176484E+02  0.18806652205E+02  0.42782788831E+02  0.00000000000E+00 0. -1.
        -13    1    4    4    0    0 -0.66222280733E+01  0.26419162194E+02  0.11102675688E+02  0.29412504876E+02  0.00000000000E+00 0.  1.
         13    1    4    4    0    0 -0.23571000030E+02 -0.77289740107E+02  0.58353452766E+02  0.99671567751E+02  0.00000000000E+00 0. -1.
         21    1    1    2  502  501  0.17102350655E+02  0.35177749009E+02 -0.12094583782E+02  0.40941951347E+02  0.00000000000E+00 0. -1.
<scales pt_clust_5="13000.00000" pt_clust_6="13000.00000" pt_clust_7="13000.00000" pt_clust_8="13000.00000" pt_clust_9="39.11476"></scales>
<clustering>
<clus scale="   39.115">  2  9  1 -1</clus>
<clus scale="   91.319">  7  8 -1 -1</clus>
<clus scale="   92.877">  5  6 -1 -1</clus>
<clus scale="  100.550">  1  7  2 -1</clus>
<clus scale="  100.550">  1  5  2 -1</clus>
</clustering>
</event>
<event>
 9    1  0.5300912E-006  0.1490393E+03  0.7546771E-02  0.1216861E+00
         -1   -1    0    0    0  501 -0.00000000000E+00  0.00000000000E+00  0.78453062826E+02  0.78453062826E+02  0.00000000000E+00 0.  1.
          1   -1    0    0  502    0  0.00000000000E+00 -0.00000000000E+00 -0.88449287101E+03  0.88449287101E+03  0.00000000000E+00 0. -1.
         23    2    1    2    0    0 -0.45377326203E+02  0.31743500880E+02 -0.15182907178E+03  0.18613708008E+03  0.92348221222E+02 0.  0.
         23    2    1    2    0    0 -0.35161056971E+02 -0.11693684911E+03 -0.50002338330E+02  0.16133170060E+03  0.92828644150E+02 0.  0.
        -11    1    3    3    0    0 -0.38056486082E+02 -0.26777430829E+02 -0.85782496938E+02  0.97590797290E+02  0.00000000000E+00 0.  1.
         11    1    3    3    0    0 -0.73208401210E+01  0.58520931709E+02 -0.66046574842E+02  0.88546282794E+02  0.00000000000E+00 0. -1.
        -13    1    4    4    0    0 -0.35424884319E+02 -0.87219590272E+02  0.97041551977E+01  0.94637994402E+02  0.00000000000E+00 0.  1.
         13    1    4    4    0    0  0.26382734836E+00 -0.29717258835E+02 -0.59706493528E+02  0.66693706202E+02  0.00000000000E+00 0. -1.
         21    1    1    2  502  501  0.80538383174E+02  0.85193348227E+02 -0.60420839808E+03  0.61547715315E+03  0.00000000000E+00 0. -1.
<scales pt_clust_5="13000.00000" pt_clust_6="13000.00000" pt_clust_7="13000.00000" pt_clust_8="13000.00000" pt_clust_9="116.59998"></scales>
<clustering>
<clus scale="   92.348">  5  6 -1 -1</clus>
<clus scale="   92.829">  7  8 -1 -1</clus>
<clus scale="  107.680">  1  5  2 -1</clus>
<clus scale="  116.600">  2  9  1 -1</clus>
<clus scale="  116.600">  2  5  1 -1</clus>
</clustering>
</event>
<event>
 9    1  0.5300912E-006  0.1030417E+03  0.7546771E-02  0.1279360E+00
          1   -1    0    0  502    0  0.00000000000E+00  0.00000000000E+00  0.47873981860E+02  0.47873981860E+02  0.00000000000E+00 0. -1.
         -1   -1    0    0    0  501 -0.00000000000E+00 -0.00000000000E+00 -0.68623012234E+03  0.68623012234E+03  0.00000000000E+00 0.  1.
         23    2    1    2    0    0  0.66620746404E+01  0.60801886518E+01 -0.24228401810E+03  0.25546704560E+03  0.80501639916E+02 0.  0.
         23    2    1    2    0    0  0.62974228932E+02 -0.11193242728E+02 -0.44937292211E+02  0.12062724441E+03  0.91872355312E+02 0.  0.
        -11    1    3    3    0    0 -0.19687802925E+02  0.30594749973E+02 -0.64286213216E+02  0.73867215458E+02  0.00000000000E+00 0.  1.
         11    1    3    3    0    0  0.26349877565E+02 -0.24514561322E+02 -0.17799780488E+03  0.18159983014E+03  0.00000000000E+00 0. -1.
        -11    1    4    4    0    0  0.14279866514E+02  0.33800566099E+02  0.57905513310E+01  0.37147319432E+02  0.00000000000E+00 0.  1.
         11    1    4    4    0    0  0.48694362418E+02 -0.44993808827E+02 -0.50727843542E+02  0.83479924979E+02  0.00000000000E+00 0. -1.
         21    1    1    2  502  501 -0.69636303572E+02  0.51130540759E+01 -0.35113483017E+03  0.35800981419E+03  0.00000000000E+00 0.  1.
<scales pt_clust_5="13000.00000" pt_clust_6="13000.00000" pt_clust_7="13000.00000" pt_clust_8="13000.00000" pt_clust_9="69.82376"></scales>
<clustering>
<clus scale="   69.824">  2  9  1 -1</clus>
<clus scale="   80.502">  5  6 -1 -1</clus>
<clus scale="   91.872">  7  8 -1 -1</clus>
<clus scale="   93.046">  2  5  1 -1</clus>
<clus scale="  103.042">  1  5  2 -1</clus>
</clustering>
</event>
<event>
 9    1  0.5300912E-006  0.2511771E+03  0.7546771E-02  0.1112605E+00
          1   -1    0    0  502    0  0.00000000000E+00  0.00000000000E+00  0.83659211500E+03  0.83659211500E+03  0.00000000000E+00 0. -1.
         -1   -1    0    0    0  501 -0.00000000000E+00 -0.00000000000E+00 -0.12694516149E+03  0.12694516149E+03  0.00000000000E+00 0.  1.
         23    2    1    2    0    0  0.19958363822E+03  0.10508163972E+01  0.18284422571E+03  0.28604757551E+03  0.92501198485E+02 0.  0.
         23    2    1    2    0    0 -0.24482094948E+03 -0.10679863597E+03  0.47208823030E+03  0.55012136931E+03  0.91776782642E+02 0.  0.
        -11    1    4    4    0    0 -0.13049710046E+03 -0.32428878342E+02  0.15655844792E+03  0.20637750118E+03  0.00000000000E+00 0.  1.
         11    1    4    4    0    0 -0.11432384901E+03 -0.74369757631E+02  0.31552978239E+03  0.34374386813E+03  0.00000000000E+00 0. -1.
        -13    1    3    3    0    0  0.17570743839E+03  0.68225392374E+01  0.19151758414E+03  0.25999737688E+03  0.00000000000E+00 0.  1.
         13    1    3    3    0    0  0.23876199825E+02 -0.57717228402E+01 -0.86733584262E+01  0.26050198637E+02  0.00000000000E+00 0. -1.
         21    1    1    2  502  501  0.45237311259E+02  0.10574781958E+03  0.54714497494E+02  0.12736833166E+03  0.00000000000E+00 0.  1.
<scales pt_clust_5="13000.00000" pt_clust_6="13000.00000" pt_clust_7="13000.00000" pt_clust_8="13000.00000" pt_clust_9="115.01746"></scales>
<clustering>
<clus scale="   91.777">  5  6 -1 -1</clus>
<clus scale="   92.501">  7  8 -1 -1</clus>
<clus scale="  115.017">  2  9  1 -1</clus>
<clus scale="  250.911">  1  5  2 -1</clus>
<clus scale="  250.911">  1  5  2 -1</clus>
</clustering>
</event>
<event>
 9    1  0.5300912E-006  0.1043254E+03  0.7546771E-02  0.1272383E+00
         -3   -1    0    0    0  501 -0.00000000000E+00  0.00000000000E+00  0.11473250102E+03  0.11473250102E+03  0.00000000000E+00 0.  1.
          3   -1    0    0  502    0  0.00000000000E+00 -0.00000000000E+00 -0.17779987563E+03  0.17779987563E+03  0.00000000000E+00 0. -1.
         23    2    1    2    0    0  0.31220449121E+02  0.48181523565E+02  0.32431320786E+02  0.11433656001E+03  0.93407080728E+02 0.  0.
         23    2    1    2    0    0  0.13969839036E+02 -0.28316727953E+02 -0.82713012614E+02  0.12720320999E+03  0.91335758009E+02 0.  0.
        -11    1    4    4    0    0 -0.31180328436E+02  0.98656978745E+01 -0.11558909266E+02  0.34686499670E+02  0.00000000000E+00 0.  1.
         11    1    4    4    0    0  0.45150167473E+02 -0.38182425827E+02 -0.71154103349E+02  0.92516710319E+02  0.00000000000E+00 0. -1.
        -13    1    3    3    0    0  0.45987293204E+02 -0.11226976893E+02  0.22146869020E+02  0.52262414351E+02  0.00000000000E+00 0.  1.
         13    1    3    3    0    0 -0.14766844084E+02  0.59408500458E+02  0.10284451766E+02  0.62074145657E+02  0.00000000000E+00 0. -1.
         21    1    1    2  502  501 -0.45190288157E+02 -0.19864795612E+02 -0.12785682782E+02  0.50992606647E+02  0.00000000000E+00 0.  1.
<scales pt_clust_5="13000.00000" pt_clust_6="13000.00000" pt_clust_7="13000.00000" pt_clust_8="13000.00000" pt_clust_9="49.36367"></scales>
<clustering>
<clus scale="   49.364">  2  9  1 -1</clus>
<clus scale="   91.336">  5  6 -1 -1</clus>
<clus scale="   93.407">  7  8 -1 -1</clus>
<clus scale="  102.475">  2  5  1 -1</clus>
<clus scale="   49.364">  2  5  1 -1</clus>
</clustering>
</event>
<event>
 9    1  0.5300912E-006  0.2170369E+03  0.7546771E-02  0.1140325E+00
          1   -1    0    0  502    0  0.00000000000E+00  0.00000000000E+00  0.89477752754E+03  0.89477752754E+03  0.00000000000E+00 0. -1.
         -1   -1    0    0    0  501 -0.00000000000E+00 -0.00000000000E+00 -0.46125948726E+03  0.46125948726E+03  0.00000000000E+00 0.  1.
         23    2    1    2    0    0  0.13655185310E+03  0.14169188953E+03 -0.36955664901E+03  0.42826593672E+03  0.90092150540E+02 0.  0.
         23    2    1    2    0    0 -0.11966079635E+03  0.12635106931E+03  0.33749480118E+03  0.39027971275E+03  0.90178791632E+02 0.  0.
        -13    1    4    4    0    0 -0.49498999549E+02  0.54618016844E+02  0.59494713775E+02  0.94725390933E+02  0.00000000000E+00 0. -1.
         13    1    4    4    0    0 -0.70161796804E+02  0.71733052467E+02  0.27800008740E+03  0.29555432181E+03  0.00000000000E+00 0.  1.
        -13    1    3    3    0    0  0.79696686374E+02  0.10469816570E+03 -0.15539741268E+03  0.20362127489E+03  0.00000000000E+00 0. -1.
         13    1    3    3    0    0  0.56855166722E+02  0.36993723830E+02 -0.21415923633E+03  0.22464466183E+03  0.00000000000E+00 0.  1.
         21    1    1    2  502  501 -0.16891056745E+02 -0.26804295884E+03  0.46557988811E+03  0.53749136532E+03  0.00000000000E+00 0. -1.
<scales pt_clust_5="13000.00000" pt_clust_6="13000.00000" pt_clust_7="13000.00000" pt_clust_8="13000.00000" pt_clust_9="197.45489"></scales>
<clustering>
<clus scale="   90.092">  7  8 -1 -1</clus>
<clus scale="   90.179">  5  6 -1 -1</clus>
<clus scale="  195.999">  1  5  2 -1</clus>
<clus scale="  197.455">  1  9  2 -1</clus>
<clus scale="  195.999">  1  5  2 -1</clus>
</clustering>
</event>
<event>
 9    1  0.5300912E-006  0.1355658E+03  0.7546771E-02  0.1229681E+00
          1   -1    0    0  502    0  0.00000000000E+00  0.00000000000E+00  0.42042419865E+03  0.42042419865E+03  0.00000000000E+00 0. -1.
         -1   -1    0    0    0  501 -0.00000000000E+00 -0.00000000000E+00 -0.91051509481E+02  0.91051509481E+02  0.00000000000E+00 0.  1.
         23    2    1    2    0    0 -0.67896208973E+02  0.17906113477E+02  0.91613107143E+02  0.14734775620E+03  0.91585346879E+02 0.  0.
         23    2    1    2    0    0 -0.28053314709E+02  0.54652987799E+02  0.21560771814E+03  0.24180935422E+03  0.90615330516E+02 0.  0.
        -11    1    3    3    0    0 -0.28192273445E+02  0.22800043555E+02  0.10009012372E+03  0.10645505687E+03  0.00000000000E+00 0. -1.
         11    1    3    3    0    0 -0.39703935529E+02 -0.48939300783E+01 -0.84770165731E+01  0.40892699325E+02  0.00000000000E+00 0.  1.
        -13    1    4    4    0    0 -0.12627039313E+02  0.74848027478E+02  0.19445571134E+03  0.20874552214E+03  0.00000000000E+00 0. -1.
         13    1    4    4    0    0 -0.15426275396E+02 -0.20195039679E+02  0.21152006797E+02  0.33063832080E+02  0.00000000000E+00 0.  1.
         21    1    1    2  502  501  0.95949523682E+02 -0.72559101276E+02  0.22151863882E+02  0.12231859771E+03  0.00000000000E+00 0.  1.
<scales pt_clust_5="13000.00000" pt_clust_6="13000.00000" pt_clust_7="13000.00000" pt_clust_8="13000.00000" pt_clust_9="99.95102"></scales>
<clustering>
<clus scale="   90.615">  7  8 -1 -1</clus>
<clus scale="   91.585">  5  6 -1 -1</clus>
<clus scale="  109.476">  1  7  2 -1</clus>
<clus scale="   99.951">  2  9  1 -1</clus>
<clus scale="  109.476">  1  5  2 -1</clus>
</clustering>
</event>
<event>
 9    1  0.5300912E-006  0.1400955E+03  0.7546771E-02  0.1230309E+00
         -1   -1    0    0    0  501 -0.00000000000E+00  0.00000000000E+00  0.95315253087E+03  0.95315253087E+03  0.00000000000E+00 0.  1.
          1   -1    0    0  502    0  0.00000000000E+00 -0.00000000000E+00 -0.31923879063E+02  0.31923879063E+02  0.00000000000E+00 0. -1.
         23    2    1    2    0    0  0.42463215793E+00 -0.11307441094E+03  0.47084920897E+03  0.49299385716E+03  0.92509258388E+02 0.  0.
         23    2    1    2    0    0  0.25261255458E+02  0.17842661366E+02  0.25651009938E+03  0.27456433909E+03  0.92906693117E+02 0.  0.
        -11    1    4    4    0    0 -0.10342703685E+02 -0.25561674744E+02  0.16438658397E+03  0.16668329168E+03  0.00000000000E+00 0.  1.
         11    1    4    4    0    0  0.35603959144E+02  0.43404336109E+02  0.92123515403E+02  0.10788104741E+03  0.00000000000E+00 0. -1.
        -13    1    3    3    0    0  0.34051708358E+02 -0.24227827921E+02  0.23577672810E+03  0.23945181562E+03  0.00000000000E+00 0.  1.
         13    1    3    3    0    0 -0.33627076200E+02 -0.88846583021E+02  0.23507248087E+03  0.25354204154E+03  0.00000000000E+00 0. -1.
         21    1    1    2  502  501 -0.25685887616E+02  0.95231749576E+02  0.19386934346E+03  0.21751821369E+03  0.00000000000E+00 0. -1.
<scales pt_clust_5="13000.00000" pt_clust_6="13000.00000" pt_clust_7="13000.00000" pt_clust_8="13000.00000" pt_clust_9="105.20823"></scales>
<clustering>
<clus scale="   92.509">  7  8 -1 -1</clus>
<clus scale="   92.907">  5  6 -1 -1</clus>
<clus scale="   97.919">  2  5  1 -1</clus>
<clus scale="  105.208">  2  9  1 -1</clus>
<clus scale="   97.919">  2  5  1 -1</clus>
</clustering>
</event>
<event>
 9    1  0.5300912E-006  0.1072085E+03  0.7546771E-02  0.1271592E+00
          1   -1    0    0  502    0  0.00000000000E+00  0.00000000000E+00  0.60326807597E+03  0.60326807597E+03  0.00000000000E+00 0. -1.
         -1   -1    0    0    0  501 -0.00000000000E+00 -0.00000000000E+00 -0.52671752136E+02  0.52671752136E+02  0.00000000000E+00 0.  1.
         23    2    1    2    0    0 -0.77228764549E+02 -0.49309908529E+02  0.17602806855E+03  0.21824054954E+03  0.90814687100E+02 0.  0.
         23    2    1    2    0    0  0.11318889166E+02 -0.12284250399E+02  0.30935441166E+03  0.32638531948E+03  0.10270445316E+03 0.  0.
        -11    1    3    3    0    0 -0.85213098276E+02 -0.21202275336E+02  0.83368750243E+02  0.12108326521E+03  0.00000000000E+00 0.  1.
         11    1    3    3    0    0  0.79843337272E+01 -0.28107633193E+02  0.92659318312E+02  0.97157284332E+02  0.00000000000E+00 0. -1.
        -13    1    4    4    0    0  0.47016605481E+02  0.24193264869E+02  0.16584629248E+03  0.17407144506E+03  0.00000000000E+00 0. -1.
         13    1    4    4    0    0 -0.35697716315E+02 -0.36477515268E+02  0.14350811918E+03  0.15231387442E+03  0.00000000000E+00 0.  1.
         21    1    1    2  502  501  0.65909875382E+02  0.61594158929E+02  0.65213843621E+02  0.11131395908E+03  0.00000000000E+00 0.  1.
<scales pt_clust_5="13000.00000" pt_clust_6="13000.00000" pt_clust_7="13000.00000" pt_clust_8="13000.00000" pt_clust_9="90.21060"></scales>
<clustering>
<clus scale="   90.211">  2  9  1 -1</clus>
<clus scale="   90.815">  5  6 -1 -1</clus>
<clus scale="   95.879">  2  5  1 -1</clus>
<clus scale="  102.704">  7  8 -1 -1</clus>
<clus scale="  107.208">  1  5  2 -1</clus>
</clustering>
</event>
<event>
 9    1  0.5300912E-006  0.1063228E+03  0.7546771E-02  0.1267649E+00
         -2   -1    0    0    0  501 -0.00000000000E+00  0.00000000000E+00  0.10424156553E+03  0.10424156553E+03  0.00000000000E+00 0.  1.
          2   -1    0    0  502    0  0.00000000000E+00 -0.00000000000E+00 -0.38773549638E+03  0.38773549638E+03  0.00000000000E+00 0. -1.
         23    2    1    2    0    0  0.12691767274E+02  0.26719823091E+02  0.31353766706E+02  0.10055699719E+03  0.90849441912E+02 0.  0.
         23    2    1    2    0    0 -0.47488865618E+02 -0.34980302838E+02 -0.33385753273E+03  0.35091762760E+03  0.90573259054E+02 0.  0.
        -11    1    3    3    0    0  0.37918351921E+01 -0.33973378516E+02  0.12140969623E+02  0.36276322929E+02  0.00000000000E+00 0. -1.
         11    1    3    3    0    0  0.88999320816E+01  0.60693201606E+02  0.19212797083E+02  0.64280674265E+02  0.00000000000E+00 0.  1.
        -11    1    4    4    0    0 -0.25720524685E+02  0.25390015481E+02 -0.18982657356E+03  0.19323645181E+03  0.00000000000E+00 0.  1.
         11    1    4    4    0    0 -0.21768340933E+02 -0.60370318320E+02 -0.14403095916E+03  0.15768117579E+03  0.00000000000E+00 0. -1.
         21    1    1    2  502  501  0.34797098345E+02  0.82604797477E+01  0.19009835171E+02  0.40502437113E+02  0.00000000000E+00 0. -1.
<scales pt_clust_5="13000.00000" pt_clust_6="13000.00000" pt_clust_7="13000.00000" pt_clust_8="13000.00000" pt_clust_9="35.76414"></scales>
<clustering>
<clus scale="   35.764">  1  9  2 -1</clus>
<clus scale="   90.573">  7  8 -1 -1</clus>
<clus scale="   90.849">  5  6 -1 -1</clus>
<clus scale="  106.087">  2  7  1 -1</clus>
<clus scale="  106.087">  2  5  1 -1</clus>
</clustering>
</event>
<event>
 9    1  0.5300912E-006  0.1571283E+03  0.7546771E-02  0.1211954E+00
          1   -1    0    0  502    0  0.00000000000E+00  0.00000000000E+00  0.20132181707E+03  0.20132181707E+03  0.00000000000E+00 0. -1.
         -1   -1    0    0    0  501 -0.00000000000E+00 -0.00000000000E+00 -0.25912655509E+03  0.25912655509E+03  0.00000000000E+00 0.  1.
         23    2    1    2    0    0  0.29944996732E+02  0.22830349919E+02 -0.81719175930E+02  0.13066939963E+03  0.94755161218E+02 0.  0.
         23    2    1    2    0    0 -0.13313658720E+03 -0.85357605199E+02 -0.49592367629E+02  0.18849410973E+03  0.89773909679E+02 0.  0.
        -11    1    4    4    0    0  0.11265606655E+02 -0.20164321329E+02 -0.26489567946E+01  0.23249316551E+02  0.00000000000E+00 0. -1.
         11    1    4    4    0    0 -0.14440219385E+03 -0.65193283870E+02 -0.46943410834E+02  0.16524479318E+03  0.00000000000E+00 0.  1.
        -11    1    3    3    0    0 -0.12974635583E+02  0.49311912160E+02 -0.34360857291E+02  0.61487188610E+02  0.00000000000E+00 0.  1.
         11    1    3    3    0    0  0.42919632315E+02 -0.26481562241E+02 -0.47358318639E+02  0.69182211016E+02  0.00000000000E+00 0. -1.
         21    1    1    2  502  501  0.10319159047E+03  0.62527255280E+02  0.73506805544E+02  0.14128486280E+03  0.00000000000E+00 0. -1.
<scales pt_clust_5="13000.00000" pt_clust_6="13000.00000" pt_clust_7="13000.00000" pt_clust_8="13000.00000" pt_clust_9="128.95712"></scales>
<clustering>
<clus scale="   89.774">  5  6 -1 -1</clus>
<clus scale="   94.755">  7  8 -1 -1</clus>
<clus scale="  101.963">  2  7  1 -1</clus>
<clus scale="  128.957">  1  9  2 -1</clus>
<clus scale="  128.957">  1  5  2 -1</clus>
</clustering>
</event>
<event>
 9    1  0.5300912E-006  0.1095324E+03  0.7546771E-02  0.1263003E+00
         -1   -1    0    0    0  501 -0.00000000000E+00  0.00000000000E+00  0.40054860469E+02  0.40054860469E+02  0.00000000000E+00 0.  1.
          1   -1    0    0  502    0  0.00000000000E+00 -0.00000000000E+00 -0.60658943630E+03  0.60658943630E+03  0.00000000000E+00 0. -1.
         23    2    1    2    0    0 -0.27619396566E+02  0.17596312392E+01 -0.15349347272E+03  0.18065773602E+03  0.91164927725E+02 0.  0.
         23    2    1    2    0    0  0.45104310888E+02 -0.75354531230E+02 -0.32563715383E+03  0.35039511693E+03  0.94997251436E+02 0.  0.
        -11    1    3    3    0    0 -0.45318734499E+02  0.28402084531E+02 -0.53400544374E+02  0.75578331826E+02  0.00000000000E+00 0.  1.
         11    1    3    3    0    0  0.17699337933E+02 -0.26642453291E+02 -0.10009292834E+03  0.10507940419E+03  0.00000000000E+00 0. -1.
        -13    1    4    4    0    0 -0.20116892934E+02 -0.44580296627E+02 -0.19639900137E+03  0.20239728251E+03  0.00000000000E+00 0.  1.
         13    1    4    4    0    0  0.65221203821E+02 -0.30774234602E+02 -0.12923815246E+03  0.14799783443E+03  0.00000000000E+00 0. -1.
         21    1    1    2  502  501 -0.17484914322E+02  0.73594899991E+02 -0.87403949290E+02  0.11559144382E+03  0.00000000000E+00 0.  1.
<scales pt_clust_5="13000.00000" pt_clust_6="13000.00000" pt_clust_7="13000.00000" pt_clust_8="13000.00000" pt_clust_9="75.64345"></scales>
<clustering>
<clus scale="   75.643">  1  9  2 -1</clus>
<clus scale="   91.165">  5  6 -1 -1</clus>
<clus scale="   94.997">  7  8 -1 -1</clus>
<clus scale="  106.226">  1  5  2 -1</clus>
<clus scale="  109.532">  2  5  1 -1</clus>
</clustering>
</event>
<event>
 9    1  0.5300912E-006  0.3174917E+03  0.7546771E-02  0.1092925E+00
          2   -1    0    0  502    0  0.00000000000E+00  0.00000000000E+00  0.95284599591E+03  0.95284599591E+03  0.00000000000E+00 0. -1.
         -2   -1    0    0    0  501 -0.00000000000E+00 -0.00000000000E+00 -0.34435628602E+03  0.34435628602E+03  0.00000000000E+00 0.  1.
         23    2    1    2    0    0 -0.87854262124E+02 -0.16208699485E+03 -0.18154776335E+03  0.27495342442E+03  0.93001236310E+02 0.  0.
         23    2    1    2    0    0  0.57968594450E+02 -0.21788715347E+03  0.17898971881E+03  0.30207327843E+03  0.91519268518E+02 0.  0.
        -11    1    4    4    0    0  0.43041650305E+02 -0.50812962511E+02  0.90686817629E+02  0.11251062044E+03  0.00000000000E+00 0. -1.
         11    1    4    4    0    0  0.14926944145E+02 -0.16707419096E+03  0.88302901183E+02  0.18956265799E+03  0.00000000000E+00 0.  1.
        -11    1    3    3    0    0 -0.71490792311E+02 -0.10935009822E+03 -0.17637911619E+03  0.21949480631E+03  0.00000000000E+00 0.  1.
         11    1    3    3    0    0 -0.16363469813E+02 -0.52736896628E+02 -0.51686471516E+01  0.55458618119E+02  0.00000000000E+00 0. -1.
         21    1    1    2  502  501  0.29885667674E+02  0.37997414832E+03  0.61104775442E+03  0.72017557908E+03  0.00000000000E+00 0. -1.
<scales pt_clust_5="13000.00000" pt_clust_6="13000.00000" pt_clust_7="13000.00000" pt_clust_8="13000.00000" pt_clust_9="304.01518"></scales>
<clustering>
<clus scale="   91.519">  5  6 -1 -1</clus>
<clus scale="   93.001">  7  8 -1 -1</clus>
<clus scale="  206.494">  2  7  1 -1</clus>
<clus scale="  304.015">  1  9  2 -1</clus>
<clus scale="  304.015">  1  5  2 -1</clus>
</clustering>
</event>
<event>
 9    1  0.5300912E-006  0.4657945E+03  0.7546771E-02  0.1070735E+00
          1   -1    0    0  502    0  0.00000000000E+00  0.00000000000E+00  0.61221353647E+03  0.61221353647E+03  0.00000000000E+00 0. -1.
         -1   -1    0    0    0  501 -0.00000000000E+00 -0.00000000000E+00 -0.49005997264E+03  0.49005997264E+03  0.00000000000E+00 0.  1.
         23    2    1    2    0    0 -0.34582372755E+03 -0.33181140039E+03 -0.77982451603E+02  0.49406994304E+03  0.91274256445E+02 0.  0.
         23    2    1    2    0    0  0.75628290211E+02 -0.38820327919E+01  0.12213570184E+03  0.17027696907E+03  0.91336783788E+02 0.  0.
        -13    1    3    3    0    0 -0.25850758036E+03 -0.29323163873E+03 -0.77970234097E+02  0.39861048714E+03  0.00000000000E+00 0.  1.
         13    1    3    3    0    0 -0.87316147194E+02 -0.38579761656E+02 -0.12217505523E-01  0.95459455894E+02  0.00000000000E+00 0. -1.
        -13    1    4    4    0    0  0.39606257030E+00 -0.36346961871E+02  0.31557775503E+02  0.48136801904E+02  0.00000000000E+00 0.  1.
         13    1    4    4    0    0  0.75232227641E+02  0.32464929079E+02  0.90577926339E+02  0.12214016717E+03  0.00000000000E+00 0. -1.
         21    1    1    2  502  501  0.27019543734E+03  0.33569343318E+03  0.78000313589E+02  0.43792659700E+03  0.00000000000E+00 0. -1.
<scales pt_clust_5="13000.00000" pt_clust_6="13000.00000" pt_clust_7="13000.00000" pt_clust_8="13000.00000" pt_clust_9="456.76424"></scales>
<clustering>
<clus scale="   91.274">  5  6 -1 -1</clus>
<clus scale="   91.337">  7  8 -1 -1</clus>
<clus scale="  118.647">  1  7  2 -1</clus>
<clus scale="  456.764">  1  9  2 -1</clus>
<clus scale="  118.647">  1  5  2 -1</clus>
</clustering>
</event>
<event>
 9    1  0.5300912E-006  0.1064741E+03  0.7546771E-02  0.1267299E+00
          1   -1    0    0  502    0  0.00000000000E+00  0.00000000000E+00  0.35469399792E+03  0.35469399792E+03  0.00000000000E+00 0. -1.
         -1   -1    0    0    0  501 -0.00000000000E+00 -0.00000000000E+00 -0.50661986413E+02  0.50661986413E+02  0.00000000000E+00 0.  1.
         23    2    1    2    0    0  0.32898307007E+02  0.64764942904E+02  0.10321455825E+03  0.15583961121E+03  0.91410847023E+02 0.  0.
         23    2    1    2    0    0 -0.27176807915E+02 -0.36968101261E+02  0.19542571403E+03  0.22062916473E+03  0.91546705157E+02 0.  0.
        -11    1    3    3    0    0 -0.23017282317E+02  0.19396203059E+02  0.70684451235E+02  0.76826425302E+02  0.00000000000E+00 0. -1.
         11    1    3    3    0    0  0.55915589324E+02  0.45368739844E+02  0.32530107015E+02  0.79013185905E+02  0.00000000000E+00 0.  1.
        -13    1    4    4    0    0 -0.14084700210E+02 -0.53358699604E+02  0.19149267472E+03  0.19928616127E+03  0.00000000000E+00 0. -1.
         13    1    4    4    0    0 -0.13092107705E+02  0.16390598343E+02  0.39330393079E+01  0.21343003453E+02  0.00000000000E+00 0.  1.
         21    1    1    2  502  501 -0.57214990914E+01 -0.27796841643E+02  0.53917392295E+01  0.28887208399E+02  0.00000000000E+00 0.  1.
<scales pt_clust_5="13000.00000" pt_clust_6="13000.00000" pt_clust_7="13000.00000" pt_clust_8="13000.00000" pt_clust_9="28.37957"></scales>
<clustering>
<clus scale="   28.380">  2  9  1 -1</clus>
<clus scale="   91.411">  5  6 -1 -1</clus>
<clus scale="   91.547">  7  8 -1 -1</clus>
<clus scale="  106.357">  2  5  1 -1</clus>
<clus scale="  106.474">  1  5  2 -1</clus>
</clustering>
</event>
<event>
 9    1  0.5300912E-006  0.1464878E+03  0.7546771E-02  0.1215333E+00
         -1   -1    0    0    0  501 -0.00000000000E+00  0.00000000000E+00  0.13476942801E+03  0.13476942801E+03  0.00000000000E+00 0.  1.
          1   -1    0    0  502    0  0.00000000000E+00 -0.00000000000E+00 -0.33572429019E+03  0.33572429019E+03  0.00000000000E+00 0. -1.
         23    2    1    2    0    0  0.65750578052E+02 -0.51186387677E+02 -0.15752747279E+03  0.19760847253E+03  0.85387463570E+02 0.  0.
         23    2    1    2    0    0 -0.62498097027E+01 -0.66211853896E+02 -0.72966777401E+02  0.13799542395E+03  0.96413260030E+02 0.  0.
        -11    1    4    4    0    0  0.15806327034E+02 -0.53915929633E+02  0.46470691697E+01  0.56376969538E+02  0.00000000000E+00 0.  1.
         11    1    4    4    0    0 -0.22056136737E+02 -0.12295924263E+02 -0.77613846571E+02  0.81618454413E+02  0.00000000000E+00 0. -1.
        -13    1    3    3    0    0  0.63769048085E+02  0.31148558464E+01 -0.98473118141E+02  0.11735905937E+03  0.00000000000E+00 0.  1.
         13    1    3    3    0    0  0.19815299668E+01 -0.54301243523E+02 -0.59054354654E+02  0.80249413161E+02  0.00000000000E+00 0. -1.
         21    1    1    2  502  501 -0.59500768349E+02  0.11739824157E+03  0.29539388014E+02  0.13488982172E+03  0.00000000000E+00 0.  1.
<scales pt_clust_5="13000.00000" pt_clust_6="13000.00000" pt_clust_7="13000.00000" pt_clust_8="13000.00000" pt_clust_9="119.02794"></scales>
<clustering>
<clus scale="   85.387">  7  8 -1 -1</clus>
<clus scale="   96.413">  5  6 -1 -1</clus>
<clus scale="  117.126">  2  5  1 -1</clus>
<clus scale="  119.028">  1  9  2 -1</clus>
<clus scale="  117.126">  2  5  1 -1</clus>
</clustering>
</event>
<event>
 9    1  0.5300912E-006  0.1394464E+03  0.7546771E-02  0.1231796E+00
          2   -1    0    0  502    0  0.00000000000E+00  0.00000000000E+00  0.63397083563E+03  0.63397083563E+03  0.00000000000E+00 0. -1.
         -2   -1    0    0    0  501 -0.00000000000E+00 -0.00000000000E+00 -0.52885494061E+02  0.52885494061E+02  0.00000000000E+00 0.  1.
         23    2    1    2    0    0 -0.72644121989E+02  0.95981380444E+02  0.17569340664E+03  0.23082211407E+03  0.89000457067E+02 0.  0.
         23    2    1    2    0    0  0.31930198223E+02 -0.53500919169E+01  0.27971999749E+03  0.29583093878E+03  0.90689063857E+02 0.  0.
        -11    1    3    3    0    0 -0.44825174404E+01  0.76201568233E+02  0.11149043015E+03  0.13511805201E+03  0.00000000000E+00 0.  1.
         11    1    3    3    0    0 -0.68161604548E+02  0.19779812211E+02  0.64202976483E+02  0.95704062061E+02  0.00000000000E+00 0. -1.
        -11    1    4    4    0    0 -0.27062872746E+02  0.13946410755E+02  0.13449700248E+03  0.13789976479E+03  0.00000000000E+00 0. -1.
         11    1    4    4    0    0  0.58993070969E+02 -0.19296502672E+02  0.14522299501E+03  0.15793117399E+03  0.00000000000E+00 0.  1.
         21    1    1    2  502  501  0.40713923765E+02 -0.90631288527E+02  0.12567193745E+03  0.16020327684E+03  0.00000000000E+00 0.  1.
<scales pt_clust_5="13000.00000" pt_clust_6="13000.00000" pt_clust_7="13000.00000" pt_clust_8="13000.00000" pt_clust_9="107.35097"></scales>
<clustering>
<clus scale="   89.000">  5  6 -1 -1</clus>
<clus scale="   90.689">  7  8 -1 -1</clus>
<clus scale="   96.295">  1  7  2 -1</clus>
<clus scale="  107.351">  2  9  1 -1</clus>
<clus scale="   96.295">  1  5  2 -1</clus>
</clustering>
</event>
<event>
 9    1  0.5300912E-006  0.1416951E+03  0.7546771E-02  0.1211498E+00
          2   -1    0    0  502    0  0.00000000000E+00  0.00000000000E+00  0.41373838925E+03  0.41373838925E+03  0.00000000000E+00 0. -1.
         -2   -1    0    0    0  501 -0.00000000000E+00 -0.00000000000E+00 -0.11027552947E+03  0.11027552947E+03  0.00000000000E+00 0.  1.
         23    2    1    2    0    0  0.60043737869E+02  0.48141824583E+02  0.63587371504E+02  0.13658749506E+03  0.93219655973E+02 0.  0.
         23    2    1    2    0    0 -0.54836443858E+02 -0.15236318634E+03  0.94588917938E+02  0.20854826491E+03  0.91234528958E+02 0.  0.
        -11    1    3    3    0    0  0.73474739965E+02  0.24083021209E+02  0.12197943198E+02  0.78277194263E+02  0.00000000000E+00 0. -1.
         11    1    3    3    0    0 -0.13431002096E+02  0.24058803375E+02  0.51389428306E+02  0.58310300794E+02  0.00000000000E+00 0.  1.
        -11    1    4    4    0    0 -0.51156258154E+02 -0.11913636850E+03  0.11157185581E+03  0.17105179349E+03  0.00000000000E+00 0.  1.
         11    1    4    4    0    0 -0.36801857039E+01 -0.33226817836E+02 -0.16982937868E+02  0.37496471420E+02  0.00000000000E+00 0. -1.
         21    1    1    2  502  501 -0.52072940115E+01  0.10422136176E+03  0.14528657034E+03  0.17887815875E+03  0.00000000000E+00 0. -1.
<scales pt_clust_5="13000.00000" pt_clust_6="13000.00000" pt_clust_7="13000.00000" pt_clust_8="13000.00000" pt_clust_9="104.35137"></scales>
<clustering>
<clus scale="   91.235">  7  8 -1 -1</clus>
<clus scale="   93.220">  5  6 -1 -1</clus>
<clus scale="  104.351">  1  9  2 -1</clus>
<clus scale="  140.397">  1  7  2 -1</clus>
<clus scale="  104.351">  1  5  2 -1</clus>
</clustering>
</event>
<event>
 9    1  0.5300912E-006  0.9372101E+02  0.7546771E-02  0.1295047E+00
          1   -1    0    0  502    0  0.00000000000E+00  0.00000000000E+00  0.45060496259E+03  0.45060496259E+03  0.00000000000E+00 0. -1.
         -1   -1    0    0    0  501 -0.00000000000E+00 -0.00000000000E+00 -0.31326902895E+02  0.31326902895E+02  0.00000000000E+00 0.  1.
         23    2    1    2    0    0  0.28487287444E+02  0.76181312653E+01  0.14710164555E+03  0.17447234210E+03  0.89062576692E+02 0.  0.
         23    2    1    2    0    0  0.70103409213E+01 -0.32470309805E+02  0.21486959498E+03  0.23561396735E+03  0.90782888619E+02 0.  0.
        -11    1    4    4    0    0 -0.21751154183E+02 -0.43090769953E+02  0.56533788806E+02  0.74337046216E+02  0.00000000000E+00 0.  1.
         11    1    4    4    0    0  0.28761495104E+02  0.10620460148E+02  0.15833580617E+03  0.16127692114E+03  0.00000000000E+00 0. -1.
        -13    1    3    3    0    0  0.48114804551E+01  0.42900311586E+02  0.38457099937E+02  0.57814666080E+02  0.00000000000E+00 0. -1.
         13    1    3    3    0    0  0.23675806989E+02 -0.35282180321E+02  0.10864454561E+03  0.11665767602E+03  0.00000000000E+00 0.  1.
         21    1    1    2  502  501 -0.35497628366E+02  0.24852178540E+02  0.57306819167E+02  0.71845556027E+02  0.00000000000E+00 0. -1.
<scales pt_clust_5="13000.00000" pt_clust_6="13000.00000" pt_clust_7="13000.00000" pt_clust_8="13000.00000" pt_clust_9="43.33258"></scales>
<clustering>
<clus scale="   43.333">  2  9  1 -1</clus>
<clus scale="   89.063">  7  8 -1 -1</clus>
<clus scale="   90.783">  5  6 -1 -1</clus>
<clus scale="   92.056">  2  7  1 -1</clus>
<clus scale="   93.721">  1  5  2 -1</clus>
</clustering>
</event>
<event>
 9    1  0.5300912E-006  0.1033487E+03  0.7546771E-02  0.1274641E+00
         -1   -1    0    0    0  501 -0.00000000000E+00  0.00000000000E+00  0.73634617265E+02  0.73634617265E+02  0.00000000000E+00 0.  1.
          1   -1    0    0  502    0  0.00000000000E+00 -0.00000000000E+00 -0.21377422477E+03  0.21377422477E+03  0.00000000000E+00 0. -1.
         23    2    1    2    0    0 -0.25232338578E+02 -0.94467685630E+01 -0.79010999102E+01  0.97346907112E+02  0.93209873930E+02 0.  0.
         23    2    1    2    0    0  0.52963769771E+02  0.20794518763E+01 -0.11847354143E+03  0.15823766864E+03  0.90519029650E+02 0.  0.
        -13    1    3    3    0    0 -0.56509194956E+02 -0.17225149145E+02 -0.20801466905E+02  0.62631429036E+02  0.00000000000E+00 0.  1.
         13    1    3    3    0    0  0.31276856378E+02  0.77783805823E+01  0.12900366995E+02  0.34715478075E+02  0.00000000000E+00 0. -1.
        -13    1    4    4    0    0  0.27601460521E+02 -0.16792575127E+02  0.32541927708E+01  0.32471848929E+02  0.00000000000E+00 0.  1.
         13    1    4    4    0    0  0.25362309250E+02  0.18872027003E+02 -0.12172773420E+03  0.12576581971E+03  0.00000000000E+00 0. -1.
         21    1    1    2  502  501 -0.27731431192E+02  0.73673166867E+01 -0.13764966169E+02  0.31824266288E+02  0.00000000000E+00 0. -1.
<scales pt_clust_5="13000.00000" pt_clust_6="13000.00000" pt_clust_7="13000.00000" pt_clust_8="13000.00000" pt_clust_9="28.69337"></scales>
<clustering>
<clus scale="   28.693">  1  9  2 -1</clus>
<clus scale="   90.519">  7  8 -1 -1</clus>
<clus scale="   93.210">  5  6 -1 -1</clus>
<clus scale="  100.929">  2  7  1 -1</clus>
<clus scale="  100.929">  2  5  1 -1</clus>
</clustering>
</event>
<event>
 9    1  0.5300912E-006  0.1082946E+03  0.7546771E-02  0.1265727E+00
          1   -1    0    0  502    0  0.00000000000E+00  0.00000000000E+00  0.11032775066E+03  0.11032775066E+03  0.00000000000E+00 0. -1.
         -1   -1    0    0    0  501 -0.00000000000E+00 -0.00000000000E+00 -0.17046134628E+03  0.17046134628E+03  0.00000000000E+00 0.  1.
         23    2    1    2    0    0  0.26640614745E+02 -0.49724558414E+02 -0.88487363018E+02  0.13959140719E+03  0.92051580557E+02 0.  0.
         23    2    1    2    0    0  0.54065624631E+01  0.35148475150E+02  0.23887422438E+02  0.10570921264E+03  0.96639445685E+02 0.  0.
        -11    1    4    4    0    0 -0.28007031289E+02  0.37290521171E+02  0.46062655656E+02  0.65549561531E+02  0.00000000000E+00 0. -1.
         11    1    4    4    0    0  0.33413593752E+02 -0.21420460213E+01 -0.22175233218E+02  0.40159651105E+02  0.00000000000E+00 0.  1.
        -13    1    3    3    0    0  0.48430062549E+00 -0.49957925877E+02 -0.28424189641E+01  0.50041065642E+02  0.00000000000E+00 0.  1.
         13    1    3    3    0    0  0.26156314119E+02  0.23336746340E+00 -0.85644944054E+02  0.89550341545E+02  0.00000000000E+00 0. -1.
         21    1    1    2  502  501 -0.32047177208E+02  0.14576083264E+02  0.44663449603E+01  0.35488477110E+02  0.00000000000E+00 0. -1.
<scales pt_clust_5="13000.00000" pt_clust_6="13000.00000" pt_clust_7="13000.00000" pt_clust_8="13000.00000" pt_clust_9="35.20630"></scales>
<clustering>
<clus scale="   35.206">  1  9  2 -1</clus>
<clus scale="   92.052">  7  8 -1 -1</clus>
<clus scale="   96.639">  5  6 -1 -1</clus>
<clus scale="  104.221">  2  7  1 -1</clus>
<clus scale="   35.206">  1  5  2 -1</clus>
</clustering>
</event>
<event>
 9    1  0.5300912E-006  0.1766230E+03  0.7546771E-02  0.1174970E+00
          2   -1    0    0  502    0  0.00000000000E+00  0.00000000000E+00  0.17825638943E+03  0.17825638943E+03  0.00000000000E+00 0. -1.
         -2   -1    0    0    0  501 -0.00000000000E+00 -0.00000000000E+00 -0.53890315802E+03  0.53890315802E+03  0.00000000000E+00 0.  1.
         23    2    1    2    0    0 -0.64213714570E+02 -0.93299365740E+02 -0.24197483327E+03  0.29351225125E+03  0.12152962153E+03 0.  0.
         23    2    1    2    0    0 -0.52170603900E+02  0.20567223178E+03 -0.12463105657E+03  0.26175695760E+03  0.89224244194E+02 0.  0.
        -11    1    3    3    0    0 -0.86180391176E+02 -0.18769694400E+02 -0.12100192589E+03  0.14973585850E+03  0.00000000000E+00 0.  1.
         11    1    3    3    0    0  0.21966676605E+02 -0.74529671340E+02 -0.12097290739E+03  0.14377639275E+03  0.00000000000E+00 0. -1.
        -11    1    4    4    0    0 -0.72187109968E+02  0.19350027628E+03 -0.10830307314E+03  0.23320139669E+03  0.00000000000E+00 0.  1.
         11    1    4    4    0    0  0.20016506068E+02  0.12171955498E+02 -0.16327983426E+02  0.28555560905E+02  0.00000000000E+00 0. -1.
         21    1    1    2  502  501  0.11638431847E+03 -0.11237286604E+03  0.59591212468E+01  0.16189033861E+03  0.00000000000E+00 0. -1.
<scales pt_clust_5="13000.00000" pt_clust_6="13000.00000" pt_clust_7="13000.00000" pt_clust_8="13000.00000" pt_clust_9="161.78062"></scales>
<clustering>
<clus scale="   89.224">  7  8 -1 -1</clus>
<clus scale="  121.530">  5  6 -1 -1</clus>
<clus scale="  161.781">  1  9  2 -1</clus>
<clus scale="  161.781">  1  7  2 -1</clus>
<clus scale="  161.781">  1  5  2 -1</clus>
</clustering>
</event>
<event>
 9    1  0.5300912E-006  0.9715129E+02  0.7546771E-02  0.1286751E+00
         -1   -1    0    0    0  501 -0.00000000000E+00  0.00000000000E+00  0.31363663214E+03  0.31363663214E+03  0.00000000000E+00 0.  1.
          1   -1    0    0  502    0  0.00000000000E+00 -0.00000000000E+00 -0.55324969405E+03  0.55324969405E+03  0.00000000000E+00 0. -1.
         23    2    1    2    0    0 -0.89143365867E+02 -0.14561368449E+02  0.17068127291E+03  0.21398020694E+03  0.92178408041E+02 0.  0.
         23    2    1    2    0    0  0.28725865015E+02 -0.65181043078E+01 -0.51842365677E+03  0.52726150597E+03  0.91509271469E+02 0.  0.
        -11    1    3    3    0    0 -0.60816910842E+02 -0.36796588413E+02  0.47128514170E+02  0.85286472615E+02  0.00000000000E+00 0. -1.
         11    1    3    3    0    0 -0.28326455025E+02  0.22235219964E+02  0.12355275874E+03  0.12869373433E+03  0.00000000000E+00 0.  1.
        -13    1    4    4    0    0  0.54683691984E+02 -0.27924582464E+02 -0.37104248996E+03  0.37608857711E+03  0.00000000000E+00 0. -1.
         13    1    4    4    0    0 -0.25957826969E+02  0.21406478156E+02 -0.14738116682E+03  0.15117292886E+03  0.00000000000E+00 0.  1.
         21    1    1    2  502  501  0.60417500852E+02  0.21079472757E+02  0.10812932195E+03  0.12564461328E+03  0.00000000000E+00 0. -1.
<scales pt_clust_5="13000.00000" pt_clust_6="13000.00000" pt_clust_7="13000.00000" pt_clust_8="13000.00000" pt_clust_9="63.98921"></scales>
<clustering>
<clus scale="   63.989">  1  9  2 -1</clus>
<clus scale="   91.509">  7  8 -1 -1</clus>
<clus scale="   92.178">  5  6 -1 -1</clus>
<clus scale="   96.517">  2  7  1 -1</clus>
<clus scale="   96.517">  2  5  1 -1</clus>
</clustering>
</event>
<event>
 9    1  0.5300912E-006  0.1373893E+03  0.7546771E-02  0.1217067E+00
          1   -1    0    0  502    0  0.00000000000E+00  0.00000000000E+00  0.38874461865E+03  0.38874461865E+03  0.00000000000E+00 0. -1.
         -1   -1    0    0    0  501 -0.00000000000E+00 -0.00000000000E+00 -0.11223011388E+03  0.11223011388E+03  0.00000000000E+00 0.  1.
         23    2    1    2    0    0  0.52484342082E+02 -0.61182934850E+02  0.17828213284E+02  0.12368557312E+03  0.92099501234E+02 0.  0.
         23    2    1    2    0    0 -0.80934585257E+02  0.11232356012E+03  0.71912681652E+02  0.18156189709E+03  0.92877873798E+02 0.  0.
        -13    1    4    4    0    0 -0.68694944564E+02  0.69710493630E+02  0.93455264969E+00  0.97874520277E+02  0.00000000000E+00 0. -1.
         13    1    4    4    0    0 -0.12239640692E+02  0.42613066494E+02  0.70978129003E+02  0.83687376808E+02  0.00000000000E+00 0.  1.
        -13    1    3    3    0    0  0.10411872155E+02 -0.19731244971E+02 -0.36929470881E+02  0.43145277023E+02  0.00000000000E+00 0.  1.
         13    1    3    3    0    0  0.42072469927E+02 -0.41451689879E+02  0.54757684165E+02  0.80540296093E+02  0.00000000000E+00 0. -1.
         21    1    1    2  502  501  0.28450243175E+02 -0.51140625274E+02  0.18677360983E+03  0.19572726233E+03  0.00000000000E+00 0.  1.
<scales pt_clust_5="13000.00000" pt_clust_6="13000.00000" pt_clust_7="13000.00000" pt_clust_8="13000.00000" pt_clust_9="58.52162"></scales>
<clustering>
<clus scale="   58.522">  1  9  2 -1</clus>
<clus scale="   92.100">  7  8 -1 -1</clus>
<clus scale="   92.878">  5  6 -1 -1</clus>
<clus scale="  136.864">  2  7  1 -1</clus>
<clus scale="   58.522">  1  5  2 -1</clus>
</clustering>
</event>
<event>
 9    1  0.5300912E-006  0.1005669E+03  0.7546771E-02  0.1280606E+00
         -1   -1    0    0    0  501 -0.00000000000E+00  0.00000000000E+00  0.70267978274E+02  0.70267978274E+02  0.00000000000E+00 0.  1.
          1   -1    0    0  502    0  0.00000000000E+00 -0.00000000000E+00 -0.43495708270E+03  0.43495708270E+03  0.00000000000E+00 0. -1.
         23    2    1    2    0    0  0.35150415252E+02 -0.24452090973E+02  0.11328698301E+02  0.10162720476E+03  0.91467441732E+02 0.  0.
         23    2    1    2    0    0  0.51608649923E+01 -0.53975430206E+01 -0.21537593772E+03  0.23530701048E+03  0.94481885215E+02 0.  0.
        -13    1    4    4    0    0  0.18106830966E+02  0.37108667572E+02 -0.54306657770E+02  0.68221137595E+02  0.00000000000E+00 0.  1.
         13    1    4    4    0    0 -0.12945965974E+02 -0.42506210593E+02 -0.16106927995E+03  0.16708587288E+03  0.00000000000E+00 0. -1.
        -13    1    3    3    0    0 -0.25179917390E+02  0.13933966784E+02 -0.21602520094E+01  0.28859146884E+02  0.00000000000E+00 0. -1.
         13    1    3    3    0    0  0.60330332643E+02 -0.38386057757E+02  0.13488950311E+02  0.72768057878E+02  0.00000000000E+00 0.  1.
         21    1    1    2  502  501 -0.40311280245E+02  0.29849633994E+02 -0.16064186501E+03  0.16829084574E+03  0.00000000000E+00 0. -1.
<scales pt_clust_5="13000.00000" pt_clust_6="13000.00000" pt_clust_7="13000.00000" pt_clust_8="13000.00000" pt_clust_9="50.15974"></scales>
<clustering>
<clus scale="   50.160">  2  9  1 -1</clus>
<clus scale="   91.467">  7  8 -1 -1</clus>
<clus scale="   94.482">  5  6 -1 -1</clus>
<clus scale="   97.740">  1  7  2 -1</clus>
<clus scale="   50.160">  2  5  1 -1</clus>
</clustering>
</event>
<event>
 9    1  0.5300912E-006  0.9271858E+02  0.7546771E-02  0.1301060E+00
         -1   -1    0    0    0  501 -0.00000000000E+00  0.00000000000E+00  0.11990424069E+03  0.11990424069E+03  0.00000000000E+00 0.  1.
          1   -1    0    0  502    0  0.00000000000E+00 -0.00000000000E+00 -0.94799463123E+02  0.94799463123E+02  0.00000000000E+00 0. -1.
         23    2    1    2    0    0 -0.60791359818E+01 -0.88695243472E+01  0.33717430667E+02  0.92011273639E+02  0.84932826336E+02 0.  0.
         23    2    1    2    0    0 -0.98304060267E+01 -0.10058268859E+02 -0.19519036729E+02  0.95667921180E+02  0.92593480834E+02 0.  0.
        -11    1    4    4    0    0  0.24256567155E+01  0.25010811221E+02  0.26504112510E+02  0.36522492637E+02  0.00000000000E+00 0.  1.
         11    1    4    4    0    0 -0.12256062742E+02 -0.35069080080E+02 -0.46023149240E+02  0.59145428543E+02  0.00000000000E+00 0. -1.
        -11    1    3    3    0    0 -0.22792519754E+02 -0.42181935946E+02  0.14572475935E+02  0.50111592788E+02  0.00000000000E+00 0.  1.
         11    1    3    3    0    0  0.16713383772E+02  0.33312411599E+02  0.19144954732E+02  0.41899680850E+02  0.00000000000E+00 0. -1.
         21    1    1    2  502  501  0.15909542008E+02  0.18927793207E+02  0.10906383630E+02  0.27024508996E+02  0.00000000000E+00 0.  1.
<scales pt_clust_5="13000.00000" pt_clust_6="13000.00000" pt_clust_7="13000.00000" pt_clust_8="13000.00000" pt_clust_9="24.72600"></scales>
<clustering>
<clus scale="   24.726">  1  9  2 -1</clus>
<clus scale="   84.933">  7  8 -1 -1</clus>
<clus scale="   85.069">  1  7  2 -1</clus>
<clus scale="   92.593">  5  6 -1 -1</clus>
<clus scale="   92.719">  2  5  1 -1</clus>
</clustering>
</event>
<event>
 9    1  0.5300912E-006  0.2066619E+03  0.7546771E-02  0.1166337E+00
          2   -1    0    0  502    0  0.00000000000E+00  0.00000000000E+00  0.49764352059E+03  0.49764352059E+03  0.00000000000E+00 0. -1.
         -2   -1    0    0    0  501 -0.00000000000E+00 -0.00000000000E+00 -0.48803449264E+03  0.48803449264E+03  0.00000000000E+00 0.  1.
         23    2    1    2    0    0  0.58504376197E+02 -0.58768497232E+02 -0.38407173311E+03  0.40329034311E+03  0.90859817143E+02 0.  0.
         23    2    1    2    0    0  0.60743191808E+02 -0.10475727535E+03  0.22484199185E+02  0.15960220641E+03  0.10150617216E+03 0.  0.
        -11    1    3    3    0    0  0.25680173254E+02  0.21449928499E+02 -0.71810547758E+02  0.79223263630E+02  0.00000000000E+00 0. -1.
         11    1    3    3    0    0  0.32824202943E+02 -0.80218425731E+02 -0.31226118535E+03  0.32406707948E+03  0.00000000000E+00 0.  1.
        -11    1    4    4    0    0  0.52976008968E+02 -0.31396526350E+02  0.51552486161E+02  0.80311009347E+02  0.00000000000E+00 0. -1.
         11    1    4    4    0    0  0.77671828403E+01 -0.73360749004E+02 -0.29068286976E+02  0.79291197062E+02  0.00000000000E+00 0.  1.
         21    1    1    2  502  501 -0.11924756800E+03  0.16352577259E+03  0.37119656187E+03  0.42278546371E+03  0.00000000000E+00 0. -1.
<scales pt_clust_5="13000.00000" pt_clust_6="13000.00000" pt_clust_7="13000.00000" pt_clust_8="13000.00000" pt_clust_9="180.01563"></scales>
<clustering>
<clus scale="   90.860">  5  6 -1 -1</clus>
<clus scale="  101.506">  7  8 -1 -1</clus>
<clus scale="  123.012">  2  5  1 -1</clus>
<clus scale="  180.016">  1  9  2 -1</clus>
<clus scale="  180.016">  1  5  2 -1</clus>
</clustering>
</event>
<event>
 9    1  0.5300912E-006  0.1390765E+03  0.7546771E-02  0.1215413E+00
         -4   -1    0    0    0  501 -0.00000000000E+00  0.00000000000E+00  0.30157320140E+03  0.30157320140E+03  0.00000000000E+00 0.  1.
          4   -1    0    0  502    0  0.00000000000E+00 -0.00000000000E+00 -0.39557424195E+03  0.39557424195E+03  0.00000000000E+00 0. -1.
         23    2    1    2    0    0 -0.73618089545E+02  0.66505434521E+02  0.21481630858E+03  0.25429029893E+03  0.93139217143E+02 0.  0.
         23    2    1    2    0    0  0.31737919536E+02 -0.17191050950E+03 -0.14722724453E+03  0.24543490561E+03  0.89453409899E+02 0.  0.
        -11    1    4    4    0    0  0.29413996711E+02 -0.20919276016E+02 -0.23563789249E+01  0.36171146418E+02  0.00000000000E+00 0.  1.
         11    1    4    4    0    0  0.23239228256E+01 -0.15099123349E+03 -0.14487086561E+03  0.20926375919E+03  0.00000000000E+00 0. -1.
        -13    1    3    3    0    0 -0.37225287478E+02  0.83147962933E+01  0.11707888932E+02  0.39899029167E+02  0.00000000000E+00 0. -1.
         13    1    3    3    0    0 -0.36392802066E+02  0.58190638228E+02  0.20310841965E+03  0.21439126976E+03  0.00000000000E+00 0.  1.
         21    1    1    2  502  501  0.41880170009E+02  0.10540507498E+03 -0.16159010459E+03  0.19742223880E+03  0.00000000000E+00 0.  1.
<scales pt_clust_5="13000.00000" pt_clust_6="13000.00000" pt_clust_7="13000.00000" pt_clust_8="13000.00000" pt_clust_9="113.42036"></scales>
<clustering>
<clus scale="   89.453">  5  6 -1 -1</clus>
<clus scale="   93.139">  7  8 -1 -1</clus>
<clus scale="  113.420">  2  9  1 -1</clus>
<clus scale="  136.635">  2  5  1 -1</clus>
<clus scale="  113.420">  2  5  1 -1</clus>
</clustering>
</event>
<event>
 9    1  0.5300912E-006  0.1729335E+03  0.7546771E-02  0.1195429E+00
         -1   -1    0    0    0  501 -0.00000000000E+00  0.00000000000E+00  0.93791154839E+02  0.93791154839E+02  0.00000000000E+00 0.  1.
          1   -1    0    0  502    0  0.00000000000E+00 -0.00000000000E+00 -0.55521060179E+03  0.55521060179E+03  0.00000000000E+00 0. -1.
         23    2    1    2    0    0  0.14752040704E+03 -0.57793860318E+02 -0.88185290620E+02  0.20282518656E+03  0.90879095705E+02 0.  0.
         23    2    1    2    0    0 -0.46768720911E+02 -0.32365378921E+02 -0.16915654863E+03  0.20137611941E+03  0.93292939264E+02 0.  0.
        -11    1    3    3    0    0  0.12159304999E+03 -0.29866230135E+02 -0.22976606524E+02  0.12729802023E+03  0.00000000000E+00 0.  1.
         11    1    3    3    0    0  0.25927357053E+02 -0.27927630183E+02 -0.65208684096E+02  0.75527166324E+02  0.00000000000E+00 0. -1.
        -13    1    4    4    0    0 -0.63915808504E+02 -0.50434026715E+02 -0.10730268982E+03  0.13469479897E+03  0.00000000000E+00 0.  1.
         13    1    4    4    0    0  0.17147087592E+02  0.18068647794E+02 -0.61853858809E+02  0.66681320440E+02  0.00000000000E+00 0. -1.
         21    1    1    2  502  501 -0.10075168613E+03  0.90159239239E+02 -0.20407760770E+03  0.24480045066E+03  0.00000000000E+00 0.  1.
<scales pt_clust_5="13000.00000" pt_clust_6="13000.00000" pt_clust_7="13000.00000" pt_clust_8="13000.00000" pt_clust_9="147.12914"></scales>
<clustering>
<clus scale="   90.879">  5  6 -1 -1</clus>
<clus scale="   93.293">  7  8 -1 -1</clus>
<clus scale="  109.263">  2  7  1 -1</clus>
<clus scale="  147.129">  2  9  1 -1</clus>
<clus scale="  109.263">  2  5  1 -1</clus>
</clustering>
</event>
<event>
 9    1  0.5300912E-006  0.3141664E+03  0.7546771E-02  0.1091645E+00
         -2   -1    0    0    0  501 -0.00000000000E+00  0.00000000000E+00  0.75147580796E+03  0.75147580796E+03  0.00000000000E+00 0.  1.
          2   -1    0    0  502    0  0.00000000000E+00 -0.00000000000E+00 -0.33965729734E+03  0.33965729734E+03  0.00000000000E+00 0. -1.
         23    2    1    2    0    0  0.27095084079E+02  0.32861733225E+03  0.20804111484E+03  0.39809106512E+03  0.80448095251E+02 0.  0.
         23    2    1    2    0    0  0.17694223730E+03 -0.92890736226E+02 -0.11374850789E+03  0.24804658392E+03  0.93011507508E+02 0.  0.
        -11    1    4    4    0    0  0.77573181156E+02 -0.14275848587E+02 -0.89043161295E+02  0.11895412082E+03  0.00000000000E+00 0. -1.
         11    1    4    4    0    0  0.99369056147E+02 -0.78614887638E+02 -0.24705346596E+02  0.12909246310E+03  0.00000000000E+00 0.  1.
        -13    1    3    3    0    0  0.39902305155E+02  0.25225397699E+03  0.12428111772E+03  0.28402475083E+03  0.00000000000E+00 0. -1.
         13    1    3    3    0    0 -0.12807221076E+02  0.76363355264E+02  0.83759997117E+02  0.11406631429E+03  0.00000000000E+00 0.  1.
         21    1    1    2  502  501 -0.20403732138E+03 -0.23572659603E+03  0.31752590366E+03  0.44499545626E+03  0.00000000000E+00 0.  1.
<scales pt_clust_5="13000.00000" pt_clust_6="13000.00000" pt_clust_7="13000.00000" pt_clust_8="13000.00000" pt_clust_9="303.69169"></scales>
<clustering>
<clus scale="   80.448">  7  8 -1 -1</clus>
<clus scale="   93.012">  5  6 -1 -1</clus>
<clus scale="  220.428">  2  5  1 -1</clus>
<clus scale="  303.692">  1  9  2 -1</clus>
<clus scale="  220.428">  2  5  1 -1</clus>
</clustering>
</event>
<event>
 9    1  0.5300912E-006  0.1236217E+03  0.7546771E-02  0.1237530E+00
         -2   -1    0    0    0  501 -0.00000000000E+00  0.00000000000E+00  0.54435532471E+02  0.54435532471E+02  0.00000000000E+00 0.  1.
          2   -1    0    0  502    0  0.00000000000E+00 -0.00000000000E+00 -0.63239479602E+03  0.63239479602E+03  0.00000000000E+00 0. -1.
         23    2    1    2    0    0 -0.63021998195E+02  0.21152598381E+02 -0.17637216572E+03  0.20894577304E+03  0.90177550177E+02 0.  0.
         23    2    1    2    0    0  0.37299671750E+02 -0.11861482517E+03 -0.20031751719E+03  0.25278464914E+03  0.91171425831E+02 0.  0.
        -11    1    3    3    0    0 -0.60572991344E+02  0.42455715004E+02 -0.17176150159E+03  0.18701226816E+03  0.00000000000E+00 0. -1.
         11    1    3    3    0    0 -0.24490068515E+01 -0.21303116622E+02 -0.46106641335E+01  0.21933504876E+02  0.00000000000E+00 0.  1.
        -13    1    4    4    0    0  0.16484577513E+02 -0.61730792514E+02 -0.17647993120E+03  0.18769016531E+03  0.00000000000E+00 0. -1.
         13    1    4    4    0    0  0.20815094237E+02 -0.56884032654E+02 -0.23837585989E+02  0.65094483829E+02  0.00000000000E+00 0.  1.
         21    1    1    2  502  501  0.25722326445E+02  0.97462226787E+02 -0.20126958064E+03  0.22509990631E+03  0.00000000000E+00 0. -1.
<scales pt_clust_5="13000.00000" pt_clust_6="13000.00000" pt_clust_7="13000.00000" pt_clust_8="13000.00000" pt_clust_9="100.79942"></scales>
<clustering>
<clus scale="   90.178">  5  6 -1 -1</clus>
<clus scale="   91.171">  7  8 -1 -1</clus>
<clus scale="  100.799">  2  9  1 -1</clus>
<clus scale="  122.891">  1  5  2 -1</clus>
<clus scale="  100.799">  2  5  1 -1</clus>
</clustering>
</event>
<event>
 9    1  0.5300912E-006  0.1061633E+03  0.7546771E-02  0.1269475E+00
          1   -1    0    0  502    0  0.00000000000E+00  0.00000000000E+00  0.12928709980E+03  0.12928709980E+03  0.00000000000E+00 0. -1.
         -1   -1    0    0    0  501 -0.00000000000E+00 -0.00000000000E+00 -0.26896665720E+03  0.26896665720E+03  0.00000000000E+00 0.  1.
         23    2    1    2    0    0  0.39648714507E+02  0.54113025203E+01 -0.19383024836E+03  0.22146657655E+03  0.99377948212E+02 0.  0.
         23    2    1    2    0    0 -0.16745796200E+02 -0.19843562356E+02  0.84895259090E+02  0.13582302220E+03  0.10279348076E+03 0.  0.
        -13    1    4    4    0    0 -0.30926432631E+02  0.35983504936E+02  0.29274712159E+02  0.55751821807E+02  0.00000000000E+00 0. -1.
         13    1    4    4    0    0  0.14180636431E+02 -0.55827067292E+02  0.55620546931E+02  0.80071200396E+02  0.00000000000E+00 0.  1.
        -13    1    3    3    0    0  0.46625635901E+02  0.41168353801E+02 -0.16033659633E+03  0.17197850854E+03  0.00000000000E+00 0.  1.
         13    1    3    3    0    0 -0.69769213942E+01 -0.35757051281E+02 -0.33493652030E+02  0.49488068003E+02  0.00000000000E+00 0. -1.
         21    1    1    2  502  501 -0.22902918306E+02  0.14432259836E+02 -0.30744568132E+02  0.40964158243E+02  0.00000000000E+00 0. -1.
<scales pt_clust_5="13000.00000" pt_clust_6="13000.00000" pt_clust_7="13000.00000" pt_clust_8="13000.00000" pt_clust_9="27.07090"></scales>
<clustering>
<clus scale="   27.071">  2  9  1 -1</clus>
<clus scale="   99.378">  7  8 -1 -1</clus>
<clus scale="  102.793">  5  6 -1 -1</clus>
<clus scale="  102.860">  2  7  1 -1</clus>
<clus scale="  106.163">  1  5  2 -1</clus>
</clustering>
</event>
<event>
 9    1  0.5300912E-006  0.9485834E+02  0.7546771E-02  0.1291888E+00
          2   -1    0    0  502    0  0.00000000000E+00  0.00000000000E+00  0.16085821105E+03  0.16085821105E+03  0.00000000000E+00 0. -1.
         -2   -1    0    0    0  501 -0.00000000000E+00 -0.00000000000E+00 -0.25943358899E+03  0.25943358899E+03  0.00000000000E+00 0.  1.
         23    2    1    2    0    0  0.22260295427E+02 -0.26384489283E+02 -0.10093268061E+03  0.14046887560E+03  0.91391667937E+02 0.  0.
         23    2    1    2    0    0 -0.59962648506E+00  0.25067131579E+02  0.12434359740E+03  0.15592144701E+03  0.90672194110E+02 0.  0.
        -11    1    4    4    0    0 -0.38571341643E+02  0.17768938975E+02  0.10376663721E+03  0.11212046462E+03  0.00000000000E+00 0.  1.
         11    1    4    4    0    0  0.37971715158E+02  0.72981926033E+01  0.20576960187E+02  0.43800982385E+02  0.00000000000E+00 0. -1.
        -13    1    3    3    0    0  0.46742163858E+02 -0.46551043861E+02 -0.68955638664E+02  0.95429081889E+02  0.00000000000E+00 0. -1.
         13    1    3    3    0    0 -0.24481868431E+02  0.20166554577E+02 -0.31977041950E+02  0.45039793708E+02  0.00000000000E+00 0.  1.
         21    1    1    2  502  501 -0.21660668941E+02  0.13173577048E+01 -0.12198629472E+03  0.12390147743E+03  0.00000000000E+00 0.  1.
<scales pt_clust_5="13000.00000" pt_clust_6="13000.00000" pt_clust_7="13000.00000" pt_clust_8="13000.00000" pt_clust_9="21.70069"></scales>
<clustering>
<clus scale="   21.701">  2  9  1 -1</clus>
<clus scale="   90.672">  5  6 -1 -1</clus>
<clus scale="   91.392">  7  8 -1 -1</clus>
<clus scale="   94.165">  1  5  2 -1</clus>
<clus scale="   94.165">  1  5  2 -1</clus>
</clustering>
</event>
<event>
 9    1  0.5300912E-006  0.1230559E+03  0.7546771E-02  0.1239525E+00
          1   -1    0    0  502    0  0.00000000000E+00  0.00000000000E+00  0.56507180698E+03  0.56507180698E+03  0.00000000000E+00 0. -1.
         -1   -1    0    0    0  501 -0.00000000000E+00 -0.00000000000E+00 -0.46663036618E+02  0.46663036618E+02  0.00000000000E+00 0.  1.
         23    2    1    2    0    0 -0.20338014674E+02 -0.61974574768E+02  0.10533695071E+03  0.15823049909E+03  0.98420195593E+02 0.  0.
         23    2    1    2    0    0  0.43363821530E+02  0.64104496417E+02  0.41277069513E+03  0.43037827645E+03  0.94106357972E+02 0.  0.
        -11    1    4    4    0    0 -0.28385623025E+02  0.19861000463E+02  0.81631751314E+02  0.88678891268E+02  0.00000000000E+00 0.  1.
         11    1    4    4    0    0  0.71749444555E+02  0.44243495953E+02  0.33113894381E+03  0.34169938519E+03  0.00000000000E+00 0. -1.
        -13    1    3    3    0    0 -0.43014006731E+02 -0.15881025275E+02  0.57970463680E+01  0.46217069200E+02  0.00000000000E+00 0.  1.
         13    1    3    3    0    0  0.22675992057E+02 -0.46093549493E+02  0.99539904341E+02  0.11201342990E+03  0.00000000000E+00 0. -1.
         21    1    1    2  502  501 -0.23025806857E+02 -0.21299216488E+01  0.30112453224E+00  0.23126068054E+02  0.00000000000E+00 0. -1.
<scales pt_clust_5="13000.00000" pt_clust_6="13000.00000" pt_clust_7="13000.00000" pt_clust_8="13000.00000" pt_clust_9="23.12411"></scales>
<clustering>
<clus scale="   23.124">  2  9  1 -1</clus>
<clus scale="   94.106">  5  6 -1 -1</clus>
<clus scale="   98.420">  7  8 -1 -1</clus>
<clus scale="  119.634">  1  5  2 -1</clus>
<clus scale="  119.634">  1  5  2 -1</clus>
</clustering>
</event>
<event>
 9    1  0.5300912E-006  0.9426556E+02  0.7546771E-02  0.1293402E+00
          1   -1    0    0  502    0  0.00000000000E+00  0.00000000000E+00  0.13010464280E+03  0.13010464280E+03  0.00000000000E+00 0. -1.
         -1   -1    0    0    0  501 -0.00000000000E+00 -0.00000000000E+00 -0.10559608616E+03  0.10559608616E+03  0.00000000000E+00 0.  1.
         23    2    1    2    0    0 -0.12637966500E+02  0.70135246246E+01 -0.17497711701E+02  0.94203531120E+02  0.91428811847E+02 0.  0.
         23    2    1    2    0    0 -0.12136701756E+02 -0.31288527745E+02  0.45502216189E+02  0.10663630837E+03  0.90413378910E+02 0.  0.
        -11    1    4    4    0    0  0.39261219345E+02 -0.15989517671E+02  0.15163594753E+02  0.45022690120E+02  0.00000000000E+00 0.  1.
         11    1    4    4    0    0 -0.51397921101E+02 -0.15299010074E+02  0.30338621436E+02  0.61613618246E+02  0.00000000000E+00 0. -1.
        -13    1    3    3    0    0  0.26574255902E+02  0.22353028379E+02  0.18016011313E+02  0.39120654622E+02  0.00000000000E+00 0.  1.
         13    1    3    3    0    0 -0.39212222401E+02 -0.15339503754E+02 -0.35513723013E+02  0.55082876498E+02  0.00000000000E+00 0. -1.
         21    1    1    2  502  501  0.24774668256E+02  0.24275003121E+02 -0.34959478482E+01  0.34860889476E+02  0.00000000000E+00 0.  1.
<scales pt_clust_5="13000.00000" pt_clust_6="13000.00000" pt_clust_7="13000.00000" pt_clust_8="13000.00000" pt_clust_9="34.68515"></scales>
<clustering>
<clus scale="   34.685">  2  9  1 -1</clus>
<clus scale="   90.413">  5  6 -1 -1</clus>
<clus scale="   91.429">  7  8 -1 -1</clus>
<clus scale="   93.281">  1  5  2 -1</clus>
<clus scale="   93.281">  1  5  2 -1</clus>
</clustering>
</event>
<event>
 9    1  0.5300912E-006  0.1362856E+03  0.7546771E-02  0.1245197E+00
          2   -1    0    0  502    0  0.00000000000E+00  0.00000000000E+00  0.27715016326E+02  0.27715016326E+02  0.00000000000E+00 0. -1.
         -2   -1    0    0    0  501 -0.00000000000E+00 -0.00000000000E+00 -0.12580428511E+04  0.12580428511E+04  0.00000000000E+00 0.  1.
         23    2    1    2    0    0 -0.25679954867E+02  0.19986090537E+02 -0.35539924374E+03  0.36396970395E+03  0.71459212457E+02 0.  0.
         23    2    1    2    0    0  0.24334030438E+02 -0.10448973315E+03 -0.22009030530E+03  0.26151862944E+03  0.91880366143E+02 0.  0.
        -11    1    3    3    0    0  0.22446456536E+02  0.29758346075E+00 -0.60695082286E+02  0.64713406498E+02  0.00000000000E+00 0.  1.
         11    1    3    3    0    0 -0.48126411404E+02  0.19688507077E+02 -0.29470416146E+03  0.29925629746E+03  0.00000000000E+00 0. -1.
        -13    1    4    4    0    0  0.14202683623E+01 -0.35269906145E+02 -0.65865699460E+01  0.35907747706E+02  0.00000000000E+00 0. -1.
         13    1    4    4    0    0  0.22913762076E+02 -0.69219827000E+02 -0.21350373536E+03  0.22561088173E+03  0.00000000000E+00 0.  1.
         21    1    1    2  502  501  0.13459244290E+01  0.84503642608E+02 -0.65483828569E+03  0.66026953400E+03  0.00000000000E+00 0.  1.
<scales pt_clust_5="13000.00000" pt_clust_6="13000.00000" pt_clust_7="13000.00000" pt_clust_8="13000.00000" pt_clust_9="100.65668"></scales>
<clustering>
<clus scale="   71.459">  5  6 -1 -1</clus>
<clus scale="   78.520">  2  5  1 -1</clus>
<clus scale="   91.880">  7  8 -1 -1</clus>
<clus scale="  100.657">  2  9  1 -1</clus>
<clus scale="  136.286">  1  5  2 -1</clus>
</clustering>
</event>
<event>
 9    1  0.5300912E-006  0.9526233E+02  0.7546771E-02  0.1291558E+00
          1   -1    0    0  502    0  0.00000000000E+00  0.00000000000E+00  0.66337101751E+02  0.66337101751E+02  0.00000000000E+00 0. -1.
         -1   -1    0    0    0  501 -0.00000000000E+00 -0.00000000000E+00 -0.43200028917E+03  0.43200028917E+03  0.00000000000E+00 0.  1.
         23    2    1    2    0    0 -0.24686484541E+02 -0.23786969890E+02 -0.13741863943E+03  0.16790776773E+03  0.90188100920E+02 0.  0.
         23    2    1    2    0    0  0.24878563640E+02 -0.79079903765E+01  0.43374176730E+01  0.95697907919E+02  0.91966282666E+02 0.  0.
        -11    1    3    3    0    0  0.13954890230E+01  0.30483554989E+02 -0.75999020639E+02  0.81896554582E+02  0.00000000000E+00 0.  1.
         11    1    3    3    0    0 -0.26081973564E+02 -0.54270524879E+02 -0.61419618790E+02  0.86011213152E+02  0.00000000000E+00 0. -1.
        -11    1    4    4    0    0 -0.82284937894E+00  0.27960199355E+02 -0.29077363613E+02  0.40347774458E+02  0.00000000000E+00 0.  1.
         11    1    4    4    0    0  0.25701413019E+02 -0.35868189732E+02  0.33414781286E+02  0.55350133461E+02  0.00000000000E+00 0. -1.
         21    1    1    2  502  501 -0.19207909916E+00  0.31694960267E+02 -0.23258196566E+03  0.23473171526E+03  0.00000000000E+00 0.  1.
<scales pt_clust_5="13000.00000" pt_clust_6="13000.00000" pt_clust_7="13000.00000" pt_clust_8="13000.00000" pt_clust_9="31.69554"></scales>
<clustering>
<clus scale="   31.696">  2  9  1 -1</clus>
<clus scale="   90.188">  5  6 -1 -1</clus>
<clus scale="   91.966">  7  8 -1 -1</clus>
<clus scale="   93.547">  2  5  1 -1</clus>
<clus scale="   95.262">  1  5  2 -1</clus>
</clustering>
</event>
<event>
 9    1  0.5300912E-006  0.2602051E+03  0.7546771E-02  0.1107173E+00
         -2   -1    0    0    0  501 -0.00000000000E+00  0.00000000000E+00  0.21991176536E+03  0.21991176536E+03  0.00000000000E+00 0.  1.
          2   -1    0    0  502    0  0.00000000000E+00 -0.00000000000E+00 -0.49059163905E+03  0.49059163905E+03  0.00000000000E+00 0. -1.
         23    2    1    2    0    0 -0.25867379985E+03 -0.65970203050E+01  0.45854117362E+02  0.27743914776E+03  0.88961931331E+02 0.  0.
         23    2    1    2    0    0  0.20397185827E+03 -0.34507448757E+02 -0.25581148886E+03  0.34158146012E+03  0.91886305179E+02 0.  0.
        -13    1    3    3    0    0 -0.20436292145E+03  0.41109270939E+01  0.71342312439E+02  0.21649671805E+03  0.00000000000E+00 0.  1.
         13    1    3    3    0    0 -0.54310878398E+02 -0.10707947399E+02 -0.25488195077E+02  0.60942429703E+02  0.00000000000E+00 0. -1.
        -13    1    4    4    0    0  0.17558283625E+02  0.13726901892E+02 -0.72035510292E+02  0.75404481979E+02  0.00000000000E+00 0.  1.
         13    1    4    4    0    0  0.18641357464E+03 -0.48234350648E+02 -0.18377597857E+03  0.26617697814E+03  0.00000000000E+00 0. -1.
         21    1    1    2  502  501  0.54701941579E+02  0.41104469062E+02 -0.60722502184E+02  0.91482796530E+02  0.00000000000E+00 0. -1.
<scales pt_clust_5="13000.00000" pt_clust_6="13000.00000" pt_clust_7="13000.00000" pt_clust_8="13000.00000" pt_clust_9="68.42426"></scales>
<clustering>
<clus scale="   68.424">  2  9  1 -1</clus>
<clus scale="   88.962">  5  6 -1 -1</clus>
<clus scale="   91.886">  7  8 -1 -1</clus>
<clus scale="  259.187">  1  5  2 -1</clus>
<clus scale="   68.424">  2  5  1 -1</clus>
</clustering>
</event>
<event>
 9    1  0.5300912E-006  0.8994424E+02  0.7546771E-02  0.1303092E+00
          1   -1    0    0  502    0  0.00000000000E+00  0.00000000000E+00  0.35609333484E+03  0.35609333484E+03  0.00000000000E+00 0. -1.
         -1   -1    0    0    0  501 -0.00000000000E+00 -0.00000000000E+00 -0.56447776065E+02  0.56447776065E+02  0.00000000000E+00 0.  1.
         23    2    1    2    0    0 -0.20288727085E+02 -0.32016176414E+02  0.53860220028E+02  0.11107955662E+03  0.89448737269E+02 0.  0.
         23    2    1    2    0    0 -0.19039979832E+02 -0.12363678124E+02  0.21659170947E+03  0.23536626953E+03  0.89274469205E+02 0.  0.
        -11    1    4    4    0    0 -0.45838211240E+02 -0.32051945137E+02  0.16264920111E+03  0.17199776574E+03  0.00000000000E+00 0.  1.
         11    1    4    4    0    0  0.26798231408E+02  0.19688267014E+02  0.53942508359E+02  0.63368503791E+02  0.00000000000E+00 0. -1.
        -11    1    3    3    0    0  0.11398891162E+01 -0.60774412704E+02  0.28368927999E+02  0.67079241666E+02  0.00000000000E+00 0.  1.
         11    1    3    3    0    0 -0.21428616201E+02  0.28758236291E+02  0.25491292030E+02  0.44000314955E+02  0.00000000000E+00 0. -1.
         21    1    1    2  502  501  0.39328706917E+02  0.44379854537E+02  0.29193629276E+02  0.66095284755E+02  0.00000000000E+00 0. -1.
<scales pt_clust_5="13000.00000" pt_clust_6="13000.00000" pt_clust_7="13000.00000" pt_clust_8="13000.00000" pt_clust_9="59.29856"></scales>
<clustering>
<clus scale="   59.299">  2  9  1 -1</clus>
<clus scale="   89.274">  5  6 -1 -1</clus>
<clus scale="   89.449">  7  8 -1 -1</clus>
<clus scale="   89.771">  1  5  2 -1</clus>
<clus scale="   89.771">  1  5  2 -1</clus>
</clustering>
</event>
<event>
 9    1  0.5300912E-006  0.2751327E+03  0.7546771E-02  0.1142506E+00
          2   -1    0    0  502    0  0.00000000000E+00  0.00000000000E+00  0.89201342794E+03  0.89201342794E+03  0.00000000000E+00 0. -1.
         -2   -1    0    0    0  501 -0.00000000000E+00 -0.00000000000E+00 -0.29454806929E+03  0.29454806929E+03  0.00000000000E+00 0.  1.
         23    2    1    2    0    0 -0.22911931426E+03 -0.97320421294E+01  0.36890452295E+03  0.45164005857E+03  0.12368436701E+03 0.  0.
         23    2    1    2    0    0 -0.18828604309E+02 -0.25578480057E+01  0.41470397583E+03  0.42463370068E+03  0.89293523026E+02 0.  0.
        -13    1    3    3    0    0 -0.12963142327E+03 -0.14099885339E+02  0.98311184054E+02  0.16330401580E+03  0.00000000000E+00 0. -1.
         13    1    3    3    0    0 -0.99487890994E+02  0.43678432092E+01  0.27059333889E+03  0.28833604277E+03  0.00000000000E+00 0.  1.
        -13    1    4    4    0    0 -0.44261519155E+02 -0.27975013556E+02  0.29628513412E+03  0.30087632702E+03  0.00000000000E+00 0.  1.
         13    1    4    4    0    0  0.25432914846E+02  0.25417165550E+02  0.11841884172E+03  0.12375737366E+03  0.00000000000E+00 0. -1.
         21    1    1    2  502  501  0.24794791857E+03  0.12289890135E+02 -0.18614314013E+03  0.31028773798E+03  0.00000000000E+00 0.  1.
<scales pt_clust_5="13000.00000" pt_clust_6="13000.00000" pt_clust_7="13000.00000" pt_clust_8="13000.00000" pt_clust_9="245.76447"></scales>
<clustering>
<clus scale="   89.294">  7  8 -1 -1</clus>
<clus scale="   91.293">  1  7  2 -1</clus>
<clus scale="  123.684">  5  6 -1 -1</clus>
<clus scale="  245.764">  2  9  1 -1</clus>
<clus scale="   91.293">  1  5  2 -1</clus>
</clustering>
</event>
<event>
 9    1  0.5300912E-006  0.9986845E+02  0.7546771E-02  0.1286255E+00
         -1   -1    0    0    0  501 -0.00000000000E+00  0.00000000000E+00  0.71192951053E+02  0.71192951053E+02  0.00000000000E+00 0.  1.
          1   -1    0    0  502    0  0.00000000000E+00 -0.00000000000E+00 -0.31164953572E+03  0.31164953572E+03  0.00000000000E+00 0. -1.
         23    2    1    2    0    0  0.27354290257E+01  0.37500442773E+02  0.13845660126E+02  0.89191637283E+02  0.79684879851E+02 0.  0.
         23    2    1    2    0    0 -0.27489871782E+02 -0.59690213588E+02 -0.21167634309E+03  0.23959406582E+03  0.90993557482E+02 0.  0.
        -11    1    4    4    0    0 -0.47084929506E+02 -0.46614793234E+02 -0.20450405825E+03  0.21496939172E+03  0.00000000000E+00 0. -1.
         11    1    4    4    0    0  0.19595057724E+02 -0.13075420354E+02 -0.71722848343E+01  0.24624674097E+02  0.00000000000E+00 0.  1.
        -13    1    3    3    0    0 -0.29402228364E+01 -0.22424624600E+02 -0.96315212223E+01  0.24582003576E+02  0.00000000000E+00 0. -1.
         13    1    3    3    0    0  0.56756518621E+01  0.59925067372E+02  0.23477181348E+02  0.64609633707E+02  0.00000000000E+00 0.  1.
         21    1    1    2  502  501  0.24754442756E+02  0.22189770816E+02 -0.42625901711E+02  0.54056783679E+02  0.00000000000E+00 0.  1.
<scales pt_clust_5="13000.00000" pt_clust_6="13000.00000" pt_clust_7="13000.00000" pt_clust_8="13000.00000" pt_clust_9="33.24407"></scales>
<clustering>
<clus scale="   33.244">  2  9  1 -1</clus>
<clus scale="   79.685">  7  8 -1 -1</clus>
<clus scale="   89.686">  1  7  2 -1</clus>
<clus scale="   90.994">  5  6 -1 -1</clus>
<clus scale="   33.244">  2  5  1 -1</clus>
</clustering>
</event>
<event>
 9    1  0.5300912E-006  0.1108801E+03  0.7546771E-02  0.1261080E+00
          2   -1    0    0  502    0  0.00000000000E+00  0.00000000000E+00  0.26814382201E+03  0.26814382201E+03  0.00000000000E+00 0. -1.
         -2   -1    0    0    0  501 -0.00000000000E+00 -0.00000000000E+00 -0.66409043811E+02  0.66409043811E+02  0.00000000000E+00 0.  1.
         23    2    1    2    0    0 -0.29398435511E+02  0.37174305417E+02  0.17268586156E+02  0.10081412953E+03  0.87287385413E+02 0.  0.
         23    2    1    2    0    0  0.52691454137E+02 -0.40770616316E+02  0.17355353854E+03  0.20776597796E+03  0.92775203388E+02 0.  0.
        -13    1    3    3    0    0 -0.28273386163E+02  0.12972972501E+02 -0.32791728904E+02  0.45199334786E+02  0.00000000000E+00 0.  1.
         13    1    3    3    0    0 -0.11250493480E+01  0.24201332916E+02  0.50060315060E+02  0.55614794748E+02  0.00000000000E+00 0. -1.
        -13    1    4    4    0    0  0.20208582853E+01 -0.54400207342E+02  0.12473422572E+03  0.13609589815E+03  0.00000000000E+00 0.  1.
         13    1    4    4    0    0  0.50670595851E+02  0.13629591027E+02  0.48819312813E+02  0.71670079803E+02  0.00000000000E+00 0. -1.
         21    1    1    2  502  501 -0.23293018626E+02  0.35963108986E+01  0.10912653506E+02  0.25972758331E+02  0.00000000000E+00 0.  1.
<scales pt_clust_5="13000.00000" pt_clust_6="13000.00000" pt_clust_7="13000.00000" pt_clust_8="13000.00000" pt_clust_9="23.56901"></scales>
<clustering>
<clus scale="   23.569">  2  9  1 -1</clus>
<clus scale="   87.287">  5  6 -1 -1</clus>
<clus scale="   92.775">  7  8 -1 -1</clus>
<clus scale="  106.331">  2  5  1 -1</clus>
<clus scale="  110.880">  1  5  2 -1</clus>
</clustering>
</event>
<event>
 9    1  0.5300912E-006  0.9895763E+02  0.7546771E-02  0.1282973E+00
          3   -1    0    0  502    0  0.00000000000E+00  0.00000000000E+00  0.57750239854E+03  0.57750239854E+03  0.00000000000E+00 0. -1.
         -3   -1    0    0    0  501 -0.00000000000E+00 -0.00000000000E+00 -0.30607454808E+02  0.30607454808E+02  0.00000000000E+00 0.  1.
         23    2    1    2    0    0  0.70867491924E+01 -0.30412666042E+02  0.11925206237E+03  0.15587043223E+03  0.95390696583E+02 0.  0.
         23    2    1    2    0    0 -0.37554540549E+02 -0.11433746364E+01  0.26664058473E+03  0.28536878400E+03  0.94480107066E+02 0.  0.
        -13    1    3    3    0    0  0.91797044749E+01 -0.57398208691E+02  0.36103061428E+02  0.68426985756E+02  0.00000000000E+00 0.  1.
         13    1    3    3    0    0 -0.20929552825E+01  0.26985542649E+02  0.83149000941E+02  0.87443446474E+02  0.00000000000E+00 0. -1.
        -13    1    4    4    0    0 -0.31170449047E+02 -0.37492046627E+02  0.70072533391E+02  0.85366330540E+02  0.00000000000E+00 0.  1.
         13    1    4    4    0    0 -0.63840915021E+01  0.36348671991E+02  0.19656805134E+03  0.20000245346E+03  0.00000000000E+00 0. -1.
         21    1    1    2  502  501  0.30467791357E+02  0.31556040678E+02  0.16100229663E+03  0.16687063713E+03  0.00000000000E+00 0. -1.
<scales pt_clust_5="13000.00000" pt_clust_6="13000.00000" pt_clust_7="13000.00000" pt_clust_8="13000.00000" pt_clust_9="43.86422"></scales>
<clustering>
<clus scale="   43.864">  1  9  2 -1</clus>
<clus scale="   94.480">  7  8 -1 -1</clus>
<clus scale="   95.391">  5  6 -1 -1</clus>
<clus scale="   98.080">  1  7  2 -1</clus>
<clus scale="   43.864">  1  5  2 -1</clus>
</clustering>
</event>
<event>
 9    1  0.5300912E-006  0.1626340E+03  0.7546771E-02  0.1189764E+00
          2   -1    0    0  502    0  0.00000000000E+00  0.00000000000E+00  0.96434974384E+03  0.96434974384E+03  0.00000000000E+00 0. -1.
         -2   -1    0    0    0  501 -0.00000000000E+00 -0.00000000000E+00 -0.77301099490E+02  0.77301099490E+02  0.00000000000E+00 0.  1.
         23    2    1    2    0    0 -0.12019895781E+03 -0.16362060390E+02  0.10173088461E+03  0.18319804232E+03  0.92178323635E+02 0.  0.
         23    2    1    2    0    0 -0.18867635198E+02 -0.11666608797E+03  0.41940407808E+03  0.44501740342E+03  0.90408765595E+02 0.  0.
        -11    1    4    4    0    0 -0.55383952193E+02 -0.73487228067E+02  0.24766862208E+03  0.26421109215E+03  0.00000000000E+00 0. -1.
         11    1    4    4    0    0  0.36516316995E+02 -0.43178859905E+02  0.17173545600E+03  0.18080631128E+03  0.00000000000E+00 0.  1.
        -13    1    3    3    0    0 -0.88489129600E+02  0.32489002480E+01  0.11363308970E+03  0.14406026685E+03  0.00000000000E+00 0. -1.
         13    1    3    3    0    0 -0.31709828214E+02 -0.19610960638E+02 -0.11902205097E+02  0.39137775469E+02  0.00000000000E+00 0.  1.
         21    1    1    2  502  501  0.13906659301E+03  0.13302814836E+03  0.36591368166E+03  0.41343539759E+03  0.00000000000E+00 0.  1.
<scales pt_clust_5="13000.00000" pt_clust_6="13000.00000" pt_clust_7="13000.00000" pt_clust_8="13000.00000" pt_clust_9="133.98877"></scales>
<clustering>
<clus scale="   90.409">  5  6 -1 -1</clus>
<clus scale="   92.178">  7  8 -1 -1</clus>
<clus scale="  148.798">  1  5  2 -1</clus>
<clus scale="  133.989">  1  9  2 -1</clus>
<clus scale="  148.798">  1  5  2 -1</clus>
</clustering>
</event>
<event>
 9    1  0.5300912E-006  0.1435468E+03  0.7546771E-02  0.1217867E+00
          1   -1    0    0  502    0  0.00000000000E+00  0.00000000000E+00  0.22890558301E+03  0.22890558301E+03  0.00000000000E+00 0. -1.
         -1   -1    0    0    0  501 -0.00000000000E+00 -0.00000000000E+00 -0.15795818232E+03  0.15795818232E+03  0.00000000000E+00 0.  1.
         23    2    1    2    0    0  0.57951578408E+02 -0.51144438496E+01  0.26864410122E+02  0.11262749530E+03  0.92621343057E+02 0.  0.
         23    2    1    2    0    0 -0.85879503136E+02 -0.80576181136E+01  0.11977915194E+03  0.19248432179E+03  0.12354333096E+03 0.  0.
        -13    1    3    3    0    0  0.22646480195E+02 -0.46012543876E+02 -0.20960171890E+01  0.51326509206E+02  0.00000000000E+00 0.  1.
         13    1    3    3    0    0  0.35305098213E+02  0.40898100027E+02  0.28960427311E+02  0.61300986091E+02  0.00000000000E+00 0. -1.
        -13    1    4    4    0    0 -0.10509221321E+03  0.27622356656E+02  0.98746893721E+02  0.14682750725E+03  0.00000000000E+00 0. -1.
         13    1    4    4    0    0  0.19212710074E+02 -0.35679974769E+02  0.21032258223E+02  0.45656814539E+02  0.00000000000E+00 0.  1.
         21    1    1    2  502  501  0.27927924728E+02  0.13172061963E+02 -0.75696161379E+02  0.81751948255E+02  0.00000000000E+00 0. -1.
<scales pt_clust_5="13000.00000" pt_clust_6="13000.00000" pt_clust_7="13000.00000" pt_clust_8="13000.00000" pt_clust_9="30.87835"></scales>
<clustering>
<clus scale="   30.878">  2  9  1 -1</clus>
<clus scale="   92.621">  5  6 -1 -1</clus>
<clus scale="  117.989">  2  5  1 -1</clus>
<clus scale="  123.543">  7  8 -1 -1</clus>
<clus scale="  143.547">  1  5  2 -1</clus>
</clustering>
</event>
<event>
 9    1  0.5300912E-006  0.9626171E+02  0.7546771E-02  0.1288666E+00
         -2   -1    0    0    0  501 -0.00000000000E+00  0.00000000000E+00  0.11055860596E+03  0.11055860596E+03  0.00000000000E+00 0.  1.
          2   -1    0    0  502    0  0.00000000000E+00 -0.00000000000E+00 -0.10631668200E+03  0.10631668200E+03  0.00000000000E+00 0. -1.
         23    2    1    2    0    0 -0.43865125767E+01  0.18400319333E+02  0.87328145570E+01  0.93593352568E+02  0.91244946987E+02 0.  0.
         23    2    1    2    0    0  0.36875607152E+01 -0.40897062956E+02 -0.17039156036E+01  0.10060244604E+03  0.91824729559E+02 0.  0.
        -13    1    4    4    0    0 -0.11875363897E+02  0.26983601380E+02 -0.83590509504E+01  0.30643314832E+02  0.00000000000E+00 0. -1.
         13    1    4    4    0    0  0.15562924612E+02 -0.67880664335E+02  0.66551353467E+01  0.69959131209E+02  0.00000000000E+00 0.  1.
        -13    1    3    3    0    0 -0.40388522285E+02 -0.12508763885E+02 -0.84696214960E+01  0.43121182667E+02  0.00000000000E+00 0.  1.
         13    1    3    3    0    0  0.36002009708E+02  0.30909083218E+02  0.17202436053E+02  0.50472169901E+02  0.00000000000E+00 0. -1.
         21    1    1    2  502  501  0.69895186152E+00  0.22496743623E+02 -0.27869749944E+01  0.22679489345E+02  0.00000000000E+00 0. -1.
<scales pt_clust_5="13000.00000" pt_clust_6="13000.00000" pt_clust_7="13000.00000" pt_clust_8="13000.00000" pt_clust_9="22.50760"></scales>
<clustering>
<clus scale="   22.508">  2  9  1 -1</clus>
<clus scale="   91.245">  7  8 -1 -1</clus>
<clus scale="   91.825">  5  6 -1 -1</clus>
<clus scale="   95.709">  1  7  2 -1</clus>
<clus scale="   22.508">  2  5  1 -1</clus>
</clustering>
</event>
<event>
 9    1  0.5300912E-006  0.3020069E+03  0.7546771E-02  0.1084257E+00
         -1   -1    0    0    0  501 -0.00000000000E+00  0.00000000000E+00  0.33416481117E+03  0.33416481117E+03  0.00000000000E+00 0.  1.
          1   -1    0    0  502    0  0.00000000000E+00 -0.00000000000E+00 -0.10906256649E+04  0.10906256649E+04  0.00000000000E+00 0. -1.
         23    2    1    2    0    0  0.25215422954E+03  0.17380506034E+03  0.21438650271E+03  0.38517099061E+03  0.92764028520E+02 0.  0.
         23    2    1    2    0    0 -0.18896818420E+03 -0.32232762971E+02 -0.48471845298E+03  0.52936807439E+03  0.92361538970E+02 0.  0.
        -13    1    3    3    0    0  0.53291273535E+02  0.19244219770E+00  0.18367052741E+02  0.56367947412E+02  0.00000000000E+00 0. -1.
         13    1    3    3    0    0  0.19886295601E+03  0.17361261814E+03  0.19601944997E+03  0.32880304320E+03  0.00000000000E+00 0.  1.
        -13    1    4    4    0    0 -0.96508811332E+02 -0.43263698661E+02 -0.34978411866E+03  0.36542390173E+03  0.00000000000E+00 0. -1.
         13    1    4    4    0    0 -0.92459372870E+02  0.11030935690E+02 -0.13493433432E+03  0.16394417267E+03  0.00000000000E+00 0.  1.
         21    1    1    2  502  501 -0.63186045341E+02 -0.14157229737E+03 -0.48612890344E+03  0.51025141104E+03  0.00000000000E+00 0. -1.
<scales pt_clust_5="13000.00000" pt_clust_6="13000.00000" pt_clust_7="13000.00000" pt_clust_8="13000.00000" pt_clust_9="155.03287"></scales>
<clustering>
<clus scale="   92.362">  7  8 -1 -1</clus>
<clus scale="   92.764">  5  6 -1 -1</clus>
<clus scale="  155.033">  2  9  1 -1</clus>
<clus scale="  301.884">  2  7  1 -1</clus>
<clus scale="  155.033">  2  5  1 -1</clus>
</clustering>
</event>
<event>
 9    1  0.5300912E-006  0.1153726E+03  0.7546771E-02  0.1253846E+00
          1   -1    0    0  502    0  0.00000000000E+00  0.00000000000E+00  0.45934288576E+02  0.45934288576E+02  0.00000000000E+00 0. -1.
         -1   -1    0    0    0  501 -0.00000000000E+00 -0.00000000000E+00 -0.60944308037E+03  0.60944308037E+03  0.00000000000E+00 0.  1.
         23    2    1    2    0    0 -0.56955039699E+02 -0.28153889460E+02 -0.15102143463E+03  0.18646894215E+03  0.89031874218E+02 0.  0.
         23    2    1    2    0    0  0.67514619297E+02 -0.31452738087E+02 -0.12382210080E+03  0.17396422022E+03  0.96871764295E+02 0.  0.
        -13    1    3    3    0    0 -0.21598940148E+02  0.27670772254E+02 -0.89686305092E+02  0.96311054265E+02  0.00000000000E+00 0.  1.
         13    1    3    3    0    0 -0.35356099550E+02 -0.55824661714E+02 -0.61335129543E+02  0.90157887880E+02  0.00000000000E+00 0. -1.
        -13    1    4    4    0    0  0.58714069201E+02  0.25862769668E+02 -0.67522317559E+02  0.93142300516E+02  0.00000000000E+00 0.  1.
         13    1    4    4    0    0  0.88005500968E+01 -0.57315507755E+02 -0.56299783246E+02  0.80821919705E+02  0.00000000000E+00 0. -1.
         21    1    1    2  502  501 -0.10559579599E+02  0.59606627547E+02 -0.28866525636E+03  0.29494420658E+03  0.00000000000E+00 0.  1.
<scales pt_clust_5="13000.00000" pt_clust_6="13000.00000" pt_clust_7="13000.00000" pt_clust_8="13000.00000" pt_clust_9="60.53474"></scales>
<clustering>
<clus scale="   60.535">  2  9  1 -1</clus>
<clus scale="   89.032">  5  6 -1 -1</clus>
<clus scale="   96.872">  7  8 -1 -1</clus>
<clus scale="  108.873">  2  5  1 -1</clus>
<clus scale="  115.373">  1  5  2 -1</clus>
</clustering>
</event>
<event>
 9    1  0.5300912E-006  0.1037343E+03  0.7546771E-02  0.1273074E+00
         -2   -1    0    0    0  501 -0.00000000000E+00  0.00000000000E+00  0.16935943319E+03  0.16935943319E+03  0.00000000000E+00 0.  1.
          2   -1    0    0  502    0  0.00000000000E+00 -0.00000000000E+00 -0.17590453785E+03  0.17590453785E+03  0.00000000000E+00 0. -1.
         23    2    1    2    0    0  0.29329448764E+02  0.49442190323E+02  0.96547855422E+02  0.14503003412E+03  0.91692287902E+02 0.  0.
         23    2    1    2    0    0  0.31065841010E+02 -0.15670920229E+02 -0.80033956201E+02  0.12729692731E+03  0.92673671234E+02 0.  0.
        -11    1    3    3    0    0  0.58638328198E+02  0.11002724724E+02  0.48687726077E+02  0.77006546187E+02  0.00000000000E+00 0. -1.
         11    1    3    3    0    0 -0.29308879434E+02  0.38439465599E+02  0.47860129345E+02  0.68023487930E+02  0.00000000000E+00 0.  1.
        -13    1    4    4    0    0 -0.89554874593E+01  0.30731448062E+02 -0.85266741396E+01  0.33125923798E+02  0.00000000000E+00 0.  1.
         13    1    4    4    0    0  0.40021328470E+02 -0.46402368290E+02 -0.71507282061E+02  0.94171003516E+02  0.00000000000E+00 0. -1.
         21    1    1    2  502  501 -0.60395289774E+02 -0.33771270094E+02 -0.23059003888E+02  0.72937009611E+02  0.00000000000E+00 0.  1.
<scales pt_clust_5="13000.00000" pt_clust_6="13000.00000" pt_clust_7="13000.00000" pt_clust_8="13000.00000" pt_clust_9="69.19602"></scales>
<clustering>
<clus scale="   69.196">  2  9  1 -1</clus>
<clus scale="   91.692">  5  6 -1 -1</clus>
<clus scale="   92.674">  7  8 -1 -1</clus>
<clus scale="  102.859">  1  5  2 -1</clus>
<clus scale="   69.196">  2  5  1 -1</clus>
</clustering>
</event>
<event>
 9    1  0.5300912E-006  0.9345932E+02  0.7546771E-02  0.1295526E+00
         -2   -1    0    0    0  501 -0.00000000000E+00  0.00000000000E+00  0.45338481743E+02  0.45338481743E+02  0.00000000000E+00 0.  1.
          2   -1    0    0  502    0  0.00000000000E+00 -0.00000000000E+00 -0.37688250473E+03  0.37688250473E+03  0.00000000000E+00 0. -1.
         23    2    1    2    0    0 -0.30387308355E+02  0.42171136932E+02 -0.13025985137E+03  0.16770801036E+03  0.91959526740E+02 0.  0.
         23    2    1    2    0    0 -0.11830453540E+02  0.57031987204E+01 -0.12841735945E+03  0.15764263108E+03  0.90485881870E+02 0.  0.
        -11    1    3    3    0    0 -0.18182585048E+02  0.59328266476E+02 -0.13272000137E+03  0.14650955043E+03  0.00000000000E+00 0.  1.
         11    1    3    3    0    0 -0.12204723307E+02 -0.17157129544E+02  0.24601500011E+01  0.21198459926E+02  0.00000000000E+00 0. -1.
        -13    1    4    4    0    0 -0.26734894072E+02 -0.37200149841E+02 -0.69758370949E+02  0.83455593142E+02  0.00000000000E+00 0.  1.
         13    1    4    4    0    0  0.14904440533E+02  0.42903348561E+02 -0.58658988503E+02  0.74187037935E+02  0.00000000000E+00 0. -1.
         21    1    1    2  502  501  0.42217761895E+02 -0.47874335652E+02 -0.72866812157E+02  0.96870345036E+02  0.00000000000E+00 0.  1.
<scales pt_clust_5="13000.00000" pt_clust_6="13000.00000" pt_clust_7="13000.00000" pt_clust_8="13000.00000" pt_clust_9="63.83018"></scales>
<clustering>
<clus scale="   63.830">  1  9  2 -1</clus>
<clus scale="   90.486">  7  8 -1 -1</clus>
<clus scale="   91.960">  5  6 -1 -1</clus>
<clus scale="   92.010">  2  7  1 -1</clus>
<clus scale="   92.010">  2  5  1 -1</clus>
</clustering>
</event>
<event>
 9    1  0.5300912E-006  0.1588628E+03  0.7546771E-02  0.1215506E+00
         -1   -1    0    0    0  501 -0.00000000000E+00  0.00000000000E+00  0.21244844459E+03  0.21244844459E+03  0.00000000000E+00 0.  1.
          1   -1    0    0  502    0  0.00000000000E+00 -0.00000000000E+00 -0.31023470760E+03  0.31023470760E+03  0.00000000000E+00 0. -1.
         23    2    1    2    0    0 -0.13001857675E+01  0.13329052310E+02  0.99500536924E+02  0.13517449431E+03  0.90512059669E+02 0.  0.
         23    2    1    2    0    0 -0.33886090412E+02 -0.13627222053E+03 -0.19034915168E+02  0.16813037485E+03  0.90482648844E+02 0.  0.
        -11    1    4    4    0    0 -0.43123097634E+02 -0.56418675758E+02  0.26438511465E+02  0.75773764671E+02  0.00000000000E+00 0. -1.
         11    1    4    4    0    0  0.92370072221E+01 -0.79853544770E+02 -0.45473426632E+02  0.92356610183E+02  0.00000000000E+00 0.  1.
        -13    1    3    3    0    0 -0.24461775643E+02 -0.25406755610E+02  0.77111026283E+02  0.84793820958E+02  0.00000000000E+00 0.  1.
         13    1    3    3    0    0  0.23161589875E+02  0.38735807920E+02  0.22389510642E+02  0.50380673354E+02  0.00000000000E+00 0. -1.
         21    1    1    2  502  501  0.35186276180E+02  0.12294316822E+03 -0.17825188476E+03  0.21937828302E+03  0.00000000000E+00 0. -1.
<scales pt_clust_5="13000.00000" pt_clust_6="13000.00000" pt_clust_7="13000.00000" pt_clust_8="13000.00000" pt_clust_9="130.57675"></scales>
<clustering>
<clus scale="   90.483">  5  6 -1 -1</clus>
<clus scale="   90.512">  7  8 -1 -1</clus>
<clus scale="   91.497">  1  7  2 -1</clus>
<clus scale="  130.577">  2  9  1 -1</clus>
<clus scale="  130.577">  2  5  1 -1</clus>
</clustering>
</event>
<event>
 9    1  0.5300912E-006  0.9233740E+02  0.7546771E-02  0.1297508E+00
         -2   -1    0    0    0  501 -0.00000000000E+00  0.00000000000E+00  0.11925785060E+03  0.11925785060E+03  0.00000000000E+00 0.  1.
          2   -1    0    0  502    0  0.00000000000E+00 -0.00000000000E+00 -0.22456326432E+03  0.22456326432E+03  0.00000000000E+00 0. -1.
         23    2    1    2    0    0  0.87556461622E+01 -0.35068753843E+02  0.48521138938E+02  0.10869169563E+03  0.90294545452E+02 0.  0.
         23    2    1    2    0    0  0.10165611673E+02 -0.38294189282E+02 -0.65059518242E+02  0.11842585541E+03  0.90676114402E+02 0.  0.
        -11    1    4    4    0    0 -0.35939640252E+02 -0.76690268066E+01 -0.48108914827E+02  0.60538742962E+02  0.00000000000E+00 0. -1.
         11    1    4    4    0    0  0.46105251925E+02 -0.30625162476E+02 -0.16950603415E+02  0.57887112451E+02  0.00000000000E+00 0.  1.
        -11    1    3    3    0    0  0.44930452069E+02 -0.33727708820E+02  0.12359320906E+02  0.57524400724E+02  0.00000000000E+00 0.  1.
         11    1    3    3    0    0 -0.36174805907E+02 -0.13410450223E+01  0.36161818033E+02  0.51167294902E+02  0.00000000000E+00 0. -1.
         21    1    1    2  502  501 -0.18921257835E+02  0.73362943125E+02 -0.88767034420E+02  0.11670356388E+03  0.00000000000E+00 0. -1.
<scales pt_clust_5="13000.00000" pt_clust_6="13000.00000" pt_clust_7="13000.00000" pt_clust_8="13000.00000" pt_clust_9="75.76368"></scales>
<clustering>
<clus scale="   75.764">  2  9  1 -1</clus>
<clus scale="   90.295">  7  8 -1 -1</clus>
<clus scale="   90.676">  5  6 -1 -1</clus>
<clus scale="   91.963">  1  7  2 -1</clus>
<clus scale="   75.764">  2  5  1 -1</clus>
</clustering>
</event>
<event>
 9    1  0.5300912E-006  0.9882841E+02  0.7546771E-02  0.1284495E+00
         -1   -1    0    0    0  501 -0.00000000000E+00  0.00000000000E+00  0.13945307468E+03  0.13945307468E+03  0.00000000000E+00 0.  1.
          1   -1    0    0  502    0  0.00000000000E+00 -0.00000000000E+00 -0.15814470276E+03  0.15814470276E+03  0.00000000000E+00 0. -1.
         23    2    1    2    0    0 -0.24337481879E+02 -0.15330716572E+02  0.68401752283E+02  0.11933107354E+03  0.93454595934E+02 0.  0.
         23    2    1    2    0    0  0.57096201558E+02 -0.14767950079E+02 -0.77704715654E+02  0.13280011755E+03  0.90109820800E+02 0.  0.
        -11    1    4    4    0    0 -0.16784906700E+02  0.16395519048E+02 -0.34481951477E+02  0.41707926291E+02  0.00000000000E+00 0. -1.
         11    1    4    4    0    0  0.73881108258E+02 -0.31163469127E+02 -0.43222764177E+02  0.91092191260E+02  0.00000000000E+00 0.  1.
        -13    1    3    3    0    0 -0.18540831216E+02  0.14329131906E+02  0.82658737165E+02  0.85915966346E+02  0.00000000000E+00 0. -1.
         13    1    3    3    0    0 -0.57966506628E+01 -0.29659848478E+02 -0.14256984882E+02  0.33415107191E+02  0.00000000000E+00 0.  1.
         21    1    1    2  502  501 -0.32758719679E+02  0.30098666651E+02 -0.93886647163E+01  0.45466586350E+02  0.00000000000E+00 0. -1.
<scales pt_clust_5="13000.00000" pt_clust_6="13000.00000" pt_clust_7="13000.00000" pt_clust_8="13000.00000" pt_clust_9="44.48667"></scales>
<clustering>
<clus scale="   44.487">  2  9  1 -1</clus>
<clus scale="   90.110">  5  6 -1 -1</clus>
<clus scale="   93.455">  7  8 -1 -1</clus>
<clus scale="   95.672">  2  5  1 -1</clus>
<clus scale="   44.487">  2  5  1 -1</clus>
</clustering>
</event>
<event>
 9    1  0.5300912E-006  0.1038858E+03  0.7546771E-02  0.1275901E+00
         -2   -1    0    0    0  501 -0.00000000000E+00  0.00000000000E+00  0.54356674126E+03  0.54356674126E+03  0.00000000000E+00 0.  1.
          2   -1    0    0  502    0  0.00000000000E+00 -0.00000000000E+00 -0.51386243885E+02  0.51386243885E+02  0.00000000000E+00 0. -1.
         23    2    1    2    0    0 -0.22782395517E+02 -0.60029372558E+02  0.32906831059E+03  0.34798182959E+03  0.93181744845E+02 0.  0.
         23    2    1    2    0    0  0.41129035904E+02 -0.16154982170E+01  0.15559289877E+03  0.18221600906E+03  0.85436036773E+02 0.  0.
        -11    1    3    3    0    0 -0.22138259222E+02 -0.83596968677E+02  0.21982921189E+03  0.23622751342E+03  0.00000000000E+00 0. -1.
         11    1    3    3    0    0 -0.64413629564E+00  0.23567596119E+02  0.10923909870E+03  0.11175431617E+03  0.00000000000E+00 0.  1.
        -13    1    4    4    0    0  0.40021296627E+02 -0.37258041361E+02  0.65506634310E+02  0.85328687839E+02  0.00000000000E+00 0. -1.
         13    1    4    4    0    0  0.11077392774E+01  0.35642543143E+02  0.90086264461E+02  0.96887321217E+02  0.00000000000E+00 0.  1.
         21    1    1    2  502  501 -0.18346640387E+02  0.61644870775E+02  0.75192880126E+01  0.64755146503E+02  0.00000000000E+00 0. -1.
<scales pt_clust_5="13000.00000" pt_clust_6="13000.00000" pt_clust_7="13000.00000" pt_clust_8="13000.00000" pt_clust_9="64.31710"></scales>
<clustering>
<clus scale="   64.317">  2  9  1 -1</clus>
<clus scale="   85.436">  7  8 -1 -1</clus>
<clus scale="   93.182">  5  6 -1 -1</clus>
<clus scale="   96.999">  2  7  1 -1</clus>
<clus scale="   64.317">  2  5  1 -1</clus>
</clustering>
</event>
<event>
 9    1  0.5300912E-006  0.1022648E+03  0.7546771E-02  0.1276620E+00
          4   -1    0    0  502    0  0.00000000000E+00  0.00000000000E+00  0.33595126428E+03  0.33595126428E+03  0.00000000000E+00 0. -1.
         -4   -1    0    0    0  501 -0.00000000000E+00 -0.00000000000E+00 -0.90686936699E+02  0.90686936699E+02  0.00000000000E+00 0.  1.
         23    2    1    2    0    0 -0.15583898682E+02 -0.29733338639E+02 -0.16145328327E+02  0.97141921067E+02  0.89715951074E+02 0.  0.
         23    2    1    2    0    0  0.85398610106E+01  0.88796669109E+02  0.11765340564E+03  0.17392007683E+03  0.91913500622E+02 0.  0.
        -11    1    4    4    0    0 -0.22046870899E+02 -0.95040956244E+01  0.13822492006E+02  0.27702953548E+02  0.00000000000E+00 0.  1.
         11    1    4    4    0    0  0.30586731909E+02  0.98300764733E+02  0.10383091363E+03  0.14621712329E+03  0.00000000000E+00 0. -1.
        -13    1    3    3    0    0 -0.41212477908E+02  0.14948526359E+02 -0.27893502848E+01  0.43928433282E+02  0.00000000000E+00 0. -1.
         13    1    3    3    0    0  0.25628579226E+02 -0.44681864998E+02 -0.13355978042E+02  0.53213487785E+02  0.00000000000E+00 0.  1.
         21    1    1    2  502  501  0.70440376717E+01 -0.59063330469E+02  0.14375625027E+03  0.15557620308E+03  0.00000000000E+00 0.  1.
<scales pt_clust_5="13000.00000" pt_clust_6="13000.00000" pt_clust_7="13000.00000" pt_clust_8="13000.00000" pt_clust_9="59.48189"></scales>
<clustering>
<clus scale="   59.482">  1  9  2 -1</clus>
<clus scale="   89.716">  7  8 -1 -1</clus>
<clus scale="   91.914">  5  6 -1 -1</clus>
<clus scale="  100.294">  2  7  1 -1</clus>
<clus scale="   59.482">  1  5  2 -1</clus>
</clustering>
</event>
<event>
 9    1  0.5300912E-006  0.1196291E+03  0.7546771E-02  0.1244678E+00
         -1   -1    0    0    0  501 -0.00000000000E+00  0.00000000000E+00  0.46301102658E+02  0.46301102658E+02  0.00000000000E+00 0.  1.
          1   -1    0    0  502    0  0.00000000000E+00 -0.00000000000E+00 -0.54529982317E+03  0.54529982317E+03  0.00000000000E+00 0. -1.
         23    2    1    2    0    0  0.60317661610E+02  0.44574976935E+02 -0.14469817491E+03  0.18315172049E+03  0.83557417542E+02 0.  0.
         23    2    1    2    0    0 -0.98612845321E+02  0.12995467164E+02 -0.25914123960E+03  0.29082195234E+03  0.86774711011E+02 0.  0.
        -13    1    4    4    0    0 -0.55553250924E+02 -0.34667291347E+02 -0.15769350951E+03  0.17074901967E+03  0.00000000000E+00 0. -1.
         13    1    4    4    0    0 -0.43059594397E+02  0.47662758511E+02 -0.10144773010E+03  0.12007293267E+03  0.00000000000E+00 0.  1.
        -13    1    3    3    0    0  0.23823423552E+02  0.65027635109E+02 -0.76924393600E+02  0.10350609242E+03  0.00000000000E+00 0.  1.
         13    1    3    3    0    0  0.36494238058E+02 -0.20452658174E+02 -0.67773781312E+02  0.79645628073E+02  0.00000000000E+00 0. -1.
         21    1    1    2  502  501  0.38295183711E+02 -0.57570444099E+02 -0.95159305998E+02  0.11762725300E+03  0.00000000000E+00 0. -1.
<scales pt_clust_5="13000.00000" pt_clust_6="13000.00000" pt_clust_7="13000.00000" pt_clust_8="13000.00000" pt_clust_9="69.14389"></scales>
<clustering>
<clus scale="   69.144">  1  9  2 -1</clus>
<clus scale="   83.557">  7  8 -1 -1</clus>
<clus scale="   86.775">  5  6 -1 -1</clus>
<clus scale="  117.316">  1  7  2 -1</clus>
<clus scale="  119.629">  2  5  1 -1</clus>
</clustering>
</event>
<event>
 9    1  0.5300912E-006  0.1557148E+03  0.7546771E-02  0.1207732E+00
         -4   -1    0    0    0  501 -0.00000000000E+00  0.00000000000E+00  0.61102525959E+03  0.61102525959E+03  0.00000000000E+00 0.  1.
          4   -1    0    0  502    0  0.00000000000E+00 -0.00000000000E+00 -0.10240252026E+03  0.10240252026E+03  0.00000000000E+00 0. -1.
         23    2    1    2    0    0  0.66228584161E+02 -0.21068556324E+02  0.37105292213E+03  0.38836220376E+03  0.91185639561E+02 0.  0.
         23    2    1    2    0    0  0.93353202970E+02 -0.13495032154E+02  0.68486708078E+02  0.14777072450E+03  0.90823022626E+02 0.  0.
        -11    1    4    4    0    0  0.18022219951E+02 -0.19035969599E+02  0.67302029644E+02  0.72226946112E+02  0.00000000000E+00 0.  1.
         11    1    4    4    0    0  0.75330983019E+02  0.55409374447E+01  0.11846784336E+01  0.75543778390E+02  0.00000000000E+00 0. -1.
        -11    1    3    3    0    0 -0.18156994352E+02 -0.21821719336E+02  0.65872517618E+02  0.71729021017E+02  0.00000000000E+00 0. -1.
         11    1    3    3    0    0  0.84385578513E+02  0.75316301251E+00  0.30518040451E+03  0.31663318274E+03  0.00000000000E+00 0.  1.
         21    1    1    2  502  501 -0.15958178713E+03  0.34563588478E+02  0.69083109130E+02  0.17729485159E+03  0.00000000000E+00 0. -1.
<scales pt_clust_5="13000.00000" pt_clust_6="13000.00000" pt_clust_7="13000.00000" pt_clust_8="13000.00000" pt_clust_9="126.48429"></scales>
<clustering>
<clus scale="   90.823">  5  6 -1 -1</clus>
<clus scale="   91.186">  7  8 -1 -1</clus>
<clus scale="  114.651">  1  7  2 -1</clus>
<clus scale="  126.484">  1  9  2 -1</clus>
<clus scale="  155.715">  2  5  1 -1</clus>
</clustering>
</event>
<event>
 9    1  0.5300912E-006  0.1375597E+03  0.7546771E-02  0.1216778E+00
          1   -1    0    0  502    0  0.00000000000E+00  0.00000000000E+00  0.10404267493E+03  0.10404267493E+03  0.00000000000E+00 0. -1.
         -1   -1    0    0    0  501 -0.00000000000E+00 -0.00000000000E+00 -0.72044217954E+03  0.72044217954E+03  0.00000000000E+00 0.  1.
         23    2    1    2    0    0 -0.64607850222E+02  0.11407200372E+03 -0.51298858808E+03  0.53722017408E+03  0.90893495872E+02 0.  0.
         23    2    1    2    0    0  0.98454881434E+01 -0.65211395764E+02 -0.15956098340E+03  0.19485740083E+03  0.90334043743E+02 0.  0.
        -11    1    4    4    0    0 -0.54808374989E+01  0.19647433508E+02 -0.58786878366E+02  0.62225061600E+02  0.00000000000E+00 0.  1.
         11    1    4    4    0    0  0.15326325642E+02 -0.84858829272E+02 -0.10077410503E+03  0.13263233922E+03  0.00000000000E+00 0. -1.
        -13    1    3    3    0    0  0.17231376620E+02  0.57387573592E+02 -0.19951763634E+03  0.20832076506E+03  0.00000000000E+00 0.  1.
         13    1    3    3    0    0 -0.81839226842E+02  0.56684430124E+02 -0.31347095173E+03  0.32889940901E+03  0.00000000000E+00 0. -1.
         21    1    1    2  502  501  0.54762362078E+02 -0.48860607952E+02  0.56150066864E+02  0.92407279576E+02  0.00000000000E+00 0. -1.
<scales pt_clust_5="13000.00000" pt_clust_6="13000.00000" pt_clust_7="13000.00000" pt_clust_8="13000.00000" pt_clust_9="73.39125"></scales>
<clustering>
<clus scale="   73.391">  1  9  2 -1</clus>
<clus scale="   90.334">  5  6 -1 -1</clus>
<clus scale="   90.893">  7  8 -1 -1</clus>
<clus scale="  137.191">  1  5  2 -1</clus>
<clus scale="   73.391">  1  5  2 -1</clus>
</clustering>
</event>
<event>
 9    1  0.5300912E-006  0.1119667E+03  0.7546771E-02  0.1258788E+00
          3   -1    0    0  502    0  0.00000000000E+00  0.00000000000E+00  0.48053225480E+03  0.48053225480E+03  0.00000000000E+00 0. -1.
         -3   -1    0    0    0  501 -0.00000000000E+00 -0.00000000000E+00 -0.18177933204E+03  0.18177933204E+03  0.00000000000E+00 0.  1.
         23    2    1    2    0    0  0.45640991260E+02 -0.34976666500E+02 -0.14808028442E+03  0.18603368169E+03  0.96820931649E+02 0.  0.
         23    2    1    2    0    0 -0.15043599405E+02  0.49206053152E+02  0.19123465478E+03  0.21846150572E+03  0.92234433605E+02 0.  0.
        -13    1    4    4    0    0 -0.19818454198E+02 -0.24374289171E+02  0.48078852061E+02  0.57432160980E+02  0.00000000000E+00 0.  1.
         13    1    4    4    0    0  0.47748547935E+01  0.73580342324E+02  0.14315580271E+03  0.16102934473E+03  0.00000000000E+00 0. -1.
        -13    1    3    3    0    0  0.53815717915E+02 -0.58841512598E+02 -0.77976444581E+02  0.11152928319E+03  0.00000000000E+00 0.  1.
         13    1    3    3    0    0 -0.81747266549E+01  0.23864846097E+02 -0.70103839838E+02  0.74504398495E+02  0.00000000000E+00 0. -1.
         21    1    1    2  502  501 -0.30597391855E+02 -0.14229386652E+02  0.25559855240E+03  0.25781639944E+03  0.00000000000E+00 0.  1.
<scales pt_clust_5="13000.00000" pt_clust_6="13000.00000" pt_clust_7="13000.00000" pt_clust_8="13000.00000" pt_clust_9="33.74427"></scales>
<clustering>
<clus scale="   33.744">  1  9  2 -1</clus>
<clus scale="   92.234">  5  6 -1 -1</clus>
<clus scale="   96.821">  7  8 -1 -1</clus>
<clus scale="  108.025">  1  5  2 -1</clus>
<clus scale="   33.744">  1  5  2 -1</clus>
</clustering>
</event>
<event>
 9    1  0.5300912E-006  0.1469139E+03  0.7546771E-02  0.1205118E+00
          2   -1    0    0  502    0  0.00000000000E+00  0.00000000000E+00  0.25090158998E+03  0.25090158998E+03  0.00000000000E+00 0. -1.
         -2   -1    0    0    0  501 -0.00000000000E+00 -0.00000000000E+00 -0.25799236728E+03  0.25799236728E+03  0.00000000000E+00 0.  1.
         23    2    1    2    0    0 -0.70724754769E+02  0.94675350127E+02 -0.16790207892E+03  0.22514612443E+03  0.92381039064E+02 0.  0.
         23    2    1    2    0    0 -0.98155246680E+01 -0.11783546405E+03  0.12154937605E+03  0.19120256667E+03  0.88332494429E+02 0.  0.
        -11    1    4    4    0    0 -0.23162886397E+02 -0.53023508383E+02  0.61641234428E+01  0.58189416265E+02  0.00000000000E+00 0.  1.
         11    1    4    4    0    0  0.13347361729E+02 -0.64811955668E+02  0.11538525261E+03  0.13301315041E+03  0.00000000000E+00 0. -1.
        -13    1    3    3    0    0 -0.46050157596E+02  0.10580518324E+03 -0.15938095232E+03  0.19676798972E+03  0.00000000000E+00 0.  1.
         13    1    3    3    0    0 -0.24674597173E+02 -0.11129833114E+02 -0.85211265992E+01  0.28378134705E+02  0.00000000000E+00 0. -1.
         21    1    1    2  502  501  0.80540279437E+02  0.23160113924E+02  0.39261925568E+02  0.92545266157E+02  0.00000000000E+00 0.  1.
<scales pt_clust_5="13000.00000" pt_clust_6="13000.00000" pt_clust_7="13000.00000" pt_clust_8="13000.00000" pt_clust_9="83.80410"></scales>
<clustering>
<clus scale="   83.804">  1  9  2 -1</clus>
<clus scale="   88.332">  5  6 -1 -1</clus>
<clus scale="   92.381">  7  8 -1 -1</clus>
<clus scale="  144.402">  1  5  2 -1</clus>
<clus scale="   83.804">  1  5  2 -1</clus>
</clustering>
</event>
<event>
 9    1  0.5300912E-006  0.1265904E+03  0.7546771E-02  0.1233760E+00
          1   -1    0    0  502    0  0.00000000000E+00  0.00000000000E+00  0.51491216936E+03  0.51491216936E+03  0.00000000000E+00 0. -1.
         -1   -1    0    0    0  501 -0.00000000000E+00 -0.00000000000E+00 -0.11736794314E+03  0.11736794314E+03  0.00000000000E+00 0.  1.
         23    2    1    2    0    0  0.10030664462E+03 -0.34441407098E+02  0.95101075243E+02  0.16874686363E+03  0.90463561708E+02 0.  0.
         23    2    1    2    0    0  0.53080695798E+01  0.10423149708E+03  0.30827220913E+03  0.33680873492E+03  0.86694800374E+02 0.  0.
        -11    1    4    4    0    0 -0.28725816767E+02  0.24411796918E+02  0.16547199543E+03  0.16971178407E+03  0.00000000000E+00 0. -1.
         11    1    4    4    0    0  0.34033886347E+02  0.79819700165E+02  0.14280021369E+03  0.16709695085E+03  0.00000000000E+00 0.  1.
        -13    1    3    3    0    0  0.53946421137E+02 -0.42644747791E+02  0.10005390662E+03  0.12140665178E+03  0.00000000000E+00 0. -1.
         13    1    3    3    0    0  0.46360223479E+02  0.82033406937E+01 -0.49528313736E+01  0.47340211852E+02  0.00000000000E+00 0.  1.
         21    1    1    2  502  501 -0.10561471420E+03 -0.69790089986E+02 -0.58290581551E+01  0.12672451394E+03  0.00000000000E+00 0. -1.
<scales pt_clust_5="13000.00000" pt_clust_6="13000.00000" pt_clust_7="13000.00000" pt_clust_8="13000.00000" pt_clust_9="126.59038"></scales>
<clustering>
<clus scale="   86.695">  5  6 -1 -1</clus>
<clus scale="   90.464">  7  8 -1 -1</clus>
<clus scale="  126.590">  2  9  1 -1</clus>
<clus scale="  123.621">  1  5  2 -1</clus>
<clus scale="  123.621">  1  5  2 -1</clus>
</clustering>
</event>
<event>
 9    1  0.7316117E-006  0.9433057E+02  0.7546771E-02  0.1294503E+00
          3   -1    0    0  502    0  0.00000000000E+00  0.00000000000E+00  0.20324054001E+03  0.20324054001E+03  0.00000000000E+00 0. -1.
         -3   -1    0    0    0  501 -0.00000000000E+00 -0.00000000000E+00 -0.19155870896E+03  0.19155870896E+03  0.00000000000E+00 0.  1.
         23    2    1    2    0    0  0.38707593211E+01 -0.23889131599E+02 -0.14707937385E+03  0.17459716132E+03  0.90918387259E+02 0.  0.
         23    2    1    2    0    0 -0.52075524268E+02  0.21039910228E+02  0.10332498791E+03  0.14668343981E+03  0.87666643253E+02 0.  0.
        -11    1    3    3    0    0  0.39908657113E+02 -0.38058467996E+02 -0.92144007050E+02  0.10738559463E+03  0.00000000000E+00 0.  1.
         11    1    3    3    0    0 -0.36037897792E+02  0.14169336397E+02 -0.54935366801E+02  0.67211566689E+02  0.00000000000E+00 0. -1.
        -11    1    4    4    0    0  0.51203683913E+01  0.24195085440E+02  0.81854659352E+02  0.85509096531E+02  0.00000000000E+00 0. -1.
         11    1    4    4    0    0 -0.57195892659E+02 -0.31551752128E+01  0.21470328554E+02  0.61174343281E+02  0.00000000000E+00 0.  1.
         21    1    1    2  502  501  0.48204764946E+02  0.28492213717E+01  0.55436216993E+02  0.73518647842E+02  0.00000000000E+00 0. -1.
<scales pt_clust_5="13000.00000" pt_clust_6="13000.00000" pt_clust_7="13000.00000" pt_clust_8="13000.00000" pt_clust_9="48.28890"></scales>
<clustering>
<clus scale="   48.289">  1  9  2 -1</clus>
<clus scale="   87.667">  7  8 -1 -1</clus>
<clus scale="   90.918">  5  6 -1 -1</clus>
<clus scale="   91.201">  1  7  2 -1</clus>
<clus scale="   48.289">  1  5  2 -1</clus>
</clustering>
</event>
<event>
 9    1  0.5300912E-006  0.9823631E+02  0.7546771E-02  0.1286986E+00
          2   -1    0    0  502    0  0.00000000000E+00  0.00000000000E+00  0.72920937737E+03  0.72920937737E+03  0.00000000000E+00 0. -1.
         -2   -1    0    0    0  501 -0.00000000000E+00 -0.00000000000E+00 -0.40143544608E+02  0.40143544608E+02  0.00000000000E+00 0.  1.
         23    2    1    2    0    0 -0.23015288356E+02 -0.30412766258E+02  0.73247547297E+02  0.12653247345E+03  0.95867741201E+02 0.  0.
         23    2    1    2    0    0  0.96507757104E+00 -0.47876579147E+02  0.31529256464E+03  0.33148278251E+03  0.90434150528E+02 0.  0.
        -11    1    4    4    0    0 -0.25351501501E+02  0.16712474585E+02  0.12999347873E+03  0.13349273369E+03  0.00000000000E+00 0. -1.
         11    1    4    4    0    0  0.26316579072E+02 -0.64589053731E+02  0.18529908590E+03  0.19799004882E+03  0.00000000000E+00 0.  1.
        -11    1    3    3    0    0 -0.59566052284E+02 -0.13898376223E+02  0.32124963861E+02  0.69089020470E+02  0.00000000000E+00 0. -1.
         11    1    3    3    0    0  0.36550763929E+02 -0.16514390035E+02  0.41122583436E+02  0.57443452982E+02  0.00000000000E+00 0.  1.
         21    1    1    2  502  501  0.22050210785E+02  0.78289345405E+02  0.30052572083E+03  0.31133766602E+03  0.00000000000E+00 0. -1.
<scales pt_clust_5="13000.00000" pt_clust_6="13000.00000" pt_clust_7="13000.00000" pt_clust_8="13000.00000" pt_clust_9="81.33531"></scales>
<clustering>
<clus scale="   81.335">  1  9  2 -1</clus>
<clus scale="   90.434">  5  6 -1 -1</clus>
<clus scale="   92.941">  1  5  2 -1</clus>
<clus scale="   95.868">  7  8 -1 -1</clus>
<clus scale="   81.335">  1  5  2 -1</clus>
</clustering>
</event>
<event>
 9    1  0.5300912E-006  0.1527271E+03  0.7546771E-02  0.1208963E+00
         -1   -1    0    0    0  501 -0.00000000000E+00  0.00000000000E+00  0.13586871367E+03  0.13586871367E+03  0.00000000000E+00 0.  1.
          1   -1    0    0  502    0  0.00000000000E+00 -0.00000000000E+00 -0.37446654892E+03  0.37446654892E+03  0.00000000000E+00 0. -1.
         23    2    1    2    0    0  0.16661663840E+02 -0.26651059256E+02  0.27821317291E+02  0.12157868987E+03  0.11410285769E+03 0.  0.
         23    2    1    2    0    0  0.69182811662E+02  0.11614047056E+03 -0.14221236438E+03  0.21324316886E+03  0.83507018576E+02 0.  0.
        -13    1    3    3    0    0 -0.15784050700E+02 -0.65454235567E+02  0.21064711650E+02  0.70548673177E+02  0.00000000000E+00 0. -1.
         13    1    3    3    0    0  0.32445714541E+02  0.38803176311E+02  0.67566056411E+01  0.51030016692E+02  0.00000000000E+00 0.  1.
        -13    1    4    4    0    0  0.56895288689E+02  0.79653292507E+02 -0.43174195840E+02  0.10698472820E+03  0.00000000000E+00 0.  1.
         13    1    4    4    0    0  0.12287522972E+02  0.36487178051E+02 -0.99038168537E+02  0.10625844065E+03  0.00000000000E+00 0. -1.
         21    1    1    2  502  501 -0.85844475502E+02 -0.89489411302E+02 -0.12420678817E+03  0.17551340387E+03  0.00000000000E+00 0. -1.
<scales pt_clust_5="13000.00000" pt_clust_6="13000.00000" pt_clust_7="13000.00000" pt_clust_8="13000.00000" pt_clust_9="127.87548"></scales>
<clustering>
<clus scale="   83.507">  7  8 -1 -1</clus>
<clus scale="  114.103">  5  6 -1 -1</clus>
<clus scale="  118.353">  1  5  2 -1</clus>
<clus scale="  127.875">  2  9  1 -1</clus>
<clus scale="  127.875">  2  5  1 -1</clus>
</clustering>
</event>
<event>
 9    1  0.5300912E-006  0.1183103E+03  0.7546771E-02  0.1246367E+00
         -1   -1    0    0    0  501 -0.00000000000E+00  0.00000000000E+00  0.15076079498E+03  0.15076079498E+03  0.00000000000E+00 0.  1.
          1   -1    0    0  502    0  0.00000000000E+00 -0.00000000000E+00 -0.21804324104E+03  0.21804324104E+03  0.00000000000E+00 0. -1.
         23    2    1    2    0    0  0.54195819230E+02 -0.75764906100E+02  0.98618870714E+01  0.13094872439E+03  0.91503026088E+02 0.  0.
         23    2    1    2    0    0 -0.47939768451E+02  0.47547157542E+02 -0.13254439750E+03  0.17536894002E+03  0.92883228990E+02 0.  0.
        -13    1    4    4    0    0  0.26953103404E+02  0.20139967281E+01 -0.27466968262E+02  0.38535182774E+02  0.00000000000E+00 0.  1.
         13    1    4    4    0    0 -0.74892871855E+02  0.45533160814E+02 -0.10507742923E+03  0.13683375725E+03  0.00000000000E+00 0. -1.
        -13    1    3    3    0    0  0.24163204460E+02  0.10067348005E+02  0.27883593977E+02  0.38245349504E+02  0.00000000000E+00 0.  1.
         13    1    3    3    0    0  0.30032614770E+02 -0.85832254105E+02 -0.18021706905E+02  0.92703374881E+02  0.00000000000E+00 0. -1.
         21    1    1    2  502  501 -0.62560507785E+01  0.28217748558E+02  0.55400064369E+02  0.62486371611E+02  0.00000000000E+00 0.  1.
<scales pt_clust_5="13000.00000" pt_clust_6="13000.00000" pt_clust_7="13000.00000" pt_clust_8="13000.00000" pt_clust_9="28.90293"></scales>
<clustering>
<clus scale="   28.903">  1  9  2 -1</clus>
<clus scale="   91.503">  7  8 -1 -1</clus>
<clus scale="   92.883">  5  6 -1 -1</clus>
<clus scale="  117.230">  1  7  2 -1</clus>
<clus scale="  118.310">  2  5  1 -1</clus>
</clustering>
</event>
<event>
 9    1  0.5300912E-006  0.1621125E+03  0.7546771E-02  0.1207952E+00
         -2   -1    0    0    0  501 -0.00000000000E+00  0.00000000000E+00  0.44490282150E+03  0.44490282150E+03  0.00000000000E+00 0.  1.
          2   -1    0    0  502    0  0.00000000000E+00 -0.00000000000E+00 -0.16357473966E+03  0.16357473966E+03  0.00000000000E+00 0. -1.
         23    2    1    2    0    0  0.15308763752E+02  0.35229715622E+02  0.21845889809E+03  0.24073078370E+03  0.93549606934E+02 0.  0.
         23    2    1    2    0    0 -0.33781204953E+00  0.12554559970E+03 -0.58675923487E+02  0.16564273370E+03  0.90734996057E+02 0.  0.
        -11    1    3    3    0    0 -0.11446039201E+02 -0.29001434447E+02  0.58390442346E+02  0.66193192783E+02  0.00000000000E+00 0. -1.
         11    1    3    3    0    0  0.26754802954E+02  0.64231150070E+02  0.16006845574E+03  0.17453759092E+03  0.00000000000E+00 0.  1.
        -11    1    4    4    0    0 -0.43620059071E+02  0.80045559769E+02 -0.43655394335E+02  0.10107321429E+03  0.00000000000E+00 0.  1.
         11    1    4    4    0    0  0.43282247022E+02  0.45500039931E+02 -0.15020529152E+02  0.64569519411E+02  0.00000000000E+00 0. -1.
         21    1    1    2  502  501 -0.14970951703E+02 -0.16077531532E+03  0.12154510724E+03  0.20210404377E+03  0.00000000000E+00 0. -1.
<scales pt_clust_5="13000.00000" pt_clust_6="13000.00000" pt_clust_7="13000.00000" pt_clust_8="13000.00000" pt_clust_9="134.34150"></scales>
<clustering>
<clus scale="   90.735">  7  8 -1 -1</clus>
<clus scale="   93.550">  5  6 -1 -1</clus>
<clus scale="  101.129">  1  5  2 -1</clus>
<clus scale="  134.342">  1  9  2 -1</clus>
<clus scale="  162.113">  2  5  1 -1</clus>
</clustering>
</event>
<event>
 9    1  0.5300912E-006  0.9417834E+02  0.7546771E-02  0.1294206E+00
         -2   -1    0    0    0  501 -0.00000000000E+00  0.00000000000E+00  0.43208118794E+02  0.43208118794E+02  0.00000000000E+00 0.  1.
          2   -1    0    0  502    0  0.00000000000E+00 -0.00000000000E+00 -0.35477173630E+03  0.35477173630E+03  0.00000000000E+00 0. -1.
         23    2    1    2    0    0 -0.11853677726E+02 -0.28488189797E+02 -0.63512411205E+02  0.11615802304E+03  0.92232170672E+02 0.  0.
         23    2    1    2    0    0 -0.14356032692E+02  0.13648065044E+02 -0.22706620742E+03  0.24511286311E+03  0.90160344692E+02 0.  0.
        -11    1    4    4    0    0 -0.44084587511E+02  0.18826095764E+02 -0.19610455539E+03  0.20187835293E+03  0.00000000000E+00 0. -1.
         11    1    4    4    0    0  0.29728554819E+02 -0.51780307201E+01 -0.30961652030E+02  0.43234510177E+02  0.00000000000E+00 0.  1.
        -11    1    3    3    0    0 -0.36107463751E+02 -0.28226865518E+02 -0.76096777661E+02  0.88832564108E+02  0.00000000000E+00 0. -1.
         11    1    3    3    0    0  0.24253786025E+02 -0.26132427928E+00  0.12584366457E+02  0.27325458936E+02  0.00000000000E+00 0.  1.
         21    1    1    2  502  501  0.26209710418E+02  0.14840124754E+02 -0.20984998887E+02  0.36708968947E+02  0.00000000000E+00 0. -1.
<scales pt_clust_5="13000.00000" pt_clust_6="13000.00000" pt_clust_7="13000.00000" pt_clust_8="13000.00000" pt_clust_9="30.11940"></scales>
<clustering>
<clus scale="   30.119">  1  9  2 -1</clus>
<clus scale="   90.160">  5  6 -1 -1</clus>
<clus scale="   92.150">  2  5  1 -1</clus>
<clus scale="   92.232">  7  8 -1 -1</clus>
<clus scale="   92.150">  2  5  1 -1</clus>
</clustering>
</event>
<event>
 9    1  0.5300912E-006  0.1360777E+03  0.7546771E-02  0.1219634E+00
          1   -1    0    0  502    0  0.00000000000E+00  0.00000000000E+00  0.35074403100E+03  0.35074403100E+03  0.00000000000E+00 0. -1.
         -1   -1    0    0    0  501 -0.00000000000E+00 -0.00000000000E+00 -0.21372856109E+03  0.21372856109E+03  0.00000000000E+00 0.  1.
         23    2    1    2    0    0  0.16620663331E+02  0.10733495531E+03 -0.16006100583E+03  0.21474259596E+03  0.93262092260E+02 0.  0.
         23    2    1    2    0    0  0.22591276051E+02 -0.53611633347E+02  0.11983517589E+03  0.16042006537E+03  0.89384310751E+02 0.  0.
        -11    1    4    4    0    0  0.56212967205E+02 -0.40878384100E+02  0.67203585826E+02  0.96681238700E+02  0.00000000000E+00 0. -1.
         11    1    4    4    0    0 -0.33621691154E+02 -0.12733249247E+02  0.52631590062E+02  0.63738826667E+02  0.00000000000E+00 0.  1.
        -13    1    3    3    0    0  0.29169535951E+02 -0.33554161973E+00 -0.62214386284E+02  0.68713930730E+02  0.00000000000E+00 0. -1.
         13    1    3    3    0    0 -0.12548872620E+02  0.10767049693E+03 -0.97846619548E+02  0.14602866523E+03  0.00000000000E+00 0.  1.
         21    1    1    2  502  501 -0.39211939382E+02 -0.53723321961E+02  0.17724129986E+03  0.18930993077E+03  0.00000000000E+00 0. -1.
<scales pt_clust_5="13000.00000" pt_clust_6="13000.00000" pt_clust_7="13000.00000" pt_clust_8="13000.00000" pt_clust_9="66.51144"></scales>
<clustering>
<clus scale="   66.511">  1  9  2 -1</clus>
<clus scale="   89.384">  5  6 -1 -1</clus>
<clus scale="   93.262">  7  8 -1 -1</clus>
<clus scale="  133.450">  1  5  2 -1</clus>
<clus scale="   66.511">  1  5  2 -1</clus>
</clustering>
</event>
<event>
 9    1  0.5300912E-006  0.9804724E+02  0.7546771E-02  0.1285239E+00
         -1   -1    0    0    0  501 -0.00000000000E+00  0.00000000000E+00  0.24722007739E+02  0.24722007739E+02  0.00000000000E+00 0.  1.
          1   -1    0    0  502    0  0.00000000000E+00 -0.00000000000E+00 -0.78469480887E+03  0.78469480887E+03  0.00000000000E+00 0. -1.
         23    2    1    2    0    0 -0.85471330284E+00 -0.33844044569E+01 -0.13599411099E+03  0.16287692432E+03  0.89567346315E+02 0.  0.
         23    2    1    2    0    0 -0.15348986360E+02 -0.50352595530E+02 -0.49190986252E+03  0.50303936867E+03  0.91117058332E+02 0.  0.
        -11    1    3    3    0    0 -0.30757019726E+02 -0.33761268312E+02 -0.84291059393E+02  0.95868661167E+02  0.00000000000E+00 0. -1.
         11    1    3    3    0    0  0.29902306424E+02  0.30376863855E+02 -0.51703051593E+02  0.67008263155E+02  0.00000000000E+00 0.  1.
        -11    1    4    4    0    0  0.36236927336E+02 -0.10517135440E+02 -0.13250757922E+03  0.13777511964E+03  0.00000000000E+00 0.  1.
         11    1    4    4    0    0 -0.51585913696E+02 -0.39835460089E+02 -0.35940228330E+03  0.36526424903E+03  0.00000000000E+00 0. -1.
         21    1    1    2  502  501  0.16203699663E+02  0.53736999986E+02 -0.13206882762E+03  0.14350052362E+03  0.00000000000E+00 0.  1.
<scales pt_clust_5="13000.00000" pt_clust_6="13000.00000" pt_clust_7="13000.00000" pt_clust_8="13000.00000" pt_clust_9="56.12687"></scales>
<clustering>
<clus scale="   56.127">  1  9  2 -1</clus>
<clus scale="   89.567">  5  6 -1 -1</clus>
<clus scale="   91.117">  7  8 -1 -1</clus>
<clus scale="   96.609">  1  5  2 -1</clus>
<clus scale="   98.047">  2  5  1 -1</clus>
</clustering>
</event>
<event>
 9    1  0.5300912E-006  0.1286222E+03  0.7546771E-02  0.1230221E+00
          3   -1    0    0  502    0  0.00000000000E+00  0.00000000000E+00  0.13910320067E+03  0.13910320067E+03  0.00000000000E+00 0. -1.
         -3   -1    0    0    0  501 -0.00000000000E+00 -0.00000000000E+00 -0.34822075648E+03  0.34822075648E+03  0.00000000000E+00 0.  1.
         23    2    1    2    0    0  0.10034220359E+03 -0.36415488201E+02 -0.23284430936E+03  0.27158947748E+03  0.90275834371E+02 0.  0.
         23    2    1    2    0    0 -0.53106335513E+02 -0.44448069595E+02 -0.98016104688E+01  0.11626441681E+03  0.92873189278E+02 0.  0.
        -11    1    3    3    0    0  0.70282708650E+02  0.12195780282E+02 -0.74034868585E+02  0.10280835549E+03  0.00000000000E+00 0. -1.
         11    1    3    3    0    0  0.30059494940E+02 -0.48611268483E+02 -0.15880944078E+03  0.16878112199E+03  0.00000000000E+00 0.  1.
        -13    1    4    4    0    0 -0.46294327093E+02 -0.68585780182E+02 -0.25606872811E+02  0.86619200524E+02  0.00000000000E+00 0.  1.
         13    1    4    4    0    0 -0.68120084199E+01  0.24137710587E+02  0.15805262342E+02  0.29645216289E+02  0.00000000000E+00 0. -1.
         21    1    1    2  502  501 -0.47235868078E+02  0.80863557796E+02  0.33528364022E+02  0.99470062865E+02  0.00000000000E+00 0. -1.
<scales pt_clust_5="13000.00000" pt_clust_6="13000.00000" pt_clust_7="13000.00000" pt_clust_8="13000.00000" pt_clust_9="93.64904"></scales>
<clustering>
<clus scale="   90.276">  5  6 -1 -1</clus>
<clus scale="   92.873">  7  8 -1 -1</clus>
<clus scale="   93.649">  1  9  2 -1</clus>
<clus scale="  126.759">  2  5  1 -1</clus>
<clus scale="   93.649">  1  5  2 -1</clus>
</clustering>
</event>
<event>
 9    1  0.5300912E-006  0.1046762E+03  0.7546771E-02  0.1272406E+00
          2   -1    0    0  502    0  0.00000000000E+00  0.00000000000E+00  0.11324614655E+03  0.11324614655E+03  0.00000000000E+00 0. -1.
         -2   -1    0    0    0  501 -0.00000000000E+00 -0.00000000000E+00 -0.21676042227E+03  0.21676042227E+03  0.00000000000E+00 0.  1.
         23    2    1    2    0    0 -0.23459278209E+02 -0.36823936093E+02 -0.15123506358E+03  0.18212053783E+03  0.91594245666E+02 0.  0.
         23    2    1    2    0    0  0.26891505869E+01  0.44245165997E+02  0.61671442428E+02  0.12178826063E+03  0.95205815854E+02 0.  0.
        -13    1    4    4    0    0 -0.17606919500E+02 -0.17529481401E+02 -0.83699026011E+01  0.26217200499E+02  0.00000000000E+00 0.  1.
         13    1    4    4    0    0  0.20296070087E+02  0.61774647397E+02  0.70041345029E+02  0.95571060136E+02  0.00000000000E+00 0. -1.
        -13    1    3    3    0    0  0.18906740881E+02 -0.51631847690E+02 -0.66979992791E+02  0.86658132803E+02  0.00000000000E+00 0.  1.
         13    1    3    3    0    0 -0.42366019090E+02  0.14807911597E+02 -0.84255070792E+02  0.95462405027E+02  0.00000000000E+00 0. -1.
         21    1    1    2  502  501  0.20770127622E+02 -0.74212299037E+01 -0.13950654562E+02  0.26097770354E+02  0.00000000000E+00 0.  1.
<scales pt_clust_5="13000.00000" pt_clust_6="13000.00000" pt_clust_7="13000.00000" pt_clust_8="13000.00000" pt_clust_9="22.05613"></scales>
<clustering>
<clus scale="   22.056">  2  9  1 -1</clus>
<clus scale="   91.594">  7  8 -1 -1</clus>
<clus scale="   95.206">  5  6 -1 -1</clus>
<clus scale="  101.402">  2  7  1 -1</clus>
<clus scale="  104.676">  1  5  2 -1</clus>
</clustering>
</event>
<event>
 9    1  0.5300912E-006  0.1315578E+03  0.7546771E-02  0.1242066E+00
          2   -1    0    0  502    0  0.00000000000E+00  0.00000000000E+00  0.67930429994E+03  0.67930429994E+03  0.00000000000E+00 0. -1.
         -2   -1    0    0    0  501 -0.00000000000E+00 -0.00000000000E+00 -0.65135834587E+02  0.65135834587E+02  0.00000000000E+00 0.  1.
         23    2    1    2    0    0 -0.12607133240E+02  0.99636132920E+01  0.85288502989E+01  0.93379571909E+02  0.91590336631E+02 0.  0.
         23    2    1    2    0    0 -0.82013767463E+02 -0.39194526533E+02  0.23433722648E+03  0.26677808201E+03  0.89409956738E+02 0.  0.
        -11    1    4    4    0    0 -0.29541030300E+02  0.27164423350E+02  0.10311520029E+03  0.11064954992E+03  0.00000000000E+00 0. -1.
         11    1    4    4    0    0 -0.52472737164E+02 -0.66358949884E+02  0.13122202619E+03  0.15612853209E+03  0.00000000000E+00 0.  1.
        -13    1    3    3    0    0 -0.48563289922E+02 -0.12314856579E+02  0.98536169264E+01  0.51060185929E+02  0.00000000000E+00 0.  1.
         13    1    3    3    0    0  0.35956156682E+02  0.22278469871E+02 -0.13247666274E+01  0.42319385980E+02  0.00000000000E+00 0. -1.
         21    1    1    2  502  501  0.94620900704E+02  0.29230913241E+02  0.37130238858E+03  0.38428248061E+03  0.00000000000E+00 0. -1.
<scales pt_clust_5="13000.00000" pt_clust_6="13000.00000" pt_clust_7="13000.00000" pt_clust_8="13000.00000" pt_clust_9="96.50550"></scales>
<clustering>
<clus scale="   89.410">  5  6 -1 -1</clus>
<clus scale="   91.590">  7  8 -1 -1</clus>
<clus scale="   92.989">  2  7  1 -1</clus>
<clus scale="   96.506">  1  9  2 -1</clus>
<clus scale="   96.506">  1  5  2 -1</clus>
</clustering>
</event>
<event>
 9    1  0.5300912E-006  0.1175339E+03  0.7546771E-02  0.1248817E+00
          1   -1    0    0  502    0  0.00000000000E+00  0.00000000000E+00  0.25873107080E+03  0.25873107080E+03  0.00000000000E+00 0. -1.
         -1   -1    0    0    0  501 -0.00000000000E+00 -0.00000000000E+00 -0.12571908268E+03  0.12571908268E+03  0.00000000000E+00 0.  1.
         23    2    1    2    0    0  0.73186382021E+02  0.35272402738E+02 -0.61997193996E+02  0.13788049573E+03  0.92558036558E+02 0.  0.
         23    2    1    2    0    0 -0.26512157652E+02 -0.18581416000E+02  0.16175547950E+03  0.18687978427E+03  0.87812613542E+02 0.  0.
        -11    1    4    4    0    0 -0.69083089932E+01 -0.44308597045E+02  0.14215268675E+03  0.14905825323E+03  0.00000000000E+00 0. -1.
         11    1    4    4    0    0 -0.19603848659E+02  0.25727181045E+02  0.19602792748E+02  0.37821531041E+02  0.00000000000E+00 0.  1.
        -11    1    3    3    0    0  0.51210468326E+02  0.59657394818E+02 -0.14197110455E+02  0.79894147269E+02  0.00000000000E+00 0.  1.
         11    1    3    3    0    0  0.21975913695E+02 -0.24384992080E+02 -0.47800083540E+02  0.57986348462E+02  0.00000000000E+00 0. -1.
         21    1    1    2  502  501 -0.46674224368E+02 -0.16690986739E+02  0.33253702611E+02  0.59689873480E+02  0.00000000000E+00 0. -1.
<scales pt_clust_5="13000.00000" pt_clust_6="13000.00000" pt_clust_7="13000.00000" pt_clust_8="13000.00000" pt_clust_9="49.56886"></scales>
<clustering>
<clus scale="   49.569">  1  9  2 -1</clus>
<clus scale="   87.813">  5  6 -1 -1</clus>
<clus scale="   92.558">  7  8 -1 -1</clus>
<clus scale="  113.834">  1  5  2 -1</clus>
<clus scale="   49.569">  1  5  2 -1</clus>
</clustering>
</event>
<event>
 9    1  0.5300912E-006  0.2043268E+03  0.7546771E-02  0.1148624E+00
          3   -1    0    0  502    0  0.00000000000E+00  0.00000000000E+00  0.11469570295E+03  0.11469570295E+03  0.00000000000E+00 0. -1.
         -3   -1    0    0    0  501 -0.00000000000E+00 -0.00000000000E+00 -0.63082241199E+03  0.63082241199E+03  0.00000000000E+00 0.  1.
         23    2    1    2    0    0  0.11060407015E+03 -0.12750605488E+03 -0.20433165505E+03  0.28873720675E+03  0.11457178948E+03 0.  0.
         23    2    1    2    0    0 -0.86396017160E+02  0.14683843676E+03 -0.59471972514E+02  0.20256307194E+03  0.92027627951E+02 0.  0.
        -13    1    4    4    0    0 -0.49562925429E+02  0.83277664826E+01 -0.13353177072E+02  0.52001371228E+02  0.00000000000E+00 0.  1.
         13    1    4    4    0    0 -0.36833091731E+02  0.13851067028E+03 -0.46118795442E+02  0.15056170071E+03  0.00000000000E+00 0. -1.
        -13    1    3    3    0    0  0.18571717230E+02 -0.10432074761E+03 -0.13279298759E+03  0.16988732918E+03  0.00000000000E+00 0.  1.
         13    1    3    3    0    0  0.92032352924E+02 -0.23185307268E+02 -0.71538667460E+02  0.11884987758E+03  0.00000000000E+00 0. -1.
         21    1    1    2  502  501 -0.24208052994E+02 -0.19332381884E+02 -0.25232308148E+03  0.25421783625E+03  0.00000000000E+00 0.  1.
<scales pt_clust_5="13000.00000" pt_clust_6="13000.00000" pt_clust_7="13000.00000" pt_clust_8="13000.00000" pt_clust_9="30.98017"></scales>
<clustering>
<clus scale="   30.980">  2  9  1 -1</clus>
<clus scale="   92.028">  5  6 -1 -1</clus>
<clus scale="  114.572">  7  8 -1 -1</clus>
<clus scale="  192.592">  1  5  2 -1</clus>
<clus scale="  192.592">  1  5  2 -1</clus>
</clustering>
</event>
<event>
 9    1  0.5300912E-006  0.1398174E+03  0.7546771E-02  0.1233926E+00
         -1   -1    0    0    0  501 -0.00000000000E+00  0.00000000000E+00  0.87667554745E+03  0.87667554745E+03  0.00000000000E+00 0.  1.
          1   -1    0    0  502    0  0.00000000000E+00 -0.00000000000E+00 -0.10664806251E+03  0.10664806251E+03  0.00000000000E+00 0. -1.
         23    2    1    2    0    0  0.27947324387E+02  0.10095477674E+03  0.30009643159E+02  0.14281517425E+03  0.92318337443E+02 0.  0.
         23    2    1    2    0    0  0.54081320686E+01 -0.13602525215E+01 -0.16361936966E+01  0.91454122539E+02  0.91269278622E+02 0.  0.
        -11    1    4    4    0    0  0.47379717990E+02  0.80777664340E+01  0.31645133475E+01  0.48167438505E+02  0.00000000000E+00 0.  1.
         11    1    4    4    0    0 -0.41971585921E+02 -0.94380189555E+01 -0.48007070442E+01  0.43286684034E+02  0.00000000000E+00 0. -1.
        -13    1    3    3    0    0 -0.23923484883E+02  0.39445905905E+02 -0.17538899829E+02  0.49355097293E+02  0.00000000000E+00 0. -1.
         13    1    3    3    0    0  0.51870809269E+02  0.61508870831E+02  0.47548542987E+02  0.93460076960E+02  0.00000000000E+00 0.  1.
         21    1    1    2  502  501 -0.33355456455E+02 -0.99594524214E+02  0.74165403548E+03  0.74905431317E+03  0.00000000000E+00 0.  1.
<scales pt_clust_5="13000.00000" pt_clust_6="13000.00000" pt_clust_7="13000.00000" pt_clust_8="13000.00000" pt_clust_9="105.00592"></scales>
<clustering>
<clus scale="   91.269">  5  6 -1 -1</clus>
<clus scale="   91.439">  2  5  1 -1</clus>
<clus scale="   92.318">  7  8 -1 -1</clus>
<clus scale="  105.006">  1  9  2 -1</clus>
<clus scale="   91.439">  2  5  1 -1</clus>
</clustering>
</event>
<event>
 9    1  0.5300912E-006  0.9128934E+02  0.7546771E-02  0.1299883E+00
         -2   -1    0    0    0  501 -0.00000000000E+00  0.00000000000E+00  0.37482624289E+03  0.37482624289E+03  0.00000000000E+00 0.  1.
          2   -1    0    0  502    0  0.00000000000E+00 -0.00000000000E+00 -0.33818092204E+02  0.33818092204E+02  0.00000000000E+00 0. -1.
         23    2    1    2    0    0  0.24605017429E+01 -0.54079375767E+00  0.23336714036E+03  0.25043517682E+03  0.90836166044E+02 0.  0.
         23    2    1    2    0    0 -0.23514822738E+02  0.46765984326E+01  0.94163288498E+02  0.13287068360E+03  0.90626023854E+02 0.  0.
        -11    1    3    3    0    0  0.24452764896E+02  0.29148293275E+02  0.47140605751E+02  0.60578852931E+02  0.00000000000E+00 0. -1.
         11    1    3    3    0    0 -0.21992263153E+02 -0.29689087032E+02  0.18622653461E+03  0.18985632389E+03  0.00000000000E+00 0.  1.
        -11    1    4    4    0    0 -0.55655634659E+02  0.18229106208E+02  0.64056490842E+02  0.86793340767E+02  0.00000000000E+00 0.  1.
         11    1    4    4    0    0  0.32140811921E+02 -0.13552507776E+02  0.30106797656E+02  0.46077342838E+02  0.00000000000E+00 0. -1.
         21    1    1    2  502  501  0.21054320995E+02 -0.41358046749E+01  0.13477721825E+02  0.25338474667E+02  0.00000000000E+00 0. -1.
<scales pt_clust_5="13000.00000" pt_clust_6="13000.00000" pt_clust_7="13000.00000" pt_clust_8="13000.00000" pt_clust_9="21.45668"></scales>
<clustering>
<clus scale="   21.457">  2  9  1 -1</clus>
<clus scale="   90.626">  7  8 -1 -1</clus>
<clus scale="   90.836">  5  6 -1 -1</clus>
<clus scale="   91.080">  2  7  1 -1</clus>
<clus scale="   21.457">  2  5  1 -1</clus>
</clustering>
</event>
<event>
 9    1  0.5300912E-006  0.9463026E+02  0.7546771E-02  0.1293545E+00
         -1   -1    0    0    0  501 -0.00000000000E+00  0.00000000000E+00  0.26006271631E+03  0.26006271631E+03  0.00000000000E+00 0.  1.
          1   -1    0    0  502    0  0.00000000000E+00 -0.00000000000E+00 -0.61543739209E+02  0.61543739209E+02  0.00000000000E+00 0. -1.
         23    2    1    2    0    0 -0.54816428167E+01  0.12278489034E+02  0.67252410581E+02  0.11299959063E+03  0.89806520099E+02 0.  0.
         23    2    1    2    0    0 -0.33764137095E+02 -0.97493297216E+01  0.35634877040E+02  0.10520450553E+03  0.92536896095E+02 0.  0.
        -11    1    4    4    0    0 -0.42762185325E+02  0.18303323874E+02 -0.13040456434E+02  0.48308070368E+02  0.00000000000E+00 0.  1.
         11    1    4    4    0    0  0.89980482299E+01 -0.28052653596E+02  0.48675333474E+02  0.56896435165E+02  0.00000000000E+00 0. -1.
        -13    1    3    3    0    0 -0.26595146128E+02  0.10742601333E+02  0.82216007585E+02  0.87075698012E+02  0.00000000000E+00 0.  1.
         13    1    3    3    0    0  0.21113503312E+02  0.15358877017E+01 -0.14963597004E+02  0.25923892617E+02  0.00000000000E+00 0. -1.
         21    1    1    2  502  501  0.39245779912E+02 -0.25291593129E+01  0.95631689481E+02  0.10340235936E+03  0.00000000000E+00 0. -1.
<scales pt_clust_5="13000.00000" pt_clust_6="13000.00000" pt_clust_7="13000.00000" pt_clust_8="13000.00000" pt_clust_9="39.32719"></scales>
<clustering>
<clus scale="   39.327">  1  9  2 -1</clus>
<clus scale="   89.807">  7  8 -1 -1</clus>
<clus scale="   91.962">  1  7  2 -1</clus>
<clus scale="   92.537">  5  6 -1 -1</clus>
<clus scale="   94.630">  2  5  1 -1</clus>
</clustering>
</event>
<event>
 9    1  0.5300912E-006  0.1901815E+03  0.7546771E-02  0.1186333E+00
          2   -1    0    0  502    0  0.00000000000E+00  0.00000000000E+00  0.21388327014E+03  0.21388327014E+03  0.00000000000E+00 0. -1.
         -2   -1    0    0    0  501 -0.00000000000E+00 -0.00000000000E+00 -0.47628222196E+03  0.47628222196E+03  0.00000000000E+00 0.  1.
         23    2    1    2    0    0  0.13985015953E+03 -0.68532817257E+02 -0.67712938608E+01  0.18111547924E+03  0.92207115994E+02 0.  0.
         23    2    1    2    0    0 -0.64426698680E+01 -0.35870131300E+02  0.83093781461E+02  0.13032881265E+03  0.93556659708E+02 0.  0.
        -11    1    3    3    0    0  0.13556307634E+02  0.18417759103E+02 -0.15352185261E+02  0.27544090461E+02  0.00000000000E+00 0.  1.
         11    1    3    3    0    0  0.12629385189E+03 -0.86950576360E+02  0.85808914000E+01  0.15357138878E+03  0.00000000000E+00 0. -1.
        -11    1    4    4    0    0 -0.49720636366E+02 -0.19844657425E+02  0.36812081169E+02  0.64969850154E+02  0.00000000000E+00 0.  1.
         11    1    4    4    0    0  0.43277966498E+02 -0.16025473875E+02  0.46281700292E+02  0.65358962500E+02  0.00000000000E+00 0. -1.
         21    1    1    2  502  501 -0.13340748966E+03  0.10440294856E+03 -0.33872143942E+03  0.37872120021E+03  0.00000000000E+00 0.  1.
<scales pt_clust_5="13000.00000" pt_clust_6="13000.00000" pt_clust_7="13000.00000" pt_clust_8="13000.00000" pt_clust_9="166.33356"></scales>
<clustering>
<clus scale="   92.207">  5  6 -1 -1</clus>
<clus scale="   93.557">  7  8 -1 -1</clus>
<clus scale="  100.404">  1  7  2 -1</clus>
<clus scale="  166.334">  2  9  1 -1</clus>
<clus scale="  100.404">  1  5  2 -1</clus>
</clustering>
</event>
<event>
 9    1  0.5300912E-006  0.9720676E+02  0.7546771E-02  0.1287197E+00
         -2   -1    0    0    0  501 -0.00000000000E+00  0.00000000000E+00  0.12173899790E+03  0.12173899790E+03  0.00000000000E+00 0. -1.
          2   -1    0    0  502    0  0.00000000000E+00 -0.00000000000E+00 -0.11606390125E+03  0.11606390125E+03  0.00000000000E+00 0.  1.
         23    2    1    2    0    0  0.16726560266E+02  0.17970717041E+02  0.26210476982E+02  0.96601328635E+02  0.89677773730E+02 0.  0.
         23    2    1    2    0    0 -0.11404161766E+02 -0.45816162744E+02  0.50163720721E+01  0.10303628756E+03  0.91444720417E+02 0.  0.
        -11    1    3    3    0    0  0.50814684283E+02 -0.35415992108E+01  0.23791650087E+02  0.56220260384E+02  0.00000000000E+00 0. -1.
         11    1    3    3    0    0 -0.34088124017E+02  0.21512316252E+02  0.24188268943E+01  0.40381068251E+02  0.00000000000E+00 0.  1.
        -13    1    4    4    0    0  0.14724736937E+02 -0.53028559519E+02 -0.26821245015E+02  0.61222750565E+02  0.00000000000E+00 0.  1.
         13    1    4    4    0    0 -0.26128898703E+02  0.72123967752E+01  0.31837617087E+02  0.41813537000E+02  0.00000000000E+00 0. -1.
         21    1    1    2  502  501 -0.53223985003E+01  0.27845445703E+02 -0.25551752398E+02  0.38165282952E+02  0.00000000000E+00 0.  1.
<scales pt_clust_5="13000.00000" pt_clust_6="13000.00000" pt_clust_7="13000.00000" pt_clust_8="13000.00000" pt_clust_9="28.34955"></scales>
<clustering>
<clus scale="   28.350">  2  9  1 -1</clus>
<clus scale="   89.678">  5  6 -1 -1</clus>
<clus scale="   91.445">  7  8 -1 -1</clus>
<clus scale="   95.546">  1  5  2 -1</clus>
<clus scale="   28.350">  2  5  1 -1</clus>
</clustering>
</event>
<event>
 9    1  0.5300912E-006  0.9407720E+02  0.7546771E-02  0.1293648E+00
         -2   -1    0    0    0  501 -0.00000000000E+00  0.00000000000E+00  0.15005921742E+03  0.15005921742E+03  0.00000000000E+00 0.  1.
          2   -1    0    0  502    0  0.00000000000E+00 -0.00000000000E+00 -0.24466936272E+03  0.24466936272E+03  0.00000000000E+00 0. -1.
         23    2    1    2    0    0 -0.42661384716E+01 -0.90731225011E-01  0.66074647928E+02  0.11323797181E+03  0.91862783495E+02 0.  0.
         23    2    1    2    0    0 -0.18655550402E+02 -0.51590863292E+01 -0.20809789509E+03  0.22856644906E+03  0.92537786679E+02 0.  0.
        -13    1    3    3    0    0 -0.10399668091E+02  0.28446558404E+02  0.76472674606E+02  0.82252232449E+02  0.00000000000E+00 0.  1.
         13    1    3    3    0    0  0.61335296194E+01 -0.28537289629E+02 -0.10398026679E+02  0.30985739362E+02  0.00000000000E+00 0. -1.
        -13    1    4    4    0    0 -0.35870853773E+02 -0.34045486683E+02 -0.17312204747E+03  0.18004737331E+03  0.00000000000E+00 0. -1.
         13    1    4    4    0    0  0.17215303371E+02  0.28886400354E+02 -0.34975847619E+02  0.48519075756E+02  0.00000000000E+00 0.  1.
         21    1    1    2  502  501  0.22921688874E+02  0.52498175542E+01  0.47413101869E+02  0.52924159266E+02  0.00000000000E+00 0. -1.
<scales pt_clust_5="13000.00000" pt_clust_6="13000.00000" pt_clust_7="13000.00000" pt_clust_8="13000.00000" pt_clust_9="23.51520"></scales>
<clustering>
<clus scale="   23.515">  1  9  2 -1</clus>
<clus scale="   91.863">  5  6 -1 -1</clus>
<clus scale="   92.538">  7  8 -1 -1</clus>
<clus scale="   93.413">  1  5  2 -1</clus>
<clus scale="   94.077">  2  5  1 -1</clus>
</clustering>
</event>
<event>
 9    1  0.5300912E-006  0.1608421E+03  0.7546771E-02  0.1187801E+00
          1   -1    0    0  502    0  0.00000000000E+00  0.00000000000E+00  0.19991600533E+03  0.19991600533E+03  0.00000000000E+00 0. -1.
         -1   -1    0    0    0  501 -0.00000000000E+00 -0.00000000000E+00 -0.39246442726E+03  0.39246442726E+03  0.00000000000E+00 0.  1.
         23    2    1    2    0    0 -0.16776437178E+03 -0.60762038745E+02 -0.31297138277E+02  0.20271902312E+03  0.90986711562E+02 0.  0.
         23    2    1    2    0    0  0.10078064275E+03  0.53395324940E+02  0.60604791304E+02  0.15779677994E+03  0.90659165841E+02 0.  0.
        -11    1    3    3    0    0 -0.86655161374E+02 -0.65139449133E+02 -0.49974387971E+02  0.11937212522E+03  0.00000000000E+00 0. -1.
         11    1    3    3    0    0 -0.81109210406E+02  0.43774103878E+01  0.18677249694E+02  0.83346897906E+02  0.00000000000E+00 0.  1.
        -11    1    4    4    0    0 -0.58200919664E+01  0.33633270041E+02  0.29210629251E+02  0.44925840953E+02  0.00000000000E+00 0. -1.
         11    1    4    4    0    0  0.10660073472E+03  0.19762054899E+02  0.31394162053E+02  0.11287093899E+03  0.00000000000E+00 0.  1.
         21    1    1    2  502  501  0.66983729028E+02  0.73667138053E+01 -0.22185607497E+03  0.23186462953E+03  0.00000000000E+00 0.  1.
<scales pt_clust_5="13000.00000" pt_clust_6="13000.00000" pt_clust_7="13000.00000" pt_clust_8="13000.00000" pt_clust_9="67.38760"></scales>
<clustering>
<clus scale="   67.388">  2  9  1 -1</clus>
<clus scale="   90.659">  7  8 -1 -1</clus>
<clus scale="   90.987">  5  6 -1 -1</clus>
<clus scale="  160.657">  1  7  2 -1</clus>
<clus scale="  160.657">  1  5  2 -1</clus>
</clustering>
</event>
<event>
 9    1  0.5300912E-006  0.1337792E+03  0.7546771E-02  0.1229749E+00
          1   -1    0    0  502    0  0.00000000000E+00  0.00000000000E+00  0.85754029161E+03  0.85754029161E+03  0.00000000000E+00 0. -1.
         -1   -1    0    0    0  501 -0.00000000000E+00 -0.00000000000E+00 -0.49334451101E+02  0.49334451101E+02  0.00000000000E+00 0.  1.
         23    2    1    2    0    0 -0.29001197567E+02  0.68711860450E+02  0.75095502727E+02  0.15656039747E+03  0.11536652157E+03 0.  0.
         23    2    1    2    0    0 -0.15076345268E+02 -0.51781183039E+02  0.39852824490E+03  0.41241694292E+03  0.91402328857E+02 0.  0.
        -11    1    3    3    0    0 -0.74135126845E+01  0.67344714831E+02 -0.10244513016E+02  0.68521681480E+02  0.00000000000E+00 0.  1.
         11    1    3    3    0    0 -0.21587684882E+02  0.13671456191E+01  0.85340015742E+02  0.88038715987E+02  0.00000000000E+00 0. -1.
        -11    1    4    4    0    0 -0.28902677622E+02 -0.73119513528E+02  0.26207257011E+03  0.27361260942E+03  0.00000000000E+00 0.  1.
         11    1    4    4    0    0  0.13826332354E+02  0.21338330489E+02  0.13645567479E+03  0.13880433349E+03  0.00000000000E+00 0. -1.
         21    1    1    2  502  501  0.44077542835E+02 -0.16930677411E+02  0.33458209288E+03  0.33789740232E+03  0.00000000000E+00 0. -1.
<scales pt_clust_5="13000.00000" pt_clust_6="13000.00000" pt_clust_7="13000.00000" pt_clust_8="13000.00000" pt_clust_9="47.21734"></scales>
<clustering>
<clus scale="   47.217">  1  9  2 -1</clus>
<clus scale="   91.402">  7  8 -1 -1</clus>
<clus scale="  113.762">  1  7  2 -1</clus>
<clus scale="  115.367">  5  6 -1 -1</clus>
<clus scale="   47.217">  1  5  2 -1</clus>
</clustering>
</event>
<event>
 9    1  0.5300912E-006  0.1045779E+03  0.7546771E-02  0.1271415E+00
         -2   -1    0    0    0  501 -0.00000000000E+00  0.00000000000E+00  0.25061447932E+03  0.25061447932E+03  0.00000000000E+00 0.  1.
          2   -1    0    0  502    0  0.00000000000E+00 -0.00000000000E+00 -0.36471584592E+03  0.36471584592E+03  0.00000000000E+00 0. -1.
         23    2    1    2    0    0  0.26431210741E+02 -0.94785418573E+02 -0.35281733383E+02  0.14074522926E+03  0.94241892872E+02 0.  0.
         23    2    1    2    0    0 -0.71903051737E+01  0.35380445597E+02 -0.26233684452E+03  0.28073533430E+03  0.93210683455E+02 0.  0.
        -11    1    4    4    0    0  0.42374284915E+02  0.25234728150E+02 -0.12518932934E+03  0.13455385430E+03  0.00000000000E+00 0.  1.
         11    1    4    4    0    0 -0.49564590088E+02  0.10145717447E+02 -0.13714751519E+03  0.14618148000E+03  0.00000000000E+00 0. -1.
        -11    1    3    3    0    0 -0.25553153190E+02 -0.62944305669E+02  0.42868227384E+01  0.68068539747E+02  0.00000000000E+00 0. -1.
         11    1    3    3    0    0  0.51984363931E+02 -0.31841112905E+02 -0.39568556122E+02  0.72676689508E+02  0.00000000000E+00 0.  1.
         21    1    1    2  502  501 -0.19240905567E+02  0.59404972977E+02  0.18351721131E+03  0.19384976169E+03  0.00000000000E+00 0. -1.
<scales pt_clust_5="13000.00000" pt_clust_6="13000.00000" pt_clust_7="13000.00000" pt_clust_8="13000.00000" pt_clust_9="62.44328"></scales>
<clustering>
<clus scale="   62.443">  1  9  2 -1</clus>
<clus scale="   93.211">  5  6 -1 -1</clus>
<clus scale="   94.242">  7  8 -1 -1</clus>
<clus scale="  103.650">  2  5  1 -1</clus>
<clus scale="  103.650">  2  5  1 -1</clus>
</clustering>
</event>
<event>
 9    1  0.5300912E-006  0.1392088E+03  0.7546771E-02  0.1234052E+00
         -1   -1    0    0    0  501 -0.00000000000E+00  0.00000000000E+00  0.28699892572E+03  0.28699892572E+03  0.00000000000E+00 0.  1.
          1   -1    0    0  502    0  0.00000000000E+00 -0.00000000000E+00 -0.11124674126E+03  0.11124674126E+03  0.00000000000E+00 0. -1.
         23    2    1    2    0    0 -0.13144269677E+02 -0.10760282027E+02  0.85096909752E+02  0.12561841152E+03  0.90829212084E+02 0.  0.
         23    2    1    2    0    0 -0.99762190987E+02  0.12389938300E+02  0.14115920714E+02  0.13621318967E+03  0.90822731187E+02 0.  0.
        -13    1    3    3    0    0  0.12523331179E+01 -0.49276605734E+02  0.33308729119E+02  0.59491374555E+02  0.00000000000E+00 0.  1.
         13    1    3    3    0    0 -0.14396602795E+02  0.38516323707E+02  0.51788180633E+02  0.66127036961E+02  0.00000000000E+00 0. -1.
        -13    1    4    4    0    0 -0.38121943079E+02 -0.28415059984E+02 -0.23759003316E+02  0.53152501509E+02  0.00000000000E+00 0. -1.
         13    1    4    4    0    0 -0.61640247908E+02  0.40804998285E+02  0.37874924030E+02  0.83060688159E+02  0.00000000000E+00 0.  1.
         21    1    1    2  502  501  0.11290646066E+03 -0.16296562737E+01  0.76539353993E+02  0.13641406580E+03  0.00000000000E+00 0.  1.
<scales pt_clust_5="13000.00000" pt_clust_6="13000.00000" pt_clust_7="13000.00000" pt_clust_8="13000.00000" pt_clust_9="105.50039"></scales>
<clustering>
<clus scale="   90.823">  7  8 -1 -1</clus>
<clus scale="   90.829">  5  6 -1 -1</clus>
<clus scale="   92.404">  1  5  2 -1</clus>
<clus scale="  105.500">  1  9  2 -1</clus>
<clus scale="  139.209">  2  5  1 -1</clus>
</clustering>
</event>
<event>
 9    1  0.5300912E-006  0.9774114E+02  0.7546771E-02  0.1286760E+00
         -1   -1    0    0    0  501 -0.00000000000E+00  0.00000000000E+00  0.19706284981E+03  0.19706284981E+03  0.00000000000E+00 0.  1.
          1   -1    0    0  502    0  0.00000000000E+00 -0.00000000000E+00 -0.72778317088E+02  0.72778317088E+02  0.00000000000E+00 0. -1.
         23    2    1    2    0    0  0.25088403136E+02 -0.71762911427E+01  0.82888232860E+02  0.12585145466E+03  0.91034072560E+02 0.  0.
         23    2    1    2    0    0 -0.41895208423E+02  0.36530051246E+02  0.28363453062E+02  0.10774102906E+03  0.87829327338E+02 0.  0.
        -11    1    3    3    0    0 -0.75206308853E+01 -0.28835197647E+02  0.81392560318E+02  0.86676279266E+02  0.00000000000E+00 0.  1.
         11    1    3    3    0    0  0.32609034022E+02  0.21658906504E+02  0.14956725413E+01  0.39175175394E+02  0.00000000000E+00 0. -1.
        -13    1    4    4    0    0 -0.63173848417E+02  0.45481310278E+01  0.68330261055E+01  0.63704873168E+02  0.00000000000E+00 0. -1.
         13    1    4    4    0    0  0.21278639994E+02  0.31981920219E+02  0.21530426956E+02  0.44036155892E+02  0.00000000000E+00 0.  1.
         21    1    1    2  502  501  0.16806805287E+02 -0.29353760104E+02  0.13032846796E+02  0.36248683173E+02  0.00000000000E+00 0.  1.
<scales pt_clust_5="13000.00000" pt_clust_6="13000.00000" pt_clust_7="13000.00000" pt_clust_8="13000.00000" pt_clust_9="33.82472"></scales>
<clustering>
<clus scale="   33.825">  2  9  1 -1</clus>
<clus scale="   87.829">  7  8 -1 -1</clus>
<clus scale="   91.034">  5  6 -1 -1</clus>
<clus scale="   94.763">  2  7  1 -1</clus>
<clus scale="   33.825">  2  5  1 -1</clus>
</clustering>
</event>
<event>
 9    1  0.5300912E-006  0.1533961E+03  0.7546771E-02  0.1209103E+00
         -1   -1    0    0    0  501 -0.00000000000E+00  0.00000000000E+00  0.39254567691E+03  0.39254567691E+03  0.00000000000E+00 0.  1.
          1   -1    0    0  502    0  0.00000000000E+00 -0.00000000000E+00 -0.21240294555E+03  0.21240294555E+03  0.00000000000E+00 0. -1.
         23    2    1    2    0    0  0.14745989642E+02  0.11775462685E+03  0.25067502235E+03  0.29243310052E+03  0.92712216513E+02 0.  0.
         23    2    1    2    0    0 -0.59441212052E+02  0.34288267847E+02  0.35603776372E+02  0.12178123155E+03  0.94096208548E+02 0.  0.
        -11    1    4    4    0    0 -0.40270720169E+02  0.64094057703E+02  0.40756232479E+02  0.85970050725E+02  0.00000000000E+00 0.  1.
         11    1    4    4    0    0 -0.19170491884E+02 -0.29805789856E+02 -0.51524561071E+01  0.35811180823E+02  0.00000000000E+00 0. -1.
        -13    1    3    3    0    0 -0.28401997460E+02  0.85198435387E+01  0.79411942580E+02  0.84767433711E+02  0.00000000000E+00 0. -1.
         13    1    3    3    0    0  0.43147987102E+02  0.10923478332E+03  0.17126307977E+03  0.20766566680E+03  0.00000000000E+00 0.  1.
         21    1    1    2  502  501  0.44695222411E+02 -0.15204289470E+03 -0.10613606736E+03  0.19073429039E+03  0.00000000000E+00 0. -1.
<scales pt_clust_5="13000.00000" pt_clust_6="13000.00000" pt_clust_7="13000.00000" pt_clust_8="13000.00000" pt_clust_9="122.20812"></scales>
<clustering>
<clus scale="   92.712">  7  8 -1 -1</clus>
<clus scale="   94.096">  5  6 -1 -1</clus>
<clus scale="  116.460">  2  5  1 -1</clus>
<clus scale="  122.208">  2  9  1 -1</clus>
<clus scale="  116.460">  2  5  1 -1</clus>
</clustering>
</event>
<event>
 9    1  0.5300912E-006  0.2446055E+03  0.7546771E-02  0.1135059E+00
         -2   -1    0    0    0  501 -0.00000000000E+00  0.00000000000E+00  0.71312568913E+02  0.71312568913E+02  0.00000000000E+00 0.  1.
          2   -1    0    0  502    0  0.00000000000E+00 -0.00000000000E+00 -0.19959412469E+04  0.19959412469E+04  0.00000000000E+00 0. -1.
         23    2    1    2    0    0 -0.19365458642E+03 -0.23842426860E+03 -0.11110925243E+04  0.11569924466E+04  0.98775975866E+02 0.  0.
         23    2    1    2    0    0  0.70148039001E+02  0.76351279793E+02 -0.57919979015E+03  0.59972143254E+03  0.11594453175E+03 0.  0.
        -13    1    4    4    0    0 -0.62699627388E+01 -0.25229428831E+02 -0.14438805034E+03  0.14670973244E+03  0.00000000000E+00 0. -1.
         13    1    4    4    0    0  0.76418001740E+02  0.10158070862E+03 -0.43481173981E+03  0.45301170010E+03  0.00000000000E+00 0.  1.
        -13    1    3    3    0    0 -0.15973283661E+03 -0.17710491027E+03 -0.97704942467E+03  0.10057366984E+04  0.00000000000E+00 0. -1.
         13    1    3    3    0    0 -0.33921749810E+02 -0.61319358326E+02 -0.13404309959E+03  0.15125574820E+03  0.00000000000E+00 0.  1.
         21    1    1    2  502  501  0.12350654742E+03  0.16207298881E+03 -0.23433636363E+03  0.31053993668E+03  0.00000000000E+00 0.  1.
<scales pt_clust_5="13000.00000" pt_clust_6="13000.00000" pt_clust_7="13000.00000" pt_clust_8="13000.00000" pt_clust_9="223.77482"></scales>
<clustering>
<clus scale="   98.776">  7  8 -1 -1</clus>
<clus scale="  115.945">  5  6 -1 -1</clus>
<clus scale="  155.542">  2  5  1 -1</clus>
<clus scale="  223.775">  1  9  2 -1</clus>
<clus scale="  155.542">  2  5  1 -1</clus>
</clustering>
</event>
<event>
 9    1  0.5300912E-006  0.9940156E+02  0.7546771E-02  0.1285005E+00
         -1   -1    0    0    0  501 -0.00000000000E+00  0.00000000000E+00  0.59420000613E+02  0.59420000613E+02  0.00000000000E+00 0.  1.
          1   -1    0    0  502    0  0.00000000000E+00 -0.00000000000E+00 -0.49955013063E+03  0.49955013063E+03  0.00000000000E+00 0. -1.
         23    2    1    2    0    0 -0.15916541430E+02 -0.22821210179E+02 -0.19236860447E+02  0.10289195608E+03  0.97172804332E+02 0.  0.
         23    2    1    2    0    0  0.29142798479E+02 -0.35310542367E+02 -0.16884683799E+03  0.19707694311E+03  0.90741003420E+02 0.  0.
        -11    1    3    3    0    0  0.19861153750E+01  0.36119302311E+02 -0.19905398907E+02  0.41288903587E+02  0.00000000000E+00 0. -1.
         11    1    3    3    0    0 -0.17902656805E+02 -0.58940512490E+02  0.66853845988E+00  0.61603052497E+02  0.00000000000E+00 0.  1.
        -13    1    4    4    0    0  0.42779437304E+02 -0.59843087428E+02 -0.12329548493E+03  0.14357246245E+03  0.00000000000E+00 0. -1.
         13    1    4    4    0    0 -0.13636638825E+02  0.24532545061E+02 -0.45551353060E+02  0.53504480665E+02  0.00000000000E+00 0.  1.
         21    1    1    2  502  501 -0.13226257049E+02  0.58131752546E+02 -0.25204643158E+03  0.25900123205E+03  0.00000000000E+00 0. -1.
<scales pt_clust_5="13000.00000" pt_clust_6="13000.00000" pt_clust_7="13000.00000" pt_clust_8="13000.00000" pt_clust_9="59.61740"></scales>
<clustering>
<clus scale="   59.617">  2  9  1 -1</clus>
<clus scale="   90.741">  7  8 -1 -1</clus>
<clus scale="   93.124">  2  7  1 -1</clus>
<clus scale="   97.173">  5  6 -1 -1</clus>
<clus scale="   59.617">  2  5  1 -1</clus>
</clustering>
</event>
<event>
 9    1  0.5300912E-006  0.1762233E+03  0.7546771E-02  0.1171516E+00
         -1   -1    0    0    0  501 -0.00000000000E+00  0.00000000000E+00  0.21032532136E+03  0.21032532136E+03  0.00000000000E+00 0.  1.
          1   -1    0    0  502    0  0.00000000000E+00 -0.00000000000E+00 -0.30365400392E+03  0.30365400392E+03  0.00000000000E+00 0. -1.
         23    2    1    2    0    0 -0.18164866107E+03 -0.25755911539E+01  0.48723808978E+02  0.21001497984E+03  0.93431324820E+02 0.  0.
         23    2    1    2    0    0  0.85348315898E+02 -0.65023406470E+02 -0.11579082290E+03  0.18341121939E+03  0.93379774658E+02 0.  0.
        -13    1    3    3    0    0 -0.14198613862E+02 -0.27763057399E+02  0.22979074742E+02  0.38735331000E+02  0.00000000000E+00 0. -1.
         13    1    3    3    0    0 -0.16745004721E+03  0.25187466245E+02  0.25744734237E+02  0.17127964884E+03  0.00000000000E+00 0.  1.
        -13    1    4    4    0    0  0.97224065491E+02 -0.33920056334E+02 -0.10799352873E+03  0.14921692726E+03  0.00000000000E+00 0. -1.
         13    1    4    4    0    0 -0.11875749593E+02 -0.31103350137E+02 -0.77972941663E+01  0.34194292132E+02  0.00000000000E+00 0.  1.
         21    1    1    2  502  501  0.96300345171E+02  0.67598997624E+02 -0.26261668645E+02  0.12055312605E+03  0.00000000000E+00 0. -1.
<scales pt_clust_5="13000.00000" pt_clust_6="13000.00000" pt_clust_7="13000.00000" pt_clust_8="13000.00000" pt_clust_9="117.65790"></scales>
<clustering>
<clus scale="   93.380">  7  8 -1 -1</clus>
<clus scale="   93.431">  5  6 -1 -1</clus>
<clus scale="  117.658">  2  9  1 -1</clus>
<clus scale="  176.196">  2  7  1 -1</clus>
<clus scale="  117.658">  2  5  1 -1</clus>
</clustering>
</event>
<event>
 9    1  0.5300912E-006  0.1087299E+03  0.7546771E-02  0.1265137E+00
         -1   -1    0    0    0  501 -0.00000000000E+00  0.00000000000E+00  0.59058534334E+03  0.59058534334E+03  0.00000000000E+00 0.  1.
          1   -1    0    0  502    0  0.00000000000E+00 -0.00000000000E+00 -0.10330183878E+03  0.10330183878E+03  0.00000000000E+00 0. -1.
         23    2    1    2    0    0 -0.32840879863E+02  0.36493584806E+02  0.27131836576E+03  0.29021510561E+03  0.90558526956E+02 0.  0.
         23    2    1    2    0    0  0.29278639009E+02  0.52356441605E+02 -0.49747724344E+02  0.12347510580E+03  0.95774892297E+02 0.  0.
        -11    1    3    3    0    0  0.27115983306E+02  0.32154554738E+02  0.93925147822E+02  0.10291319320E+03  0.00000000000E+00 0. -1.
         11    1    3    3    0    0 -0.59956863170E+02  0.43390300677E+01  0.17739321793E+03  0.18730191241E+03  0.00000000000E+00 0.  1.
        -13    1    4    4    0    0  0.36551036465E+02 -0.63936998086E+01 -0.52411114003E+02  0.64216684241E+02  0.00000000000E+00 0.  1.
         13    1    4    4    0    0 -0.72723974552E+01  0.58750141414E+02  0.26633896586E+01  0.59258421557E+02  0.00000000000E+00 0. -1.
         21    1    1    2  502  501  0.35622408538E+01 -0.88850026411E+02  0.26571286315E+03  0.28019697071E+03  0.00000000000E+00 0.  1.
<scales pt_clust_5="13000.00000" pt_clust_6="13000.00000" pt_clust_7="13000.00000" pt_clust_8="13000.00000" pt_clust_9="88.92141"></scales>
<clustering>
<clus scale="   88.921">  1  9  2 -1</clus>
<clus scale="   90.559">  5  6 -1 -1</clus>
<clus scale="   95.775">  7  8 -1 -1</clus>
<clus scale="  104.164">  1  5  2 -1</clus>
<clus scale="  108.730">  2  5  1 -1</clus>
</clustering>
</event>
<event>
 9    1  0.5300912E-006  0.9286402E+02  0.7546771E-02  0.1296391E+00
          1   -1    0    0  502    0  0.00000000000E+00  0.00000000000E+00  0.71714959406E+02  0.71714959406E+02  0.00000000000E+00 0. -1.
         -1   -1    0    0    0  501 -0.00000000000E+00 -0.00000000000E+00 -0.28407858119E+03  0.28407858119E+03  0.00000000000E+00 0.  1.
         23    2    1    2    0    0 -0.19129495210E+02  0.12480096536E+02 -0.15081502275E+03  0.17739664546E+03  0.90568804448E+02 0.  0.
         23    2    1    2    0    0 -0.26912102083E+02  0.11122066852E+02  0.29258191182E+01  0.95729843689E+02  0.91146480709E+02 0.  0.
        -11    1    3    3    0    0 -0.50245325309E+02 -0.94105471431E+01 -0.59320335100E+02  0.78307427932E+02  0.00000000000E+00 0.  1.
         11    1    3    3    0    0  0.31115830100E+02  0.21890643679E+02 -0.91494687645E+02  0.99089217530E+02  0.00000000000E+00 0. -1.
        -11    1    4    4    0    0  0.13713079394E+02 -0.32761546494E+02  0.51509270328E+01  0.35887317041E+02  0.00000000000E+00 0.  1.
         11    1    4    4    0    0 -0.40625181478E+02  0.43883613346E+02 -0.22251079147E+01  0.59842526648E+02  0.00000000000E+00 0. -1.
         21    1    1    2  502  501  0.46041597293E+02 -0.23602163388E+02 -0.64474418160E+02  0.82667051447E+02  0.00000000000E+00 0.  1.
<scales pt_clust_5="13000.00000" pt_clust_6="13000.00000" pt_clust_7="13000.00000" pt_clust_8="13000.00000" pt_clust_9="51.73868"></scales>
<clustering>
<clus scale="   51.739">  2  9  1 -1</clus>
<clus scale="   90.569">  5  6 -1 -1</clus>
<clus scale="   91.146">  7  8 -1 -1</clus>
<clus scale="   92.297">  2  5  1 -1</clus>
<clus scale="   92.864">  1  5  2 -1</clus>
</clustering>
</event>
<event>
 9    1  0.5300912E-006  0.1322232E+03  0.7546771E-02  0.1241260E+00
          1   -1    0    0  502    0  0.00000000000E+00  0.00000000000E+00  0.42084265244E+03  0.42084265244E+03  0.00000000000E+00 0. -1.
         -1   -1    0    0    0  501 -0.00000000000E+00 -0.00000000000E+00 -0.17589537815E+03  0.17589537815E+03  0.00000000000E+00 0.  1.
         23    2    1    2    0    0 -0.21877529962E+02  0.11522015834E+02 -0.10951534101E+03  0.14373993881E+03  0.89756208292E+02 0.  0.
         23    2    1    2    0    0 -0.86124771214E+02 -0.86392603250E+01  0.31105938861E+03  0.33656507488E+03  0.95005228026E+02 0.  0.
        -13    1    3    3    0    0 -0.46029621025E+02  0.23016453613E+02 -0.29381886298E+02  0.59260259796E+02  0.00000000000E+00 0.  1.
         13    1    3    3    0    0  0.24152091064E+02 -0.11494437780E+02 -0.80133454708E+02  0.84479679013E+02  0.00000000000E+00 0. -1.
        -13    1    4    4    0    0  0.16681969711E+02  0.11272183297E+02  0.26025440229E+02  0.32904008401E+02  0.00000000000E+00 0. -1.
         13    1    4    4    0    0 -0.10280674093E+03 -0.19911443622E+02  0.28503394838E+03  0.30366106648E+03  0.00000000000E+00 0.  1.
         21    1    1    2  502  501  0.10800230118E+03 -0.28827555085E+01  0.43403226684E+02  0.11643301690E+03  0.00000000000E+00 0. -1.
<scales pt_clust_5="13000.00000" pt_clust_6="13000.00000" pt_clust_7="13000.00000" pt_clust_8="13000.00000" pt_clust_9="91.96187"></scales>
<clustering>
<clus scale="   89.756">  5  6 -1 -1</clus>
<clus scale="   93.100">  2  5  1 -1</clus>
<clus scale="   91.962">  2  9  1 -1</clus>
<clus scale="   95.005">  7  8 -1 -1</clus>
<clus scale="  132.223">  1  5  2 -1</clus>
</clustering>
</event>
<event>
 9    1  0.5300912E-006  0.1156281E+03  0.7546771E-02  0.1254580E+00
          2   -1    0    0  502    0  0.00000000000E+00  0.00000000000E+00  0.66787068056E+03  0.66787068056E+03  0.00000000000E+00 0. -1.
         -2   -1    0    0    0  501 -0.00000000000E+00 -0.00000000000E+00 -0.29047367552E+02  0.29047367552E+02  0.00000000000E+00 0.  1.
         23    2    1    2    0    0  0.34853811507E+02  0.77920906643E+02  0.21775847465E+03  0.25289914501E+03  0.96191311442E+02 0.  0.
         23    2    1    2    0    0 -0.27715057205E+02 -0.48796467688E+02  0.37824545826E+03  0.39174372668E+03  0.85113459839E+02 0.  0.
        -11    1    3    3    0    0 -0.21929862768E+02  0.66102384342E+02  0.13401634804E+03  0.15103253173E+03  0.00000000000E+00 0. -1.
         11    1    3    3    0    0  0.56783674275E+02  0.11818522301E+02  0.83742126601E+02  0.10186661328E+03  0.00000000000E+00 0.  1.
        -11    1    4    4    0    0  0.30325013686E+02 -0.19550134286E+02  0.11138460083E+03  0.11708263538E+03  0.00000000000E+00 0.  1.
         11    1    4    4    0    0 -0.58040070891E+02 -0.29246333402E+02  0.26686085743E+03  0.27466109130E+03  0.00000000000E+00 0. -1.
         21    1    1    2  502  501 -0.71387543016E+01 -0.29124438956E+02  0.42819380098E+02  0.52275176417E+02  0.00000000000E+00 0. -1.
<scales pt_clust_5="13000.00000" pt_clust_6="13000.00000" pt_clust_7="13000.00000" pt_clust_8="13000.00000" pt_clust_9="29.98658"></scales>
<clustering>
<clus scale="   29.987">  2  9  1 -1</clus>
<clus scale="   85.113">  7  8 -1 -1</clus>
<clus scale="   96.191">  5  6 -1 -1</clus>
<clus scale="  106.590">  1  7  2 -1</clus>
<clus scale="  106.590">  1  5  2 -1</clus>
</clustering>
</event>
<event>
 9    1  0.5300912E-006  0.1004570E+03  0.7546771E-02  0.1280465E+00
         -1   -1    0    0    0  501 -0.00000000000E+00  0.00000000000E+00  0.21777484186E+03  0.21777484186E+03  0.00000000000E+00 0.  1.
          1   -1    0    0  502    0  0.00000000000E+00 -0.00000000000E+00 -0.42432292223E+03  0.42432292223E+03  0.00000000000E+00 0. -1.
         23    2    1    2    0    0  0.76788514524E+02 -0.30519658097E+02  0.21549568526E+02  0.12240978010E+03  0.87703163383E+02 0.  0.
         23    2    1    2    0    0  0.61495806393E+01  0.45803918279E+02 -0.35397494658E+03  0.36817088821E+03  0.90087312347E+02 0.  0.
        -11    1    4    4    0    0 -0.39613852595E+02  0.85303324473E+01 -0.11211087606E+03  0.11920936381E+03  0.00000000000E+00 0.  1.
         11    1    4    4    0    0  0.45763433234E+02  0.37273585831E+02 -0.24186407052E+03  0.24896152440E+03  0.00000000000E+00 0. -1.
        -13    1    3    3    0    0 -0.19752877013E+02 -0.53313718895E+01  0.67530614553E+01  0.21545382697E+02  0.00000000000E+00 0.  1.
         13    1    3    3    0    0  0.96541391538E+02 -0.25188286208E+02  0.14796507070E+02  0.10086439740E+03  0.00000000000E+00 0. -1.
         21    1    1    2  502  501 -0.82938095164E+02 -0.15284260182E+02  0.12587729769E+03  0.15151709577E+03  0.00000000000E+00 0.  1.
<scales pt_clust_5="13000.00000" pt_clust_6="13000.00000" pt_clust_7="13000.00000" pt_clust_8="13000.00000" pt_clust_9="84.33467"></scales>
<clustering>
<clus scale="   84.335">  1  9  2 -1</clus>
<clus scale="   87.703">  7  8 -1 -1</clus>
<clus scale="   90.087">  5  6 -1 -1</clus>
<clus scale="   98.325">  1  7  2 -1</clus>
<clus scale="  100.457">  2  5  1 -1</clus>
</clustering>
</event>
<event>
 9    1  0.5300912E-006  0.9566363E+02  0.7546771E-02  0.1294349E+00
          1   -1    0    0  502    0  0.00000000000E+00  0.00000000000E+00  0.23292513681E+03  0.23292513681E+03  0.00000000000E+00 0. -1.
         -1   -1    0    0    0  501 -0.00000000000E+00 -0.00000000000E+00 -0.70069316285E+02  0.70069316285E+02  0.00000000000E+00 0.  1.
         23    2    1    2    0    0  0.21587274087E+02  0.41834002605E+02  0.27346407174E+02  0.10669491050E+03  0.91759924614E+02 0.  0.
         23    2    1    2    0    0  0.20101947856E+02 -0.65905442327E+01  0.69324775316E+02  0.11050619264E+03  0.83415649364E+02 0.  0.
        -11    1    3    3    0    0  0.25699275284E+02  0.64168233222E+02 -0.25273188722E+01  0.69169373610E+02  0.00000000000E+00 0.  1.
         11    1    3    3    0    0 -0.41120011969E+01 -0.22334230617E+02  0.29873726046E+02  0.37525536891E+02  0.00000000000E+00 0. -1.
        -13    1    4    4    0    0  0.37194194425E+02 -0.33969003816E+02  0.26609346717E+02  0.56968049395E+02  0.00000000000E+00 0. -1.
         13    1    4    4    0    0 -0.17092246569E+02  0.27378459584E+02  0.42715428599E+02  0.53538143247E+02  0.00000000000E+00 0.  1.
         21    1    1    2  502  501 -0.41689221943E+02 -0.35243458372E+02  0.66184638040E+02  0.85793349957E+02  0.00000000000E+00 0. -1.
<scales pt_clust_5="13000.00000" pt_clust_6="13000.00000" pt_clust_7="13000.00000" pt_clust_8="13000.00000" pt_clust_9="54.59022"></scales>
<clustering>
<clus scale="   54.590">  1  9  2 -1</clus>
<clus scale="   83.416">  7  8 -1 -1</clus>
<clus scale="   87.692">  1  7  2 -1</clus>
<clus scale="   91.760">  5  6 -1 -1</clus>
<clus scale="   54.590">  1  5  2 -1</clus>
</clustering>
</event>
<event>
 9    1  0.5300912E-006  0.1275673E+03  0.7546771E-02  0.1238683E+00
          3   -1    0    0  502    0  0.00000000000E+00  0.00000000000E+00  0.11366461923E+03  0.11366461923E+03  0.00000000000E+00 0. -1.
         -3   -1    0    0    0  501 -0.00000000000E+00 -0.00000000000E+00 -0.37792421308E+03  0.37792421308E+03  0.00000000000E+00 0.  1.
         23    2    1    2    0    0  0.24764000319E+02  0.70183233579E+02 -0.14635307423E+03  0.19927391915E+03  0.11292444611E+03 0.  0.
         23    2    1    2    0    0 -0.79658776498E+02  0.15731543667E+02 -0.14201779133E+03  0.18754784378E+03  0.91717711006E+02 0.  0.
        -11    1    4    4    0    0 -0.28338216232E+02  0.11625478102E+02  0.56636931714E+01  0.31149376569E+02  0.00000000000E+00 0. -1.
         11    1    4    4    0    0 -0.51320560266E+02  0.41060655653E+01 -0.14768148451E+03  0.15639846721E+03  0.00000000000E+00 0.  1.
        -13    1    3    3    0    0 -0.40039090632E+02  0.17178889955E+01 -0.54545718508E+02  0.67685414447E+02  0.00000000000E+00 0. -1.
         13    1    3    3    0    0  0.64803090951E+02  0.68465344583E+02 -0.91807355724E+02  0.13158850471E+03  0.00000000000E+00 0.  1.
         21    1    1    2  502  501  0.54894776179E+02 -0.85914777246E+02  0.24111271715E+02  0.10476706937E+03  0.00000000000E+00 0.  1.
<scales pt_clust_5="13000.00000" pt_clust_6="13000.00000" pt_clust_7="13000.00000" pt_clust_8="13000.00000" pt_clust_9="101.95482"></scales>
<clustering>
<clus scale="   91.718">  5  6 -1 -1</clus>
<clus scale="  101.955">  1  9  2 -1</clus>
<clus scale="  109.241">  1  5  2 -1</clus>
<clus scale="  112.924">  7  8 -1 -1</clus>
<clus scale="  101.955">  1  5  2 -1</clus>
</clustering>
</event>
<event>
 9    1  0.5300912E-006  0.9544368E+02  0.7546771E-02  0.1290669E+00
         -3   -1    0    0    0  501 -0.00000000000E+00  0.00000000000E+00  0.36817314157E+02  0.36817314157E+02  0.00000000000E+00 0.  1.
          3   -1    0    0  502    0  0.00000000000E+00 -0.00000000000E+00 -0.66554341250E+03  0.66554341250E+03  0.00000000000E+00 0. -1.
         23    2    1    2    0    0  0.47404939902E+02 -0.10831429805E+02 -0.91418473925E+02  0.13836971014E+03  0.91783937110E+02 0.  0.
         23    2    1    2    0    0  0.26174979251E+02 -0.47100896624E+01 -0.26157366126E+03  0.27818555511E+03  0.90879636462E+02 0.  0.
        -13    1    3    3    0    0 -0.19325988381E+02  0.20700157610E+02 -0.14677488630E+02  0.31897006512E+02  0.00000000000E+00 0.  1.
         13    1    3    3    0    0  0.66730928282E+02 -0.31531587415E+02 -0.76740985295E+02  0.10647270363E+03  0.00000000000E+00 0. -1.
        -13    1    4    4    0    0 -0.17060890640E+02 -0.18785919503E+02 -0.19837910439E+02  0.32210672945E+02  0.00000000000E+00 0.  1.
         13    1    4    4    0    0  0.43235869891E+02  0.14075829841E+02 -0.24173575082E+03  0.24597488216E+03  0.00000000000E+00 0. -1.
         21    1    1    2  502  501 -0.73579919152E+02  0.15541519467E+02 -0.27573396315E+03  0.28580546140E+03  0.00000000000E+00 0.  1.
<scales pt_clust_5="13000.00000" pt_clust_6="13000.00000" pt_clust_7="13000.00000" pt_clust_8="13000.00000" pt_clust_9="75.20335"></scales>
<clustering>
<clus scale="   75.203">  2  9  1 -1</clus>
<clus scale="   90.880">  7  8 -1 -1</clus>
<clus scale="   91.784">  5  6 -1 -1</clus>
<clus scale="   94.574">  2  7  1 -1</clus>
<clus scale="   75.203">  2  5  1 -1</clus>
</clustering>
</event>
<event>
 9    1  0.5300912E-006  0.3064736E+03  0.7546771E-02  0.1082059E+00
          1   -1    0    0  502    0  0.00000000000E+00  0.00000000000E+00  0.13446148571E+04  0.13446148571E+04  0.00000000000E+00 0. -1.
         -1   -1    0    0    0  501 -0.00000000000E+00 -0.00000000000E+00 -0.45697523133E+03  0.45697523133E+03  0.00000000000E+00 0.  1.
         23    2    1    2    0    0  0.16330049009E+03 -0.58275134302E+02 -0.30435571765E+03  0.36206776687E+03  0.91638548634E+02 0.  0.
         23    2    1    2    0    0 -0.26089358112E+03  0.14683241586E+03  0.12549779906E+04  0.12934620005E+04  0.91918282169E+02 0.  0.
        -13    1    4    4    0    0 -0.22879892594E+03  0.94313232773E+02  0.10794720185E+04  0.11074763082E+04  0.00000000000E+00 0. -1.
         13    1    4    4    0    0 -0.32094655181E+02  0.52519183087E+02  0.17550597214E+03  0.18598569230E+03  0.00000000000E+00 0.  1.
        -13    1    3    3    0    0  0.12279576872E+03 -0.77489715610E+02 -0.18921645101E+03  0.23850853690E+03  0.00000000000E+00 0. -1.
         13    1    3    3    0    0  0.40504721377E+02  0.19214581308E+02 -0.11513926664E+03  0.12355922997E+03  0.00000000000E+00 0.  1.
         21    1    1    2  502  501  0.97593091026E+02 -0.88557281557E+02 -0.62982647265E+02  0.14606032106E+03  0.00000000000E+00 0.  1.
<scales pt_clust_5="13000.00000" pt_clust_6="13000.00000" pt_clust_7="13000.00000" pt_clust_8="13000.00000" pt_clust_9="131.78317"></scales>
<clustering>
<clus scale="   91.639">  7  8 -1 -1</clus>
<clus scale="   91.918">  5  6 -1 -1</clus>
<clus scale="  131.783">  2  9  1 -1</clus>
<clus scale="  306.390">  2  7  1 -1</clus>
<clus scale="  306.474">  1  5  2 -1</clus>
</clustering>
</event>
<event>
 9    1  0.5300912E-006  0.1803905E+03  0.7546771E-02  0.1167497E+00
          1   -1    0    0  502    0  0.00000000000E+00  0.00000000000E+00  0.47570436339E+03  0.47570436339E+03  0.00000000000E+00 0. -1.
         -1   -1    0    0    0  501 -0.00000000000E+00 -0.00000000000E+00 -0.19680092456E+03  0.19680092456E+03  0.00000000000E+00 0.  1.
         23    2    1    2    0    0  0.11407993118E+02  0.85289439439E+02 -0.10021192115E+03  0.16001766126E+03  0.90326031623E+02 0.  0.
         23    2    1    2    0    0 -0.11108284687E+03 -0.13106730955E+03  0.34778090928E+03  0.39841511613E+03  0.90912075108E+02 0.  0.
        -13    1    4    4    0    0 -0.53925979435E+02 -0.10720203339E+02  0.60540929164E+02  0.81781037666E+02  0.00000000000E+00 0.  1.
         13    1    4    4    0    0 -0.57156867437E+02 -0.12034710621E+03  0.28723998012E+03  0.31663407847E+03  0.00000000000E+00 0. -1.
        -13    1    3    3    0    0  0.21014186837E+02 -0.84662885149E+01 -0.28473912252E+00  0.22657342430E+02  0.00000000000E+00 0.  1.
         13    1    3    3    0    0 -0.96061937191E+01  0.93755727954E+02 -0.99927182026E+02  0.13736031883E+03  0.00000000000E+00 0. -1.
         21    1    1    2  502  501  0.99674853755E+02  0.45777870113E+02  0.31334450693E+02  0.11407251055E+03  0.00000000000E+00 0.  1.
<scales pt_clust_5="13000.00000" pt_clust_6="13000.00000" pt_clust_7="13000.00000" pt_clust_8="13000.00000" pt_clust_9="109.68450"></scales>
<clustering>
<clus scale="   90.326">  7  8 -1 -1</clus>
<clus scale="   90.912">  5  6 -1 -1</clus>
<clus scale="  109.685">  2  9  1 -1</clus>
<clus scale="  180.096">  2  7  1 -1</clus>
<clus scale="  180.390">  1  5  2 -1</clus>
</clustering>
</event>
<event>
 9    1  0.5300912E-006  0.1301161E+03  0.7546771E-02  0.1228411E+00
         -1   -1    0    0    0  501 -0.00000000000E+00  0.00000000000E+00  0.29231817254E+02  0.29231817254E+02  0.00000000000E+00 0.  1.
          1   -1    0    0  502    0  0.00000000000E+00 -0.00000000000E+00 -0.78938993366E+03  0.78938993366E+03  0.00000000000E+00 0. -1.
         23    2    1    2    0    0 -0.14005457566E+02 -0.75581623924E+02 -0.17936203880E+03  0.21403899903E+03  0.87938714045E+02 0.  0.
         23    2    1    2    0    0  0.34612713269E+02  0.93355505029E+02 -0.52827439153E+03  0.54542958337E+03  0.92229645047E+02 0.  0.
        -11    1    3    3    0    0 -0.44371833681E+02 -0.25242477212E+02 -0.47780485682E+02  0.69921506649E+02  0.00000000000E+00 0.  1.
         11    1    3    3    0    0  0.30366376115E+02 -0.50339146712E+02 -0.13158155312E+03  0.14411749238E+03  0.00000000000E+00 0. -1.
        -13    1    4    4    0    0  0.14718334802E+02 -0.17622019107E+02 -0.86674215354E+02  0.89663730370E+02  0.00000000000E+00 0. -1.
         13    1    4    4    0    0  0.19894378466E+02  0.11097752414E+03 -0.44160017618E+03  0.45576585300E+03  0.00000000000E+00 0.  1.
         21    1    1    2  502  501 -0.20607255702E+02 -0.17773881105E+02 -0.52521686071E+02  0.59153168511E+02  0.00000000000E+00 0. -1.
<scales pt_clust_5="13000.00000" pt_clust_6="13000.00000" pt_clust_7="13000.00000" pt_clust_8="13000.00000" pt_clust_9="27.21341"></scales>
<clustering>
<clus scale="   27.213">  1  9  2 -1</clus>
<clus scale="   87.939">  5  6 -1 -1</clus>
<clus scale="   92.230">  7  8 -1 -1</clus>
<clus scale="  127.111">  1  5  2 -1</clus>
<clus scale="  130.116">  2  5  1 -1</clus>
</clustering>
</event>
<event>
 9    1  0.5300912E-006  0.1139570E+03  0.7546771E-02  0.1254057E+00
          1   -1    0    0  502    0  0.00000000000E+00  0.00000000000E+00  0.21669893273E+03  0.21669893273E+03  0.00000000000E+00 0. -1.
         -1   -1    0    0    0  501 -0.00000000000E+00 -0.00000000000E+00 -0.11246101290E+03  0.11246101290E+03  0.00000000000E+00 0.  1.
         23    2    1    2    0    0 -0.16435496698E+02  0.60355473522E+02 -0.28231611911E+02  0.11164085171E+03  0.88055363967E+02 0.  0.
         23    2    1    2    0    0  0.48811390526E+02 -0.83866834049E+02  0.10641652617E+03  0.16977245348E+03  0.89900006785E+02 0.  0.
        -11    1    3    3    0    0 -0.51447442198E+02  0.41320229507E+02 -0.66505404138E+01  0.66320663168E+02  0.00000000000E+00 0.  1.
         11    1    3    3    0    0  0.35011945500E+02  0.19035244015E+02 -0.21581071497E+02  0.45320188540E+02  0.00000000000E+00 0. -1.
        -13    1    4    4    0    0 -0.26238581632E+02 -0.24077981817E+02  0.36909010530E+02  0.51288277732E+02  0.00000000000E+00 0.  1.
         13    1    4    4    0    0  0.75049972158E+02 -0.59788852233E+02  0.69507515644E+02  0.11848417575E+03  0.00000000000E+00 0. -1.
         21    1    1    2  502  501 -0.32375893828E+02  0.23511360527E+02  0.26053005565E+02  0.47746640447E+02  0.00000000000E+00 0.  1.
<scales pt_clust_5="13000.00000" pt_clust_6="13000.00000" pt_clust_7="13000.00000" pt_clust_8="13000.00000" pt_clust_9="40.01228"></scales>
<clustering>
<clus scale="   40.012">  1  9  2 -1</clus>
<clus scale="   88.055">  5  6 -1 -1</clus>
<clus scale="   89.900">  7  8 -1 -1</clus>
<clus scale="  112.507">  2  5  1 -1</clus>
<clus scale="   40.012">  1  5  2 -1</clus>
</clustering>
</event>
<event>
 9    1  0.5300912E-006  0.1095262E+03  0.7546771E-02  0.1261853E+00
          2   -1    0    0  502    0  0.00000000000E+00  0.00000000000E+00  0.63021650038E+02  0.63021650038E+02  0.00000000000E+00 0. -1.
         -2   -1    0    0    0  501 -0.00000000000E+00 -0.00000000000E+00 -0.33882777338E+03  0.33882777338E+03  0.00000000000E+00 0.  1.
         23    2    1    2    0    0  0.55943876348E+02  0.16256304532E+02 -0.13112136703E+03  0.16953753720E+03  0.90311565653E+02 0.  0.
         23    2    1    2    0    0 -0.58466983314E+02  0.40974315820E+02 -0.61303577531E+02  0.13114800457E+03  0.91347620603E+02 0.  0.
        -13    1    3    3    0    0  0.47067039445E+02  0.44541760247E+02 -0.46184406183E+02  0.79575586598E+02  0.00000000000E+00 0.  1.
         13    1    3    3    0    0  0.88768369034E+01 -0.28285455715E+02 -0.84936960846E+02  0.89961950603E+02  0.00000000000E+00 0. -1.
        -13    1    4    4    0    0 -0.70832189239E+02 -0.21026458542E+01 -0.41785477544E+02  0.82265705404E+02  0.00000000000E+00 0. -1.
         13    1    4    4    0    0  0.12365205925E+02  0.43076961674E+02 -0.19518099987E+02  0.48882299166E+02  0.00000000000E+00 0.  1.
         21    1    1    2  502  501  0.25231069658E+01 -0.57230620352E+02 -0.83381178779E+02  0.10116388164E+03  0.00000000000E+00 0. -1.
<scales pt_clust_5="13000.00000" pt_clust_6="13000.00000" pt_clust_7="13000.00000" pt_clust_8="13000.00000" pt_clust_9="57.28621"></scales>
<clustering>
<clus scale="   57.286">  2  9  1 -1</clus>
<clus scale="   90.312">  5  6 -1 -1</clus>
<clus scale="   91.348">  7  8 -1 -1</clus>
<clus scale="  108.664">  2  5  1 -1</clus>
<clus scale="  109.526">  1  5  2 -1</clus>
</clustering>
</event>
<event>
 9    1  0.5300912E-006  0.1316832E+03  0.7546771E-02  0.1230884E+00
          1   -1    0    0  502    0  0.00000000000E+00  0.00000000000E+00  0.98835656376E+02  0.98835656376E+02  0.00000000000E+00 0. -1.
         -1   -1    0    0    0  501 -0.00000000000E+00 -0.00000000000E+00 -0.24123440005E+03  0.24123440005E+03  0.00000000000E+00 0.  1.
         23    2    1    2    0    0  0.17196112771E+02 -0.47584849996E+02 -0.80320519489E+02  0.14512920508E+03  0.10977739327E+03 0.  0.
         23    2    1    2    0    0 -0.55047214236E+02  0.67677901178E+02 -0.85547746949E+01  0.12637558147E+03  0.91033561491E+02 0.  0.
        -13    1    3    3    0    0  0.17396879912E+02  0.26759050781E+02  0.46191927036E+01  0.32249576286E+02  0.00000000000E+00 0. -1.
         13    1    3    3    0    0 -0.20076714150E+00 -0.74343900777E+02 -0.84939712192E+02  0.11287962880E+03  0.00000000000E+00 0.  1.
        -13    1    4    4    0    0  0.17220751112E+02  0.46787555685E+02 -0.11214543829E+02  0.51101816300E+02  0.00000000000E+00 0. -1.
         13    1    4    4    0    0 -0.72267965348E+02  0.20890345492E+02  0.26597691342E+01  0.75273765165E+02  0.00000000000E+00 0.  1.
         21    1    1    2  502  501  0.37851101465E+02 -0.20093051182E+02 -0.53523449486E+02  0.68565269873E+02  0.00000000000E+00 0. -1.
<scales pt_clust_5="13000.00000" pt_clust_6="13000.00000" pt_clust_7="13000.00000" pt_clust_8="13000.00000" pt_clust_9="42.85366"></scales>
<clustering>
<clus scale="   42.854">  2  9  1 -1</clus>
<clus scale="   91.034">  7  8 -1 -1</clus>
<clus scale="  109.777">  5  6 -1 -1</clus>
<clus scale="  116.518">  1  7  2 -1</clus>
<clus scale="  116.518">  1  5  2 -1</clus>
</clustering>
</event>
<event>
 9    1  0.5300912E-006  0.1051058E+03  0.7546771E-02  0.1271412E+00
          1   -1    0    0  502    0  0.00000000000E+00  0.00000000000E+00  0.17205475732E+03  0.17205475732E+03  0.00000000000E+00 0. -1.
         -1   -1    0    0    0  501 -0.00000000000E+00 -0.00000000000E+00 -0.25090553357E+03  0.25090553357E+03  0.00000000000E+00 0.  1.
         23    2    1    2    0    0  0.48080445333E+02 -0.73578541333E+01 -0.15112361341E+03  0.18346994859E+03  0.91961993587E+02 0.  0.
         23    2    1    2    0    0 -0.39706276182E+02  0.61670045329E+02 -0.33977084907E+02  0.11987016522E+03  0.88513452946E+02 0.  0.
        -13    1    4    4    0    0 -0.34407156262E+02 -0.14897550529E+02 -0.49743351493E+01  0.37822393156E+02  0.00000000000E+00 0. -1.
         13    1    4    4    0    0 -0.52991199193E+01  0.76567595858E+02 -0.29002749758E+02  0.82047772066E+02  0.00000000000E+00 0.  1.
        -13    1    3    3    0    0  0.66795779649E+02  0.15917899983E+02 -0.74943930073E+02  0.10164471641E+03  0.00000000000E+00 0.  1.
         13    1    3    3    0    0 -0.18715334316E+02 -0.23275754117E+02 -0.76179683341E+02  0.81825232185E+02  0.00000000000E+00 0. -1.
         21    1    1    2  502  501 -0.83741691512E+01 -0.54312191196E+02  0.10624992208E+03  0.11962017707E+03  0.00000000000E+00 0. -1.
<scales pt_clust_5="13000.00000" pt_clust_6="13000.00000" pt_clust_7="13000.00000" pt_clust_8="13000.00000" pt_clust_9="54.95399"></scales>
<clustering>
<clus scale="   54.954">  1  9  2 -1</clus>
<clus scale="   88.513">  5  6 -1 -1</clus>
<clus scale="   91.962">  7  8 -1 -1</clus>
<clus scale="  102.102">  1  5  2 -1</clus>
<clus scale="   54.954">  1  5  2 -1</clus>
</clustering>
</event>
<event>
 9    1  0.5300912E-006  0.1458798E+03  0.7546771E-02  0.1205770E+00
          2   -1    0    0  502    0  0.00000000000E+00  0.00000000000E+00  0.48796867291E+03  0.48796867291E+03  0.00000000000E+00 0. -1.
         -2   -1    0    0    0  501 -0.00000000000E+00 -0.00000000000E+00 -0.82856084196E+02  0.82856084196E+02  0.00000000000E+00 0.  1.
         23    2    1    2    0    0  0.78606723634E+02  0.94072588797E+02  0.23425115898E+02  0.15439955830E+03  0.90894546509E+02 0.  0.
         23    2    1    2    0    0 -0.50167480483E+02 -0.63072848507E+02  0.31223889866E+03  0.33522865392E+03  0.91597817965E+02 0.  0.
        -11    1    3    3    0    0  0.96265940119E+02  0.61964135776E+02  0.26864804807E+02  0.11759423067E+03  0.00000000000E+00 0.  1.
         11    1    3    3    0    0 -0.17659216485E+02  0.32108453021E+02 -0.34396889085E+01  0.36805327631E+02  0.00000000000E+00 0. -1.
        -13    1    4    4    0    0 -0.71806378789E+02 -0.58523687959E+02  0.28746480152E+03  0.30202183729E+03  0.00000000000E+00 0. -1.
         13    1    4    4    0    0  0.21638898306E+02 -0.45491605478E+01  0.24774097139E+02  0.33206816629E+02  0.00000000000E+00 0.  1.
         21    1    1    2  502  501 -0.28439243151E+02 -0.30999740290E+02  0.69448574154E+02  0.81196544884E+02  0.00000000000E+00 0. -1.
<scales pt_clust_5="13000.00000" pt_clust_6="13000.00000" pt_clust_7="13000.00000" pt_clust_8="13000.00000" pt_clust_9="42.06869"></scales>
<clustering>
<clus scale="   42.069">  1  9  2 -1</clus>
<clus scale="   90.895">  5  6 -1 -1</clus>
<clus scale="   91.598">  7  8 -1 -1</clus>
<clus scale="  145.439">  2  5  1 -1</clus>
<clus scale="   42.069">  1  5  2 -1</clus>
</clustering>
</event>
<event>
 9    1  0.5300912E-006  0.1022255E+03  0.7546771E-02  0.1275787E+00
          2   -1    0    0  502    0  0.00000000000E+00  0.00000000000E+00  0.65049283195E+03  0.65049283195E+03  0.00000000000E+00 0. -1.
         -2   -1    0    0    0  501 -0.00000000000E+00 -0.00000000000E+00 -0.71981115556E+02  0.71981115556E+02  0.00000000000E+00 0.  1.
         23    2    1    2    0    0 -0.91419378189E+01  0.71118655832E+01 -0.17878326602E+02  0.93061603293E+02  0.90590693707E+02 0.  0.
         23    2    1    2    0    0 -0.14295205409E+02 -0.49026033280E+02  0.55898909246E+03  0.56854422253E+03  0.90364941470E+02 0.  0.
        -13    1    4    4    0    0 -0.13022860771E+01 -0.74708018183E+02  0.42206453969E+03  0.42862741348E+03  0.00000000000E+00 0. -1.
         13    1    4    4    0    0 -0.12992919332E+02  0.25681984904E+02  0.13692455277E+03  0.13991680904E+03  0.00000000000E+00 0.  1.
        -13    1    3    3    0    0 -0.18018673131E+02  0.45261277371E+02  0.27489526933E+01  0.48793570802E+02  0.00000000000E+00 0.  1.
         13    1    3    3    0    0  0.88767353124E+01 -0.38149411788E+02 -0.20627279295E+02  0.44268032492E+02  0.00000000000E+00 0. -1.
         21    1    1    2  502  501  0.23437143228E+02  0.41914167696E+02  0.37400950542E+02  0.60868121688E+02  0.00000000000E+00 0. -1.
<scales pt_clust_5="13000.00000" pt_clust_6="13000.00000" pt_clust_7="13000.00000" pt_clust_8="13000.00000" pt_clust_9="48.02184"></scales>
<clustering>
<clus scale="   48.022">  2  9  1 -1</clus>
<clus scale="   90.365">  5  6 -1 -1</clus>
<clus scale="   90.591">  7  8 -1 -1</clus>
<clus scale="  102.025">  1  5  2 -1</clus>
<clus scale="  102.025">  1  5  2 -1</clus>
</clustering>
</event>
<event>
 9    1  0.5300912E-006  0.3377802E+03  0.7546771E-02  0.1067747E+00
          1   -1    0    0  502    0  0.00000000000E+00  0.00000000000E+00  0.16409689080E+04  0.16409689080E+04  0.00000000000E+00 0. -1.
         -1   -1    0    0    0  501 -0.00000000000E+00 -0.00000000000E+00 -0.14411071703E+03  0.14411071703E+03  0.00000000000E+00 0.  1.
         23    2    1    2    0    0 -0.24690701163E+03  0.11128049789E+03  0.29962357247E+03  0.41370158440E+03  0.89600748615E+02 0.  0.
         23    2    1    2    0    0  0.43778378799E+03 -0.15471762205E+03  0.83306979969E+03  0.95793307118E+03  0.89656511734E+02 0.  0.
        -11    1    3    3    0    0 -0.19835790661E+03  0.12538619360E+03  0.24380742296E+03  0.33839269518E+03  0.00000000000E+00 0.  1.
         11    1    3    3    0    0 -0.48549105019E+02 -0.14105695707E+02  0.55816149514E+02  0.75308889224E+02  0.00000000000E+00 0. -1.
        -11    1    4    4    0    0  0.79959508426E+02 -0.18029949469E+02  0.22293569804E+03  0.23752668803E+03  0.00000000000E+00 0.  1.
         11    1    4    4    0    0  0.35782427956E+03 -0.13668767258E+03  0.61013410165E+03  0.72040638315E+03  0.00000000000E+00 0. -1.
         21    1    1    2  502  501 -0.19087677636E+03  0.43437124160E+02  0.36416481879E+03  0.41344496944E+03  0.00000000000E+00 0.  1.
<scales pt_clust_5="13000.00000" pt_clust_6="13000.00000" pt_clust_7="13000.00000" pt_clust_8="13000.00000" pt_clust_9="195.75681"></scales>
<clustering>
<clus scale="   89.601">  5  6 -1 -1</clus>
<clus scale="   89.657">  7  8 -1 -1</clus>
<clus scale="  195.757">  1  9  2 -1</clus>
<clus scale="  337.765">  2  5  1 -1</clus>
<clus scale="  195.757">  1  5  2 -1</clus>
</clustering>
</event>
<event>
 9    1  0.5300912E-006  0.1383913E+03  0.7546771E-02  0.1224736E+00
         -2   -1    0    0    0  501 -0.00000000000E+00  0.00000000000E+00  0.34236744812E+03  0.34236744812E+03  0.00000000000E+00 0.  1.
          2   -1    0    0  502    0  0.00000000000E+00 -0.00000000000E+00 -0.10593830231E+03  0.10593830231E+03  0.00000000000E+00 0. -1.
         23    2    1    2    0    0 -0.10677997936E+02  0.62148402388E+02  0.77213171140E+02  0.13770677208E+03  0.94999145891E+02 0.  0.
         23    2    1    2    0    0 -0.74486916695E+02  0.25608070461E+02  0.31984223074E+02  0.13412750807E+03  0.10374547635E+03 0.  0.
        -11    1    4    4    0    0 -0.32617651956E+02  0.55657699476E+02  0.47719408988E+02  0.80242337480E+02  0.00000000000E+00 0.  1.
         11    1    4    4    0    0 -0.41869264739E+02 -0.30049629015E+02 -0.15735185914E+02  0.53885170589E+02  0.00000000000E+00 0. -1.
        -13    1    3    3    0    0  0.33842322306E+02  0.28466672868E+02  0.68015963360E+02  0.81128450713E+02  0.00000000000E+00 0.  1.
         13    1    3    3    0    0 -0.44520320242E+02  0.33681729520E+02  0.91972077798E+01  0.56578321368E+02  0.00000000000E+00 0. -1.
         21    1    1    2  502  501  0.85164914631E+02 -0.87756472849E+02  0.12723175159E+03  0.17647147029E+03  0.00000000000E+00 0. -1.
<scales pt_clust_5="13000.00000" pt_clust_6="13000.00000" pt_clust_7="13000.00000" pt_clust_8="13000.00000" pt_clust_9="91.59158"></scales>
<clustering>
<clus scale="   94.999">  7  8 -1 -1</clus>
<clus scale="  103.745">  5  6 -1 -1</clus>
<clus scale="  114.023">  1  7  2 -1</clus>
<clus scale="   91.592">  1  9  2 -1</clus>
<clus scale="  138.391">  2  5  1 -1</clus>
</clustering>
</event>
<event>
 9    1  0.5300912E-006  0.1185387E+03  0.7546771E-02  0.1246271E+00
          1   -1    0    0  502    0  0.00000000000E+00  0.00000000000E+00  0.20104868958E+03  0.20104868958E+03  0.00000000000E+00 0. -1.
         -1   -1    0    0    0  501 -0.00000000000E+00 -0.00000000000E+00 -0.22967700665E+03  0.22967700665E+03  0.00000000000E+00 0.  1.
         23    2    1    2    0    0 -0.30777105900E+02  0.49121407007E+01 -0.31423678078E+02  0.10283031185E+03  0.92818457848E+02 0.  0.
         23    2    1    2    0    0  0.89754738495E+02  0.12454982997E+02  0.13253208158E+03  0.18432799674E+03  0.90559472445E+02 0.  0.
        -11    1    3    3    0    0 -0.42796074050E+01 -0.42883486063E+02 -0.10893148608E+02  0.44451874010E+02  0.00000000000E+00 0. -1.
         11    1    3    3    0    0 -0.26497498495E+02  0.47795626764E+02 -0.20530529470E+02  0.58378437839E+02  0.00000000000E+00 0.  1.
        -13    1    4    4    0    0  0.20244333832E+02 -0.34768250701E+02  0.65342865777E+02  0.76735613747E+02  0.00000000000E+00 0. -1.
         13    1    4    4    0    0  0.69510404663E+02  0.47223233698E+02  0.67189215802E+02  0.10759238299E+03  0.00000000000E+00 0.  1.
         21    1    1    2  502  501 -0.58977632596E+02 -0.17367123698E+02 -0.12973672057E+03  0.14356738765E+03  0.00000000000E+00 0.  1.
<scales pt_clust_5="13000.00000" pt_clust_6="13000.00000" pt_clust_7="13000.00000" pt_clust_8="13000.00000" pt_clust_9="61.48153"></scales>
<clustering>
<clus scale="   61.482">  2  9  1 -1</clus>
<clus scale="   90.559">  7  8 -1 -1</clus>
<clus scale="   92.818">  5  6 -1 -1</clus>
<clus scale="  116.778">  1  7  2 -1</clus>
<clus scale="  116.778">  1  5  2 -1</clus>
</clustering>
</event>
<event>
 9    1  0.5300912E-006  0.1209412E+03  0.7546771E-02  0.1241557E+00
          3   -1    0    0  502    0  0.00000000000E+00  0.00000000000E+00  0.66055179551E+02  0.66055179551E+02  0.00000000000E+00 0. -1.
         -3   -1    0    0    0  501 -0.00000000000E+00 -0.00000000000E+00 -0.61519698146E+03  0.61519698146E+03  0.00000000000E+00 0.  1.
         23    2    1    2    0    0  0.64251442215E+02 -0.34081769900E+02 -0.30462375610E+03  0.32558254219E+03  0.88986201937E+02 0.  0.
         23    2    1    2    0    0 -0.85798305965E+02 -0.31596756422E+01 -0.17813862739E+02  0.12491871584E+03  0.88972012477E+02 0.  0.
        -11    1    3    3    0    0  0.49439200199E+02  0.12403971551E+02 -0.23563758673E+03  0.24108746401E+03  0.00000000000E+00 0.  1.
         11    1    3    3    0    0  0.14812242016E+02 -0.46485741451E+02 -0.68986169371E+02  0.84495078178E+02  0.00000000000E+00 0. -1.
        -11    1    4    4    0    0 -0.81163875583E+02 -0.27789027957E+02  0.11270234737E+02  0.86526429289E+02  0.00000000000E+00 0. -1.
         11    1    4    4    0    0 -0.46344303816E+01  0.24629352315E+02 -0.29084097476E+02  0.38392286548E+02  0.00000000000E+00 0.  1.
         21    1    1    2  502  501  0.21546863750E+02  0.37241445542E+02 -0.22670418307E+03  0.23075090298E+03  0.00000000000E+00 0.  1.
<scales pt_clust_5="13000.00000" pt_clust_6="13000.00000" pt_clust_7="13000.00000" pt_clust_8="13000.00000" pt_clust_9="43.02549"></scales>
<clustering>
<clus scale="   43.025">  2  9  1 -1</clus>
<clus scale="   88.972">  7  8 -1 -1</clus>
<clus scale="   88.986">  5  6 -1 -1</clus>
<clus scale="  120.931">  1  7  2 -1</clus>
<clus scale="  120.931">  1  5  2 -1</clus>
</clustering>
</event>
<event>
 9    1  0.5300912E-006  0.1888080E+03  0.7546771E-02  0.1159872E+00
          1   -1    0    0  502    0  0.00000000000E+00  0.00000000000E+00  0.29330642626E+03  0.29330642626E+03  0.00000000000E+00 0. -1.
         -1   -1    0    0    0  501 -0.00000000000E+00 -0.00000000000E+00 -0.50677587249E+03  0.50677587249E+03  0.00000000000E+00 0.  1.
         23    2    1    2    0    0  0.16905196981E+02 -0.23914378201E+03 -0.17889075751E+03  0.31278756906E+03  0.91425522001E+02 0.  0.
         23    2    1    2    0    0  0.96607684673E+02  0.12825423918E+03  0.15501640924E+03  0.24005402476E+03  0.88394870113E+02 0.  0.
        -11    1    3    3    0    0 -0.24793942112E+02 -0.18798890465E+03 -0.12048705529E+03  0.22465907132E+03  0.00000000000E+00 0. -1.
         11    1    3    3    0    0  0.41699139093E+02 -0.51154877366E+02 -0.58403702222E+02  0.88128497733E+02  0.00000000000E+00 0.  1.
        -13    1    4    4    0    0  0.11326347154E+03  0.10723342023E+03  0.13825448882E+03  0.20842726328E+03  0.00000000000E+00 0.  1.
         13    1    4    4    0    0 -0.16655786864E+02  0.21020818954E+02  0.16761920422E+02  0.31626761481E+02  0.00000000000E+00 0. -1.
         21    1    1    2  502  501 -0.11351288165E+03  0.11088954283E+03 -0.18959509795E+03  0.24724070494E+03  0.00000000000E+00 0.  1.
<scales pt_clust_5="13000.00000" pt_clust_6="13000.00000" pt_clust_7="13000.00000" pt_clust_8="13000.00000" pt_clust_9="158.68732"></scales>
<clustering>
<clus scale="   88.395">  7  8 -1 -1</clus>
<clus scale="   91.426">  5  6 -1 -1</clus>
<clus scale="  158.687">  2  9  1 -1</clus>
<clus scale="  187.359">  1  7  2 -1</clus>
<clus scale="  187.359">  1  5  2 -1</clus>
</clustering>
</event>
<event>
 9    1  0.5300912E-006  0.1163085E+03  0.7546771E-02  0.1249330E+00
          3   -1    0    0  502    0  0.00000000000E+00  0.00000000000E+00  0.43255146877E+03  0.43255146877E+03  0.00000000000E+00 0. -1.
         -3   -1    0    0    0  501 -0.00000000000E+00 -0.00000000000E+00 -0.80411389939E+02  0.80411389939E+02  0.00000000000E+00 0.  1.
         23    2    1    2    0    0 -0.86610361543E+02  0.27868176919E+02  0.20166427418E+02  0.12986535337E+03  0.90445205517E+02 0.  0.
         23    2    1    2    0    0  0.22741602082E+02  0.27842518913E+02  0.23480999319E+03  0.25416466799E+03  0.90396677097E+02 0.  0.
        -11    1    4    4    0    0  0.53131248294E+02 -0.36553394598E+01  0.13802905465E+03  0.14794698706E+03  0.00000000000E+00 0. -1.
         11    1    4    4    0    0 -0.30389646212E+02  0.31497858373E+02  0.96780938540E+02  0.10621768094E+03  0.00000000000E+00 0.  1.
        -13    1    3    3    0    0 -0.48002204996E+02  0.31966883910E+02 -0.31126052934E+02  0.65535673665E+02  0.00000000000E+00 0.  1.
         13    1    3    3    0    0 -0.38608156547E+02 -0.40987069910E+01  0.51292480352E+02  0.64329679710E+02  0.00000000000E+00 0. -1.
         21    1    1    2  502  501  0.63868759460E+02 -0.55710695833E+02  0.97163658226E+02  0.12893283734E+03  0.00000000000E+00 0.  1.
<scales pt_clust_5="13000.00000" pt_clust_6="13000.00000" pt_clust_7="13000.00000" pt_clust_8="13000.00000" pt_clust_9="84.75199"></scales>
<clustering>
<clus scale="   84.752">  1  9  2 -1</clus>
<clus scale="   90.397">  5  6 -1 -1</clus>
<clus scale="   90.445">  7  8 -1 -1</clus>
<clus scale="  116.271">  1  5  2 -1</clus>
<clus scale="   84.752">  1  5  2 -1</clus>
</clustering>
</event>
<event>
 9    1  0.5300912E-006  0.1045495E+03  0.7546771E-02  0.1272487E+00
         -1   -1    0    0    0  501 -0.00000000000E+00  0.00000000000E+00  0.44996647241E+03  0.44996647241E+03  0.00000000000E+00 0.  1.
          1   -1    0    0  502    0  0.00000000000E+00 -0.00000000000E+00 -0.47356604431E+02  0.47356604431E+02  0.00000000000E+00 0. -1.
         23    2    1    2    0    0  0.59682380192E+02  0.17151329600E+02  0.25376628112E+03  0.27829698884E+03  0.95894389583E+02 0.  0.
         23    2    1    2    0    0 -0.10183470174E+00 -0.28282578742E+02  0.11197081911E+03  0.14808000206E+03  0.92683914719E+02 0.  0.
        -13    1    4    4    0    0 -0.33444247136E+02 -0.23438686451E+02  0.11972979301E+02  0.42558687977E+02  0.00000000000E+00 0. -1.
         13    1    4    4    0    0  0.33342412434E+02 -0.48438922913E+01  0.99997839808E+02  0.10552131408E+03  0.00000000000E+00 0.  1.
        -13    1    3    3    0    0  0.48446949152E+02  0.41172456926E+02  0.24027330481E+03  0.24854283151E+03  0.00000000000E+00 0.  1.
         13    1    3    3    0    0  0.11235431041E+02 -0.24021127326E+02  0.13492976304E+02  0.29754157326E+02  0.00000000000E+00 0. -1.
         21    1    1    2  502  501 -0.59580545490E+02  0.11131249142E+02  0.36872767754E+02  0.70946085941E+02  0.00000000000E+00 0. -1.
<scales pt_clust_5="13000.00000" pt_clust_6="13000.00000" pt_clust_7="13000.00000" pt_clust_8="13000.00000" pt_clust_9="60.61144"></scales>
<clustering>
<clus scale="   60.611">  2  9  1 -1</clus>
<clus scale="   92.684">  5  6 -1 -1</clus>
<clus scale="   95.894">  7  8 -1 -1</clus>
<clus scale="  101.613">  2  5  1 -1</clus>
<clus scale="   60.611">  2  5  1 -1</clus>
</clustering>
</event>
<event>
 9    1  0.5300912E-006  0.1500879E+03  0.7546771E-02  0.1201216E+00
         -1   -1    0    0    0  501 -0.00000000000E+00  0.00000000000E+00  0.10632097492E+03  0.10632097492E+03  0.00000000000E+00 0.  1.
          1   -1    0    0  502    0  0.00000000000E+00 -0.00000000000E+00 -0.59700414669E+03  0.59700414669E+03  0.00000000000E+00 0. -1.
         23    2    1    2    0    0  0.64557309499E+01  0.13694282608E+03 -0.19300750631E+02  0.16413570605E+03  0.88164601438E+02 0.  0.
         23    2    1    2    0    0 -0.90237915583E+02 -0.56777187559E+02 -0.20828894808E+03  0.25167566002E+03  0.92681290015E+02 0.  0.
        -11    1    4    4    0    0 -0.17476055072E+02 -0.63005084770E+02 -0.73488086891E+02  0.98364384421E+02  0.00000000000E+00 0. -1.
         11    1    4    4    0    0 -0.72761860511E+02  0.62278972105E+01 -0.13480086119E+03  0.15331127560E+03  0.00000000000E+00 0.  1.
        -11    1    3    3    0    0  0.20733182996E+02  0.65236201661E+02  0.31250259911E+02  0.75247628726E+02  0.00000000000E+00 0.  1.
         11    1    3    3    0    0 -0.14277452046E+02  0.71706624423E+02 -0.50551010543E+02  0.88888077322E+02  0.00000000000E+00 0. -1.
         21    1    1    2  502  501  0.83782184633E+02 -0.80165638525E+02 -0.26309347306E+03  0.28751375555E+03  0.00000000000E+00 0. -1.
<scales pt_clust_5="13000.00000" pt_clust_6="13000.00000" pt_clust_7="13000.00000" pt_clust_8="13000.00000" pt_clust_9="115.95682"></scales>
<clustering>
<clus scale="   88.165">  7  8 -1 -1</clus>
<clus scale="   92.681">  5  6 -1 -1</clus>
<clus scale="  115.957">  2  9  1 -1</clus>
<clus scale="  147.342">  1  7  2 -1</clus>
<clus scale="  115.957">  2  5  1 -1</clus>
</clustering>
</event>
<event>
 9    1  0.5300912E-006  0.2261948E+03  0.7546771E-02  0.1152877E+00
         -1   -1    0    0    0  501 -0.00000000000E+00  0.00000000000E+00  0.17136525596E+03  0.17136525596E+03  0.00000000000E+00 0.  1.
          1   -1    0    0  502    0  0.00000000000E+00 -0.00000000000E+00 -0.55114697968E+03  0.55114697968E+03  0.00000000000E+00 0. -1.
         23    2    1    2    0    0  0.23347207169E+03  0.17828945442E+02 -0.11189373167E+02  0.25170343375E+03  0.91664262041E+02 0.  0.
         23    2    1    2    0    0 -0.72813571349E+02 -0.52291148380E+02 -0.17110923323E+03  0.21390730561E+03  0.91879188742E+02 0.  0.
        -13    1    3    3    0    0  0.22047869416E+03 -0.93644397109E+01 -0.15674182861E+02  0.22123342270E+03  0.00000000000E+00 0.  1.
         13    1    3    3    0    0  0.12993377531E+02  0.27193385153E+02  0.44848096933E+01  0.30470011056E+02  0.00000000000E+00 0. -1.
        -13    1    4    4    0    0  0.48778928828E+01  0.20883443799E+02 -0.24400624785E+02  0.32485420634E+02  0.00000000000E+00 0.  1.
         13    1    4    4    0    0 -0.77691464232E+02 -0.73174592179E+02 -0.14670860844E+03  0.18142188497E+03  0.00000000000E+00 0. -1.
         21    1    1    2  502  501 -0.16065850034E+03  0.34462202938E+02 -0.19748311732E+03  0.25690149628E+03  0.00000000000E+00 0. -1.
<scales pt_clust_5="13000.00000" pt_clust_6="13000.00000" pt_clust_7="13000.00000" pt_clust_8="13000.00000" pt_clust_9="206.78914"></scales>
<clustering>
<clus scale="   91.664">  5  6 -1 -1</clus>
<clus scale="   91.879">  7  8 -1 -1</clus>
<clus scale="  128.367">  2  7  1 -1</clus>
<clus scale="  206.789">  2  9  1 -1</clus>
<clus scale="  128.367">  2  5  1 -1</clus>
</clustering>
</event>
<event>
 9    1  0.5300912E-006  0.2136269E+03  0.7546771E-02  0.1150686E+00
         -2   -1    0    0    0  501 -0.00000000000E+00  0.00000000000E+00  0.66515126488E+02  0.66515126488E+02  0.00000000000E+00 0.  1.
          2   -1    0    0  502    0  0.00000000000E+00 -0.00000000000E+00 -0.14958866865E+04  0.14958866865E+04  0.00000000000E+00 0. -1.
         23    2    1    2    0    0  0.95499722949E+01  0.12709530875E+03 -0.20217518557E+03  0.25812404707E+03  0.97513068558E+02 0.  0.
         23    2    1    2    0    0 -0.10278570258E+03  0.11673124888E+03 -0.53004477514E+03  0.55985540998E+03  0.91101763535E+02 0.  0.
        -11    1    3    3    0    0 -0.37130015168E+02  0.90675856985E+02 -0.15023592683E+03  0.17936438548E+03  0.00000000000E+00 0. -1.
         11    1    3    3    0    0  0.46679987463E+02  0.36419451761E+02 -0.51939258739E+02  0.78759661594E+02  0.00000000000E+00 0.  1.
        -11    1    4    4    0    0 -0.21799514162E+02 -0.14304889606E+02 -0.84630302119E+02  0.88555839565E+02  0.00000000000E+00 0. -1.
         11    1    4    4    0    0 -0.80986188413E+02  0.13103613849E+03 -0.44541447302E+03  0.47129957042E+03  0.00000000000E+00 0.  1.
         21    1    1    2  502  501  0.93235730280E+02 -0.24382655763E+03 -0.69715159933E+03  0.74442235596E+03  0.00000000000E+00 0.  1.
<scales pt_clust_5="13000.00000" pt_clust_6="13000.00000" pt_clust_7="13000.00000" pt_clust_8="13000.00000" pt_clust_9="193.22763"></scales>
<clustering>
<clus scale="   91.102">  7  8 -1 -1</clus>
<clus scale="   97.513">  5  6 -1 -1</clus>
<clus scale="  160.478">  1  5  2 -1</clus>
<clus scale="  193.228">  1  9  2 -1</clus>
<clus scale="  213.627">  2  5  1 -1</clus>
</clustering>
</event>
<event>
 9    1  0.5300912E-006  0.1635614E+03  0.7546771E-02  0.1209220E+00
          3   -1    0    0  502    0  0.00000000000E+00  0.00000000000E+00  0.14616717760E+03  0.14616717760E+03  0.00000000000E+00 0. -1.
         -3   -1    0    0    0  501 -0.00000000000E+00 -0.00000000000E+00 -0.41573917981E+03  0.41573917981E+03  0.00000000000E+00 0.  1.
         23    2    1    2    0    0 -0.23608546972E+02 -0.18718332767E+02 -0.23699598781E+03  0.25563666047E+03  0.90968480624E+02 0.  0.
         23    2    1    2    0    0 -0.12051257081E+03  0.33153499939E+02 -0.46408633841E+02  0.16076845294E+03  0.89834847826E+02 0.  0.
        -13    1    3    3    0    0 -0.25660501506E+02 -0.47259093707E+02 -0.20823211307E+03  0.21506393512E+03  0.00000000000E+00 0. -1.
         13    1    3    3    0    0  0.20519545337E+01  0.28540760941E+02 -0.28763874747E+02  0.40572725357E+02  0.00000000000E+00 0.  1.
        -13    1    4    4    0    0 -0.70454690548E+02  0.19011253149E+02 -0.72246023175E+02  0.10268777450E+03  0.00000000000E+00 0.  1.
         13    1    4    4    0    0 -0.50057880262E+02  0.14142246790E+02  0.25837389335E+02  0.58080678442E+02  0.00000000000E+00 0. -1.
         21    1    1    2  502  501  0.14412111778E+03 -0.14435167172E+02  0.13832619444E+02  0.14550124399E+03  0.00000000000E+00 0. -1.
<scales pt_clust_5="13000.00000" pt_clust_6="13000.00000" pt_clust_7="13000.00000" pt_clust_8="13000.00000" pt_clust_9="136.68228"></scales>
<clustering>
<clus scale="   89.835">  7  8 -1 -1</clus>
<clus scale="   90.968">  5  6 -1 -1</clus>
<clus scale="   95.828">  2  5  1 -1</clus>
<clus scale="  136.682">  1  9  2 -1</clus>
<clus scale="  136.682">  1  5  2 -1</clus>
</clustering>
</event>
<event>
 9    1  0.5300912E-006  0.9515462E+02  0.7546771E-02  0.1293011E+00
          4   -1    0    0  502    0  0.00000000000E+00  0.00000000000E+00  0.44837516407E+02  0.44837516407E+02  0.00000000000E+00 0. -1.
         -4   -1    0    0    0  501 -0.00000000000E+00 -0.00000000000E+00 -0.27209135969E+03  0.27209135969E+03  0.00000000000E+00 0.  1.
         23    2    1    2    0    0 -0.25187886579E+02  0.97817858772E+01 -0.10404010060E+03  0.14310978421E+03  0.94477271542E+02 0.  0.
         23    2    1    2    0    0  0.68963759527E-01  0.26127458584E+01 -0.73393335039E+02  0.11666440950E+03  0.90648616206E+02 0.  0.
        -11    1    4    4    0    0  0.32135854042E+02  0.32011637859E+02 -0.25796625589E+02  0.52181643949E+02  0.00000000000E+00 0.  1.
         11    1    4    4    0    0 -0.32066890283E+02 -0.29398892000E+02 -0.47596709450E+02  0.64482765556E+02  0.00000000000E+00 0. -1.
        -13    1    3    3    0    0  0.26664263751E+02 -0.21765636456E+02 -0.21237408588E+02  0.40444448510E+02  0.00000000000E+00 0. -1.
         13    1    3    3    0    0 -0.51852150331E+02  0.31547422333E+02 -0.82802692011E+02  0.10266533570E+03  0.00000000000E+00 0.  1.
         21    1    1    2  502  501  0.25118922820E+02 -0.12394531736E+02 -0.49820407643E+02  0.57154682383E+02  0.00000000000E+00 0. -1.
<scales pt_clust_5="13000.00000" pt_clust_6="13000.00000" pt_clust_7="13000.00000" pt_clust_8="13000.00000" pt_clust_9="28.01044"></scales>
<clustering>
<clus scale="   28.010">  2  9  1 -1</clus>
<clus scale="   90.649">  5  6 -1 -1</clus>
<clus scale="   91.354">  1  5  2 -1</clus>
<clus scale="   94.477">  7  8 -1 -1</clus>
<clus scale="   91.354">  1  5  2 -1</clus>
</clustering>
</event>
<event>
 9    1  0.5300912E-006  0.9243778E+02  0.7546771E-02  0.1298214E+00
          2   -1    0    0  502    0  0.00000000000E+00  0.00000000000E+00  0.98030875231E+02  0.98030875231E+02  0.00000000000E+00 0. -1.
         -2   -1    0    0    0  501 -0.00000000000E+00 -0.00000000000E+00 -0.20938095437E+03  0.20938095437E+03  0.00000000000E+00 0.  1.
         23    2    1    2    0    0  0.35414641774E+02  0.56519610124E+01 -0.25380695738E+02  0.10216114143E+03  0.92231109653E+02 0.  0.
         23    2    1    2    0    0  0.15613181473E+02  0.11042408315E+02  0.12487478869E+02  0.93106609229E+02  0.90261826574E+02 0.  0.
        -11    1    3    3    0    0  0.32337220175E+02  0.45802670419E+02 -0.26193630771E+02  0.61884462663E+02  0.00000000000E+00 0. -1.
         11    1    3    3    0    0  0.30774215995E+01 -0.40150709406E+02  0.81293503308E+00  0.40276678772E+02  0.00000000000E+00 0.  1.
        -13    1    4    4    0    0 -0.19853050200E+02 -0.29561361357E+02 -0.60030720796E+01  0.36111695639E+02  0.00000000000E+00 0.  1.
         13    1    4    4    0    0  0.35466231673E+02  0.40603769673E+02  0.18490550949E+02  0.56994913590E+02  0.00000000000E+00 0. -1.
         21    1    1    2  502  501 -0.51027823247E+02 -0.16694369328E+02 -0.98456862271E+02  0.11214407894E+03  0.00000000000E+00 0.  1.
<scales pt_clust_5="13000.00000" pt_clust_6="13000.00000" pt_clust_7="13000.00000" pt_clust_8="13000.00000" pt_clust_9="53.68930"></scales>
<clustering>
<clus scale="   53.689">  2  9  1 -1</clus>
<clus scale="   90.262">  7  8 -1 -1</clus>
<clus scale="   90.473">  1  7  2 -1</clus>
<clus scale="   92.231">  5  6 -1 -1</clus>
<clus scale="   90.473">  1  5  2 -1</clus>
</clustering>
</event>
<event>
 9    1  0.5300912E-006  0.9688706E+02  0.7546771E-02  0.1299000E+00
          1   -1    0    0  502    0  0.00000000000E+00  0.00000000000E+00  0.42747637806E+03  0.42747637806E+03  0.00000000000E+00 0. -1.
         -1   -1    0    0    0  501 -0.00000000000E+00 -0.00000000000E+00 -0.53545301580E+02  0.53545301580E+02  0.00000000000E+00 0.  1.
         23    2    1    2    0    0 -0.17546108499E+02 -0.15897795966E+00  0.33410968435E+02  0.99596550718E+02  0.92169891536E+02 0.  0.
         23    2    1    2    0    0  0.38781391169E+02  0.50507615235E+02  0.11617911914E+03  0.15052514666E+03  0.71450798145E+02 0.  0.
        -11    1    3    3    0    0 -0.25634398580E+02  0.27460991335E+02  0.52868750956E+02  0.64856250765E+02  0.00000000000E+00 0. -1.
         11    1    3    3    0    0  0.80882900801E+01 -0.27619969295E+02 -0.19457782520E+02  0.34740299954E+02  0.00000000000E+00 0.  1.
        -13    1    4    4    0    0  0.40265064086E+02 -0.30495959871E+01  0.36032538756E+02  0.54119490673E+02  0.00000000000E+00 0.  1.
         13    1    4    4    0    0 -0.14836729170E+01  0.53557211222E+02  0.80146580388E+02  0.96405655991E+02  0.00000000000E+00 0. -1.
         21    1    1    2  502  501 -0.21235282669E+02 -0.50348637276E+02  0.22434098890E+03  0.23089998226E+03  0.00000000000E+00 0. -1.
<scales pt_clust_5="13000.00000" pt_clust_6="13000.00000" pt_clust_7="13000.00000" pt_clust_8="13000.00000" pt_clust_9="54.64360"></scales>
<clustering>
<clus scale="   54.644">  1  9  2 -1</clus>
<clus scale="   71.451">  7  8 -1 -1</clus>
<clus scale="   77.440">  1  7  2 -1</clus>
<clus scale="   92.170">  5  6 -1 -1</clus>
<clus scale="   54.644">  1  5  2 -1</clus>
</clustering>
</event>
<event>
 9    1  0.5300912E-006  0.1021814E+03  0.7546771E-02  0.1282977E+00
          1   -1    0    0  502    0  0.00000000000E+00  0.00000000000E+00  0.39475875471E+03  0.39475875471E+03  0.00000000000E+00 0. -1.
         -1   -1    0    0    0  501 -0.00000000000E+00 -0.00000000000E+00 -0.42402746412E+02  0.42402746412E+02  0.00000000000E+00 0.  1.
         23    2    1    2    0    0 -0.33117814259E+02 -0.25336300724E+02  0.55236875267E+02  0.10535112005E+03  0.79429392241E+02 0.  0.
         23    2    1    2    0    0  0.99855722747E+01  0.41176240746E+02  0.28141972675E+03  0.29967822153E+03  0.93887056607E+02 0.  0.
        -11    1    3    3    0    0 -0.78041237030E+01 -0.50680240880E+02  0.44666765480E+02  0.68003757990E+02  0.00000000000E+00 0.  1.
         11    1    3    3    0    0 -0.25313690556E+02  0.25343940156E+02  0.10570109787E+02  0.37347362064E+02  0.00000000000E+00 0. -1.
        -13    1    4    4    0    0 -0.35222429738E+02  0.44144566240E+02  0.13288226520E+03  0.14438510550E+03  0.00000000000E+00 0. -1.
         13    1    4    4    0    0  0.45208002013E+02 -0.29683254941E+01  0.14853746156E+03  0.15529311604E+03  0.00000000000E+00 0.  1.
         21    1    1    2  502  501  0.23132241984E+02 -0.15839940023E+02  0.15699406283E+02  0.32132159541E+02  0.00000000000E+00 0.  1.
<scales pt_clust_5="13000.00000" pt_clust_6="13000.00000" pt_clust_7="13000.00000" pt_clust_8="13000.00000" pt_clust_9="28.03577"></scales>
<clustering>
<clus scale="   28.036">  2  9  1 -1</clus>
<clus scale="   79.429">  5  6 -1 -1</clus>
<clus scale="   89.080">  2  5  1 -1</clus>
<clus scale="   93.887">  7  8 -1 -1</clus>
<clus scale="  102.181">  1  5  2 -1</clus>
</clustering>
</event>
<event>
 9    1  0.5300912E-006  0.9684855E+02  0.7546771E-02  0.1287405E+00
          3   -1    0    0  502    0  0.00000000000E+00  0.00000000000E+00  0.33988791282E+02  0.33988791282E+02  0.00000000000E+00 0. -1.
         -3   -1    0    0    0  501 -0.00000000000E+00 -0.00000000000E+00 -0.52341359536E+03  0.52341359536E+03  0.00000000000E+00 0.  1.
         23    2    1    2    0    0 -0.50546307479E+01 -0.60069970050E+02 -0.19633682659E+03  0.22442777272E+03  0.90474997099E+02 0.  0.
         23    2    1    2    0    0 -0.29602650281E+02  0.75927874985E+01 -0.16677986151E+03  0.19187634327E+03  0.89816711014E+02 0.  0.
        -11    1    3    3    0    0 -0.27721192576E+02  0.13062973655E+02 -0.40394679842E+02  0.50703411701E+02  0.00000000000E+00 0.  1.
         11    1    3    3    0    0  0.22666561828E+02 -0.73132943705E+02 -0.15594214674E+03  0.17372436102E+03  0.00000000000E+00 0. -1.
        -13    1    4    4    0    0 -0.56588707318E+02  0.19058886448E+02 -0.13985331400E+03  0.15206732846E+03  0.00000000000E+00 0.  1.
         13    1    4    4    0    0  0.26986057037E+02 -0.11466098949E+02 -0.26926547507E+02  0.39809014810E+02  0.00000000000E+00 0. -1.
         21    1    1    2  502  501  0.34657281029E+02  0.52477182551E+02 -0.12630811599E+03  0.14109827065E+03  0.00000000000E+00 0.  1.
<scales pt_clust_5="13000.00000" pt_clust_6="13000.00000" pt_clust_7="13000.00000" pt_clust_8="13000.00000" pt_clust_9="62.88865"></scales>
<clustering>
<clus scale="   62.889">  2  9  1 -1</clus>
<clus scale="   89.817">  7  8 -1 -1</clus>
<clus scale="   90.475">  5  6 -1 -1</clus>
<clus scale="   96.234">  1  7  2 -1</clus>
<clus scale="   96.234">  1  5  2 -1</clus>
</clustering>
</event>
<event>
 9    1  0.5300912E-006  0.1169690E+03  0.7546771E-02  0.1249286E+00
         -3   -1    0    0    0  501 -0.00000000000E+00  0.00000000000E+00  0.45518437183E+03  0.45518437183E+03  0.00000000000E+00 0.  1.
          3   -1    0    0  502    0  0.00000000000E+00 -0.00000000000E+00 -0.48886111221E+02  0.48886111221E+02  0.00000000000E+00 0. -1.
         23    2    1    2    0    0 -0.69849871650E+02 -0.26216401388E+02  0.26335071118E+03  0.28933494894E+03  0.93780655417E+02 0.  0.
         23    2    1    2    0    0  0.30817563426E+02  0.49181737022E+02  0.11666772107E+03  0.16237565343E+03  0.96881010597E+02 0.  0.
        -13    1    4    4    0    0 -0.41718411198E+01  0.63785926173E+02  0.36292181904E+02  0.73506265742E+02  0.00000000000E+00 0.  1.
         13    1    4    4    0    0  0.34989404546E+02 -0.14604189151E+02  0.80375539167E+02  0.88869387686E+02  0.00000000000E+00 0. -1.
        -13    1    3    3    0    0 -0.15457381461E+01 -0.20660114797E+02  0.40225106636E+01  0.21104744535E+02  0.00000000000E+00 0. -1.
         13    1    3    3    0    0 -0.68304133504E+02 -0.55562865907E+01  0.25932820052E+03  0.26823020441E+03  0.00000000000E+00 0.  1.
         21    1    1    2  502  501  0.39032308224E+02 -0.22965335634E+02  0.26279828355E+02  0.52359880676E+02  0.00000000000E+00 0.  1.
<scales pt_clust_5="13000.00000" pt_clust_6="13000.00000" pt_clust_7="13000.00000" pt_clust_8="13000.00000" pt_clust_9="45.28717"></scales>
<clustering>
<clus scale="   45.287">  2  9  1 -1</clus>
<clus scale="   93.781">  7  8 -1 -1</clus>
<clus scale="   96.881">  5  6 -1 -1</clus>
<clus scale="  114.414">  1  7  2 -1</clus>
<clus scale="   45.287">  2  5  1 -1</clus>
</clustering>
</event>
<event>
 9    1  0.5300912E-006  0.9830399E+02  0.7546771E-02  0.1284412E+00
          1   -1    0    0  502    0  0.00000000000E+00  0.00000000000E+00  0.35505461922E+03  0.35505461922E+03  0.00000000000E+00 0. -1.
         -1   -1    0    0    0  501 -0.00000000000E+00 -0.00000000000E+00 -0.11767666066E+03  0.11767666066E+03  0.00000000000E+00 0.  1.
         23    2    1    2    0    0 -0.44505570110E+02  0.42982758225E+02 -0.54932160090E+02  0.12183191718E+03  0.89427124279E+02 0.  0.
         23    2    1    2    0    0  0.37620543481E+02 -0.14335680200E+01  0.29282518926E+03  0.30878043469E+03  0.90451119254E+02 0.  0.
        -11    1    3    3    0    0 -0.11240088591E+02  0.52901907141E+02 -0.66063849938E+02  0.85377887298E+02  0.00000000000E+00 0. -1.
         11    1    3    3    0    0 -0.33265481520E+02 -0.99191489167E+01  0.11131689848E+02  0.36454029885E+02  0.00000000000E+00 0.  1.
        -13    1    4    4    0    0 -0.72430703708E+01 -0.25066574515E+02  0.24789707851E+02  0.35990621580E+02  0.00000000000E+00 0.  1.
         13    1    4    4    0    0  0.44863613851E+02  0.23633006495E+02  0.26803548141E+03  0.27278981311E+03  0.00000000000E+00 0. -1.
         21    1    1    2  502  501  0.68850266295E+01 -0.41549190205E+02 -0.51507060468E+00  0.42118928002E+02  0.00000000000E+00 0.  1.
<scales pt_clust_5="13000.00000" pt_clust_6="13000.00000" pt_clust_7="13000.00000" pt_clust_8="13000.00000" pt_clust_9="42.11578"></scales>
<clustering>
<clus scale="   42.116">  2  9  1 -1</clus>
<clus scale="   89.427">  5  6 -1 -1</clus>
<clus scale="   90.451">  7  8 -1 -1</clus>
<clus scale="   97.363">  2  5  1 -1</clus>
<clus scale="   98.304">  1  5  2 -1</clus>
</clustering>
</event>
<event>
 9    1  0.5300912E-006  0.1013406E+03  0.7546771E-02  0.1281346E+00
          4   -1    0    0  502    0  0.00000000000E+00  0.00000000000E+00  0.20750866994E+03  0.20750866994E+03  0.00000000000E+00 0. -1.
         -4   -1    0    0    0  501 -0.00000000000E+00 -0.00000000000E+00 -0.11251485808E+03  0.11251485808E+03  0.00000000000E+00 0.  1.
         23    2    1    2    0    0 -0.89306999476E+01  0.24682186799E+02  0.18560611128E+02  0.99641989244E+02  0.94313636279E+02 0.  0.
         23    2    1    2    0    0  0.35122768260E+02 -0.24650379380E+02  0.12927914540E+03  0.16140086972E+03  0.86578826842E+02 0.  0.
        -11    1    4    4    0    0  0.56946845920E+02 -0.25815284682E+02  0.12406880888E+03  0.13893322684E+03  0.00000000000E+00 0. -1.
         11    1    4    4    0    0 -0.21824077659E+02  0.11649053016E+01  0.52103365242E+01  0.22467642883E+02  0.00000000000E+00 0.  1.
        -13    1    3    3    0    0  0.20306204485E+02  0.45704109016E+02 -0.13093030665E+02  0.51697533534E+02  0.00000000000E+00 0.  1.
         13    1    3    3    0    0 -0.29236904433E+02 -0.21021922217E+02  0.31653641793E+02  0.47944455710E+02  0.00000000000E+00 0. -1.
         21    1    1    2  502  501 -0.26192068313E+02 -0.31807418338E-01 -0.52845944668E+02  0.58980669054E+02  0.00000000000E+00 0. -1.
<scales pt_clust_5="13000.00000" pt_clust_6="13000.00000" pt_clust_7="13000.00000" pt_clust_8="13000.00000" pt_clust_9="26.19209"></scales>
<clustering>
<clus scale="   26.192">  2  9  1 -1</clus>
<clus scale="   86.579">  5  6 -1 -1</clus>
<clus scale="   94.185">  1  5  2 -1</clus>
<clus scale="   94.314">  7  8 -1 -1</clus>
<clus scale="   94.185">  1  5  2 -1</clus>
</clustering>
</event>
<event>
 9    1  0.5300912E-006  0.1205997E+03  0.7546771E-02  0.1242910E+00
         -2   -1    0    0    0  501 -0.00000000000E+00  0.00000000000E+00  0.47649622145E+02  0.47649622145E+02  0.00000000000E+00 0.  1.
          2   -1    0    0  502    0  0.00000000000E+00 -0.00000000000E+00 -0.68303031094E+03  0.68303031094E+03  0.00000000000E+00 0. -1.
         23    2    1    2    0    0  0.32839042069E+02 -0.79430269212E+02 -0.71576405924E+02  0.14540532318E+03  0.92908319177E+02 0.  0.
         23    2    1    2    0    0 -0.42919237715E+01  0.39320044318E+02 -0.45898836220E+03  0.46947242802E+03  0.90385604717E+02 0.  0.
        -13    1    3    3    0    0  0.62241731248E+02 -0.33777509299E+02 -0.29524510712E+02  0.76724507010E+02  0.00000000000E+00 0.  1.
         13    1    3    3    0    0 -0.29402689178E+02 -0.45652759912E+02 -0.42051895211E+02  0.68680816167E+02  0.00000000000E+00 0. -1.
        -13    1    4    4    0    0 -0.45029011728E+02  0.51942228765E+01 -0.19677771641E+03  0.20193083351E+03  0.00000000000E+00 0.  1.
         13    1    4    4    0    0  0.40737087956E+02  0.34125821441E+02 -0.26221064579E+03  0.26754159450E+03  0.00000000000E+00 0. -1.
         21    1    1    2  502  501 -0.28547118298E+02  0.40110224894E+02 -0.10481592068E+03  0.11580218189E+03  0.00000000000E+00 0. -1.
<scales pt_clust_5="13000.00000" pt_clust_6="13000.00000" pt_clust_7="13000.00000" pt_clust_8="13000.00000" pt_clust_9="49.23178"></scales>
<clustering>
<clus scale="   49.232">  2  9  1 -1</clus>
<clus scale="   90.386">  7  8 -1 -1</clus>
<clus scale="   92.908">  5  6 -1 -1</clus>
<clus scale="  118.667">  2  7  1 -1</clus>
<clus scale="   49.232">  2  5  1 -1</clus>
</clustering>
</event>
<event>
 9    1  0.5300912E-006  0.2316632E+03  0.7546771E-02  0.1148325E+00
         -2   -1    0    0    0  501 -0.00000000000E+00  0.00000000000E+00  0.95340547345E+02  0.95340547345E+02  0.00000000000E+00 0.  1.
          2   -1    0    0  502    0  0.00000000000E+00 -0.00000000000E+00 -0.13276620040E+04  0.13276620040E+04  0.00000000000E+00 0. -1.
         23    2    1    2    0    0 -0.67534220866E+02 -0.61701383077E+02 -0.20488900536E+03  0.24431616957E+03  0.96658959923E+02 0.  0.
         23    2    1    2    0    0 -0.17041568960E+03  0.11922739537E+03 -0.84042423886E+03  0.87062555419E+03  0.91756608842E+02 0.  0.
        -13    1    3    3    0    0 -0.11347978358E+02  0.26307115274E+02 -0.45755175998E+02  0.53984970663E+02  0.00000000000E+00 0. -1.
         13    1    3    3    0    0 -0.56186242507E+02 -0.88008498352E+02 -0.15913382936E+03  0.19033119890E+03  0.00000000000E+00 0.  1.
        -13    1    4    4    0    0 -0.21212012585E+01  0.34031169179E+02 -0.76457160117E+02  0.83715693294E+02  0.00000000000E+00 0.  1.
         13    1    4    4    0    0 -0.16829448835E+03  0.85196226196E+02 -0.76396707875E+03  0.78690986090E+03  0.00000000000E+00 0. -1.
         21    1    1    2  502  501  0.23794991047E+03 -0.57526012298E+02 -0.18700821245E+03  0.30806082761E+03  0.00000000000E+00 0.  1.
<scales pt_clust_5="13000.00000" pt_clust_6="13000.00000" pt_clust_7="13000.00000" pt_clust_8="13000.00000" pt_clust_9="212.71705"></scales>
<clustering>
<clus scale="   91.757">  7  8 -1 -1</clus>
<clus scale="   96.659">  5  6 -1 -1</clus>
<clus scale="  133.082">  1  5  2 -1</clus>
<clus scale="  212.717">  1  9  2 -1</clus>
<clus scale="  231.663">  2  5  1 -1</clus>
</clustering>
</event>
<event>
 9    1  0.5300912E-006  0.1582723E+03  0.7546771E-02  0.1190726E+00
          3   -1    0    0  502    0  0.00000000000E+00  0.00000000000E+00  0.10168167905E+03  0.10168167905E+03  0.00000000000E+00 0. -1.
         -3   -1    0    0    0  501 -0.00000000000E+00 -0.00000000000E+00 -0.66184687901E+03  0.66184687901E+03  0.00000000000E+00 0.  1.
         23    2    1    2    0    0  0.50521752356E+02 -0.13706984049E+03 -0.37032145023E+03  0.40844884189E+03  0.91388682607E+02 0.  0.
         23    2    1    2    0    0  0.35281734447E+02  0.12563773569E+03 -0.14770542042E+02  0.15977595425E+03  0.90997501223E+02 0.  0.
        -11    1    3    3    0    0  0.47905322373E+02 -0.79865139698E+02 -0.12130145248E+03  0.15292940470E+03  0.00000000000E+00 0. -1.
         11    1    3    3    0    0  0.26164299828E+01 -0.57204700794E+02 -0.24901999776E+03  0.25551943719E+03  0.00000000000E+00 0.  1.
        -11    1    4    4    0    0 -0.23622886414E+02  0.63575968524E+02 -0.27658090834E+02  0.73245576828E+02  0.00000000000E+00 0.  1.
         11    1    4    4    0    0  0.58904620861E+02  0.62061767171E+02  0.12887548792E+02  0.86530377424E+02  0.00000000000E+00 0. -1.
         21    1    1    2  502  501 -0.85803486803E+02  0.11432104798E+02 -0.17507320769E+03  0.19530376191E+03  0.00000000000E+00 0.  1.
<scales pt_clust_5="13000.00000" pt_clust_6="13000.00000" pt_clust_7="13000.00000" pt_clust_8="13000.00000" pt_clust_9="86.56172"></scales>
<clustering>
<clus scale="   86.562">  2  9  1 -1</clus>
<clus scale="   90.998">  7  8 -1 -1</clus>
<clus scale="   91.389">  5  6 -1 -1</clus>
<clus scale="  158.047">  1  7  2 -1</clus>
<clus scale="  158.047">  1  5  2 -1</clus>
</clustering>
</event>
<event>
 9    1  0.5300912E-006  0.9734335E+02  0.7546771E-02  0.1286719E+00
         -3   -1    0    0    0  501 -0.00000000000E+00  0.00000000000E+00  0.44896447267E+03  0.44896447267E+03  0.00000000000E+00 0.  1.
          3   -1    0    0  502    0  0.00000000000E+00 -0.00000000000E+00 -0.27383664345E+02  0.27383664345E+02  0.00000000000E+00 0. -1.
         23    2    1    2    0    0 -0.29971436941E+02  0.54095759668E+00  0.24352776947E+03  0.26244396470E+03  0.93126153337E+02 0.  0.
         23    2    1    2    0    0  0.22470649793E+02 -0.20932648303E+02  0.14841769433E+03  0.17715724724E+03  0.91726617685E+02 0.  0.
        -11    1    3    3    0    0 -0.23817502411E+02 -0.45143614412E+02  0.11229984020E+03  0.12335507064E+03  0.00000000000E+00 0. -1.
         11    1    3    3    0    0 -0.61539345307E+01  0.45684572009E+02  0.13122792927E+03  0.13908889406E+03  0.00000000000E+00 0.  1.
        -13    1    4    4    0    0  0.33133308278E+02  0.26505765865E+01  0.77530765505E+01  0.34131391265E+02  0.00000000000E+00 0.  1.
         13    1    4    4    0    0 -0.10662658484E+02 -0.23583224889E+02  0.14066461778E+03  0.14302585597E+03  0.00000000000E+00 0. -1.
         21    1    1    2  502  501  0.75007871481E+01  0.20391690706E+02  0.29635344523E+02  0.36746925078E+02  0.00000000000E+00 0. -1.
<scales pt_clust_5="13000.00000" pt_clust_6="13000.00000" pt_clust_7="13000.00000" pt_clust_8="13000.00000" pt_clust_9="21.72747"></scales>
<clustering>
<clus scale="   21.727">  2  9  1 -1</clus>
<clus scale="   91.727">  7  8 -1 -1</clus>
<clus scale="   93.126">  5  6 -1 -1</clus>
<clus scale="   96.005">  2  7  1 -1</clus>
<clus scale="   21.727">  2  5  1 -1</clus>
</clustering>
</event>
<event>
 9    1  0.5300912E-006  0.2420736E+03  0.7546771E-02  0.1118668E+00
          3   -1    0    0  502    0  0.00000000000E+00  0.00000000000E+00  0.24832155806E+03  0.24832155806E+03  0.00000000000E+00 0. -1.
         -3   -1    0    0    0  501 -0.00000000000E+00 -0.00000000000E+00 -0.39262043453E+03  0.39262043453E+03  0.00000000000E+00 0.  1.
         23    2    1    2    0    0  0.25307847849E+03  0.14177243474E+02 -0.17920988348E+03  0.32373691999E+03  0.91867842699E+02 0.  0.
         23    2    1    2    0    0 -0.16412602446E+03 -0.77752052156E+02  0.47212794021E+02  0.20717948767E+03  0.87815480816E+02 0.  0.
        -11    1    4    4    0    0 -0.12693048967E+03 -0.96904921230E+02  0.33660362961E+02  0.16320212315E+03  0.00000000000E+00 0.  1.
         11    1    4    4    0    0 -0.37195534791E+02  0.19152869074E+02  0.13552431059E+02  0.43977364516E+02  0.00000000000E+00 0. -1.
        -13    1    3    3    0    0  0.81769412393E+02 -0.31047510468E+02 -0.89501339438E+02  0.12514261652E+03  0.00000000000E+00 0.  1.
         13    1    3    3    0    0  0.17130906609E+03  0.45224753942E+02 -0.89708544044E+02  0.19859430347E+03  0.00000000000E+00 0. -1.
         21    1    1    2  502  501 -0.88952454022E+02  0.63574808682E+02 -0.12301787009E+02  0.11002558493E+03  0.00000000000E+00 0.  1.
<scales pt_clust_5="13000.00000" pt_clust_6="13000.00000" pt_clust_7="13000.00000" pt_clust_8="13000.00000" pt_clust_9="109.33570"></scales>
<clustering>
<clus scale="   87.815">  5  6 -1 -1</clus>
<clus scale="   91.868">  7  8 -1 -1</clus>
<clus scale="  109.336">  1  9  2 -1</clus>
<clus scale="  240.565">  1  5  2 -1</clus>
<clus scale="  109.336">  1  5  2 -1</clus>
</clustering>
</event>
<event>
 9    1  0.5300912E-006  0.1425195E+03  0.7546771E-02  0.1229646E+00
         -1   -1    0    0    0  501 -0.00000000000E+00  0.00000000000E+00  0.39581303009E+03  0.39581303009E+03  0.00000000000E+00 0.  1.
          1   -1    0    0  502    0  0.00000000000E+00 -0.00000000000E+00 -0.14592944115E+03  0.14592944115E+03  0.00000000000E+00 0. -1.
         23    2    1    2    0    0  0.99890721169E+02 -0.26844126012E+02  0.19534319543E+03  0.23884921209E+03  0.90505352540E+02 0.  0.
         23    2    1    2    0    0  0.46810752323E+01 -0.28536859076E+02 -0.80045633096E+02  0.12368468607E+03  0.89745938060E+02 0.  0.
        -11    1    3    3    0    0  0.67312055362E+01  0.25226580838E+02  0.17469177445E+02  0.31414354511E+02  0.00000000000E+00 0.  1.
         11    1    3    3    0    0  0.93159515633E+02 -0.52070706850E+02  0.17787401799E+03  0.20743485758E+03  0.00000000000E+00 0. -1.
        -13    1    4    4    0    0  0.43985468678E+02  0.27211803191E+01 -0.37802608180E+02  0.58061721146E+02  0.00000000000E+00 0. -1.
         13    1    4    4    0    0 -0.39304393446E+02 -0.31258039395E+02 -0.42243024916E+02  0.65622964921E+02  0.00000000000E+00 0.  1.
         21    1    1    2  502  501 -0.10457179640E+03  0.55380985088E+02  0.13458602660E+03  0.17920857309E+03  0.00000000000E+00 0.  1.
<scales pt_clust_5="13000.00000" pt_clust_6="13000.00000" pt_clust_7="13000.00000" pt_clust_8="13000.00000" pt_clust_9="110.09350"></scales>
<clustering>
<clus scale="   89.746">  7  8 -1 -1</clus>
<clus scale="   90.505">  5  6 -1 -1</clus>
<clus scale="   94.290">  2  7  1 -1</clus>
<clus scale="  110.094">  2  9  1 -1</clus>
<clus scale="   94.290">  2  5  1 -1</clus>
</clustering>
</event>
<event>
 9    1  0.5300912E-006  0.9445247E+02  0.7546771E-02  0.1292473E+00
         -2   -1    0    0    0  501 -0.00000000000E+00  0.00000000000E+00  0.38588088502E+02  0.38588088502E+02  0.00000000000E+00 0.  1.
          2   -1    0    0  502    0  0.00000000000E+00 -0.00000000000E+00 -0.67770386884E+03  0.67770386884E+03  0.00000000000E+00 0. -1.
         23    2    1    2    0    0 -0.38595953207E+02 -0.54094324511E+02 -0.13360419641E+03  0.17441967798E+03  0.90312231836E+02 0.  0.
         23    2    1    2    0    0  0.16372613010E+02  0.11068404844E+02 -0.47661844460E+03  0.48548149898E+03  0.90202949359E+02 0.  0.
        -11    1    3    3    0    0 -0.59165022395E+02 -0.60054548626E+01 -0.64154141257E+02  0.87477535423E+02  0.00000000000E+00 0. -1.
         11    1    3    3    0    0  0.20569069189E+02 -0.48088869649E+02 -0.69450055151E+02  0.86942142554E+02  0.00000000000E+00 0.  1.
        -11    1    4    4    0    0 -0.26276805810E+02  0.34605231914E+02 -0.20969417772E+03  0.21414864176E+03  0.00000000000E+00 0. -1.
         11    1    4    4    0    0  0.42649418820E+02 -0.23536827069E+02 -0.26692426688E+03  0.27133285722E+03  0.00000000000E+00 0.  1.
         21    1    1    2  502  501  0.22223340196E+02  0.43025919667E+02 -0.28893139333E+02  0.56390780392E+02  0.00000000000E+00 0. -1.
<scales pt_clust_5="13000.00000" pt_clust_6="13000.00000" pt_clust_7="13000.00000" pt_clust_8="13000.00000" pt_clust_9="48.42630"></scales>
<clustering>
<clus scale="   48.426">  1  9  2 -1</clus>
<clus scale="   90.203">  7  8 -1 -1</clus>
<clus scale="   90.312">  5  6 -1 -1</clus>
<clus scale="   94.348">  2  7  1 -1</clus>
<clus scale="   94.348">  2  5  1 -1</clus>
</clustering>
</event>
<event>
 9    1  0.5300912E-006  0.9543105E+02  0.7546771E-02  0.1290636E+00
         -1   -1    0    0    0  501 -0.00000000000E+00  0.00000000000E+00  0.12825366320E+03  0.12825366320E+03  0.00000000000E+00 0.  1.
          1   -1    0    0  502    0  0.00000000000E+00 -0.00000000000E+00 -0.21210190517E+03  0.21210190517E+03  0.00000000000E+00 0. -1.
         23    2    1    2    0    0 -0.10530993979E+02  0.45891698589E+02  0.17970139407E+02  0.10392550849E+03  0.90888038662E+02 0.  0.
         23    2    1    2    0    0 -0.25881610197E+02 -0.12088090514E+02 -0.14275912741E+03  0.17205066607E+03  0.91680333525E+02 0.  0.
        -11    1    4    4    0    0 -0.20754422803E+02  0.38650694832E+02 -0.52853689866E+02  0.68688680358E+02  0.00000000000E+00 0. -1.
         11    1    4    4    0    0 -0.51271873932E+01 -0.50738785346E+02 -0.89905437548E+02  0.10336198571E+03  0.00000000000E+00 0.  1.
        -11    1    3    3    0    0 -0.25343076666E+02  0.20779346230E+02 -0.32170987034E+02  0.45924124068E+02  0.00000000000E+00 0. -1.
         11    1    3    3    0    0  0.14812082687E+02  0.25112352360E+02  0.50141126442E+02  0.58001384427E+02  0.00000000000E+00 0.  1.
         21    1    1    2  502  501  0.36412604175E+02 -0.33803608075E+02  0.40940746037E+02  0.64379393813E+02  0.00000000000E+00 0. -1.
<scales pt_clust_5="13000.00000" pt_clust_6="13000.00000" pt_clust_7="13000.00000" pt_clust_8="13000.00000" pt_clust_9="49.68462"></scales>
<clustering>
<clus scale="   49.685">  1  9  2 -1</clus>
<clus scale="   90.888">  7  8 -1 -1</clus>
<clus scale="   91.680">  5  6 -1 -1</clus>
<clus scale="   94.670">  1  7  2 -1</clus>
<clus scale="   95.431">  2  5  1 -1</clus>
</clustering>
</event>
<event>
 9    1  0.5300912E-006  0.9677519E+02  0.7546771E-02  0.1309851E+00
         -1   -1    0    0    0  501 -0.00000000000E+00  0.00000000000E+00  0.14346452653E+03  0.14346452653E+03  0.00000000000E+00 0.  1.
          1   -1    0    0  502    0  0.00000000000E+00 -0.00000000000E+00 -0.11337157882E+03  0.11337157882E+03  0.00000000000E+00 0. -1.
         23    2    1    2    0    0  0.99222592605E+00 -0.32470592653E+02  0.97525134105E+02  0.11700595549E+03  0.55892020349E+02 0.  0.
         23    2    1    2    0    0  0.17873913173E+02  0.16362884688E+02 -0.40569477080E+02  0.10326521293E+03  0.91818304078E+02 0.  0.
        -11    1    3    3    0    0  0.20182308986E+02 -0.46245503819E+01  0.71199986112E+02  0.74149511695E+02  0.00000000000E+00 0.  1.
         11    1    3    3    0    0 -0.19190083060E+02 -0.27846042271E+02  0.26325147993E+02  0.42856443796E+02  0.00000000000E+00 0. -1.
        -11    1    4    4    0    0 -0.28709010341E+02  0.23111322912E+02 -0.42376354483E+02  0.56161338488E+02  0.00000000000E+00 0. -1.
         11    1    4    4    0    0  0.46582923515E+02 -0.67484382233E+01  0.18068774032E+01  0.47103874443E+02  0.00000000000E+00 0.  1.
         21    1    1    2  502  501 -0.18866139099E+02  0.16107707965E+02 -0.26862709316E+02  0.36564936923E+02  0.00000000000E+00 0.  1.
<scales pt_clust_5="13000.00000" pt_clust_6="13000.00000" pt_clust_7="13000.00000" pt_clust_8="13000.00000" pt_clust_9="24.80704"></scales>
<clustering>
<clus scale="   24.807">  2  9  1 -1</clus>
<clus scale="   55.892">  5  6 -1 -1</clus>
<clus scale="   63.708">  1  5  2 -1</clus>
<clus scale="   91.818">  7  8 -1 -1</clus>
<clus scale="   24.807">  2  5  1 -1</clus>
</clustering>
</event>
<event>
 9    1  0.5300912E-006  0.9337680E+02  0.7546771E-02  0.1295962E+00
         -1   -1    0    0    0  501 -0.00000000000E+00  0.00000000000E+00  0.29772246596E+03  0.29772246596E+03  0.00000000000E+00 0.  1.
          1   -1    0    0  502    0  0.00000000000E+00 -0.00000000000E+00 -0.40830629816E+02  0.40830629816E+02  0.00000000000E+00 0. -1.
         23    2    1    2    0    0  0.95921053203E+01  0.91121428164E+00  0.12735858302E+03  0.15602984339E+03  0.89622902002E+02 0.  0.
         23    2    1    2    0    0 -0.37456908378E+02  0.84811279326E+01  0.79229793685E+02  0.12425575396E+03  0.87676579929E+02 0.  0.
        -11    1    4    4    0    0 -0.44493170459E+01  0.37210214242E+02  0.46183723902E+01  0.37758784801E+02  0.00000000000E+00 0. -1.
         11    1    4    4    0    0 -0.33007591332E+02 -0.28729086309E+02  0.74611421295E+02  0.86496969157E+02  0.00000000000E+00 0.  1.
        -11    1    3    3    0    0 -0.59276890882E+01  0.42412847433E+02  0.42690652958E+02  0.60468826475E+02  0.00000000000E+00 0. -1.
         11    1    3    3    0    0  0.15519794408E+02 -0.41501633151E+02  0.84667930061E+02  0.95561016913E+02  0.00000000000E+00 0.  1.
         21    1    1    2  502  501  0.27864803057E+02 -0.93923422143E+01  0.50303459438E+02  0.58267498429E+02  0.00000000000E+00 0.  1.
<scales pt_clust_5="13000.00000" pt_clust_6="13000.00000" pt_clust_7="13000.00000" pt_clust_8="13000.00000" pt_clust_9="29.40516"></scales>
<clustering>
<clus scale="   29.405">  1  9  2 -1</clus>
<clus scale="   87.677">  5  6 -1 -1</clus>
<clus scale="   89.623">  7  8 -1 -1</clus>
<clus scale="   91.510">  2  5  1 -1</clus>
<clus scale="   91.510">  2  5  1 -1</clus>
</clustering>
</event>
<event>
 9    1  0.5300912E-006  0.1698939E+03  0.7546771E-02  0.1204886E+00
          1   -1    0    0  502    0  0.00000000000E+00  0.00000000000E+00  0.30909636404E+03  0.30909636404E+03  0.00000000000E+00 0. -1.
         -1   -1    0    0    0  501 -0.00000000000E+00 -0.00000000000E+00 -0.37207618813E+03  0.37207618813E+03  0.00000000000E+00 0.  1.
         23    2    1    2    0    0  0.20087106059E+02 -0.12153958031E+02 -0.24464065760E+03  0.26202147974E+03  0.90856997365E+02 0.  0.
         23    2    1    2    0    0 -0.46716521998E+02  0.14946316520E+03 -0.10078778812E+02  0.18181792451E+03  0.91839559617E+02 0.  0.
        -13    1    3    3    0    0 -0.11533916752E+02 -0.44330472987E+02 -0.15563090708E+03  0.16223193677E+03  0.00000000000E+00 0. -1.
         13    1    3    3    0    0  0.31621022811E+02  0.32176514956E+02 -0.89009750521E+02  0.99789542970E+02  0.00000000000E+00 0.  1.
        -13    1    4    4    0    0  0.13513128642E+02  0.33436088744E+02 -0.33249480358E+02  0.49052060305E+02  0.00000000000E+00 0. -1.
         13    1    4    4    0    0 -0.60229650640E+02  0.11602707646E+03  0.23170701545E+02  0.13276586420E+03  0.00000000000E+00 0.  1.
         21    1    1    2  502  501  0.26629415940E+02 -0.13730920717E+03  0.19173961233E+03  0.23733314792E+03  0.00000000000E+00 0. -1.
<scales pt_clust_5="13000.00000" pt_clust_6="13000.00000" pt_clust_7="13000.00000" pt_clust_8="13000.00000" pt_clust_9="142.93151"></scales>
<clustering>
<clus scale="   90.857">  5  6 -1 -1</clus>
<clus scale="   91.840">  7  8 -1 -1</clus>
<clus scale="   93.841">  2  5  1 -1</clus>
<clus scale="  142.932">  1  9  2 -1</clus>
<clus scale="  142.932">  1  5  2 -1</clus>
</clustering>
</event>
<event>
 9    1  0.5300912E-006  0.1984003E+03  0.7546771E-02  0.1151109E+00
         -2   -1    0    0    0  501 -0.00000000000E+00  0.00000000000E+00  0.43972375815E+02  0.43972375815E+02  0.00000000000E+00 0.  1.
          2   -1    0    0  502    0  0.00000000000E+00 -0.00000000000E+00 -0.12601627079E+04  0.12601627079E+04  0.00000000000E+00 0. -1.
         23    2    1    2    0    0  0.15158122363E+03  0.54000302817E+02 -0.45905768259E+03  0.49491250059E+03  0.91167577775E+02 0.  0.
         23    2    1    2    0    0 -0.16050421922E+03 -0.11172376269E+03 -0.48440200868E+03  0.53030750625E+03  0.91306854208E+02 0.  0.
        -11    1    3    3    0    0  0.13482248967E+03  0.97008928185E+01 -0.37212795018E+03  0.39591719128E+03  0.00000000000E+00 0.  1.
         11    1    3    3    0    0  0.16758733963E+02  0.44299409999E+02 -0.86929732408E+02  0.98995309318E+02  0.00000000000E+00 0. -1.
        -13    1    4    4    0    0 -0.91158631064E+02 -0.18536237126E+02 -0.15213375209E+03  0.17832040441E+03  0.00000000000E+00 0.  1.
         13    1    4    4    0    0 -0.69345588159E+02 -0.93187525568E+02 -0.33226825659E+03  0.35198710184E+03  0.00000000000E+00 0. -1.
         21    1    1    2  502  501  0.89229955930E+01  0.57723459877E+02 -0.27273064077E+03  0.27891507684E+03  0.00000000000E+00 0. -1.
<scales pt_clust_5="13000.00000" pt_clust_6="13000.00000" pt_clust_7="13000.00000" pt_clust_8="13000.00000" pt_clust_9="58.40905"></scales>
<clustering>
<clus scale="   58.409">  2  9  1 -1</clus>
<clus scale="   91.168">  5  6 -1 -1</clus>
<clus scale="   91.307">  7  8 -1 -1</clus>
<clus scale="  198.336">  1  5  2 -1</clus>
<clus scale="   58.409">  2  5  1 -1</clus>
</clustering>
</event>
<event>
 9    1  0.5300912E-006  0.9547232E+02  0.7546771E-02  0.1292408E+00
         -1   -1    0    0    0  501 -0.00000000000E+00  0.00000000000E+00  0.11886004959E+03  0.11886004959E+03  0.00000000000E+00 0.  1.
          1   -1    0    0  502    0  0.00000000000E+00 -0.00000000000E+00 -0.35164033320E+03  0.35164033320E+03  0.00000000000E+00 0. -1.
         23    2    1    2    0    0 -0.12701201933E+02 -0.28673404545E+01  0.87684242416E+02  0.12947542066E+03  0.94370631110E+02 0.  0.
         23    2    1    2    0    0  0.33024871514E+02  0.33246717357E+01 -0.25998920119E+03  0.27722429119E+03  0.90317369926E+02 0.  0.
        -11    1    3    3    0    0 -0.32313086575E+02 -0.37350477450E+02  0.25158522361E+02  0.55426933679E+02  0.00000000000E+00 0. -1.
         11    1    3    3    0    0  0.19611884642E+02  0.34483136995E+02  0.62525720055E+02  0.74048486984E+02  0.00000000000E+00 0.  1.
        -13    1    4    4    0    0  0.20952074569E+02  0.45444563949E+02 -0.10771788981E+03  0.11877433059E+03  0.00000000000E+00 0.  1.
         13    1    4    4    0    0  0.12072796945E+02 -0.42119892213E+02 -0.15227131138E+03  0.15844996060E+03  0.00000000000E+00 0. -1.
         21    1    1    2  502  501 -0.20323669580E+02 -0.45733128120E+00 -0.60475324843E+02  0.63800670937E+02  0.00000000000E+00 0. -1.
<scales pt_clust_5="13000.00000" pt_clust_6="13000.00000" pt_clust_7="13000.00000" pt_clust_8="13000.00000" pt_clust_9="20.32881"></scales>
<clustering>
<clus scale="   20.329">  2  9  1 -1</clus>
<clus scale="   90.317">  7  8 -1 -1</clus>
<clus scale="   91.468">  2  7  1 -1</clus>
<clus scale="   94.371">  5  6 -1 -1</clus>
<clus scale="   20.329">  2  5  1 -1</clus>
</clustering>
</event>
<event>
 9    1  0.5300912E-006  0.3557025E+03  0.7546771E-02  0.1102247E+00
         -2   -1    0    0    0  501 -0.00000000000E+00  0.00000000000E+00  0.32138141752E+03  0.32138141752E+03  0.00000000000E+00 0.  1.
          2   -1    0    0  502    0  0.00000000000E+00 -0.00000000000E+00 -0.79032790991E+03  0.79032790991E+03  0.00000000000E+00 0. -1.
         23    2    1    2    0    0  0.28050463224E+03  0.91447408457E+02 -0.21926697851E+03  0.37882328604E+03  0.91561984282E+02 0.  0.
         23    2    1    2    0    0  0.76946809786E+02 -0.50145126741E+01 -0.33595633356E+03  0.35514821102E+03  0.85543187111E+02 0.  0.
        -11    1    4    4    0    0 -0.11597001577E+02  0.20030192882E+02 -0.66218782003E+02  0.70147175014E+02  0.00000000000E+00 0. -1.
         11    1    4    4    0    0  0.88543811363E+02 -0.25044705556E+02 -0.26973755155E+03  0.28500103601E+03  0.00000000000E+00 0.  1.
        -13    1    3    3    0    0  0.63615711408E+02 -0.44693433519E+01 -0.85121567096E+02  0.10636077732E+03  0.00000000000E+00 0.  1.
         13    1    3    3    0    0  0.21688892083E+03  0.95916751808E+02 -0.13414541141E+03  0.27246250872E+03  0.00000000000E+00 0. -1.
         21    1    1    2  502  501 -0.35745144202E+03 -0.86432895783E+02  0.86276819677E+02  0.37773783037E+03  0.00000000000E+00 0.  1.
<scales pt_clust_5="13000.00000" pt_clust_6="13000.00000" pt_clust_7="13000.00000" pt_clust_8="13000.00000" pt_clust_9="343.71600"></scales>
<clustering>
<clus scale="   85.543">  5  6 -1 -1</clus>
<clus scale="   91.562">  7  8 -1 -1</clus>
<clus scale="  115.168">  2  5  1 -1</clus>
<clus scale="  343.716">  1  9  2 -1</clus>
<clus scale="  115.168">  2  5  1 -1</clus>
</clustering>
</event>
<event>
 9    1  0.5300912E-006  0.9774367E+02  0.7546771E-02  0.1289919E+00
          1   -1    0    0  502    0  0.00000000000E+00  0.00000000000E+00  0.39117743856E+03  0.39117743856E+03  0.00000000000E+00 0. -1.
         -1   -1    0    0    0  501 -0.00000000000E+00 -0.00000000000E+00 -0.36680506093E+02  0.36680506093E+02  0.00000000000E+00 0.  1.
         23    2    1    2    0    0  0.69140105251E+01  0.12585292701E+02  0.66068050757E+02  0.11720530634E+03  0.95738724498E+02 0.  0.
         23    2    1    2    0    0 -0.99343938797E+01 -0.33470366201E+02  0.24536342778E+03  0.26269492431E+03  0.87100252414E+02 0.  0.
        -11    1    3    3    0    0 -0.96087193156E+01  0.47788026648E+02  0.60854677850E+02  0.77969960844E+02  0.00000000000E+00 0. -1.
         11    1    3    3    0    0  0.16522729841E+02 -0.35202733947E+02  0.52133729065E+01  0.39235345491E+02  0.00000000000E+00 0.  1.
        -13    1    4    4    0    0  0.19810937202E+02 -0.37091189993E+02  0.21831455889E+03  0.22232740773E+03  0.00000000000E+00 0.  1.
         13    1    4    4    0    0 -0.29745331082E+02  0.36208237921E+01  0.27048868897E+02  0.40367516578E+02  0.00000000000E+00 0. -1.
         21    1    1    2  502  501  0.30203833546E+01  0.20885073500E+02  0.43065453928E+02  0.47957714007E+02  0.00000000000E+00 0. -1.
<scales pt_clust_5="13000.00000" pt_clust_6="13000.00000" pt_clust_7="13000.00000" pt_clust_8="13000.00000" pt_clust_9="21.10235"></scales>
<clustering>
<clus scale="   21.102">  1  9  2 -1</clus>
<clus scale="   87.100">  7  8 -1 -1</clus>
<clus scale="   89.299">  1  7  2 -1</clus>
<clus scale="   95.739">  5  6 -1 -1</clus>
<clus scale="   21.102">  1  5  2 -1</clus>
</clustering>
</event>
<event>
 9    1  0.5300912E-006  0.9662863E+02  0.7546771E-02  0.1288983E+00
         -3   -1    0    0    0  501 -0.00000000000E+00  0.00000000000E+00  0.47148978641E+03  0.47148978641E+03  0.00000000000E+00 0.  1.
          3   -1    0    0  502    0  0.00000000000E+00 -0.00000000000E+00 -0.59537759252E+02  0.59537759252E+02  0.00000000000E+00 0. -1.
         23    2    1    2    0    0  0.91005430617E+01 -0.75554126096E+01  0.19660649872E+03  0.21605912042E+03  0.88811733640E+02 0.  0.
         23    2    1    2    0    0 -0.31393951002E+02 -0.20797437152E+02  0.24103966561E+01  0.99000255199E+02  0.91526646206E+02 0.  0.
        -11    1    3    3    0    0  0.45539674289E+02  0.11523564886E+02  0.12418043181E+03  0.13276834761E+03  0.00000000000E+00 0.  1.
         11    1    3    3    0    0 -0.36439131227E+02 -0.19078977496E+02  0.72426066913E+02  0.83290772811E+02  0.00000000000E+00 0. -1.
        -13    1    4    4    0    0 -0.38637247785E+02  0.29148832425E+02 -0.10757066446E+01  0.48411243456E+02  0.00000000000E+00 0. -1.
         13    1    4    4    0    0  0.72432967828E+01 -0.49946269577E+02  0.34861033007E+01  0.50589011743E+02  0.00000000000E+00 0.  1.
         21    1    1    2  502  501  0.22293407941E+02  0.28352849761E+02  0.21293513178E+03  0.21596817005E+03  0.00000000000E+00 0.  1.
<scales pt_clust_5="13000.00000" pt_clust_6="13000.00000" pt_clust_7="13000.00000" pt_clust_8="13000.00000" pt_clust_9="36.06772"></scales>
<clustering>
<clus scale="   36.068">  1  9  2 -1</clus>
<clus scale="   88.812">  5  6 -1 -1</clus>
<clus scale="   91.527">  7  8 -1 -1</clus>
<clus scale="   94.061">  1  5  2 -1</clus>
<clus scale="   96.629">  2  5  1 -1</clus>
</clustering>
</event>
<event>
 9    1  0.5300912E-006  0.1059510E+03  0.7546771E-02  0.1268572E+00
         -2   -1    0    0    0  501 -0.00000000000E+00  0.00000000000E+00  0.21595976827E+03  0.21595976827E+03  0.00000000000E+00 0.  1.
          2   -1    0    0  502    0  0.00000000000E+00 -0.00000000000E+00 -0.26835097249E+03  0.26835097249E+03  0.00000000000E+00 0. -1.
         23    2    1    2    0    0  0.47642644705E+02  0.11024220075E+02 -0.82307873694E+02  0.13354834764E+03  0.93108646545E+02 0.  0.
         23    2    1    2    0    0  0.48589575616E+01 -0.80176783877E+02 -0.12387479086E+03  0.17415461133E+03  0.92373906998E+02 0.  0.
        -11    1    3    3    0    0  0.53355301480E+02 -0.13338975356E+02 -0.91610403588E+02  0.10685121668E+03  0.00000000000E+00 0. -1.
         11    1    3    3    0    0 -0.57126567743E+01  0.24363195432E+02  0.93025298943E+01  0.26697130960E+02  0.00000000000E+00 0.  1.
        -13    1    4    4    0    0  0.26181956741E+01  0.20479253514E+02 -0.13045030051E+02  0.24421866884E+02  0.00000000000E+00 0.  1.
         13    1    4    4    0    0  0.22407618875E+01 -0.10065603739E+03 -0.11082976081E+03  0.14973274444E+03  0.00000000000E+00 0. -1.
         21    1    1    2  502  501 -0.52501602267E+02  0.69152563802E+02  0.15379146034E+03  0.17660778180E+03  0.00000000000E+00 0.  1.
<scales pt_clust_5="13000.00000" pt_clust_6="13000.00000" pt_clust_7="13000.00000" pt_clust_8="13000.00000" pt_clust_9="86.82451"></scales>
<clustering>
<clus scale="   86.825">  1  9  2 -1</clus>
<clus scale="   92.374">  7  8 -1 -1</clus>
<clus scale="   93.109">  5  6 -1 -1</clus>
<clus scale="  105.306">  2  7  1 -1</clus>
<clus scale="  105.306">  2  5  1 -1</clus>
</clustering>
</event>
<event>
 9    1  0.5300912E-006  0.1135998E+03  0.7546771E-02  0.1255847E+00
         -2   -1    0    0    0  501 -0.00000000000E+00  0.00000000000E+00  0.13096016692E+03  0.13096016692E+03  0.00000000000E+00 0.  1.
          2   -1    0    0  502    0  0.00000000000E+00 -0.00000000000E+00 -0.24561698734E+03  0.24561698734E+03  0.00000000000E+00 0. -1.
         23    2    1    2    0    0 -0.84143839665E+02 -0.15585034293E+02 -0.38057641701E+02  0.12983455807E+03  0.89919682659E+02 0.  0.
         23    2    1    2    0    0  0.63688678742E+02 -0.30396133952E+01 -0.14110416114E+03  0.17655581776E+03  0.84829743863E+02 0.  0.
        -11    1    4    4    0    0 -0.20864983956E+02 -0.23879693893E+01 -0.21249341643E+02  0.29876152255E+02  0.00000000000E+00 0. -1.
         11    1    4    4    0    0  0.84553662698E+02 -0.65164400585E+00 -0.11985481950E+03  0.14667966551E+03  0.00000000000E+00 0.  1.
        -13    1    3    3    0    0 -0.15148811990E+02  0.34836929251E+02 -0.18097324179E+02  0.42078632188E+02  0.00000000000E+00 0. -1.
         13    1    3    3    0    0 -0.68995027675E+02 -0.50421963544E+02 -0.19960317522E+02  0.87755925881E+02  0.00000000000E+00 0.  1.
         21    1    1    2  502  501  0.20455160923E+02  0.18624647688E+02  0.64504982423E+02  0.70186778436E+02  0.00000000000E+00 0. -1.
<scales pt_clust_5="13000.00000" pt_clust_6="13000.00000" pt_clust_7="13000.00000" pt_clust_8="13000.00000" pt_clust_9="27.66390"></scales>
<clustering>
<clus scale="   27.664">  1  9  2 -1</clus>
<clus scale="   84.830">  5  6 -1 -1</clus>
<clus scale="   89.920">  7  8 -1 -1</clus>
<clus scale="  109.615">  2  5  1 -1</clus>
<clus scale="  109.615">  2  5  1 -1</clus>
</clustering>
</event>
<event>
 9    1  0.5300912E-006  0.9352454E+02  0.7546771E-02  0.1294890E+00
          2   -1    0    0  502    0  0.00000000000E+00  0.00000000000E+00  0.67973540073E+02  0.67973540073E+02  0.00000000000E+00 0. -1.
         -2   -1    0    0    0  501 -0.00000000000E+00 -0.00000000000E+00 -0.23774840013E+03  0.23774840013E+03  0.00000000000E+00 0.  1.
         23    2    1    2    0    0 -0.37708460096E+00 -0.10421354159E+02 -0.15602837336E+03  0.18150616034E+03  0.92146004426E+02 0.  0.
         23    2    1    2    0    0  0.31648864864E+01  0.35445504189E+02 -0.91434888561E+01  0.98619539650E+02  0.91519451150E+02 0.  0.
        -11    1    3    3    0    0  0.23105570309E+02 -0.40863517787E+02 -0.11984242897E+03  0.12870859430E+03  0.00000000000E+00 0.  1.
         11    1    3    3    0    0 -0.23482654910E+02  0.30442163628E+02 -0.36185944387E+02  0.52797566035E+02  0.00000000000E+00 0. -1.
        -13    1    4    4    0    0  0.46366692679E+02  0.17297828730E+02 -0.14209525999E+02  0.51487820870E+02  0.00000000000E+00 0.  1.
         13    1    4    4    0    0 -0.43201806193E+02  0.18147675459E+02  0.50660371430E+01  0.47131718781E+02  0.00000000000E+00 0. -1.
         21    1    1    2  502  501 -0.27878018854E+01 -0.25024150030E+02 -0.46029978404E+01  0.25596240216E+02  0.00000000000E+00 0.  1.
<scales pt_clust_5="13000.00000" pt_clust_6="13000.00000" pt_clust_7="13000.00000" pt_clust_8="13000.00000" pt_clust_9="25.17896"></scales>
<clustering>
<clus scale="   25.179">  1  9  2 -1</clus>
<clus scale="   91.519">  7  8 -1 -1</clus>
<clus scale="   92.146">  5  6 -1 -1</clus>
<clus scale="   92.907">  1  7  2 -1</clus>
<clus scale="   25.179">  1  5  2 -1</clus>
</clustering>
</event>
<event>
 9    1  0.5300912E-006  0.1208414E+03  0.7546771E-02  0.1244274E+00
          4   -1    0    0  502    0  0.00000000000E+00  0.00000000000E+00  0.93746253181E+02  0.93746253181E+02  0.00000000000E+00 0. -1.
         -4   -1    0    0    0  501 -0.00000000000E+00 -0.00000000000E+00 -0.34289243215E+03  0.34289243215E+03  0.00000000000E+00 0.  1.
         23    2    1    2    0    0 -0.12288537287E+03 -0.36224898784E+02 -0.12678173118E+03  0.19881776588E+03  0.83915663089E+02 0.  0.
         23    2    1    2    0    0  0.41861723939E+02  0.43443546376E+02 -0.28679594008E+02  0.11374919670E+03  0.92068534166E+02 0.  0.
        -11    1    4    4    0    0 -0.14070952992E+01  0.51636841363E+02  0.12836706454E+02  0.53227101515E+02  0.00000000000E+00 0.  1.
         11    1    4    4    0    0  0.43268819238E+02 -0.81932949868E+01 -0.41516300462E+02  0.60522095180E+02  0.00000000000E+00 0. -1.
        -13    1    3    3    0    0 -0.88664758801E+02 -0.17309155173E+02 -0.31244896777E+02  0.95589172403E+02  0.00000000000E+00 0. -1.
         13    1    3    3    0    0 -0.34220614070E+02 -0.18915743610E+02 -0.95536834406E+02  0.10322859348E+03  0.00000000000E+00 0.  1.
         21    1    1    2  502  501  0.81023648932E+02 -0.72186475924E+01 -0.93684853779E+02  0.12407172275E+03  0.00000000000E+00 0.  1.
<scales pt_clust_5="13000.00000" pt_clust_6="13000.00000" pt_clust_7="13000.00000" pt_clust_8="13000.00000" pt_clust_9="81.34458"></scales>
<clustering>
<clus scale="   81.345">  2  9  1 -1</clus>
<clus scale="   83.916">  7  8 -1 -1</clus>
<clus scale="   92.069">  5  6 -1 -1</clus>
<clus scale="  114.751">  2  7  1 -1</clus>
<clus scale="  120.841">  1  5  2 -1</clus>
</clustering>
</event>
<event>
 9    1  0.5300912E-006  0.1162563E+03  0.7546771E-02  0.1249703E+00
         -4   -1    0    0    0  501 -0.00000000000E+00  0.00000000000E+00  0.38987951496E+03  0.38987951496E+03  0.00000000000E+00 0.  1.
          4   -1    0    0  502    0  0.00000000000E+00 -0.00000000000E+00 -0.70047682519E+02  0.70047682519E+02  0.00000000000E+00 0. -1.
         23    2    1    2    0    0 -0.43519735317E+01  0.37940678549E+02  0.23380078572E+03  0.25330067162E+03  0.89665980595E+02 0.  0.
         23    2    1    2    0    0  0.29095526022E+02 -0.78179934305E+02  0.18937358285E+02  0.12457164105E+03  0.90558370417E+02 0.  0.
        -11    1    3    3    0    0 -0.23236346937E+02  0.57581096501E+01  0.92394246568E+01  0.25660292549E+02  0.00000000000E+00 0.  1.
         11    1    3    3    0    0  0.18884373405E+02  0.32182568899E+02  0.22456136107E+03  0.22764037907E+03  0.00000000000E+00 0. -1.
        -11    1    4    4    0    0  0.73338130672E+01  0.19765046759E+02 -0.44550860002E+01  0.21547382178E+02  0.00000000000E+00 0.  1.
         11    1    4    4    0    0  0.21761712954E+02 -0.97944981064E+02  0.23392444285E+02  0.10302425887E+03  0.00000000000E+00 0. -1.
         21    1    1    2  502  501 -0.24743552490E+02  0.40239255756E+02  0.67093688433E+02  0.82054884810E+02  0.00000000000E+00 0.  1.
<scales pt_clust_5="13000.00000" pt_clust_6="13000.00000" pt_clust_7="13000.00000" pt_clust_8="13000.00000" pt_clust_9="47.23813"></scales>
<clustering>
<clus scale="   47.238">  1  9  2 -1</clus>
<clus scale="   89.666">  5  6 -1 -1</clus>
<clus scale="   90.558">  7  8 -1 -1</clus>
<clus scale="  115.563">  1  5  2 -1</clus>
<clus scale="  116.256">  2  5  1 -1</clus>
</clustering>
</event>
<event>
 9    1  0.5300912E-006  0.9306771E+02  0.7546771E-02  0.1305541E+00
          3   -1    0    0  502    0  0.00000000000E+00  0.00000000000E+00  0.32822053990E+03  0.32822053990E+03  0.00000000000E+00 0. -1.
         -3   -1    0    0    0  501 -0.00000000000E+00 -0.00000000000E+00 -0.11209906086E+03  0.11209906086E+03  0.00000000000E+00 0.  1.
         23    2    1    2    0    0  0.61748280606E+01  0.12179237566E+02 -0.82124785552E+02  0.12399142871E+03  0.91885426817E+02 0.  0.
         23    2    1    2    0    0  0.46949661211E+01 -0.31675569324E+02  0.22028281674E+03  0.23523218831E+03  0.76054445413E+02 0.  0.
        -11    1    4    4    0    0  0.93746271147E+01 -0.52298741268E+02  0.19579848068E+03  0.20287948888E+03  0.00000000000E+00 0. -1.
         11    1    4    4    0    0 -0.46796609937E+01  0.20623171944E+02  0.24484336060E+02  0.32352699429E+02  0.00000000000E+00 0.  1.
        -11    1    3    3    0    0 -0.16829780871E+00 -0.38485827025E+02 -0.19362847944E+02  0.43082561280E+02  0.00000000000E+00 0. -1.
         11    1    3    3    0    0  0.63431258694E+01  0.50665064591E+02 -0.62761937608E+02  0.80908867426E+02  0.00000000000E+00 0.  1.
         21    1    1    2  502  501 -0.10869794182E+02  0.19496331758E+02  0.77963447860E+02  0.81095983746E+02  0.00000000000E+00 0.  1.
<scales pt_clust_5="13000.00000" pt_clust_6="13000.00000" pt_clust_7="13000.00000" pt_clust_8="13000.00000" pt_clust_9="22.32172"></scales>
<clustering>
<clus scale="   22.322">  1  9  2 -1</clus>
<clus scale="   76.054">  5  6 -1 -1</clus>
<clus scale="   77.479">  1  5  2 -1</clus>
<clus scale="   91.885">  7  8 -1 -1</clus>
<clus scale="   22.322">  1  5  2 -1</clus>
</clustering>
</event>
<event>
 9    1  0.5300912E-006  0.1520388E+03  0.7546771E-02  0.1216895E+00
         -1   -1    0    0    0  501 -0.00000000000E+00  0.00000000000E+00  0.11691261918E+04  0.11691261918E+04  0.00000000000E+00 0.  1.
          1   -1    0    0  502    0  0.00000000000E+00 -0.00000000000E+00 -0.89275509486E+02  0.89275509486E+02  0.00000000000E+00 0. -1.
         23    2    1    2    0    0 -0.27846138790E+02 -0.79286056788E+02  0.53736932004E+02  0.13498169556E+03  0.90943466118E+02 0.  0.
         23    2    1    2    0    0 -0.39371037691E+02 -0.26865846936E+02  0.12590894409E+02  0.10213896952E+03  0.89453821224E+02 0.  0.
        -11    1    3    3    0    0  0.28074448923E+02 -0.55218398406E+02  0.35651816795E+02  0.71472360012E+02  0.00000000000E+00 0.  1.
         11    1    3    3    0    0 -0.55920587713E+02 -0.24067658383E+02  0.18085115209E+02  0.63509335552E+02  0.00000000000E+00 0. -1.
        -13    1    4    4    0    0 -0.34409098091E+02 -0.59238741817E+02  0.63712937897E+01  0.68802673990E+02  0.00000000000E+00 0.  1.
         13    1    4    4    0    0 -0.49619395996E+01  0.32372894882E+02  0.62196006192E+01  0.33336295527E+02  0.00000000000E+00 0. -1.
         21    1    1    2  502  501  0.67217176480E+02  0.10615190372E+03  0.10135228559E+04  0.10212810362E+04  0.00000000000E+00 0.  1.
<scales pt_clust_5="13000.00000" pt_clust_6="13000.00000" pt_clust_7="13000.00000" pt_clust_8="13000.00000" pt_clust_9="121.84045"></scales>
<clustering>
<clus scale="   89.454">  7  8 -1 -1</clus>
<clus scale="   90.943">  5  6 -1 -1</clus>
<clus scale="  101.360">  2  7  1 -1</clus>
<clus scale="  121.840">  1  9  2 -1</clus>
<clus scale="  101.360">  2  5  1 -1</clus>
</clustering>
</event>
<event>
 9    1  0.5300912E-006  0.1494567E+03  0.7546771E-02  0.1223892E+00
          3   -1    0    0  502    0  0.00000000000E+00  0.00000000000E+00  0.41045883582E+02  0.41045883582E+02  0.00000000000E+00 0. -1.
         -3   -1    0    0    0  501 -0.00000000000E+00 -0.00000000000E+00 -0.91537212787E+03  0.91537212787E+03  0.00000000000E+00 0.  1.
         23    2    1    2    0    0 -0.76210121241E+02  0.11395312343E+03 -0.28278607712E+03  0.32801405742E+03  0.93978505709E+02 0.  0.
         23    2    1    2    0    0  0.53984138088E+02 -0.44656866376E+01 -0.18329046669E+03  0.20514361915E+03  0.74527040577E+02 0.  0.
        -11    1    4    4    0    0  0.18166555585E+02 -0.21148612765E+02 -0.15256346614E+03  0.15508996990E+03  0.00000000000E+00 0.  1.
         11    1    4    4    0    0  0.35817582504E+02  0.16682926127E+02 -0.30727000555E+02  0.50053649254E+02  0.00000000000E+00 0. -1.
        -11    1    3    3    0    0 -0.33265079652E+02  0.95644415923E+02 -0.11213153226E+03  0.15108904774E+03  0.00000000000E+00 0.  1.
         11    1    3    3    0    0 -0.42945041588E+02  0.18308707503E+02 -0.17065454486E+03  0.17692500968E+03  0.00000000000E+00 0. -1.
         21    1    1    2  502  501  0.22225983152E+02 -0.10948743679E+03 -0.40824970048E+03  0.42326033488E+03  0.00000000000E+00 0. -1.
<scales pt_clust_5="13000.00000" pt_clust_6="13000.00000" pt_clust_7="13000.00000" pt_clust_8="13000.00000" pt_clust_9="116.21246"></scales>
<clustering>
<clus scale="   74.527">  5  6 -1 -1</clus>
<clus scale="   92.133">  1  5  2 -1</clus>
<clus scale="   93.979">  7  8 -1 -1</clus>
<clus scale="  116.212">  2  9  1 -1</clus>
<clus scale="   92.133">  1  5  2 -1</clus>
</clustering>
</event>
<event>
 9    1  0.5300912E-006  0.1078159E+03  0.7546771E-02  0.1270558E+00
         -1   -1    0    0    0  501 -0.00000000000E+00  0.00000000000E+00  0.11575520857E+03  0.11575520857E+03  0.00000000000E+00 0.  1.
          1   -1    0    0  502    0  0.00000000000E+00 -0.00000000000E+00 -0.19382811770E+03  0.19382811770E+03  0.00000000000E+00 0. -1.
         23    2    1    2    0    0 -0.43459269185E+02 -0.37293288049E+02  0.10330709802E+02  0.10732242726E+03  0.90176950580E+02 0.  0.
         23    2    1    2    0    0  0.27092464810E+02  0.23618318047E+01 -0.11420372697E+03  0.15585266164E+03  0.10250844350E+03 0.  0.
        -11    1    3    3    0    0 -0.48909777443E+02  0.94881226534E+01  0.27843375679E+02  0.57074025356E+02  0.00000000000E+00 0.  1.
         11    1    3    3    0    0  0.54505082588E+01 -0.46781410702E+02 -0.17512665878E+02  0.50248401902E+02  0.00000000000E+00 0. -1.
        -13    1    4    4    0    0  0.21463038333E+02 -0.44538825217E+02 -0.90212530256E+02  0.10287210303E+03  0.00000000000E+00 0. -1.
         13    1    4    4    0    0  0.56294264776E+01  0.46900657021E+02 -0.23991196715E+02  0.52980558617E+02  0.00000000000E+00 0.  1.
         21    1    1    2  502  501  0.16366804375E+02  0.34931456244E+02  0.25800108044E+02  0.46408237370E+02  0.00000000000E+00 0. -1.
<scales pt_clust_5="13000.00000" pt_clust_6="13000.00000" pt_clust_7="13000.00000" pt_clust_8="13000.00000" pt_clust_9="38.57563"></scales>
<clustering>
<clus scale="   38.576">  1  9  2 -1</clus>
<clus scale="   90.177">  5  6 -1 -1</clus>
<clus scale="   96.167">  1  5  2 -1</clus>
<clus scale="  102.508">  7  8 -1 -1</clus>
<clus scale="  107.816">  2  5  1 -1</clus>
</clustering>
</event>
<event>
 9    1  0.5300912E-006  0.9428820E+02  0.7546771E-02  0.1293232E+00
         -2   -1    0    0    0  501 -0.00000000000E+00  0.00000000000E+00  0.49541468422E+02  0.49541468422E+02  0.00000000000E+00 0.  1.
          2   -1    0    0  502    0  0.00000000000E+00 -0.00000000000E+00 -0.51265218961E+03  0.51265218961E+03  0.00000000000E+00 0. -1.
         23    2    1    2    0    0 -0.73408474435E+01 -0.12558321094E+02 -0.72804250503E+02  0.11720427208E+03  0.90690589552E+02 0.  0.
         23    2    1    2    0    0  0.32880332879E+02 -0.46018691625E+02 -0.97125001846E+02  0.14492455061E+03  0.91493295476E+02 0.  0.
        -11    1    4    4    0    0  0.56480124339E+02 -0.30696582472E+02 -0.27667394560E+02  0.69984064919E+02  0.00000000000E+00 0.  1.
         11    1    4    4    0    0 -0.23599791460E+02 -0.15322109153E+02 -0.69457607285E+02  0.74940485691E+02  0.00000000000E+00 0. -1.
        -13    1    3    3    0    0 -0.31185196079E+02 -0.31971319238E+02 -0.78588694213E+01  0.45348026825E+02  0.00000000000E+00 0.  1.
         13    1    3    3    0    0  0.23844348635E+02  0.19412998144E+02 -0.64945381081E+02  0.71856245258E+02  0.00000000000E+00 0. -1.
         21    1    1    2  502  501 -0.25539485436E+02  0.58577012719E+02 -0.29318146884E+03  0.30006483534E+03  0.00000000000E+00 0. -1.
<scales pt_clust_5="13000.00000" pt_clust_6="13000.00000" pt_clust_7="13000.00000" pt_clust_8="13000.00000" pt_clust_9="63.90252"></scales>
<clustering>
<clus scale="   63.903">  2  9  1 -1</clus>
<clus scale="   90.691">  7  8 -1 -1</clus>
<clus scale="   91.493">  5  6 -1 -1</clus>
<clus scale="   93.509">  1  7  2 -1</clus>
<clus scale="   63.903">  2  5  1 -1</clus>
</clustering>
</event>
<event>
 9    1  0.5300912E-006  0.1571185E+03  0.7546771E-02  0.1209487E+00
          2   -1    0    0  502    0  0.00000000000E+00  0.00000000000E+00  0.22875578814E+03  0.22875578814E+03  0.00000000000E+00 0. -1.
         -2   -1    0    0    0  501 -0.00000000000E+00 -0.00000000000E+00 -0.38600153342E+03  0.38600153342E+03  0.00000000000E+00 0.  1.
         23    2    1    2    0    0 -0.55410496572E+02  0.10930699596E+02 -0.25601144546E+03  0.27766253199E+03  0.91459379716E+02 0.  0.
         23    2    1    2    0    0  0.42243776757E+02  0.13179109455E+03  0.11136987106E+03  0.19321380348E+03  0.75992739129E+02 0.  0.
        -11    1    3    3    0    0 -0.77306716434E+02 -0.34915142240E+01 -0.21927196403E+03  0.23252680123E+03  0.00000000000E+00 0.  1.
         11    1    3    3    0    0  0.21896219862E+02  0.14422213820E+02 -0.36739481430E+02  0.45135730762E+02  0.00000000000E+00 0. -1.
        -13    1    4    4    0    0  0.13471913340E+02  0.89816155112E+02  0.27113306913E+02  0.94781673228E+02  0.00000000000E+00 0.  1.
         13    1    4    4    0    0  0.28771863417E+02  0.41974939436E+02  0.84256564145E+02  0.98432130255E+02  0.00000000000E+00 0. -1.
         21    1    1    2  502  501  0.13166719815E+02 -0.14272179414E+03 -0.12604170872E+02  0.14388098609E+03  0.00000000000E+00 0.  1.
<scales pt_clust_5="13000.00000" pt_clust_6="13000.00000" pt_clust_7="13000.00000" pt_clust_8="13000.00000" pt_clust_9="137.51851"></scales>
<clustering>
<clus scale="   75.993">  7  8 -1 -1</clus>
<clus scale="   91.459">  5  6 -1 -1</clus>
<clus scale="  107.492">  2  5  1 -1</clus>
<clus scale="  137.519">  2  9  1 -1</clus>
<clus scale="  157.119">  1  5  2 -1</clus>
</clustering>
</event>
<event>
 9    1  0.5300912E-006  0.9164441E+02  0.7546771E-02  0.1298978E+00
         -1   -1    0    0    0  501 -0.00000000000E+00  0.00000000000E+00  0.40137936636E+02  0.40137936636E+02  0.00000000000E+00 0.  1.
          1   -1    0    0  502    0  0.00000000000E+00 -0.00000000000E+00 -0.32202153491E+03  0.32202153491E+03  0.00000000000E+00 0. -1.
         23    2    1    2    0    0  0.19606493903E+02 -0.97765636876E+01 -0.10286466596E+03  0.13927260822E+03  0.91300186734E+02 0.  0.
         23    2    1    2    0    0  0.66642840295E+01 -0.18433611177E+02 -0.11400716940E+03  0.14730580051E+03  0.91198429185E+02 0.  0.
        -11    1    3    3    0    0 -0.16081709151E+02  0.33879157547E+02 -0.40540209736E+02  0.55226146803E+02  0.00000000000E+00 0. -1.
         11    1    3    3    0    0  0.35688203053E+02 -0.43655721235E+02 -0.62324456222E+02  0.84046461419E+02  0.00000000000E+00 0.  1.
        -13    1    4    4    0    0  0.25823995142E+02  0.22139614564E+02 -0.90436390465E+02  0.96621850420E+02  0.00000000000E+00 0. -1.
         13    1    4    4    0    0 -0.19159711113E+02 -0.40573225741E+02 -0.23570778938E+02  0.50683950090E+02  0.00000000000E+00 0.  1.
         21    1    1    2  502  501 -0.26270777932E+02  0.28210174865E+02 -0.65011762908E+02  0.75581062810E+02  0.00000000000E+00 0.  1.
<scales pt_clust_5="13000.00000" pt_clust_6="13000.00000" pt_clust_7="13000.00000" pt_clust_8="13000.00000" pt_clust_9="38.54825"></scales>
<clustering>
<clus scale="   38.548">  2  9  1 -1</clus>
<clus scale="   91.198">  7  8 -1 -1</clus>
<clus scale="   91.300">  5  6 -1 -1</clus>
<clus scale="   91.543">  2  7  1 -1</clus>
<clus scale="   38.548">  2  5  1 -1</clus>
</clustering>
</event>
<event>
 9    1  0.5300912E-006  0.1016009E+03  0.7546771E-02  0.1279025E+00
         -2   -1    0    0    0  501 -0.00000000000E+00  0.00000000000E+00  0.16915125907E+03  0.16915125907E+03  0.00000000000E+00 0.  1.
          2   -1    0    0  502    0  0.00000000000E+00 -0.00000000000E+00 -0.37509017306E+03  0.37509017306E+03  0.00000000000E+00 0. -1.
         23    2    1    2    0    0  0.67384934179E+02 -0.21454668855E+02  0.12323020386E+03  0.17096927757E+03  0.95098783155E+02 0.  0.
         23    2    1    2    0    0 -0.33892982228E+02 -0.56658077271E+01 -0.31216780133E+03  0.32694423793E+03  0.90900841072E+02 0.  0.
        -11    1    4    4    0    0  0.19959708355E+02 -0.31612015143E+02 -0.12301441582E+03  0.12857004301E+03  0.00000000000E+00 0.  1.
         11    1    4    4    0    0 -0.53852690583E+02  0.25946207416E+02 -0.18915338551E+03  0.19837419492E+03  0.00000000000E+00 0. -1.
        -11    1    3    3    0    0  0.54861720538E+02  0.37041335055E+01  0.12049066469E+02  0.56291286965E+02  0.00000000000E+00 0. -1.
         11    1    3    3    0    0  0.12523213641E+02 -0.25158802360E+02  0.11118113739E+03  0.11467799060E+03  0.00000000000E+00 0.  1.
         21    1    1    2  502  501 -0.33491951951E+02  0.27120476582E+02 -0.17001316529E+02  0.46327916630E+02  0.00000000000E+00 0.  1.
<scales pt_clust_5="13000.00000" pt_clust_6="13000.00000" pt_clust_7="13000.00000" pt_clust_8="13000.00000" pt_clust_9="43.09560"></scales>
<clustering>
<clus scale="   43.096">  1  9  2 -1</clus>
<clus scale="   90.901">  5  6 -1 -1</clus>
<clus scale="   95.099">  7  8 -1 -1</clus>
<clus scale="   97.683">  2  5  1 -1</clus>
<clus scale="   97.683">  2  5  1 -1</clus>
</clustering>
</event>
<event>
 9    1  0.5300912E-006  0.1050978E+03  0.7546771E-02  0.1274577E+00
         -2   -1    0    0    0  501 -0.00000000000E+00  0.00000000000E+00  0.21705088396E+03  0.21705088396E+03  0.00000000000E+00 0.  1.
          2   -1    0    0  502    0  0.00000000000E+00 -0.00000000000E+00 -0.12337572937E+03  0.12337572937E+03  0.00000000000E+00 0. -1.
         23    2    1    2    0    0 -0.31540759879E+02  0.23532485214E+02  0.84296212211E+02  0.12423760643E+03  0.82343998344E+02 0.  0.
         23    2    1    2    0    0  0.44598404914E+01 -0.92211017095E+02  0.39194579794E+02  0.13657060971E+03  0.92696032817E+02 0.  0.
        -11    1    4    4    0    0  0.27409424415E+02 -0.10111471754E+03  0.23469915356E+02  0.10736060533E+03  0.00000000000E+00 0.  1.
         11    1    4    4    0    0 -0.22949583924E+02  0.89037004480E+01  0.15724664438E+02  0.29210004376E+02  0.00000000000E+00 0. -1.
        -13    1    3    3    0    0 -0.11062302842E+02 -0.17547889578E+02  0.74457820130E+02  0.77293401732E+02  0.00000000000E+00 0.  1.
         13    1    3    3    0    0 -0.20478457037E+02  0.41080374791E+02  0.98383920805E+01  0.46944204694E+02  0.00000000000E+00 0. -1.
         21    1    1    2  502  501  0.27080919387E+02  0.68678531882E+02 -0.29815637417E+02  0.79618397189E+02  0.00000000000E+00 0. -1.
<scales pt_clust_5="13000.00000" pt_clust_6="13000.00000" pt_clust_7="13000.00000" pt_clust_8="13000.00000" pt_clust_9="73.82491"></scales>
<clustering>
<clus scale="   73.825">  2  9  1 -1</clus>
<clus scale="   82.344">  7  8 -1 -1</clus>
<clus scale="   92.696">  5  6 -1 -1</clus>
<clus scale="   96.091">  1  7  2 -1</clus>
<clus scale="   73.825">  2  5  1 -1</clus>
</clustering>
</event>
<event>
 9    1  0.5300912E-006  0.9448317E+02  0.7546771E-02  0.1293320E+00
         -1   -1    0    0    0  501 -0.00000000000E+00  0.00000000000E+00  0.23216972475E+02  0.23216972475E+02  0.00000000000E+00 0.  1.
          1   -1    0    0  502    0  0.00000000000E+00 -0.00000000000E+00 -0.65444596890E+03  0.65444596890E+03  0.00000000000E+00 0. -1.
         23    2    1    2    0    0  0.10630670712E+02  0.24041641489E+02 -0.23681191529E+03  0.25605485232E+03  0.93772024006E+02 0.  0.
         23    2    1    2    0    0  0.20792620180E+02  0.24746170296E+01 -0.34309680589E+03  0.35584863477E+03  0.92056373362E+02 0.  0.
        -11    1    3    3    0    0  0.20933524086E+01  0.57719290769E+02 -0.18389515279E+03  0.19275198020E+03  0.00000000000E+00 0. -1.
         11    1    3    3    0    0  0.85373183039E+01 -0.33677649280E+02 -0.52916762504E+02  0.63302872121E+02  0.00000000000E+00 0.  1.
        -11    1    4    4    0    0  0.55479951950E+02 -0.25833015423E+01 -0.15840338083E+03  0.16785806377E+03  0.00000000000E+00 0.  1.
         11    1    4    4    0    0 -0.34687331770E+02  0.50579185719E+01 -0.18469342506E+03  0.18799057100E+03  0.00000000000E+00 0. -1.
         21    1    1    2  502  501 -0.31423290893E+02 -0.26516258519E+02 -0.51320275245E+02  0.65759454283E+02  0.00000000000E+00 0. -1.
<scales pt_clust_5="13000.00000" pt_clust_6="13000.00000" pt_clust_7="13000.00000" pt_clust_8="13000.00000" pt_clust_9="41.11612"></scales>
<clustering>
<clus scale="   41.116">  1  9  2 -1</clus>
<clus scale="   92.056">  7  8 -1 -1</clus>
<clus scale="   92.781">  2  7  1 -1</clus>
<clus scale="   93.772">  5  6 -1 -1</clus>
<clus scale="   92.781">  2  5  1 -1</clus>
</clustering>
</event>
<event>
 9    1  0.6471146E-006  0.1393682E+03  0.7546771E-02  0.1234314E+00
          2   -1    0    0  502    0  0.00000000000E+00  0.00000000000E+00  0.16946139163E+03  0.16946139163E+03  0.00000000000E+00 0.  1.
         -2   -1    0    0    0  501 -0.00000000000E+00 -0.00000000000E+00 -0.45969142877E+03  0.45969142877E+03  0.00000000000E+00 0. -1.
         23    2    1    2    0    0 -0.20636217564E+02 -0.80817589579E+01 -0.25131291019E+03  0.26748434118E+03  0.88873649903E+02 0.  0.
         23    2    1    2    0    0  0.52918062656E+02 -0.93068873799E+02  0.11065766203E+03  0.17823951333E+03  0.89789026714E+02 0.  0.
        -11    1    3    3    0    0 -0.36246298447E+02  0.26609943207E+02 -0.19064352379E+03  0.19587454248E+03  0.00000000000E+00 0. -1.
         11    1    3    3    0    0  0.15610080882E+02 -0.34691702165E+02 -0.60669386397E+02  0.71609798701E+02  0.00000000000E+00 0.  1.
        -11    1    4    4    0    0  0.43432075972E+02  0.20839857006E+01  0.42569585138E+02  0.60851111728E+02  0.00000000000E+00 0. -1.
         11    1    4    4    0    0  0.94859866839E+01 -0.95152859500E+02  0.68088076895E+02  0.11738840160E+03  0.00000000000E+00 0.  1.
         21    1    1    2  502  501 -0.32281845092E+02  0.10115063276E+03 -0.14957478898E+03  0.18342896590E+03  0.00000000000E+00 0. -1.
<scales pt_clust_5="13000.00000" pt_clust_6="13000.00000" pt_clust_7="13000.00000" pt_clust_8="13000.00000" pt_clust_9="106.59005"></scales>
<clustering>
<clus scale="   88.874">  5  6 -1 -1</clus>
<clus scale="   89.789">  7  8 -1 -1</clus>
<clus scale="   91.595">  2  5  1 -1</clus>
<clus scale="  106.590">  2  9  1 -1</clus>
<clus scale="  139.368">  1  5  2 -1</clus>
</clustering>
</event>
<event>
 9    1  0.5300912E-006  0.3668415E+03  0.7546771E-02  0.1071208E+00
         -2   -1    0    0    0  501 -0.00000000000E+00  0.00000000000E+00  0.24734126633E+03  0.24734126633E+03  0.00000000000E+00 0.  1.
          2   -1    0    0  502    0  0.00000000000E+00 -0.00000000000E+00 -0.13703194674E+04  0.13703194674E+04  0.00000000000E+00 0. -1.
         23    2    1    2    0    0 -0.13736429578E+03 -0.17243789320E+03 -0.60900498132E+02  0.24737354606E+03  0.94239184273E+02 0.  0.
         23    2    1    2    0    0 -0.23735037136E+03  0.32895514386E+02 -0.23514101056E+02  0.25740915643E+03  0.91045303078E+02 0.  0.
        -11    1    4    4    0    0 -0.60883198762E+02  0.47636372474E+02 -0.21798269568E+02  0.80319066418E+02  0.00000000000E+00 0. -1.
         11    1    4    4    0    0 -0.17646717260E+03 -0.14740858088E+02 -0.17158314876E+01  0.17709009001E+03  0.00000000000E+00 0.  1.
        -13    1    3    3    0    0 -0.10856048296E+03 -0.17248069418E+03 -0.72512748382E+02  0.21631705204E+03  0.00000000000E+00 0. -1.
         13    1    3    3    0    0 -0.28803812817E+02  0.42800985647E-01  0.11612250250E+02  0.31056494016E+02  0.00000000000E+00 0.  1.
         21    1    1    2  502  501  0.37471466714E+03  0.13954237881E+03 -0.10385636019E+04  0.11128780313E+04  0.00000000000E+00 0. -1.
<scales pt_clust_5="13000.00000" pt_clust_6="13000.00000" pt_clust_7="13000.00000" pt_clust_8="13000.00000" pt_clust_9="355.36383"></scales>
<clustering>
<clus scale="   91.045">  5  6 -1 -1</clus>
<clus scale="   94.239">  7  8 -1 -1</clus>
<clus scale="  239.760">  1  7  2 -1</clus>
<clus scale="  355.364">  2  9  1 -1</clus>
<clus scale="  355.364">  2  5  1 -1</clus>
</clustering>
</event>
<event>
 9    1  0.5300912E-006  0.1313880E+03  0.7546771E-02  0.1235952E+00
          2   -1    0    0  502    0  0.00000000000E+00  0.00000000000E+00  0.94917058764E+03  0.94917058764E+03  0.00000000000E+00 0. -1.
         -2   -1    0    0    0  501 -0.00000000000E+00 -0.00000000000E+00 -0.52809552426E+02  0.52809552426E+02  0.00000000000E+00 0.  1.
         23    2    1    2    0    0 -0.51350805342E+02 -0.30280663161E+02  0.39367543665E+02  0.11280471497E+03  0.87299922423E+02 0.  0.
         23    2    1    2    0    0 -0.69765290933E+02  0.15889969555E+02  0.39343234905E+03  0.40983720038E+03  0.89765419751E+02 0.  0.
        -11    1    3    3    0    0 -0.59917671382E+02  0.12473219651E+02  0.15665153056E+02  0.63175197447E+02  0.00000000000E+00 0. -1.
         11    1    3    3    0    0  0.85668660397E+01 -0.42753882811E+02  0.23702390609E+02  0.49629517525E+02  0.00000000000E+00 0.  1.
        -13    1    4    4    0    0  0.21684131359E+02 -0.13664079172E+01  0.75618859705E+02  0.78678336068E+02  0.00000000000E+00 0.  1.
         13    1    4    4    0    0 -0.91449422292E+02  0.17256377472E+02  0.31781348935E+03  0.33115886431E+03  0.00000000000E+00 0. -1.
         21    1    1    2  502  501  0.12111609627E+03  0.14390693606E+02  0.46356114250E+03  0.47933822472E+03  0.00000000000E+00 0. -1.
<scales pt_clust_5="13000.00000" pt_clust_6="13000.00000" pt_clust_7="13000.00000" pt_clust_8="13000.00000" pt_clust_9="95.94262"></scales>
<clustering>
<clus scale="   87.300">  5  6 -1 -1</clus>
<clus scale="   89.765">  7  8 -1 -1</clus>
<clus scale="  105.712">  2  5  1 -1</clus>
<clus scale="   95.943">  2  9  1 -1</clus>
<clus scale="  131.388">  1  5  2 -1</clus>
</clustering>
</event>
<event>
 9    1  0.5300912E-006  0.1325496E+03  0.7546771E-02  0.1236617E+00
         -4   -1    0    0    0  501 -0.00000000000E+00  0.00000000000E+00  0.10141060988E+03  0.10141060988E+03  0.00000000000E+00 0. -1.
          4   -1    0    0  502    0  0.00000000000E+00 -0.00000000000E+00 -0.33165223586E+03  0.33165223586E+03  0.00000000000E+00 0.  1.
         23    2    1    2    0    0 -0.78767649527E+01 -0.28724287081E+02  0.61454711981E+01  0.10175448226E+03  0.97103448696E+02 0.  0.
         23    2    1    2    0    0  0.64418802460E+02 -0.60816683771E+02 -0.12472076767E+03  0.17741243563E+03  0.89841256069E+02 0.  0.
        -11    1    4    4    0    0  0.78071921722E+02 -0.24001183852E+02 -0.58647973530E+02  0.10055280497E+03  0.00000000000E+00 0.  1.
         11    1    4    4    0    0 -0.13653119263E+02 -0.36815499919E+02 -0.66072794136E+02  0.76859630657E+02  0.00000000000E+00 0. -1.
        -13    1    3    3    0    0 -0.38960340358E+02  0.15591748544E+02 -0.13633805755E+02  0.44123592361E+02  0.00000000000E+00 0.  1.
         13    1    3    3    0    0  0.31083575405E+02 -0.44316035625E+02  0.19779276953E+02  0.57630889896E+02  0.00000000000E+00 0. -1.
         21    1    1    2  502  501 -0.56542037507E+02  0.89540970852E+02 -0.11166632951E+03  0.15389592786E+03  0.00000000000E+00 0.  1.
<scales pt_clust_5="13000.00000" pt_clust_6="13000.00000" pt_clust_7="13000.00000" pt_clust_8="13000.00000" pt_clust_9="97.45736"></scales>
<clustering>
<clus scale="   89.841">  5  6 -1 -1</clus>
<clus scale="   97.103">  7  8 -1 -1</clus>
<clus scale="  101.569">  1  7  2 -1</clus>
<clus scale="   97.457">  1  9  2 -1</clus>
<clus scale="  132.550">  2  5  1 -1</clus>
</clustering>
</event>
<event>
 9    1  0.5300912E-006  0.1270054E+03  0.7546771E-02  0.1247640E+00
          2   -1    0    0  502    0  0.00000000000E+00  0.00000000000E+00  0.75184298763E+02  0.75184298763E+02  0.00000000000E+00 0. -1.
         -2   -1    0    0    0  501 -0.00000000000E+00 -0.00000000000E+00 -0.60400407129E+03  0.60400407129E+03  0.00000000000E+00 0.  1.
         23    2    1    2    0    0 -0.31199604717E+00  0.51657850916E+01 -0.19740465085E+03  0.21794745646E+03  0.92226432880E+02 0.  0.
         23    2    1    2    0    0 -0.17188846061E+02  0.10246675922E+03 -0.15686553232E+02  0.12721161398E+03  0.71706579924E+02 0.  0.
        -11    1    4    4    0    0  0.16740615623E+02  0.87324641547E+02 -0.80363938439E+01  0.89277235949E+02  0.00000000000E+00 0. -1.
         11    1    4    4    0    0 -0.33929461684E+02  0.15142117677E+02 -0.76501593881E+01  0.37934378031E+02  0.00000000000E+00 0.  1.
        -11    1    3    3    0    0 -0.28890429116E+02  0.24875493125E+02 -0.34604780769E+02  0.51487259635E+02  0.00000000000E+00 0.  1.
         11    1    3    3    0    0  0.28578433068E+02 -0.19709708033E+02 -0.16279987008E+03  0.16646019682E+03  0.00000000000E+00 0. -1.
         21    1    1    2  502  501  0.17500842108E+02 -0.10763254432E+03 -0.31572856845E+03  0.33402929962E+03  0.00000000000E+00 0.  1.
<scales pt_clust_5="13000.00000" pt_clust_6="13000.00000" pt_clust_7="13000.00000" pt_clust_8="13000.00000" pt_clust_9="104.82627"></scales>
<clustering>
<clus scale="   71.707">  5  6 -1 -1</clus>
<clus scale="   92.226">  7  8 -1 -1</clus>
<clus scale="   92.372">  2  7  1 -1</clus>
<clus scale="  104.826">  2  9  1 -1</clus>
<clus scale="  127.005">  1  5  2 -1</clus>
</clustering>
</event>
<event>
 9    1  0.5300912E-006  0.2513327E+03  0.7546771E-02  0.1112946E+00
         -1   -1    0    0    0  501 -0.00000000000E+00  0.00000000000E+00  0.16499148339E+03  0.16499148339E+03  0.00000000000E+00 0.  1.
          1   -1    0    0  502    0  0.00000000000E+00 -0.00000000000E+00 -0.79679677107E+03  0.79679677107E+03  0.00000000000E+00 0. -1.
         23    2    1    2    0    0  0.11715678653E+02 -0.15579652160E+03 -0.89016308573E+02  0.20584160133E+03  0.10018507064E+03 0.  0.
         23    2    1    2    0    0 -0.15153279696E+03  0.25766795789E+03 -0.47788410640E+03  0.57117853195E+03  0.92286137250E+02 0.  0.
        -11    1    3    3    0    0  0.52151947358E+02 -0.54885120578E+02 -0.48026880400E+02  0.89659262294E+02  0.00000000000E+00 0.  1.
         11    1    3    3    0    0 -0.40436268705E+02 -0.10091140102E+03 -0.40989428172E+02  0.11618233904E+03  0.00000000000E+00 0. -1.
        -11    1    4    4    0    0 -0.77311789562E+02  0.58947895785E+02 -0.19175369327E+03  0.21499173497E+03  0.00000000000E+00 0. -1.
         11    1    4    4    0    0 -0.74221007401E+02  0.19872006210E+03 -0.28613041313E+03  0.35618679698E+03  0.00000000000E+00 0.  1.
         21    1    1    2  502  501  0.13981711831E+03 -0.10187143629E+03 -0.64904872699E+02  0.18476812118E+03  0.00000000000E+00 0.  1.
<scales pt_clust_5="13000.00000" pt_clust_6="13000.00000" pt_clust_7="13000.00000" pt_clust_8="13000.00000" pt_clust_9="172.99311"></scales>
<clustering>
<clus scale="   92.286">  7  8 -1 -1</clus>
<clus scale="  100.185">  5  6 -1 -1</clus>
<clus scale="  172.993">  1  9  2 -1</clus>
<clus scale="  248.290">  2  7  1 -1</clus>
<clus scale="  248.290">  2  5  1 -1</clus>
</clustering>
</event>
<event>
 9    1  0.5300912E-006  0.9984565E+02  0.7546771E-02  0.1282706E+00
          1   -1    0    0  502    0  0.00000000000E+00  0.00000000000E+00  0.46820406390E+03  0.46820406390E+03  0.00000000000E+00 0. -1.
         -1   -1    0    0    0  501 -0.00000000000E+00 -0.00000000000E+00 -0.67970120298E+02  0.67970120298E+02  0.00000000000E+00 0.  1.
         23    2    1    2    0    0  0.91766457090E+01  0.53909757536E+02  0.35674157075E+02  0.11388369111E+03  0.93307967687E+02 0.  0.
         23    2    1    2    0    0  0.14380702576E+02 -0.16423057702E+02  0.49784501484E+02  0.10441680529E+03  0.89150721855E+02 0.  0.
        -11    1    4    4    0    0  0.19623140123E+02 -0.52012811190E+02  0.26677005122E+02  0.61660868940E+02  0.00000000000E+00 0. -1.
         11    1    4    4    0    0 -0.52424375465E+01  0.35589753487E+02  0.23107496362E+02  0.42755936346E+02  0.00000000000E+00 0.  1.
        -13    1    3    3    0    0  0.47919064715E+02  0.92163968856E+01  0.12630019265E+02  0.50405318384E+02  0.00000000000E+00 0. -1.
         13    1    3    3    0    0 -0.38742419006E+02  0.44693360650E+02  0.23044137810E+02  0.63478372727E+02  0.00000000000E+00 0.  1.
         21    1    1    2  502  501 -0.23557348285E+02 -0.37486699834E+02  0.31477528505E+03  0.31787368781E+03  0.00000000000E+00 0. -1.
<scales pt_clust_5="13000.00000" pt_clust_6="13000.00000" pt_clust_7="13000.00000" pt_clust_8="13000.00000" pt_clust_9="44.27416"></scales>
<clustering>
<clus scale="   44.274">  1  9  2 -1</clus>
<clus scale="   89.151">  5  6 -1 -1</clus>
<clus scale="   93.308">  7  8 -1 -1</clus>
<clus scale="   95.972">  1  5  2 -1</clus>
<clus scale="   44.274">  1  5  2 -1</clus>
</clustering>
</event>
<event>
 9    1  0.5300912E-006  0.1000054E+03  0.7546771E-02  0.1280793E+00
         -1   -1    0    0    0  501 -0.00000000000E+00  0.00000000000E+00  0.82874765691E+03  0.82874765691E+03  0.00000000000E+00 0.  1.
          1   -1    0    0  502    0  0.00000000000E+00 -0.00000000000E+00 -0.17093697169E+02  0.17093697169E+02  0.00000000000E+00 0. -1.
         23    2    1    2    0    0  0.36316129088E+02  0.29042646921E+02  0.36413978576E+03  0.37846787612E+03  0.92075040634E+02 0.  0.
         23    2    1    2    0    0 -0.19778695412E+01 -0.38945359891E+02  0.33275297850E+03  0.34717650720E+03  0.91029277837E+02 0.  0.
        -11    1    3    3    0    0  0.40138512132E+02 -0.19176531143E+02  0.25825115464E+03  0.26205438057E+03  0.00000000000E+00 0. -1.
         11    1    3    3    0    0 -0.38223830438E+01  0.48219178064E+02  0.10588863112E+03  0.11641349555E+03  0.00000000000E+00 0.  1.
        -13    1    4    4    0    0 -0.26233452273E+02  0.21006270677E+02  0.13483219009E+03  0.13895746439E+03  0.00000000000E+00 0.  1.
         13    1    4    4    0    0  0.24255582731E+02 -0.59951630568E+02  0.19792078841E+03  0.20821904281E+03  0.00000000000E+00 0. -1.
         21    1    1    2  502  501 -0.34338259547E+02  0.99027129706E+01  0.11476119548E+03  0.12019697076E+03  0.00000000000E+00 0.  1.
<scales pt_clust_5="13000.00000" pt_clust_6="13000.00000" pt_clust_7="13000.00000" pt_clust_8="13000.00000" pt_clust_9="35.73765"></scales>
<clustering>
<clus scale="   35.738">  2  9  1 -1</clus>
<clus scale="   91.029">  7  8 -1 -1</clus>
<clus scale="   92.075">  5  6 -1 -1</clus>
<clus scale="   99.043">  2  7  1 -1</clus>
<clus scale="   35.738">  2  5  1 -1</clus>
</clustering>
</event>
<event>
 9    1  0.5300912E-006  0.1023556E+03  0.7546771E-02  0.1279623E+00
         -2   -1    0    0    0  501 -0.00000000000E+00  0.00000000000E+00  0.69109839485E+02  0.69109839485E+02  0.00000000000E+00 0.  1.
          2   -1    0    0  502    0  0.00000000000E+00 -0.00000000000E+00 -0.22770759975E+03  0.22770759975E+03  0.00000000000E+00 0. -1.
         23    2    1    2    0    0  0.36078585313E+02 -0.41322487650E+01 -0.58725602843E+02  0.11068673760E+03  0.86510795014E+02 0.  0.
         23    2    1    2    0    0 -0.34891138785E+02 -0.27780542359E+02 -0.11053112061E+03  0.15246395598E+03  0.95073546002E+02 0.  0.
        -13    1    4    4    0    0  0.20403485566E+02 -0.42982037857E+02 -0.46991845681E+02  0.66872949405E+02  0.00000000000E+00 0.  1.
         13    1    4    4    0    0 -0.55294624351E+02  0.15201495499E+02 -0.63539274933E+02  0.85591006575E+02  0.00000000000E+00 0. -1.
        -13    1    3    3    0    0  0.64817051330E+02 -0.71446416687E+00 -0.42436614817E+02  0.77476621501E+02  0.00000000000E+00 0.  1.
         13    1    3    3    0    0 -0.28738466017E+02 -0.34177845981E+01 -0.16288988026E+02  0.33210116102E+02  0.00000000000E+00 0. -1.
         21    1    1    2  502  501 -0.11874465278E+01  0.31912791123E+02  0.10658963191E+02  0.33666745653E+02  0.00000000000E+00 0. -1.
<scales pt_clust_5="13000.00000" pt_clust_6="13000.00000" pt_clust_7="13000.00000" pt_clust_8="13000.00000" pt_clust_9="31.93488"></scales>
<clustering>
<clus scale="   31.935">  1  9  2 -1</clus>
<clus scale="   86.511">  7  8 -1 -1</clus>
<clus scale="   94.455">  1  7  2 -1</clus>
<clus scale="   95.074">  5  6 -1 -1</clus>
<clus scale="  102.356">  2  5  1 -1</clus>
</clustering>
</event>
<event>
 9    1  0.5300912E-006  0.1232967E+03  0.7546771E-02  0.1237812E+00
         -1   -1    0    0    0  501 -0.00000000000E+00  0.00000000000E+00  0.19223870145E+03  0.19223870145E+03  0.00000000000E+00 0.  1.
          1   -1    0    0  502    0  0.00000000000E+00 -0.00000000000E+00 -0.13771438716E+03  0.13771438716E+03  0.00000000000E+00 0. -1.
         23    2    1    2    0    0 -0.44817774929E+02  0.41293001175E+02  0.18307129651E+02  0.11043375626E+03  0.90259174775E+02 0.  0.
         23    2    1    2    0    0  0.43094020820E+02 -0.10814236920E+03  0.39320008152E+02  0.15257579758E+03  0.90451336750E+02 0.  0.
        -13    1    3    3    0    0  0.80080394563E+01  0.44306274251E+02 -0.15530539664E+02  0.47627432182E+02  0.00000000000E+00 0. -1.
         13    1    3    3    0    0 -0.52825814386E+02 -0.30132730765E+01  0.33837669315E+02  0.62806324083E+02  0.00000000000E+00 0.  1.
        -13    1    4    4    0    0  0.32652634443E+02 -0.89565937460E+02  0.67816388158E+02  0.11699279547E+03  0.00000000000E+00 0.  1.
         13    1    4    4    0    0  0.10441386377E+02 -0.18576431737E+02 -0.28496380007E+02  0.35583002108E+02  0.00000000000E+00 0. -1.
         21    1    1    2  502  501  0.17237541095E+01  0.66849368022E+02 -0.31028235073E+01  0.66943534765E+02  0.00000000000E+00 0.  1.
<scales pt_clust_5="13000.00000" pt_clust_6="13000.00000" pt_clust_7="13000.00000" pt_clust_8="13000.00000" pt_clust_9="66.87159"></scales>
<clustering>
<clus scale="   66.872">  2  9  1 -1</clus>
<clus scale="   90.259">  5  6 -1 -1</clus>
<clus scale="   90.451">  7  8 -1 -1</clus>
<clus scale="  123.156">  1  5  2 -1</clus>
<clus scale="   66.872">  2  5  1 -1</clus>
</clustering>
</event>
<event>
 9    1  0.5300912E-006  0.1149497E+03  0.7546771E-02  0.1252722E+00
         -2   -1    0    0    0  501 -0.00000000000E+00  0.00000000000E+00  0.41665937661E+02  0.41665937661E+02  0.00000000000E+00 0.  1.
          2   -1    0    0  502    0  0.00000000000E+00 -0.00000000000E+00 -0.65779039409E+03  0.65779039409E+03  0.00000000000E+00 0. -1.
         23    2    1    2    0    0 -0.82080943960E+01  0.90676969735E+02 -0.11873744647E+03  0.17480087701E+03  0.90371896918E+02 0.  0.
         23    2    1    2    0    0  0.14714130575E+02 -0.65109295591E+02 -0.48144291788E+03  0.49382935314E+03  0.87317929655E+02 0.  0.
        -11    1    4    4    0    0  0.24528377574E+02 -0.83309170889E+02 -0.42336109711E+03  0.43217667430E+03  0.00000000000E+00 0. -1.
         11    1    4    4    0    0 -0.98142469993E+01  0.18199875298E+02 -0.58081820766E+02  0.61652678843E+02  0.00000000000E+00 0.  1.
        -13    1    3    3    0    0 -0.96541618116E+01  0.33279982823E+02  0.80889990776E+01  0.35583591768E+02  0.00000000000E+00 0.  1.
         13    1    3    3    0    0  0.14460674156E+01  0.57396986912E+02 -0.12682644555E+03  0.13921728524E+03  0.00000000000E+00 0. -1.
         21    1    1    2  502  501 -0.65060361791E+01 -0.25567674144E+02 -0.15944092077E+02  0.30826101603E+02  0.00000000000E+00 0. -1.
<scales pt_clust_5="13000.00000" pt_clust_6="13000.00000" pt_clust_7="13000.00000" pt_clust_8="13000.00000" pt_clust_9="26.38247"></scales>
<clustering>
<clus scale="   26.382">  1  9  2 -1</clus>
<clus scale="   87.318">  5  6 -1 -1</clus>
<clus scale="   90.372">  7  8 -1 -1</clus>
<clus scale="  112.564">  2  5  1 -1</clus>
<clus scale="  112.564">  2  5  1 -1</clus>
</clustering>
</event>
<event>
 9    1  0.5300912E-006  0.1076131E+03  0.7546771E-02  0.1267895E+00
          1   -1    0    0  502    0  0.00000000000E+00  0.00000000000E+00  0.60416031394E+03  0.60416031394E+03  0.00000000000E+00 0. -1.
         -1   -1    0    0    0  501 -0.00000000000E+00 -0.00000000000E+00 -0.80579085426E+02  0.80579085426E+02  0.00000000000E+00 0.  1.
         23    2    1    2    0    0  0.88420655854E+02 -0.36138562150E+02  0.29627884792E+03  0.32437322791E+03  0.91173610215E+02 0.  0.
         23    2    1    2    0    0 -0.15103840233E+02 -0.16428223728E+02  0.24831669602E+03  0.26773667356E+03  0.97589611753E+02 0.  0.
        -13    1    3    3    0    0 -0.18119186491E+02 -0.94429429324E+01  0.29649937519E+02  0.36008233575E+02  0.00000000000E+00 0.  1.
         13    1    3    3    0    0  0.10653984235E+03 -0.26695619217E+02  0.26662891040E+03  0.28836499433E+03  0.00000000000E+00 0. -1.
        -13    1    4    4    0    0 -0.26023061207E+02  0.36592303374E+02  0.93364820166E+02  0.10360109085E+03  0.00000000000E+00 0.  1.
         13    1    4    4    0    0  0.10919220974E+02 -0.53020527102E+02  0.15495187585E+03  0.16413558271E+03  0.00000000000E+00 0. -1.
         21    1    1    2  502  501 -0.73316815621E+02  0.52566785878E+02 -0.21014315419E+02  0.92629497909E+02  0.00000000000E+00 0.  1.
<scales pt_clust_5="13000.00000" pt_clust_6="13000.00000" pt_clust_7="13000.00000" pt_clust_8="13000.00000" pt_clust_9="90.21431"></scales>
<clustering>
<clus scale="   90.214">  2  9  1 -1</clus>
<clus scale="   91.174">  5  6 -1 -1</clus>
<clus scale="   97.590">  7  8 -1 -1</clus>
<clus scale="  101.831">  2  5  1 -1</clus>
<clus scale="  107.613">  1  5  2 -1</clus>
</clustering>
</event>
<event>
 9    1  0.5300912E-006  0.1141371E+03  0.7546771E-02  0.1261918E+00
         -2   -1    0    0    0  501 -0.00000000000E+00  0.00000000000E+00  0.65609162940E+02  0.65609162940E+02  0.00000000000E+00 0.  1.
          2   -1    0    0  502    0  0.00000000000E+00 -0.00000000000E+00 -0.30279545220E+03  0.30279545220E+03  0.00000000000E+00 0. -1.
         23    2    1    2    0    0 -0.20221056668E+02 -0.48233693299E+02 -0.36739221633E+02  0.12815131328E+03  0.11107478736E+03 0.  0.
         23    2    1    2    0    0  0.38888932856E+01  0.19192826034E+02 -0.17324639204E+03  0.19724181171E+03  0.92230861814E+02 0.  0.
        -13    1    3    3    0    0 -0.42184859674E+02 -0.20033473123E+01  0.24116844225E+02  0.48633300953E+02  0.00000000000E+00 0.  1.
         13    1    3    3    0    0  0.21963803006E+02 -0.46230345987E+02 -0.60856065858E+02  0.79518012326E+02  0.00000000000E+00 0. -1.
        -13    1    4    4    0    0  0.36382399325E+02  0.32780929569E+02 -0.14182707452E+03  0.15004395153E+03  0.00000000000E+00 0. -1.
         13    1    4    4    0    0 -0.32493506039E+02 -0.13588103534E+02 -0.31419317518E+02  0.47197860181E+02  0.00000000000E+00 0.  1.
         21    1    1    2  502  501  0.16332163382E+02  0.29040867265E+02 -0.27200675581E+02  0.43011490143E+02  0.00000000000E+00 0. -1.
<scales pt_clust_5="13000.00000" pt_clust_6="13000.00000" pt_clust_7="13000.00000" pt_clust_8="13000.00000" pt_clust_9="33.31834"></scales>
<clustering>
<clus scale="   33.318">  1  9  2 -1</clus>
<clus scale="   92.231">  7  8 -1 -1</clus>
<clus scale="   95.897">  2  7  1 -1</clus>
<clus scale="  111.075">  5  6 -1 -1</clus>
<clus scale="   95.897">  2  5  1 -1</clus>
</clustering>
</event>
<event>
 9    1  0.5300912E-006  0.3099706E+03  0.7546771E-02  0.1122171E+00
         -1   -1    0    0    0  501 -0.00000000000E+00  0.00000000000E+00  0.85775275836E+03  0.85775275836E+03  0.00000000000E+00 0.  1.
          1   -1    0    0  502    0  0.00000000000E+00 -0.00000000000E+00 -0.15571545906E+03  0.15571545906E+03  0.00000000000E+00 0. -1.
         23    2    1    2    0    0  0.27414032894E+03 -0.12340936847E+03  0.41814085129E+03  0.52321527358E+03  0.92356151967E+02 0.  0.
         23    2    1    2    0    0 -0.32913185026E+02 -0.41419856597E+02  0.51481480585E+02  0.11692209128E+03  0.90672765024E+02 0.  0.
        -11    1    4    4    0    0 -0.29237225460E+02  0.55131692609E+01  0.61924283548E+02  0.68700999126E+02  0.00000000000E+00 0.  1.
         11    1    4    4    0    0 -0.36759595655E+01 -0.46933025857E+02 -0.10442802963E+02  0.48221092155E+02  0.00000000000E+00 0. -1.
        -11    1    3    3    0    0  0.17090268396E+02  0.14787047459E+02  0.27480415189E+02  0.35579590573E+02  0.00000000000E+00 0.  1.
         11    1    3    3    0    0  0.25705006055E+03 -0.13819641593E+03  0.39066043610E+03  0.48763568300E+03  0.00000000000E+00 0. -1.
         21    1    1    2  502  501 -0.24122714392E+03  0.16482922507E+03  0.23241496742E+03  0.37333085257E+03  0.00000000000E+00 0.  1.
<scales pt_clust_5="13000.00000" pt_clust_6="13000.00000" pt_clust_7="13000.00000" pt_clust_8="13000.00000" pt_clust_9="295.89206"></scales>
<clustering>
<clus scale="   90.673">  5  6 -1 -1</clus>
<clus scale="   92.356">  7  8 -1 -1</clus>
<clus scale="  104.978">  2  5  1 -1</clus>
<clus scale="  295.892">  2  9  1 -1</clus>
<clus scale="  104.978">  2  5  1 -1</clus>
</clustering>
</event>
<event>
 9    1  0.5300912E-006  0.9587335E+02  0.7546771E-02  0.1291212E+00
         -1   -1    0    0    0  501 -0.00000000000E+00  0.00000000000E+00  0.34093758733E+03  0.34093758733E+03  0.00000000000E+00 0.  1.
          1   -1    0    0  502    0  0.00000000000E+00 -0.00000000000E+00 -0.14219723990E+03  0.14219723990E+03  0.00000000000E+00 0. -1.
         23    2    1    2    0    0 -0.11330794639E+02 -0.34355926714E+02  0.20824434854E+02  0.98883323333E+02  0.89641162079E+02 0.  0.
         23    2    1    2    0    0 -0.25323012369E+02  0.94160275035E+01 -0.77990839136E+02  0.12453287594E+03  0.93252075962E+02 0.  0.
        -11    1    3    3    0    0  0.24270506449E+02 -0.47237248697E+02 -0.45568606571E+01  0.53302721570E+02  0.00000000000E+00 0.  1.
         11    1    3    3    0    0 -0.35601301088E+02  0.12881321983E+02  0.25381295511E+02  0.45580601762E+02  0.00000000000E+00 0. -1.
        -13    1    4    4    0    0 -0.56894713158E+01  0.50130659140E+02 -0.51716971089E+02  0.72250246839E+02  0.00000000000E+00 0. -1.
         13    1    4    4    0    0 -0.19633541053E+02 -0.40714631636E+02 -0.26273868047E+02  0.52282629101E+02  0.00000000000E+00 0.  1.
         21    1    1    2  502  501  0.36653807008E+02  0.24939899210E+02  0.25590675171E+03  0.25971862796E+03  0.00000000000E+00 0.  1.
<scales pt_clust_5="13000.00000" pt_clust_6="13000.00000" pt_clust_7="13000.00000" pt_clust_8="13000.00000" pt_clust_9="44.33396"></scales>
<clustering>
<clus scale="   44.334">  1  9  2 -1</clus>
<clus scale="   89.641">  5  6 -1 -1</clus>
<clus scale="   92.365">  1  5  2 -1</clus>
<clus scale="   93.252">  7  8 -1 -1</clus>
<clus scale="   95.873">  2  5  1 -1</clus>
</clustering>
</event>
<event>
 9    1  0.5300912E-006  0.9766641E+02  0.7546771E-02  0.1287847E+00
          1   -1    0    0  502    0  0.00000000000E+00  0.00000000000E+00  0.26566465526E+03  0.26566465526E+03  0.00000000000E+00 0. -1.
         -1   -1    0    0    0  501 -0.00000000000E+00 -0.00000000000E+00 -0.46033770960E+02  0.46033770960E+02  0.00000000000E+00 0.  1.
         23    2    1    2    0    0  0.34110629045E+02 -0.71043064735E+00  0.64707092211E+02  0.11070303181E+03  0.83090996771E+02 0.  0.
         23    2    1    2    0    0 -0.53847010660E+02 -0.12530306947E+02  0.12190471883E+03  0.16031246076E+03  0.88220266681E+02 0.  0.
        -13    1    3    3    0    0  0.48477048216E+01  0.39635841208E+02  0.26940542897E+02  0.48169419780E+02  0.00000000000E+00 0.  1.
         13    1    3    3    0    0  0.29262924223E+02 -0.40346271855E+02  0.37766549313E+02  0.62533612032E+02  0.00000000000E+00 0. -1.
        -13    1    4    4    0    0 -0.15972412531E+02  0.25333473110E+02  0.32409253866E+01  0.30123187402E+02  0.00000000000E+00 0.  1.
         13    1    4    4    0    0 -0.37874598129E+02 -0.37863780057E+02  0.11866379344E+03  0.13018927336E+03  0.00000000000E+00 0. -1.
         21    1    1    2  502  501  0.19736381615E+02  0.13240737594E+02  0.33019073262E+02  0.40682933650E+02  0.00000000000E+00 0.  1.
<scales pt_clust_5="13000.00000" pt_clust_6="13000.00000" pt_clust_7="13000.00000" pt_clust_8="13000.00000" pt_clust_9="23.76640"></scales>
<clustering>
<clus scale="   23.766">  1  9  2 -1</clus>
<clus scale="   83.091">  5  6 -1 -1</clus>
<clus scale="   88.220">  7  8 -1 -1</clus>
<clus scale="   93.059">  2  5  1 -1</clus>
<clus scale="   23.766">  1  5  2 -1</clus>
</clustering>
</event>
<event>
 9    1  0.5300912E-006  0.2584946E+03  0.7546771E-02  0.1134815E+00
         -2   -1    0    0    0  501 -0.00000000000E+00  0.00000000000E+00  0.13033036889E+03  0.13033036889E+03  0.00000000000E+00 0.  1.
          2   -1    0    0  502    0  0.00000000000E+00 -0.00000000000E+00 -0.10426500808E+04  0.10426500808E+04  0.00000000000E+00 0. -1.
         23    2    1    2    0    0 -0.92895100900E+02 -0.24294106954E+02 -0.15198184583E+03  0.20168101680E+03  0.91416889425E+02 0.  0.
         23    2    1    2    0    0  0.79467122869E+02 -0.22819115757E+03 -0.64159003710E+03  0.69196063095E+03  0.93731057153E+02 0.  0.
        -11    1    3    3    0    0 -0.48621584778E+02 -0.56898727233E+02 -0.10734094587E+03  0.13085718294E+03  0.00000000000E+00 0. -1.
         11    1    3    3    0    0 -0.44273516122E+02  0.32604620279E+02 -0.44640899960E+02  0.70823833860E+02  0.00000000000E+00 0.  1.
        -13    1    4    4    0    0 -0.13915344343E+02 -0.93996400406E+02 -0.26016746337E+03  0.27697665803E+03  0.00000000000E+00 0. -1.
         13    1    4    4    0    0  0.93382467213E+02 -0.13419475716E+03 -0.38142257373E+03  0.41498397293E+03  0.00000000000E+00 0.  1.
         21    1    1    2  502  501  0.13427978030E+02  0.25248526452E+03 -0.11874782903E+03  0.27933880199E+03  0.00000000000E+00 0.  1.
<scales pt_clust_5="13000.00000" pt_clust_6="13000.00000" pt_clust_7="13000.00000" pt_clust_8="13000.00000" pt_clust_9="240.90234"></scales>
<clustering>
<clus scale="   91.417">  5  6 -1 -1</clus>
<clus scale="   93.731">  7  8 -1 -1</clus>
<clus scale="  132.577">  1  5  2 -1</clus>
<clus scale="  240.902">  1  9  2 -1</clus>
<clus scale="  258.495">  2  5  1 -1</clus>
</clustering>
</event>
<event>
 9    1  0.5300912E-006  0.9407917E+02  0.7546771E-02  0.1293904E+00
         -1   -1    0    0    0  501 -0.00000000000E+00  0.00000000000E+00  0.82917883309E+02  0.82917883309E+02  0.00000000000E+00 0.  1.
          1   -1    0    0  502    0  0.00000000000E+00 -0.00000000000E+00 -0.14756518658E+03  0.14756518658E+03  0.00000000000E+00 0. -1.
         23    2    1    2    0    0 -0.83095366954E+01  0.13874456860E+02  0.74788296135E+01  0.93419186492E+02  0.91704212331E+02 0.  0.
         23    2    1    2    0    0  0.14723037228E+01 -0.32837568072E+02 -0.61194341596E+02  0.11413243333E+03  0.90559324967E+02 0.  0.
        -13    1    4    4    0    0  0.31583993226E+02  0.18351594357E+02 -0.18179764490E+02  0.40802371015E+02  0.00000000000E+00 0.  1.
         13    1    4    4    0    0 -0.30111689503E+02 -0.51189162429E+02 -0.43014577106E+02  0.73330062311E+02  0.00000000000E+00 0. -1.
        -13    1    3    3    0    0 -0.40046575302E+02  0.92322030991E+01 -0.24729867079E+02  0.47963820669E+02  0.00000000000E+00 0. -1.
         13    1    3    3    0    0  0.31737038606E+02  0.46422537613E+01  0.32208696692E+02  0.45455365823E+02  0.00000000000E+00 0.  1.
         21    1    1    2  502  501  0.68372329726E+01  0.18963111212E+02 -0.10931791290E+02  0.22931450071E+02  0.00000000000E+00 0. -1.
<scales pt_clust_5="13000.00000" pt_clust_6="13000.00000" pt_clust_7="13000.00000" pt_clust_8="13000.00000" pt_clust_9="20.15806"></scales>
<clustering>
<clus scale="   20.158">  2  9  1 -1</clus>
<clus scale="   90.559">  5  6 -1 -1</clus>
<clus scale="   91.704">  7  8 -1 -1</clus>
<clus scale="   92.964">  2  5  1 -1</clus>
<clus scale="   20.158">  2  5  1 -1</clus>
</clustering>
</event>
<event>
 9    1  0.5300912E-006  0.2133695E+03  0.7546771E-02  0.1139483E+00
          2   -1    0    0  502    0  0.00000000000E+00  0.00000000000E+00  0.15732335638E+04  0.15732335638E+04  0.00000000000E+00 0. -1.
         -2   -1    0    0    0  501 -0.00000000000E+00 -0.00000000000E+00 -0.74019228535E+02  0.74019228535E+02  0.00000000000E+00 0.  1.
         23    2    1    2    0    0 -0.13395936259E+03 -0.10767932470E+03  0.28142277929E+03  0.34050610039E+03  0.84886252744E+02 0.  0.
         23    2    1    2    0    0  0.78786737683E+02  0.27200901741E+03  0.83692051550E+03  0.88828401032E+03  0.91740275435E+02 0.  0.
        -11    1    4    4    0    0  0.52400511619E+02  0.11448031427E+03  0.49713248493E+03  0.51282771332E+03  0.00000000000E+00 0. -1.
         11    1    4    4    0    0  0.26386226065E+02  0.15752870315E+03  0.33978803056E+03  0.37545629700E+03  0.00000000000E+00 0.  1.
        -13    1    3    3    0    0 -0.93172379883E+02 -0.11651749877E+03  0.20665945524E+03  0.25488340537E+03  0.00000000000E+00 0. -1.
         13    1    3    3    0    0 -0.40786982703E+02  0.88381740716E+01  0.74763324045E+02  0.85622695012E+02  0.00000000000E+00 0.  1.
         21    1    1    2  502  501  0.55172624903E+02 -0.16432969271E+03  0.38087104052E+03  0.41846268168E+03  0.00000000000E+00 0.  1.
<scales pt_clust_5="13000.00000" pt_clust_6="13000.00000" pt_clust_7="13000.00000" pt_clust_8="13000.00000" pt_clust_9="173.34436"></scales>
<clustering>
<clus scale="   84.886">  7  8 -1 -1</clus>
<clus scale="   91.740">  5  6 -1 -1</clus>
<clus scale="  173.344">  1  9  2 -1</clus>
<clus scale="  210.514">  2  7  1 -1</clus>
<clus scale="  173.344">  1  5  2 -1</clus>
</clustering>
</event>
<event>
 9    1  0.5300912E-006  0.1196264E+03  0.7546771E-02  0.1244143E+00
          2   -1    0    0  502    0  0.00000000000E+00  0.00000000000E+00  0.16904738892E+03  0.16904738892E+03  0.00000000000E+00 0. -1.
         -2   -1    0    0    0  501 -0.00000000000E+00 -0.00000000000E+00 -0.13019828650E+03  0.13019828650E+03  0.00000000000E+00 0.  1.
         23    2    1    2    0    0 -0.52986174810E+02  0.47656980047E+01 -0.39558658925E+02  0.11256451664E+03  0.90970524408E+02 0.  0.
         23    2    1    2    0    0  0.85629685854E+02 -0.92612434936E+01  0.86137011942E+02  0.15283518329E+03  0.92308150755E+02 0.  0.
        -13    1    3    3    0    0 -0.31827404555E+02 -0.37790688846E+01  0.27185374545E+02  0.42027486619E+02  0.00000000000E+00 0. -1.
         13    1    3    3    0    0 -0.21158770255E+02  0.85447668892E+01 -0.66744033469E+02  0.70537030017E+02  0.00000000000E+00 0.  1.
        -13    1    4    4    0    0 -0.11519973137E+02 -0.21804221907E+02  0.39644380346E+01  0.24977002281E+02  0.00000000000E+00 0. -1.
         13    1    4    4    0    0  0.97149658990E+02  0.12542978413E+02  0.82172573908E+02  0.12785818101E+03  0.00000000000E+00 0.  1.
         21    1    1    2  502  501 -0.32643511043E+02  0.44955454890E+01 -0.77292505940E+01  0.33845975495E+02  0.00000000000E+00 0. -1.
<scales pt_clust_5="13000.00000" pt_clust_6="13000.00000" pt_clust_7="13000.00000" pt_clust_8="13000.00000" pt_clust_9="32.95161"></scales>
<clustering>
<clus scale="   32.952">  2  9  1 -1</clus>
<clus scale="   90.971">  5  6 -1 -1</clus>
<clus scale="   92.308">  7  8 -1 -1</clus>
<clus scale="  118.597">  2  5  1 -1</clus>
<clus scale="  119.626">  1  5  2 -1</clus>
</clustering>
</event>
<event>
 9    1  0.5300912E-006  0.2809218E+03  0.7546771E-02  0.1115842E+00
         -2   -1    0    0    0  501 -0.00000000000E+00  0.00000000000E+00  0.28153405550E+03  0.28153405550E+03  0.00000000000E+00 0.  1.
          2   -1    0    0  502    0  0.00000000000E+00 -0.00000000000E+00 -0.52887943881E+03  0.52887943881E+03  0.00000000000E+00 0. -1.
         23    2    1    2    0    0 -0.99367644836E+02 -0.32333739082E+03 -0.88178976423E+02  0.36167579567E+03  0.92805453220E+02 0.  0.
         23    2    1    2    0    0  0.98548575672E+02  0.93765558390E+02 -0.14309358953E+03  0.21860245018E+03  0.93848037561E+02 0.  0.
        -11    1    4    4    0    0  0.70688730867E+02  0.11134836052E+03 -0.12055157113E+03  0.17868417771E+03  0.00000000000E+00 0.  1.
         11    1    4    4    0    0  0.27859844804E+02 -0.17582802134E+02 -0.22542018404E+02  0.39918272472E+02  0.00000000000E+00 0. -1.
        -13    1    3    3    0    0 -0.56780554645E+02 -0.22282048319E+03 -0.10216677283E+03  0.25161686864E+03  0.00000000000E+00 0. -1.
         13    1    3    3    0    0 -0.42587090191E+02 -0.10051690763E+03  0.13987796403E+02  0.11005892703E+03  0.00000000000E+00 0.  1.
         21    1    1    2  502  501  0.81906916439E+00  0.22957183243E+03 -0.16072817351E+02  0.23013524845E+03  0.00000000000E+00 0.  1.
<scales pt_clust_5="13000.00000" pt_clust_6="13000.00000" pt_clust_7="13000.00000" pt_clust_8="13000.00000" pt_clust_9="265.14938"></scales>
<clustering>
<clus scale="   92.805">  7  8 -1 -1</clus>
<clus scale="   93.848">  5  6 -1 -1</clus>
<clus scale="  165.261">  2  5  1 -1</clus>
<clus scale="  265.149">  1  9  2 -1</clus>
<clus scale="  165.261">  2  5  1 -1</clus>
</clustering>
</event>
<event>
 9    1  0.5300912E-006  0.9464038E+02  0.7546771E-02  0.1302912E+00
          1   -1    0    0  502    0  0.00000000000E+00  0.00000000000E+00  0.14470426489E+03  0.14470426489E+03  0.00000000000E+00 0. -1.
         -1   -1    0    0    0  501 -0.00000000000E+00 -0.00000000000E+00 -0.25959001140E+03  0.25959001140E+03  0.00000000000E+00 0.  1.
         23    2    1    2    0    0  0.22882635996E+02  0.27238398216E+02 -0.22147820499E+03  0.24163497949E+03  0.89829408652E+02 0.  0.
         23    2    1    2    0    0 -0.44059410115E+01  0.15749224290E+02  0.47383010085E+02  0.87193524926E+02  0.71345012176E+02 0.  0.
        -13    1    4    4    0    0  0.30049995903E-01  0.43953706163E+02  0.34470146888E+02  0.55858036261E+02  0.00000000000E+00 0.  1.
         13    1    4    4    0    0 -0.44359910074E+01 -0.28204481873E+02  0.12912863197E+02  0.31335488665E+02  0.00000000000E+00 0. -1.
        -13    1    3    3    0    0 -0.24815447326E+02 -0.16574125842E+02 -0.94398437972E+02  0.99002894730E+02  0.00000000000E+00 0. -1.
         13    1    3    3    0    0  0.47698083321E+02  0.43812524058E+02 -0.12707976702E+03  0.14263208476E+03  0.00000000000E+00 0.  1.
         21    1    1    2  502  501 -0.18476694984E+02 -0.42987622506E+02  0.59209448396E+02  0.75465771881E+02  0.00000000000E+00 0. -1.
<scales pt_clust_5="13000.00000" pt_clust_6="13000.00000" pt_clust_7="13000.00000" pt_clust_8="13000.00000" pt_clust_9="46.79021"></scales>
<clustering>
<clus scale="   46.790">  1  9  2 -1</clus>
<clus scale="   71.345">  5  6 -1 -1</clus>
<clus scale="   77.315">  1  5  2 -1</clus>
<clus scale="   89.829">  7  8 -1 -1</clus>
<clus scale="   46.790">  1  5  2 -1</clus>
</clustering>
</event>
<event>
 9    1  0.5300912E-006  0.1558891E+03  0.7546771E-02  0.1205006E+00
          1   -1    0    0  502    0  0.00000000000E+00  0.00000000000E+00  0.54937444508E+03  0.54937444508E+03  0.00000000000E+00 0. -1.
         -1   -1    0    0    0  501 -0.00000000000E+00 -0.00000000000E+00 -0.10580771912E+03  0.10580771912E+03  0.00000000000E+00 0.  1.
         23    2    1    2    0    0 -0.76542978718E+02  0.35769257433E+02  0.61240026895E+02  0.13575714228E+03  0.86841196549E+02 0.  0.
         23    2    1    2    0    0 -0.68800296499E+02  0.60257943851E+02  0.28810129816E+03  0.32137372247E+03  0.10915223725E+03 0.  0.
        -11    1    4    4    0    0 -0.65406073143E+02  0.90642542669E+02  0.22976602338E+03  0.25551213366E+03  0.00000000000E+00 0.  1.
         11    1    4    4    0    0 -0.33942233560E+01 -0.30384598818E+02  0.58335274779E+02  0.65861588813E+02  0.00000000000E+00 0. -1.
        -11    1    3    3    0    0 -0.13805621505E+02  0.31145906504E+02 -0.14735113122E+02  0.37118543019E+02  0.00000000000E+00 0.  1.
         11    1    3    3    0    0 -0.62737357214E+02  0.46233509285E+01  0.75975140017E+02  0.98638599263E+02  0.00000000000E+00 0. -1.
         21    1    1    2  502  501  0.14534327522E+03 -0.96027201284E+02  0.94225400906E+02  0.19805129945E+03  0.00000000000E+00 0.  1.
<scales pt_clust_5="13000.00000" pt_clust_6="13000.00000" pt_clust_7="13000.00000" pt_clust_8="13000.00000" pt_clust_9="111.29787"></scales>
<clustering>
<clus scale="   86.841">  7  8 -1 -1</clus>
<clus scale="  109.152">  5  6 -1 -1</clus>
<clus scale="  121.160">  2  7  1 -1</clus>
<clus scale="  111.298">  2  9  1 -1</clus>
<clus scale="  155.889">  1  5  2 -1</clus>
</clustering>
</event>
<event>
 9    1  0.5300912E-006  0.3546379E+03  0.7546771E-02  0.1080915E+00
          1   -1    0    0  502    0  0.00000000000E+00  0.00000000000E+00  0.11975311292E+04  0.11975311292E+04  0.00000000000E+00 0. -1.
         -1   -1    0    0    0  501 -0.00000000000E+00 -0.00000000000E+00 -0.22793417403E+03  0.22793417403E+03  0.00000000000E+00 0.  1.
         23    2    1    2    0    0  0.14403368814E+03  0.11116406249E+03 -0.17074579937E+02  0.20462269441E+03  0.92063856527E+02 0.  0.
         23    2    1    2    0    0 -0.23828605211E+03 -0.35551048146E+03  0.74374315734E+03  0.86362715939E+03  0.97621930381E+02 0.  0.
        -13    1    3    3    0    0  0.87846256216E+02  0.53361725508E+02  0.35086977942E+02  0.10860724884E+03  0.00000000000E+00 0. -1.
         13    1    3    3    0    0  0.56187431924E+02  0.57802336979E+02 -0.52161557878E+02  0.96015445563E+02  0.00000000000E+00 0.  1.
        -13    1    4    4    0    0 -0.63156661359E+02 -0.34750656048E+02  0.98223440075E+02  0.12183684233E+03  0.00000000000E+00 0.  1.
         13    1    4    4    0    0 -0.17512939075E+03 -0.32075982541E+03  0.64551971727E+03  0.74179031706E+03  0.00000000000E+00 0. -1.
         21    1    1    2  502  501  0.94252363970E+02  0.24434641897E+03  0.24292837774E+03  0.35721544940E+03  0.00000000000E+00 0. -1.
<scales pt_clust_5="13000.00000" pt_clust_6="13000.00000" pt_clust_7="13000.00000" pt_clust_8="13000.00000" pt_clust_9="340.93690"></scales>
<clustering>
<clus scale="   92.064">  5  6 -1 -1</clus>
<clus scale="   97.622">  7  8 -1 -1</clus>
<clus scale="  203.909">  2  5  1 -1</clus>
<clus scale="  340.937">  1  9  2 -1</clus>
<clus scale="  340.937">  1  5  2 -1</clus>
</clustering>
</event>
<event>
 9    1  0.5300912E-006  0.9372983E+02  0.7546771E-02  0.1296581E+00
          3   -1    0    0  502    0  0.00000000000E+00  0.00000000000E+00  0.64694855542E+03  0.64694855542E+03  0.00000000000E+00 0. -1.
         -3   -1    0    0    0  501 -0.00000000000E+00 -0.00000000000E+00 -0.32102370464E+02  0.32102370464E+02  0.00000000000E+00 0.  1.
         23    2    1    2    0    0  0.17183091715E+02  0.12879380731E+02  0.27601852441E+03  0.29224531723E+03  0.93594671503E+02 0.  0.
         23    2    1    2    0    0  0.36034005358E+01  0.92820779466E+01  0.34438673889E+03  0.35591690743E+03  0.89305529534E+02 0.  0.
        -11    1    3    3    0    0  0.32799076896E+02  0.47571027721E+02  0.15709151237E+03  0.16738137705E+03  0.00000000000E+00 0.  1.
         11    1    3    3    0    0 -0.15615985181E+02 -0.34691646989E+02  0.11892701204E+03  0.12486394018E+03  0.00000000000E+00 0. -1.
        -13    1    4    4    0    0  0.20849539774E+02 -0.34286035531E+02  0.20423064138E+03  0.20813550975E+03  0.00000000000E+00 0. -1.
         13    1    4    4    0    0 -0.17246139239E+02  0.43568113478E+02  0.14015609751E+03  0.14778139768E+03  0.00000000000E+00 0.  1.
         21    1    1    2  502  501 -0.20786492251E+02 -0.22161458678E+02 -0.55590783531E+01  0.30888701219E+02  0.00000000000E+00 0.  1.
<scales pt_clust_5="13000.00000" pt_clust_6="13000.00000" pt_clust_7="13000.00000" pt_clust_8="13000.00000" pt_clust_9="30.38435"></scales>
<clustering>
<clus scale="   30.384">  2  9  1 -1</clus>
<clus scale="   89.306">  7  8 -1 -1</clus>
<clus scale="   89.447">  1  7  2 -1</clus>
<clus scale="   93.595">  5  6 -1 -1</clus>
<clus scale="   89.447">  1  5  2 -1</clus>
</clustering>
</event>
<event>
 9    1  0.5300912E-006  0.9860700E+02  0.7546771E-02  0.1285147E+00
          1   -1    0    0  502    0  0.00000000000E+00  0.00000000000E+00  0.15723616272E+03  0.15723616272E+03  0.00000000000E+00 0. -1.
         -1   -1    0    0    0  501 -0.00000000000E+00 -0.00000000000E+00 -0.88593963778E+02  0.88593963778E+02  0.00000000000E+00 0.  1.
         23    2    1    2    0    0 -0.76719610578E+01 -0.74874976605E+01 -0.94295645516E+01  0.95642225052E+02  0.94570592245E+02 0.  0.
         23    2    1    2    0    0  0.10034497096E+02  0.35237748088E+02  0.72095592003E+02  0.12170329857E+03  0.90947943763E+02 0.  0.
        -13    1    3    3    0    0 -0.50658024547E+02 -0.53428020041E+00  0.17293827705E+01  0.50690350868E+02  0.00000000000E+00 0.  1.
         13    1    3    3    0    0  0.42986063489E+02 -0.69532174601E+01 -0.11158947322E+02  0.44951874184E+02  0.00000000000E+00 0. -1.
        -13    1    4    4    0    0 -0.34992081810E+02 -0.69277696349E+01  0.33508875090E+02  0.48941643733E+02  0.00000000000E+00 0.  1.
         13    1    4    4    0    0  0.45026578905E+02  0.42165517723E+02  0.38586716913E+02  0.72761654839E+02  0.00000000000E+00 0. -1.
         21    1    1    2  502  501 -0.23625360379E+01 -0.27750250427E+02  0.59761714928E+01  0.28484602876E+02  0.00000000000E+00 0.  1.
<scales pt_clust_5="13000.00000" pt_clust_6="13000.00000" pt_clust_7="13000.00000" pt_clust_8="13000.00000" pt_clust_9="27.85064"></scales>
<clustering>
<clus scale="   27.851">  2  9  1 -1</clus>
<clus scale="   90.948">  7  8 -1 -1</clus>
<clus scale="   94.571">  5  6 -1 -1</clus>
<clus scale="   95.138">  1  7  2 -1</clus>
<clus scale="   95.138">  1  5  2 -1</clus>
</clustering>
</event>
<event>
 9    1  0.5300912E-006  0.4075164E+03  0.7546771E-02  0.1081044E+00
          1   -1    0    0  502    0  0.00000000000E+00  0.00000000000E+00  0.22818423380E+04  0.22818423380E+04  0.00000000000E+00 0. -1.
         -1   -1    0    0    0  501 -0.00000000000E+00 -0.00000000000E+00 -0.11912056492E+03  0.11912056492E+03  0.00000000000E+00 0.  1.
         23    2    1    2    0    0 -0.48435059326E+02  0.85462144066E+02  0.58613272172E+02  0.14618852610E+03  0.91026570015E+02 0.  0.
         23    2    1    2    0    0  0.75339766044E+02  0.35035068086E+03  0.85929179220E+03  0.93559837647E+03  0.92413516182E+02 0.  0.
        -11    1    4    4    0    0  0.47398752692E+02  0.25438570583E+03  0.71228681367E+03  0.75783324948E+03  0.00000000000E+00 0. -1.
         11    1    4    4    0    0  0.27941013352E+02  0.95964975032E+02  0.14700497854E+03  0.17776512699E+03  0.00000000000E+00 0.  1.
        -11    1    3    3    0    0  0.98598219824E+00  0.80778505366E+02  0.19804536863E+02  0.83176672033E+02  0.00000000000E+00 0.  1.
         11    1    3    3    0    0 -0.49421041525E+02  0.46836386996E+01  0.38808735309E+02  0.63011854068E+02  0.00000000000E+00 0. -1.
         21    1    1    2  502  501 -0.26904706717E+02 -0.43581282493E+03  0.12448167087E+04  0.13191760004E+04  0.00000000000E+00 0.  1.
<scales pt_clust_5="13000.00000" pt_clust_6="13000.00000" pt_clust_7="13000.00000" pt_clust_8="13000.00000" pt_clust_9="396.89965"></scales>
<clustering>
<clus scale="   91.027">  7  8 -1 -1</clus>
<clus scale="   92.414">  5  6 -1 -1</clus>
<clus scale="  133.924">  2  7  1 -1</clus>
<clus scale="  396.900">  2  9  1 -1</clus>
<clus scale="  407.516">  1  5  2 -1</clus>
</clustering>
</event>
<event>
 9    1  0.5300912E-006  0.9979797E+02  0.7546771E-02  0.1281097E+00
          2   -1    0    0  502    0  0.00000000000E+00  0.00000000000E+00  0.13590678237E+03  0.13590678237E+03  0.00000000000E+00 0. -1.
         -2   -1    0    0    0  501 -0.00000000000E+00 -0.00000000000E+00 -0.20294069109E+03  0.20294069109E+03  0.00000000000E+00 0.  1.
         23    2    1    2    0    0  0.48245516850E+02  0.42974623399E+02  0.35182198869E+01  0.11297158051E+03  0.92605356102E+02 0.  0.
         23    2    1    2    0    0  0.26870356127E+02 -0.32508545176E+02  0.24780666046E+02  0.10405522598E+03  0.91840008144E+02 0.  0.
        -11    1    3    3    0    0  0.57654106532E+02 -0.10082738923E+02  0.71499556093E+01  0.58964222113E+02  0.00000000000E+00 0. -1.
         11    1    3    3    0    0 -0.94085896817E+01  0.53057362323E+02 -0.36317357223E+01  0.54007358395E+02  0.00000000000E+00 0.  1.
        -13    1    4    4    0    0  0.59404504880E+01  0.19119614395E+02  0.41343260451E+02  0.45935974915E+02  0.00000000000E+00 0. -1.
         13    1    4    4    0    0  0.20929905639E+02 -0.51628159572E+02 -0.16562594405E+02  0.58119251064E+02  0.00000000000E+00 0.  1.
         21    1    1    2  502  501 -0.75115872977E+02 -0.10466078223E+02 -0.95332794648E+02  0.12182066697E+03  0.00000000000E+00 0.  1.
<scales pt_clust_5="13000.00000" pt_clust_6="13000.00000" pt_clust_7="13000.00000" pt_clust_8="13000.00000" pt_clust_9="75.84150"></scales>
<clustering>
<clus scale="   75.842">  2  9  1 -1</clus>
<clus scale="   91.840">  7  8 -1 -1</clus>
<clus scale="   92.605">  5  6 -1 -1</clus>
<clus scale="   99.088">  1  7  2 -1</clus>
<clus scale="   99.088">  1  5  2 -1</clus>
</clustering>
</event>
<event>
 9    1  0.5300912E-006  0.2569856E+03  0.7546771E-02  0.1147014E+00
          2   -1    0    0  502    0  0.00000000000E+00  0.00000000000E+00  0.31874087977E+03  0.31874087977E+03  0.00000000000E+00 0. -1.
         -2   -1    0    0    0  501 -0.00000000000E+00 -0.00000000000E+00 -0.29021742461E+03  0.29021742461E+03  0.00000000000E+00 0.  1.
         23    2    1    2    0    0 -0.36888754593E+02  0.25396518707E+03 -0.43758235636E+02  0.27565348821E+03  0.90614380276E+02 0.  0.
         23    2    1    2    0    0  0.16549392233E+02 -0.32163330605E+02  0.40009475473E+02  0.10824649245E+03  0.93851919430E+02 0.  0.
        -11    1    4    4    0    0 -0.30759584153E+02  0.43733444503E+01 -0.74173090406E+01  0.31942051161E+02  0.00000000000E+00 0.  1.
         11    1    4    4    0    0  0.47308976386E+02 -0.36536675056E+02  0.47426784513E+02  0.76304441287E+02  0.00000000000E+00 0. -1.
        -13    1    3    3    0    0 -0.57971769645E+02  0.20862698933E+03 -0.57041036879E+02  0.22391879475E+03  0.00000000000E+00 0.  1.
         13    1    3    3    0    0  0.21083015052E+02  0.45338197745E+02  0.13282801243E+02  0.51734693460E+02  0.00000000000E+00 0. -1.
         21    1    1    2  502  501  0.20339362359E+02 -0.22180185647E+03  0.32272215325E+02  0.22505832372E+03  0.00000000000E+00 0. -1.
<scales pt_clust_5="13000.00000" pt_clust_6="13000.00000" pt_clust_7="13000.00000" pt_clust_8="13000.00000" pt_clust_9="240.47999"></scales>
<clustering>
<clus scale="   90.614">  7  8 -1 -1</clus>
<clus scale="   93.852">  5  6 -1 -1</clus>
<clus scale="  100.581">  1  5  2 -1</clus>
<clus scale="  240.480">  1  9  2 -1</clus>
<clus scale="  100.581">  1  5  2 -1</clus>
</clustering>
</event>
<event>
 9    1  0.5300912E-006  0.1076267E+03  0.7546771E-02  0.1267623E+00
         -2   -1    0    0    0  501 -0.00000000000E+00  0.00000000000E+00  0.30766254650E+03  0.30766254650E+03  0.00000000000E+00 0.  1.
          2   -1    0    0  502    0  0.00000000000E+00 -0.00000000000E+00 -0.11438149875E+03  0.11438149875E+03  0.00000000000E+00 0. -1.
         23    2    1    2    0    0  0.49591072005E+01 -0.11697260152E+02  0.14568839186E+02  0.99556404736E+02  0.97661701856E+02 0.  0.
         23    2    1    2    0    0 -0.52477413159E+02  0.55528560422E+02 -0.13034224953E+02  0.12013678914E+03  0.91791378519E+02 0.  0.
        -11    1    3    3    0    0  0.32902034648E+02  0.32443529574E+02  0.81687512068E+01  0.46923927707E+02  0.00000000000E+00 0.  1.
         11    1    3    3    0    0 -0.27942927447E+02 -0.44140789726E+02  0.64000879795E+01  0.52632477028E+02  0.00000000000E+00 0. -1.
        -11    1    4    4    0    0 -0.75111806244E+02  0.34711410722E+02  0.76168724888E+01  0.83094417490E+02  0.00000000000E+00 0.  1.
         11    1    4    4    0    0  0.22634393085E+02  0.20817149700E+02 -0.20651097442E+02  0.37042371651E+02  0.00000000000E+00 0. -1.
         21    1    1    2  502  501  0.47518305959E+02 -0.43831300271E+02  0.19174643351E+03  0.20235085137E+03  0.00000000000E+00 0. -1.
<scales pt_clust_5="13000.00000" pt_clust_6="13000.00000" pt_clust_7="13000.00000" pt_clust_8="13000.00000" pt_clust_9="64.64652"></scales>
<clustering>
<clus scale="   64.647">  1  9  2 -1</clus>
<clus scale="   91.791">  7  8 -1 -1</clus>
<clus scale="   97.662">  5  6 -1 -1</clus>
<clus scale="  102.330">  2  7  1 -1</clus>
<clus scale="  102.330">  2  5  1 -1</clus>
</clustering>
</event>
<event>
 9    1  0.5300912E-006  0.3488789E+03  0.7546771E-02  0.1083979E+00
         -2   -1    0    0    0  501 -0.00000000000E+00  0.00000000000E+00  0.43387618773E+03  0.43387618773E+03  0.00000000000E+00 0.  1.
          2   -1    0    0  502    0  0.00000000000E+00 -0.00000000000E+00 -0.64353044582E+03  0.64353044582E+03  0.00000000000E+00 0. -1.
         23    2    1    2    0    0  0.26394692457E+03  0.16779176916E+03 -0.25454538650E+02  0.32681997230E+03  0.91330739424E+02 0.  0.
         23    2    1    2    0    0  0.10720225255E+03 -0.13723086161E+03 -0.30135574041E+03  0.36018787284E+03  0.92711321469E+02 0.  0.
        -11    1    4    4    0    0  0.49420200198E+02 -0.55551879326E+02 -0.49864540805E+02  0.89525638305E+02  0.00000000000E+00 0.  1.
         11    1    4    4    0    0  0.57782052347E+02 -0.81678982287E+02 -0.25149119961E+03  0.27066223453E+03  0.00000000000E+00 0. -1.
        -13    1    3    3    0    0  0.26385924657E+03  0.14169119993E+03 -0.26739028994E+02  0.30068766821E+03  0.00000000000E+00 0.  1.
         13    1    3    3    0    0  0.87677999959E-01  0.26100569230E+02  0.12844903440E+01  0.26132304089E+02  0.00000000000E+00 0. -1.
         21    1    1    2  502  501 -0.37114917712E+03 -0.30560907550E+02  0.11715602097E+03  0.39039878842E+03  0.00000000000E+00 0.  1.
<scales pt_clust_5="13000.00000" pt_clust_6="13000.00000" pt_clust_7="13000.00000" pt_clust_8="13000.00000" pt_clust_9="336.71236"></scales>
<clustering>
<clus scale="   91.331">  7  8 -1 -1</clus>
<clus scale="   92.711">  5  6 -1 -1</clus>
<clus scale="  197.282">  2  5  1 -1</clus>
<clus scale="  336.712">  1  9  2 -1</clus>
<clus scale="  197.282">  2  5  1 -1</clus>
</clustering>
</event>
<event>
 9    1  0.5300912E-006  0.1837551E+03  0.7546771E-02  0.1186739E+00
          1   -1    0    0  502    0  0.00000000000E+00  0.00000000000E+00  0.16622999295E+03  0.16622999295E+03  0.00000000000E+00 0. -1.
         -1   -1    0    0    0  501 -0.00000000000E+00 -0.00000000000E+00 -0.31581649181E+03  0.31581649181E+03  0.00000000000E+00 0.  1.
         23    2    1    2    0    0  0.21973637373E+02 -0.60246624556E+02 -0.36546779640E+02  0.11620775424E+03  0.89755660179E+02 0.  0.
         23    2    1    2    0    0  0.79027170284E+02  0.16019722537E+03 -0.39317517223E+02  0.20575672399E+03  0.94241804136E+02 0.  0.
        -11    1    4    4    0    0  0.77610737928E+02  0.56641412065E+02 -0.34470473633E+02  0.10207786124E+03  0.00000000000E+00 0.  1.
         11    1    4    4    0    0  0.14164323559E+01  0.10355581330E+03 -0.48470435894E+01  0.10367886275E+03  0.00000000000E+00 0. -1.
        -13    1    3    3    0    0  0.52787840133E+02 -0.46944561153E+02 -0.42029775934E+02  0.82200060541E+02  0.00000000000E+00 0.  1.
         13    1    3    3    0    0 -0.30814202760E+02 -0.13302063403E+02  0.54829962943E+01  0.34007693701E+02  0.00000000000E+00 0. -1.
         21    1    1    2  502  501 -0.10100080766E+03 -0.99950600811E+02 -0.73722201990E+02  0.16008200653E+03  0.00000000000E+00 0.  1.
<scales pt_clust_5="13000.00000" pt_clust_6="13000.00000" pt_clust_7="13000.00000" pt_clust_8="13000.00000" pt_clust_9="157.74801"></scales>
<clustering>
<clus scale="   89.756">  7  8 -1 -1</clus>
<clus scale="   94.242">  5  6 -1 -1</clus>
<clus scale="  110.311">  2  7  1 -1</clus>
<clus scale="  157.748">  2  9  1 -1</clus>
<clus scale="  183.755">  1  5  2 -1</clus>
</clustering>
</event>
<event>
 9    1  0.5300912E-006  0.1752104E+03  0.7546771E-02  0.1201738E+00
          1   -1    0    0  502    0  0.00000000000E+00  0.00000000000E+00  0.51413700891E+03  0.51413700891E+03  0.00000000000E+00 0. -1.
         -1   -1    0    0    0  501 -0.00000000000E+00 -0.00000000000E+00 -0.32646985589E+03  0.32646985589E+03  0.00000000000E+00 0.  1.
         23    2    1    2    0    0 -0.41327870711E+01  0.72872714990E+01 -0.88309127751E+01  0.91999620634E+02  0.91190794061E+02 0.  0.
         23    2    1    2    0    0  0.11286621552E+03  0.95035393024E+02 -0.23484359259E+03  0.29215515205E+03  0.91829251098E+02 0.  0.
        -11    1    3    3    0    0  0.20618687594E+02  0.39315566323E+02  0.12668701731E+02  0.46166438426E+02  0.00000000000E+00 0.  1.
         11    1    3    3    0    0 -0.24751474665E+02 -0.32028294824E+02 -0.21499614506E+02  0.45833182208E+02  0.00000000000E+00 0. -1.
        -13    1    4    4    0    0  0.12443984155E+03  0.68661186547E+02 -0.21274801335E+03  0.25585415745E+03  0.00000000000E+00 0.  1.
         13    1    4    4    0    0 -0.11573626030E+02  0.26374206477E+02 -0.22095579239E+02  0.36300994597E+02  0.00000000000E+00 0. -1.
         21    1    1    2  502  501 -0.10873342845E+03 -0.10232266452E+03  0.43134165838E+03  0.45645209211E+03  0.00000000000E+00 0. -1.
<scales pt_clust_5="13000.00000" pt_clust_6="13000.00000" pt_clust_7="13000.00000" pt_clust_8="13000.00000" pt_clust_9="149.21823"></scales>
<clustering>
<clus scale="   91.191">  5  6 -1 -1</clus>
<clus scale="   91.575">  2  5  1 -1</clus>
<clus scale="   91.829">  7  8 -1 -1</clus>
<clus scale="  149.218">  1  9  2 -1</clus>
<clus scale="  149.218">  1  5  2 -1</clus>
</clustering>
</event>
<event>
 9    1  0.5300912E-006  0.3524306E+03  0.7546771E-02  0.1099769E+00
          1   -1    0    0  502    0  0.00000000000E+00  0.00000000000E+00  0.16529184949E+04  0.16529184949E+04  0.00000000000E+00 0. -1.
         -1   -1    0    0    0  501 -0.00000000000E+00 -0.00000000000E+00 -0.12181970239E+03  0.12181970239E+03  0.00000000000E+00 0.  1.
         23    2    1    2    0    0  0.33008049825E+03 -0.55060385295E+01  0.63551200120E+03  0.72161392023E+03  0.88700024881E+02 0.  0.
         23    2    1    2    0    0  0.16542750764E+02 -0.29627746830E+02  0.54284448347E+03  0.55733279331E+03  0.12160692115E+03 0.  0.
        -11    1    4    4    0    0  0.27986286860E+02  0.41912910927E+02  0.28858344510E+03  0.29295106953E+03  0.00000000000E+00 0. -1.
         11    1    4    4    0    0 -0.11443536096E+02 -0.71540657757E+02  0.25426103838E+03  0.26438172378E+03  0.00000000000E+00 0.  1.
        -13    1    3    3    0    0  0.28389726351E+03 -0.21113347201E+02  0.47413728679E+03  0.55303670437E+03  0.00000000000E+00 0. -1.
         13    1    3    3    0    0  0.46183234741E+02  0.15607308672E+02  0.16137471441E+03  0.16857721586E+03  0.00000000000E+00 0.  1.
         21    1    1    2  502  501 -0.34662324901E+03  0.35133785359E+02  0.35274230784E+03  0.49579148376E+03  0.00000000000E+00 0.  1.
<scales pt_clust_5="13000.00000" pt_clust_6="13000.00000" pt_clust_7="13000.00000" pt_clust_8="13000.00000" pt_clust_9="341.08600"></scales>
<clustering>
<clus scale="   88.700">  7  8 -1 -1</clus>
<clus scale="  121.607">  5  6 -1 -1</clus>
<clus scale="  126.253">  1  5  2 -1</clus>
<clus scale="  341.086">  2  9  1 -1</clus>
<clus scale="  126.253">  1  5  2 -1</clus>
</clustering>
</event>
<event>
 9    1  0.5300912E-006  0.1008035E+03  0.7546771E-02  0.1279271E+00
          1   -1    0    0  502    0  0.00000000000E+00  0.00000000000E+00  0.28031035364E+03  0.28031035364E+03  0.00000000000E+00 0. -1.
         -1   -1    0    0    0  501 -0.00000000000E+00 -0.00000000000E+00 -0.58491315938E+02  0.58491315938E+02  0.00000000000E+00 0.  1.
         23    2    1    2    0    0  0.33950844253E+02  0.64402484041E+00  0.64929555041E+02  0.11760383398E+03  0.91987716875E+02 0.  0.
         23    2    1    2    0    0 -0.29946985330E+02  0.46131266171E+02  0.12751678142E+03  0.16581991297E+03  0.90613455659E+02 0.  0.
        -11    1    4    4    0    0  0.99057325966E+01  0.52566776002E+02  0.32519873718E+02  0.62601371105E+02  0.00000000000E+00 0.  1.
         11    1    4    4    0    0 -0.39852717926E+02 -0.64355098318E+01  0.94996907701E+02  0.10321854187E+03  0.00000000000E+00 0. -1.
        -13    1    3    3    0    0  0.27392694320E+02  0.26719955096E+02 -0.86788952570E+01  0.39238232954E+02  0.00000000000E+00 0.  1.
         13    1    3    3    0    0  0.65581499327E+01 -0.26075930256E+02  0.73608450298E+02  0.78365601028E+02  0.00000000000E+00 0. -1.
         21    1    1    2  502  501 -0.40038589229E+01 -0.46775291011E+02  0.29372701240E+02  0.55377922619E+02  0.00000000000E+00 0. -1.
<scales pt_clust_5="13000.00000" pt_clust_6="13000.00000" pt_clust_7="13000.00000" pt_clust_8="13000.00000" pt_clust_9="46.94634"></scales>
<clustering>
<clus scale="   46.946">  2  9  1 -1</clus>
<clus scale="   90.613">  5  6 -1 -1</clus>
<clus scale="   91.988">  7  8 -1 -1</clus>
<clus scale="   99.551">  1  5  2 -1</clus>
<clus scale="   99.551">  1  5  2 -1</clus>
</clustering>
</event>
<event>
 9    1  0.5300912E-006  0.1089717E+03  0.7546771E-02  0.1262617E+00
          2   -1    0    0  502    0  0.00000000000E+00  0.00000000000E+00  0.72778795877E+03  0.72778795877E+03  0.00000000000E+00 0. -1.
         -2   -1    0    0    0  501 -0.00000000000E+00 -0.00000000000E+00 -0.34337434969E+02  0.34337434969E+02  0.00000000000E+00 0.  1.
         23    2    1    2    0    0  0.15324044968E+01 -0.99014151229E+02  0.32438842150E+03  0.35109899897E+03  0.90755212900E+02 0.  0.
         23    2    1    2    0    0 -0.29895163520E+02  0.21350529350E+02  0.19657656081E+03  0.21974820394E+03  0.91089862060E+02 0.  0.
        -11    1    4    4    0    0  0.17659954830E+02  0.41804912438E+02  0.75833088237E+02  0.88375233975E+02  0.00000000000E+00 0.  1.
         11    1    4    4    0    0 -0.47555118349E+02 -0.20454383089E+02  0.12074347257E+03  0.13137296996E+03  0.00000000000E+00 0. -1.
        -11    1    3    3    0    0 -0.32705686843E+02 -0.36579631639E+02  0.21535051197E+03  0.22087003964E+03  0.00000000000E+00 0. -1.
         11    1    3    3    0    0  0.34238091340E+02 -0.62434519590E+02  0.10903790953E+03  0.13022895933E+03  0.00000000000E+00 0.  1.
         21    1    1    2  502  501  0.28362759023E+02  0.77663621879E+02  0.17248554150E+03  0.19127819083E+03  0.00000000000E+00 0.  1.
<scales pt_clust_5="13000.00000" pt_clust_6="13000.00000" pt_clust_7="13000.00000" pt_clust_8="13000.00000" pt_clust_9="82.68062"></scales>
<clustering>
<clus scale="   82.681">  2  9  1 -1</clus>
<clus scale="   90.755">  7  8 -1 -1</clus>
<clus scale="   91.090">  5  6 -1 -1</clus>
<clus scale="  108.692">  2  7  1 -1</clus>
<clus scale="  108.972">  1  5  2 -1</clus>
</clustering>
</event>
<event>
 9    1  0.5300912E-006  0.9780416E+02  0.7546771E-02  0.1287603E+00
          2   -1    0    0  502    0  0.00000000000E+00  0.00000000000E+00  0.16173766158E+03  0.16173766158E+03  0.00000000000E+00 0. -1.
         -2   -1    0    0    0  501 -0.00000000000E+00 -0.00000000000E+00 -0.14720534982E+03  0.14720534982E+03  0.00000000000E+00 0.  1.
         23    2    1    2    0    0  0.19654981583E+02  0.42650840814E+02 -0.51271325005E+02  0.11395049570E+03  0.90280419692E+02 0.  0.
         23    2    1    2    0    0  0.16929015156E+02 -0.15107475454E+02  0.98437398334E+02  0.13876095705E+03  0.95130722919E+02 0.  0.
        -11    1    4    4    0    0 -0.26248455244E+02 -0.39181503936E+02  0.37243698900E+02  0.60093799689E+02  0.00000000000E+00 0.  1.
         11    1    4    4    0    0  0.43177470400E+02  0.24074028482E+02  0.61193699434E+02  0.78667157366E+02  0.00000000000E+00 0. -1.
        -13    1    3    3    0    0 -0.84983625858E+01 -0.26057626287E+02 -0.16123581717E+02  0.31799244357E+02  0.00000000000E+00 0.  1.
         13    1    3    3    0    0  0.28153344169E+02  0.68708467100E+02 -0.35147743289E+02  0.82151251344E+02  0.00000000000E+00 0. -1.
         21    1    1    2  502  501 -0.36583996740E+02 -0.27543365360E+02 -0.32633761575E+02  0.56231558642E+02  0.00000000000E+00 0.  1.
<scales pt_clust_5="13000.00000" pt_clust_6="13000.00000" pt_clust_7="13000.00000" pt_clust_8="13000.00000" pt_clust_9="45.79329"></scales>
<clustering>
<clus scale="   45.793">  2  9  1 -1</clus>
<clus scale="   90.280">  7  8 -1 -1</clus>
<clus scale="   93.093">  2  7  1 -1</clus>
<clus scale="   95.131">  5  6 -1 -1</clus>
<clus scale="   97.804">  1  5  2 -1</clus>
</clustering>
</event>
<event>
 9    1  0.5300912E-006  0.1849910E+03  0.7546771E-02  0.1191672E+00
          2   -1    0    0  502    0  0.00000000000E+00  0.00000000000E+00  0.54267943111E+03  0.54267943111E+03  0.00000000000E+00 0. -1.
         -2   -1    0    0    0  501 -0.00000000000E+00 -0.00000000000E+00 -0.25172024542E+03  0.25172024542E+03  0.00000000000E+00 0.  1.
         23    2    1    2    0    0 -0.18605106851E+02  0.18344071561E+02  0.29431839715E+02  0.10130525331E+03  0.93348091558E+02 0.  0.
         23    2    1    2    0    0 -0.15373088299E+03 -0.42330142463E+02  0.41951093588E+03  0.45807561616E+03  0.91754124986E+02 0.  0.
        -11    1    4    4    0    0 -0.65936965188E+02  0.27535616988E+02  0.15040110359E+03  0.16651241858E+03  0.00000000000E+00 0. -1.
         11    1    4    4    0    0 -0.87793917803E+02 -0.69865759451E+02  0.26910983229E+03  0.29156319758E+03  0.00000000000E+00 0.  1.
        -13    1    3    3    0    0 -0.23313847622E+02 -0.97922352278E+01 -0.27663785898E+02  0.37479439856E+02  0.00000000000E+00 0.  1.
         13    1    3    3    0    0  0.47087407717E+01  0.28136306789E+02  0.57095625613E+02  0.63825813457E+02  0.00000000000E+00 0. -1.
         21    1    1    2  502  501  0.17233598984E+03  0.23986070902E+02 -0.15798358990E+03  0.23501880706E+03  0.00000000000E+00 0.  1.
<scales pt_clust_5="13000.00000" pt_clust_6="13000.00000" pt_clust_7="13000.00000" pt_clust_8="13000.00000" pt_clust_9="160.63271"></scales>
<clustering>
<clus scale="   91.754">  5  6 -1 -1</clus>
<clus scale="   93.348">  7  8 -1 -1</clus>
<clus scale="   96.936">  2  7  1 -1</clus>
<clus scale="  160.633">  2  9  1 -1</clus>
<clus scale="  184.991">  1  5  2 -1</clus>
</clustering>
</event>
<event>
 9    1  0.5300912E-006  0.1005090E+03  0.7546771E-02  0.1279233E+00
          2   -1    0    0  502    0  0.00000000000E+00  0.00000000000E+00  0.23980827776E+03  0.23980827776E+03  0.00000000000E+00 0. -1.
         -2   -1    0    0    0  501 -0.00000000000E+00 -0.00000000000E+00 -0.88518385871E+02  0.88518385871E+02  0.00000000000E+00 0.  1.
         23    2    1    2    0    0 -0.51855703005E+02 -0.76252033596E+01  0.24849015483E+02  0.10880859486E+03  0.92058020211E+02 0.  0.
         23    2    1    2    0    0  0.33432355957E+02 -0.19816407284E+02  0.14906599332E+03  0.17946363548E+03  0.92065811643E+02 0.  0.
        -11    1    4    4    0    0 -0.26778820655E+02 -0.22933160557E+02  0.82128419283E+02  0.89376240371E+02  0.00000000000E+00 0.  1.
         11    1    4    4    0    0  0.60211176612E+02  0.31167532736E+01  0.66937574034E+02  0.90087395109E+02  0.00000000000E+00 0. -1.
        -13    1    3    3    0    0 -0.30038329018E+02 -0.15378378863E+01  0.59927906582E+02  0.67052368659E+02  0.00000000000E+00 0. -1.
         13    1    3    3    0    0 -0.21817373987E+02 -0.60873654733E+01 -0.35078891098E+02  0.41756226204E+02  0.00000000000E+00 0.  1.
         21    1    1    2  502  501  0.18423347048E+02  0.27441610643E+02 -0.22625116908E+02  0.40054433291E+02  0.00000000000E+00 0. -1.
<scales pt_clust_5="13000.00000" pt_clust_6="13000.00000" pt_clust_7="13000.00000" pt_clust_8="13000.00000" pt_clust_9="33.05241"></scales>
<clustering>
<clus scale="   33.052">  2  9  1 -1</clus>
<clus scale="   92.058">  7  8 -1 -1</clus>
<clus scale="   92.066">  5  6 -1 -1</clus>
<clus scale="  100.502">  2  7  1 -1</clus>
<clus scale="  100.509">  1  5  2 -1</clus>
</clustering>
</event>
<event>
 9    1  0.5300912E-006  0.9078899E+02  0.7546771E-02  0.1301298E+00
         -1   -1    0    0    0  501 -0.00000000000E+00  0.00000000000E+00  0.33193033769E+03  0.33193033769E+03  0.00000000000E+00 0.  1.
          1   -1    0    0  502    0  0.00000000000E+00 -0.00000000000E+00 -0.84831994849E+02  0.84831994849E+02  0.00000000000E+00 0. -1.
         23    2    1    2    0    0  0.13309414598E+02 -0.24548485665E+02  0.15250818149E+03  0.17965083136E+03  0.90751898717E+02 0.  0.
         23    2    1    2    0    0 -0.60627340893E+00 -0.50891526130E+01 -0.39949401245E+02  0.98761751264E+02  0.90175727395E+02 0.  0.
        -13    1    3    3    0    0 -0.13603239291E+01 -0.58182939188E+02  0.96563032263E+02  0.11274539500E+03  0.00000000000E+00 0. -1.
         13    1    3    3    0    0  0.14669738527E+02  0.33634453523E+02  0.55945149229E+02  0.66905436360E+02  0.00000000000E+00 0.  1.
        -13    1    4    4    0    0 -0.37923460273E+01 -0.38428580568E+02 -0.50569323643E+02  0.63626992594E+02  0.00000000000E+00 0. -1.
         13    1    4    4    0    0  0.31860726183E+01  0.33339427955E+02  0.10619922398E+02  0.35134758670E+02  0.00000000000E+00 0.  1.
         21    1    1    2  502  501 -0.12703141189E+02  0.29637638278E+02  0.13453956259E+03  0.13834974992E+03  0.00000000000E+00 0.  1.
<scales pt_clust_5="13000.00000" pt_clust_6="13000.00000" pt_clust_7="13000.00000" pt_clust_8="13000.00000" pt_clust_9="32.24530"></scales>
<clustering>
<clus scale="   32.245">  1  9  2 -1</clus>
<clus scale="   90.176">  7  8 -1 -1</clus>
<clus scale="   90.213">  2  7  1 -1</clus>
<clus scale="   90.752">  5  6 -1 -1</clus>
<clus scale="   90.213">  2  5  1 -1</clus>
</clustering>
</event>
<event>
 9    1  0.5300912E-006  0.1017866E+03  0.7546771E-02  0.1277489E+00
          1   -1    0    0  502    0  0.00000000000E+00  0.00000000000E+00  0.54708282021E+03  0.54708282021E+03  0.00000000000E+00 0. -1.
         -1   -1    0    0    0  501 -0.00000000000E+00 -0.00000000000E+00 -0.60801941397E+02  0.60801941397E+02  0.00000000000E+00 0.  1.
         23    2    1    2    0    0  0.41971956901E+02  0.13134618972E+02  0.34863959312E+02  0.11224897392E+03  0.97212000831E+02 0.  0.
         23    2    1    2    0    0  0.14032906066E+02  0.59036384467E+02  0.26156102310E+03  0.28494535171E+03  0.95380645378E+02 0.  0.
        -11    1    3    3    0    0 -0.22741068089E+02 -0.21886046183E+02  0.19439843323E+02  0.37068351781E+02  0.00000000000E+00 0. -1.
         11    1    3    3    0    0  0.64713024990E+02  0.35020665154E+02  0.15424115989E+02  0.75180622139E+02  0.00000000000E+00 0.  1.
        -11    1    4    4    0    0 -0.36585799260E+02  0.41422055490E+02  0.17104609226E+03  0.17975281101E+03  0.00000000000E+00 0.  1.
         11    1    4    4    0    0  0.50618705326E+02  0.17614328977E+02  0.90514930841E+02  0.10519254070E+03  0.00000000000E+00 0. -1.
         21    1    1    2  502  501 -0.56004862967E+02 -0.72171003439E+02  0.18985589640E+03  0.21069043598E+03  0.00000000000E+00 0. -1.
<scales pt_clust_5="13000.00000" pt_clust_6="13000.00000" pt_clust_7="13000.00000" pt_clust_8="13000.00000" pt_clust_9="91.35206"></scales>
<clustering>
<clus scale="   91.352">  1  9  2 -1</clus>
<clus scale="   95.381">  7  8 -1 -1</clus>
<clus scale="   97.212">  5  6 -1 -1</clus>
<clus scale="  100.039">  1  7  2 -1</clus>
<clus scale="   91.352">  1  5  2 -1</clus>
</clustering>
</event>
<event>
 9    1  0.5300912E-006  0.1039300E+03  0.7546771E-02  0.1273802E+00
          1   -1    0    0  502    0  0.00000000000E+00  0.00000000000E+00  0.98273540491E+02  0.98273540491E+02  0.00000000000E+00 0. -1.
         -1   -1    0    0    0  501 -0.00000000000E+00 -0.00000000000E+00 -0.26757595287E+03  0.26757595287E+03  0.00000000000E+00 0.  1.
         23    2    1    2    0    0 -0.22668240921E+02  0.54758693956E+02 -0.15703675139E+03  0.19030803716E+03  0.89689709599E+02 0.  0.
         23    2    1    2    0    0 -0.30977965384E+02 -0.27116186485E+02 -0.39645717827E+02  0.10927162006E+03  0.93132068055E+02 0.  0.
        -11    1    4    4    0    0 -0.21701796619E+02 -0.58530453315E+02 -0.66484006812E+01  0.62777250444E+02  0.00000000000E+00 0. -1.
         11    1    4    4    0    0 -0.92761687653E+01  0.31414266829E+02 -0.32997317146E+02  0.46494369618E+02  0.00000000000E+00 0.  1.
        -13    1    3    3    0    0 -0.40386589067E+02  0.14522172391E+02 -0.13393441843E+03  0.14064280468E+03  0.00000000000E+00 0.  1.
         13    1    3    3    0    0  0.17718348146E+02  0.40236521565E+02 -0.23102332959E+02  0.49665232475E+02  0.00000000000E+00 0. -1.
         21    1    1    2  502  501  0.53646206305E+02 -0.27642507471E+02  0.27380056838E+02  0.66269836145E+02  0.00000000000E+00 0. -1.
<scales pt_clust_5="13000.00000" pt_clust_6="13000.00000" pt_clust_7="13000.00000" pt_clust_8="13000.00000" pt_clust_9="60.34918"></scales>
<clustering>
<clus scale="   60.349">  1  9  2 -1</clus>
<clus scale="   89.690">  7  8 -1 -1</clus>
<clus scale="   93.132">  5  6 -1 -1</clus>
<clus scale="  100.857">  2  7  1 -1</clus>
<clus scale="   60.349">  1  5  2 -1</clus>
</clustering>
</event>
<event>
 9    1  0.5300912E-006  0.1189534E+03  0.7546771E-02  0.1245020E+00
         -1   -1    0    0    0  501 -0.00000000000E+00  0.00000000000E+00  0.45044822790E+03  0.45044822790E+03  0.00000000000E+00 0.  1.
          1   -1    0    0  502    0  0.00000000000E+00 -0.00000000000E+00 -0.10365107172E+03  0.10365107172E+03  0.00000000000E+00 0. -1.
         23    2    1    2    0    0 -0.86258134587E+02 -0.89222672968E+01  0.33419236390E+03  0.35676935377E+03  0.89887502279E+02 0.  0.
         23    2    1    2    0    0  0.37592383787E+02  0.53422764487E+02  0.49149259816E+02  0.12193665928E+03  0.90474969199E+02 0.  0.
        -11    1    3    3    0    0 -0.49694676061E+02  0.34518642070E+02  0.23307372763E+03  0.24079962623E+03  0.00000000000E+00 0.  1.
         11    1    3    3    0    0 -0.36563458526E+02 -0.43440909367E+02  0.10111863627E+03  0.11596972754E+03  0.00000000000E+00 0. -1.
        -13    1    4    4    0    0  0.38635854444E+02  0.77970357910E+02  0.37850328876E+02  0.94893378890E+02  0.00000000000E+00 0.  1.
         13    1    4    4    0    0 -0.10434706565E+01 -0.24547593423E+02  0.11298930940E+02  0.27043280390E+02  0.00000000000E+00 0. -1.
         21    1    1    2  502  501  0.48665750800E+02 -0.44500497191E+02 -0.36544467542E+02  0.75393286565E+02  0.00000000000E+00 0. -1.
<scales pt_clust_5="13000.00000" pt_clust_6="13000.00000" pt_clust_7="13000.00000" pt_clust_8="13000.00000" pt_clust_9="65.94429"></scales>
<clustering>
<clus scale="   65.944">  2  9  1 -1</clus>
<clus scale="   89.888">  5  6 -1 -1</clus>
<clus scale="   90.475">  7  8 -1 -1</clus>
<clus scale="  118.507">  1  5  2 -1</clus>
<clus scale="   65.944">  2  5  1 -1</clus>
</clustering>
</event>
<event>
 9    1  0.5300912E-006  0.1031976E+03  0.7546771E-02  0.1275200E+00
          2   -1    0    0  502    0  0.00000000000E+00  0.00000000000E+00  0.96992328131E+02  0.96992328131E+02  0.00000000000E+00 0. -1.
         -2   -1    0    0    0  501 -0.00000000000E+00 -0.00000000000E+00 -0.27862936227E+03  0.27862936227E+03  0.00000000000E+00 0.  1.
         23    2    1    2    0    0 -0.40546320343E+02  0.21943074792E+02 -0.20155650491E+03  0.22548647314E+03  0.89964561220E+02 0.  0.
         23    2    1    2    0    0  0.71440304759E+02 -0.29222840075E+02  0.22903323046E+02  0.11825518228E+03  0.86614285222E+02 0.  0.
        -11    1    4    4    0    0  0.19185180814E+02 -0.67861076891E+01  0.50937687637E+02  0.54852260138E+02  0.00000000000E+00 0. -1.
         11    1    4    4    0    0  0.52255123945E+02 -0.22436732386E+02 -0.28034364591E+02  0.63402922146E+02  0.00000000000E+00 0.  1.
        -13    1    3    3    0    0  0.28760184850E+02  0.96917517272E+01 -0.52289671908E+02  0.60458978426E+02  0.00000000000E+00 0. -1.
         13    1    3    3    0    0 -0.69306505193E+02  0.12251323065E+02 -0.14926683300E+03  0.16502749472E+03  0.00000000000E+00 0.  1.
         21    1    1    2  502  501 -0.30893984416E+02  0.72797652832E+01 -0.29838522821E+01  0.31880034977E+02  0.00000000000E+00 0.  1.
<scales pt_clust_5="13000.00000" pt_clust_6="13000.00000" pt_clust_7="13000.00000" pt_clust_8="13000.00000" pt_clust_9="31.74009"></scales>
<clustering>
<clus scale="   31.740">  1  9  2 -1</clus>
<clus scale="   86.614">  5  6 -1 -1</clus>
<clus scale="   89.965">  7  8 -1 -1</clus>
<clus scale="  100.290">  1  5  2 -1</clus>
<clus scale="   31.740">  1  5  2 -1</clus>
</clustering>
</event>
<event>
 9    1  0.5300912E-006  0.1019663E+03  0.7546771E-02  0.1278082E+00
          2   -1    0    0  502    0  0.00000000000E+00  0.00000000000E+00  0.41639058186E+03  0.41639058186E+03  0.00000000000E+00 0. -1.
         -2   -1    0    0    0  501 -0.00000000000E+00 -0.00000000000E+00 -0.35016674623E+03  0.35016674623E+03  0.00000000000E+00 0.  1.
         23    2    1    2    0    0 -0.55096977212E+01 -0.11006025402E+02 -0.14232396003E+03  0.16916643356E+03  0.90607302579E+02 0.  0.
         23    2    1    2    0    0  0.35649424977E+02  0.66264417271E+02 -0.17283119105E+03  0.21085263701E+03  0.94479412768E+02 0.  0.
        -11    1    3    3    0    0  0.21703392925E+02  0.25680474207E+02 -0.10477007964E+03  0.11003314777E+03  0.00000000000E+00 0.  1.
         11    1    3    3    0    0 -0.27213090646E+02 -0.36686499610E+02 -0.37553880385E+02  0.59133285788E+02  0.00000000000E+00 0. -1.
        -11    1    4    4    0    0  0.45135044995E+02  0.35904564628E+02 -0.30958043242E+02  0.65457700000E+02  0.00000000000E+00 0.  1.
         11    1    4    4    0    0 -0.94856200176E+01  0.30359852643E+02 -0.14187314781E+03  0.14539493701E+03  0.00000000000E+00 0. -1.
         21    1    1    2  502  501 -0.30139727256E+02 -0.55258391869E+02  0.38137898670E+03  0.38653825752E+03  0.00000000000E+00 0. -1.
<scales pt_clust_5="13000.00000" pt_clust_6="13000.00000" pt_clust_7="13000.00000" pt_clust_8="13000.00000" pt_clust_9="62.94357"></scales>
<clustering>
<clus scale="   62.944">  1  9  2 -1</clus>
<clus scale="   90.607">  5  6 -1 -1</clus>
<clus scale="   94.479">  7  8 -1 -1</clus>
<clus scale="   98.389">  2  5  1 -1</clus>
<clus scale="   62.944">  1  5  2 -1</clus>
</clustering>
</event>
<event>
 9    1  0.5300912E-006  0.9415024E+02  0.7546771E-02  0.1293837E+00
         -3   -1    0    0    0  501 -0.00000000000E+00  0.00000000000E+00  0.53400488669E+03  0.53400488669E+03  0.00000000000E+00 0.  1.
          3   -1    0    0  502    0  0.00000000000E+00 -0.00000000000E+00 -0.22547440766E+02  0.22547440766E+02  0.00000000000E+00 0. -1.
         23    2    1    2    0    0  0.11744340807E+02  0.25543964027E+02  0.29766623349E+03  0.31287472708E+03  0.92168240982E+02 0.  0.
         23    2    1    2    0    0  0.48283642119E+01 -0.89123540978E+01  0.18630918243E+03  0.20753168811E+03  0.90860040474E+02 0.  0.
        -11    1    4    4    0    0  0.10922055170E+02 -0.39773742448E+02  0.16363805921E+03  0.16875620373E+03  0.00000000000E+00 0. -1.
         11    1    4    4    0    0 -0.60936909583E+01  0.30861388350E+02  0.22671123224E+02  0.38775484376E+02  0.00000000000E+00 0.  1.
        -11    1    3    3    0    0 -0.18617845377E+02  0.38716697521E+02  0.25640843984E+03  0.25998248952E+03  0.00000000000E+00 0.  1.
         11    1    3    3    0    0  0.30362186184E+02 -0.13172733494E+02  0.41257793644E+02  0.52892237558E+02  0.00000000000E+00 0. -1.
         21    1    1    2  502  501 -0.16572705019E+02 -0.16631609930E+02  0.27482030002E+02  0.36145912266E+02  0.00000000000E+00 0. -1.
<scales pt_clust_5="13000.00000" pt_clust_6="13000.00000" pt_clust_7="13000.00000" pt_clust_8="13000.00000" pt_clust_9="23.47903"></scales>
<clustering>
<clus scale="   23.479">  2  9  1 -1</clus>
<clus scale="   90.860">  5  6 -1 -1</clus>
<clus scale="   92.168">  7  8 -1 -1</clus>
<clus scale="   92.870">  2  5  1 -1</clus>
<clus scale="   23.479">  2  5  1 -1</clus>
</clustering>
</event>
<event>
 9    1  0.5300912E-006  0.1171531E+03  0.7546771E-02  0.1247934E+00
          2   -1    0    0  502    0  0.00000000000E+00  0.00000000000E+00  0.47780365711E+02  0.47780365711E+02  0.00000000000E+00 0. -1.
         -2   -1    0    0    0  501 -0.00000000000E+00 -0.00000000000E+00 -0.51835602621E+03  0.51835602621E+03  0.00000000000E+00 0.  1.
         23    2    1    2    0    0  0.34405426434E+02 -0.42908928268E+02 -0.17465245267E+03  0.20451402585E+03  0.91091152448E+02 0.  0.
         23    2    1    2    0    0 -0.67432546937E+02  0.53821394755E+02 -0.94418638303E+02  0.15713773546E+03  0.91287993335E+02 0.  0.
        -13    1    3    3    0    0 -0.23912192692E+02 -0.34726268915E+02 -0.10592456582E+03  0.11400754517E+03  0.00000000000E+00 0.  1.
         13    1    3    3    0    0  0.58317619126E+02 -0.81826593528E+01 -0.68727886852E+02  0.90506480684E+02  0.00000000000E+00 0. -1.
        -13    1    4    4    0    0 -0.21198694923E+02  0.21020327077E+02 -0.95891382016E+02  0.10043105079E+03  0.00000000000E+00 0.  1.
         13    1    4    4    0    0 -0.46233852014E+02  0.32801067678E+02  0.14727437137E+01  0.56706684676E+02  0.00000000000E+00 0. -1.
         21    1    1    2  502  501  0.33027120503E+02 -0.10912466488E+02 -0.20150456953E+03  0.20448463061E+03  0.00000000000E+00 0.  1.
<scales pt_clust_5="13000.00000" pt_clust_6="13000.00000" pt_clust_7="13000.00000" pt_clust_8="13000.00000" pt_clust_9="34.78322"></scales>
<clustering>
<clus scale="   34.783">  2  9  1 -1</clus>
<clus scale="   91.091">  5  6 -1 -1</clus>
<clus scale="   91.288">  7  8 -1 -1</clus>
<clus scale="  117.000">  2  5  1 -1</clus>
<clus scale="  117.153">  1  5  2 -1</clus>
</clustering>
</event>
<event>
 9    1  0.5300912E-006  0.9174440E+02  0.7546771E-02  0.1298726E+00
          1   -1    0    0  502    0  0.00000000000E+00  0.00000000000E+00  0.22762565076E+02  0.22762565076E+02  0.00000000000E+00 0. -1.
         -1   -1    0    0    0  501 -0.00000000000E+00 -0.00000000000E+00 -0.67001164859E+03  0.67001164859E+03  0.00000000000E+00 0.  1.
         23    2    1    2    0    0 -0.21104225051E+02 -0.39805945725E+02 -0.33179953155E+03  0.34689335158E+03  0.90632039605E+02 0.  0.
         23    2    1    2    0    0 -0.38612785419E+01 -0.17718323745E+01 -0.17271054203E+03  0.19512804136E+03  0.90708171259E+02 0.  0.
        -13    1    3    3    0    0 -0.13040131797E+02 -0.67052056129E+02 -0.27534235886E+03  0.28368898084E+03  0.00000000000E+00 0.  1.
         13    1    3    3    0    0 -0.80640932537E+01  0.27246110404E+02 -0.56457172690E+02  0.63204370737E+02  0.00000000000E+00 0. -1.
        -13    1    4    4    0    0  0.35992566711E+02  0.15755868796E+02 -0.12261931369E+03  0.12876027474E+03  0.00000000000E+00 0. -1.
         13    1    4    4    0    0 -0.39853845253E+02 -0.17527701170E+02 -0.50091228342E+02  0.66367766623E+02  0.00000000000E+00 0.  1.
         21    1    1    2  502  501  0.24965503593E+02  0.41577778100E+02 -0.14273900993E+03  0.15075282073E+03  0.00000000000E+00 0. -1.
<scales pt_clust_5="13000.00000" pt_clust_6="13000.00000" pt_clust_7="13000.00000" pt_clust_8="13000.00000" pt_clust_9="48.49730"></scales>
<clustering>
<clus scale="   48.497">  2  9  1 -1</clus>
<clus scale="   90.632">  5  6 -1 -1</clus>
<clus scale="   90.708">  7  8 -1 -1</clus>
<clus scale="   91.669">  2  5  1 -1</clus>
<clus scale="   91.744">  1  5  2 -1</clus>
</clustering>
</event>
<event>
 9    1  0.5300912E-006  0.1171515E+03  0.7546771E-02  0.1247907E+00
         -1   -1    0    0    0  501 -0.00000000000E+00  0.00000000000E+00  0.16636663497E+03  0.16636663497E+03  0.00000000000E+00 0.  1.
          1   -1    0    0  502    0  0.00000000000E+00 -0.00000000000E+00 -0.24466745644E+03  0.24466745644E+03  0.00000000000E+00 0. -1.
         23    2    1    2    0    0  0.47884224192E+02  0.57437772768E+02  0.11633766545E+03  0.16633609305E+03  0.92418865942E+02 0.  0.
         23    2    1    2    0    0 -0.10009733594E+02 -0.59344429274E+02 -0.14414937023E+03  0.18155321805E+03  0.92523369985E+02 0.  0.
        -11    1    3    3    0    0  0.33799461935E+02  0.82443571884E+02  0.97091677256E+02  0.13178065095E+03  0.00000000000E+00 0.  1.
         11    1    3    3    0    0  0.14084762257E+02 -0.25005799116E+02  0.19245988193E+02  0.34555442101E+02  0.00000000000E+00 0. -1.
        -11    1    4    4    0    0  0.21025220568E+02 -0.68376033733E+02 -0.67444431247E+02  0.98316291607E+02  0.00000000000E+00 0. -1.
         11    1    4    4    0    0 -0.31034954163E+02  0.90316044586E+01 -0.76704938987E+02  0.83236926445E+02  0.00000000000E+00 0.  1.
         21    1    1    2  502  501 -0.37874490598E+02  0.19066565067E+01 -0.50489116687E+02  0.63144780314E+02  0.00000000000E+00 0. -1.
<scales pt_clust_5="13000.00000" pt_clust_6="13000.00000" pt_clust_7="13000.00000" pt_clust_8="13000.00000" pt_clust_9="37.92245"></scales>
<clustering>
<clus scale="   37.922">  2  9  1 -1</clus>
<clus scale="   92.419">  5  6 -1 -1</clus>
<clus scale="   92.523">  7  8 -1 -1</clus>
<clus scale="  117.069">  1  5  2 -1</clus>
<clus scale="   37.922">  2  5  1 -1</clus>
</clustering>
</event>
<event>
 9    1  0.5300912E-006  0.2051089E+03  0.7546771E-02  0.1146191E+00
         -2   -1    0    0    0  501 -0.00000000000E+00  0.00000000000E+00  0.25132074534E+03  0.25132074534E+03  0.00000000000E+00 0.  1.
          2   -1    0    0  502    0  0.00000000000E+00 -0.00000000000E+00 -0.23932528484E+03  0.23932528484E+03  0.00000000000E+00 0. -1.
         23    2    1    2    0    0  0.16296428421E+03 -0.14078207954E+03  0.13898690854E+02  0.23730290137E+03  0.98704313709E+02 0.  0.
         23    2    1    2    0    0 -0.12762565711E+03  0.94044420198E+02 -0.34529002891E+02  0.18627847046E+03  0.91513688559E+02 0.  0.
        -13    1    4    4    0    0 -0.10872821756E+03  0.25392570870E+02 -0.16926031311E+02  0.11292961740E+03  0.00000000000E+00 0.  1.
         13    1    4    4    0    0 -0.18897439551E+02  0.68651849328E+02 -0.17602971580E+02  0.73348853067E+02  0.00000000000E+00 0. -1.
        -13    1    3    3    0    0  0.12158206035E+03 -0.11852239830E+03 -0.30667776417E+02  0.17254062944E+03  0.00000000000E+00 0. -1.
         13    1    3    3    0    0  0.41382223861E+02 -0.22259681236E+02  0.44566467271E+02  0.64762271929E+02  0.00000000000E+00 0.  1.
         21    1    1    2  502  501 -0.35338627099E+02  0.46737659337E+02  0.32625772541E+02  0.67064658349E+02  0.00000000000E+00 0.  1.
<scales pt_clust_5="13000.00000" pt_clust_6="13000.00000" pt_clust_7="13000.00000" pt_clust_8="13000.00000" pt_clust_9="58.59375"></scales>
<clustering>
<clus scale="   58.594">  1  9  2 -1</clus>
<clus scale="   91.514">  5  6 -1 -1</clus>
<clus scale="   98.704">  7  8 -1 -1</clus>
<clus scale="  201.747">  2  5  1 -1</clus>
<clus scale="  201.747">  2  5  1 -1</clus>
</clustering>
</event>
<event>
 9    1  0.5300912E-006  0.1027077E+03  0.7546771E-02  0.1275845E+00
          1   -1    0    0  502    0  0.00000000000E+00  0.00000000000E+00  0.18203599239E+03  0.18203599239E+03  0.00000000000E+00 0. -1.
         -1   -1    0    0    0  501 -0.00000000000E+00 -0.00000000000E+00 -0.13456602376E+03  0.13456602376E+03  0.00000000000E+00 0.  1.
         23    2    1    2    0    0  0.16472642171E+02  0.44981085633E+02  0.15799859554E+02  0.10407733517E+03  0.91037410608E+02 0.  0.
         23    2    1    2    0    0 -0.62734110707E+02  0.23066614128E+02  0.54415246555E+02  0.12715516539E+03  0.93486788870E+02 0.  0.
        -13    1    4    4    0    0 -0.28326924092E+02 -0.19874466025E+02  0.62597073774E+02  0.71524839555E+02  0.00000000000E+00 0. -1.
         13    1    4    4    0    0 -0.34407186615E+02  0.42941080153E+02 -0.81818272185E+01  0.55630325831E+02  0.00000000000E+00 0.  1.
        -13    1    3    3    0    0 -0.12616084167E+02  0.65847008099E+02  0.91475775923E+01  0.67665886761E+02  0.00000000000E+00 0.  1.
         13    1    3    3    0    0  0.29088726338E+02 -0.20865922466E+02  0.66522819615E+01  0.36411448414E+02  0.00000000000E+00 0. -1.
         21    1    1    2  502  501  0.46261468536E+02 -0.68047699761E+02 -0.22745137480E+02  0.85369515595E+02  0.00000000000E+00 0. -1.
<scales pt_clust_5="13000.00000" pt_clust_6="13000.00000" pt_clust_7="13000.00000" pt_clust_8="13000.00000" pt_clust_9="82.28373"></scales>
<clustering>
<clus scale="   82.284">  2  9  1 -1</clus>
<clus scale="   91.037">  7  8 -1 -1</clus>
<clus scale="   93.487">  5  6 -1 -1</clus>
<clus scale="  100.483">  2  7  1 -1</clus>
<clus scale="  102.708">  1  5  2 -1</clus>
</clustering>
</event>
<event>
 9    1  0.5300912E-006  0.9896896E+02  0.7546771E-02  0.1286569E+00
         -2   -1    0    0    0  501 -0.00000000000E+00  0.00000000000E+00  0.97045857062E+03  0.97045857062E+03  0.00000000000E+00 0.  1.
          2   -1    0    0  502    0  0.00000000000E+00 -0.00000000000E+00 -0.32785866868E+02  0.32785866868E+02  0.00000000000E+00 0. -1.
         23    2    1    2    0    0 -0.45982843059E+02  0.20359404518E+02  0.41573515934E+03  0.42854146409E+03  0.91011738414E+02 0.  0.
         23    2    1    2    0    0 -0.20854911575E+02 -0.41939087194E+02  0.72240306551E+02  0.11955401548E+03  0.82949902686E+02 0.  0.
        -11    1    3    3    0    0 -0.57670566122E+02 -0.20518158804E+02  0.23043932433E+03  0.23843064240E+03  0.00000000000E+00 0. -1.
         11    1    3    3    0    0  0.11687723063E+02  0.40877563322E+02  0.18529583501E+03  0.19011082170E+03  0.00000000000E+00 0.  1.
        -13    1    4    4    0    0 -0.41234910378E+02 -0.14138128649E+02  0.73056826005E+02  0.85073523152E+02  0.00000000000E+00 0. -1.
         13    1    4    4    0    0  0.20379998803E+02 -0.27800958545E+02 -0.81651945407E+00  0.34480492329E+02  0.00000000000E+00 0.  1.
         21    1    1    2  502  501  0.66837754633E+02  0.21579682676E+02  0.44969723786E+03  0.45514895791E+03  0.00000000000E+00 0.  1.
<scales pt_clust_5="13000.00000" pt_clust_6="13000.00000" pt_clust_7="13000.00000" pt_clust_8="13000.00000" pt_clust_9="70.23509"></scales>
<clustering>
<clus scale="   70.235">  1  9  2 -1</clus>
<clus scale="   82.950">  7  8 -1 -1</clus>
<clus scale="   91.012">  5  6 -1 -1</clus>
<clus scale="   91.610">  2  7  1 -1</clus>
<clus scale="   91.610">  2  5  1 -1</clus>
</clustering>
</event>
<event>
 9    1  0.5300912E-006  0.1077980E+03  0.7546771E-02  0.1265285E+00
         -1   -1    0    0    0  501 -0.00000000000E+00  0.00000000000E+00  0.15501656974E+03  0.15501656974E+03  0.00000000000E+00 0.  1.
          1   -1    0    0  502    0  0.00000000000E+00 -0.00000000000E+00 -0.25572790658E+03  0.25572790658E+03  0.00000000000E+00 0. -1.
         23    2    1    2    0    0 -0.16781056903E+01 -0.62559634183E+02  0.76527151626E+02  0.13422044687E+03  0.90786560423E+02 0.  0.
         23    2    1    2    0    0  0.50479822913E+02  0.29711038902E+02 -0.18731267476E+03  0.21684047188E+03  0.92210594650E+02 0.  0.
        -11    1    3    3    0    0 -0.41994625546E+02 -0.44134373018E+02  0.63546679476E+02  0.88031652994E+02  0.00000000000E+00 0.  1.
         11    1    3    3    0    0  0.40316519855E+02 -0.18425261165E+02  0.12980472149E+02  0.46188793873E+02  0.00000000000E+00 0. -1.
        -13    1    4    4    0    0  0.75743427596E+02  0.20200155404E+02 -0.16135997403E+03  0.17939385251E+03  0.00000000000E+00 0. -1.
         13    1    4    4    0    0 -0.25263604683E+02  0.95108834978E+01 -0.25952700730E+02  0.37446619362E+02  0.00000000000E+00 0.  1.
         21    1    1    2  502  501 -0.48801717223E+02  0.32848595281E+02  0.10074186295E+02  0.59683557580E+02  0.00000000000E+00 0.  1.
<scales pt_clust_5="13000.00000" pt_clust_6="13000.00000" pt_clust_7="13000.00000" pt_clust_8="13000.00000" pt_clust_9="58.82719"></scales>
<clustering>
<clus scale="   58.827">  1  9  2 -1</clus>
<clus scale="   90.787">  5  6 -1 -1</clus>
<clus scale="   92.211">  7  8 -1 -1</clus>
<clus scale="  106.582">  1  5  2 -1</clus>
<clus scale="  107.798">  2  5  1 -1</clus>
</clustering>
</event>
<event>
 9    1  0.5300912E-006  0.1067035E+03  0.7546771E-02  0.1269290E+00
          1   -1    0    0  502    0  0.00000000000E+00  0.00000000000E+00  0.37359174418E+03  0.37359174418E+03  0.00000000000E+00 0. -1.
         -1   -1    0    0    0  501 -0.00000000000E+00 -0.00000000000E+00 -0.27234262817E+03  0.27234262817E+03  0.00000000000E+00 0.  1.
         23    2    1    2    0    0 -0.12380875957E+02 -0.45889161421E+02 -0.23776175106E+03  0.26051561361E+03  0.95281863141E+02 0.  0.
         23    2    1    2    0    0  0.70491675561E+02  0.41928723660E+02  0.26263015932E+03  0.28936376087E+03  0.89608544939E+02 0.  0.
        -11    1    4    4    0    0 -0.39616834116E+01 -0.21826992696E+02  0.33875584937E+02  0.40492811713E+02  0.00000000000E+00 0.  1.
         11    1    4    4    0    0  0.74453358972E+02  0.63755716356E+02  0.22875457438E+03  0.24887094915E+03  0.00000000000E+00 0. -1.
        -11    1    3    3    0    0 -0.35045105700E+02 -0.17497050580E+02 -0.21294969103E+03  0.21652223240E+03  0.00000000000E+00 0.  1.
         11    1    3    3    0    0  0.22664229743E+02 -0.28392110841E+02 -0.24812060030E+02  0.43993381215E+02  0.00000000000E+00 0. -1.
         21    1    1    2  502  501 -0.58110799604E+02  0.39604377611E+01  0.76380707750E+02  0.96054997862E+02  0.00000000000E+00 0.  1.
<scales pt_clust_5="13000.00000" pt_clust_6="13000.00000" pt_clust_7="13000.00000" pt_clust_8="13000.00000" pt_clust_9="58.24560"></scales>
<clustering>
<clus scale="   58.246">  1  9  2 -1</clus>
<clus scale="   89.609">  5  6 -1 -1</clus>
<clus scale="   95.282">  7  8 -1 -1</clus>
<clus scale="  101.669">  1  5  2 -1</clus>
<clus scale="   58.246">  1  5  2 -1</clus>
</clustering>
</event>
<event>
 9    1  0.5300912E-006  0.1001815E+03  0.7546771E-02  0.1281882E+00
          1   -1    0    0  502    0  0.00000000000E+00  0.00000000000E+00  0.25760750353E+03  0.25760750353E+03  0.00000000000E+00 0. -1.
         -1   -1    0    0    0  501 -0.00000000000E+00 -0.00000000000E+00 -0.37502702999E+03  0.37502702999E+03  0.00000000000E+00 0.  1.
         23    2    1    2    0    0  0.16188708883E+02 -0.26815609121E+02 -0.14593247966E+03  0.17454671188E+03  0.90493728069E+02 0.  0.
         23    2    1    2    0    0  0.66811783771E+02  0.23577954867E+02 -0.19035962111E+03  0.22398363977E+03  0.94404190221E+02 0.  0.
        -11    1    3    3    0    0  0.92211173235E+01 -0.58774611159E+02 -0.11524470579E+03  0.12969512764E+03  0.00000000000E+00 0.  1.
         11    1    3    3    0    0  0.69675915593E+01  0.31959002038E+02 -0.30687773873E+02  0.44851584238E+02  0.00000000000E+00 0. -1.
        -13    1    4    4    0    0  0.61506166991E+02 -0.26779941322E+02 -0.10033009447E+03  0.12069093459E+03  0.00000000000E+00 0.  1.
         13    1    4    4    0    0  0.53056167801E+01  0.50357896189E+02 -0.90029526634E+02  0.10329270518E+03  0.00000000000E+00 0. -1.
         21    1    1    2  502  501 -0.83000492654E+02  0.32376542539E+01  0.21887257430E+03  0.23410418187E+03  0.00000000000E+00 0. -1.
<scales pt_clust_5="13000.00000" pt_clust_6="13000.00000" pt_clust_7="13000.00000" pt_clust_8="13000.00000" pt_clust_9="83.06362"></scales>
<clustering>
<clus scale="   83.064">  1  9  2 -1</clus>
<clus scale="   90.494">  5  6 -1 -1</clus>
<clus scale="   94.404">  7  8 -1 -1</clus>
<clus scale="   96.505">  2  5  1 -1</clus>
<clus scale="   83.064">  1  5  2 -1</clus>
</clustering>
</event>
<event>
 9    1  0.5300912E-006  0.2229516E+03  0.7546771E-02  0.1147315E+00
          1   -1    0    0  502    0  0.00000000000E+00  0.00000000000E+00  0.46646773331E+03  0.46646773331E+03  0.00000000000E+00 0. -1.
         -1   -1    0    0    0  501 -0.00000000000E+00 -0.00000000000E+00 -0.20897708530E+03  0.20897708530E+03  0.00000000000E+00 0.  1.
         23    2    1    2    0    0 -0.97102008508E+02 -0.74443149677E+02  0.21808754890E+02  0.15447907484E+03  0.91747371538E+02 0.  0.
         23    2    1    2    0    0 -0.13751488960E+03  0.49662066040E+02 -0.19110452155E+02  0.17372183784E+03  0.91855331344E+02 0.  0.
        -11    1    3    3    0    0 -0.16781087114E+02 -0.52293792008E+02 -0.23385722454E+02  0.59692022767E+02  0.00000000000E+00 0.  1.
         11    1    3    3    0    0 -0.80320921394E+02 -0.22149357669E+02  0.45194477344E+02  0.94787052075E+02  0.00000000000E+00 0. -1.
        -13    1    4    4    0    0 -0.52960417650E+02  0.45690862971E+02  0.29721440036E+02  0.75998847324E+02  0.00000000000E+00 0. -1.
         13    1    4    4    0    0 -0.84554471955E+02  0.39712030687E+01 -0.48831892192E+02  0.97722990521E+02  0.00000000000E+00 0.  1.
         21    1    1    2  502  501  0.23461689811E+03  0.24781083637E+02  0.25479234527E+03  0.34724390592E+03  0.00000000000E+00 0. -1.
<scales pt_clust_5="13000.00000" pt_clust_6="13000.00000" pt_clust_7="13000.00000" pt_clust_8="13000.00000" pt_clust_9="203.15024"></scales>
<clustering>
<clus scale="   91.747">  5  6 -1 -1</clus>
<clus scale="   91.855">  7  8 -1 -1</clus>
<clus scale="  152.932">  2  5  1 -1</clus>
<clus scale="  203.150">  1  9  2 -1</clus>
<clus scale="  203.150">  1  5  2 -1</clus>
</clustering>
</event>
<event>
 9    1  0.5300912E-006  0.1267180E+03  0.7546771E-02  0.1233967E+00
          1   -1    0    0  502    0  0.00000000000E+00  0.00000000000E+00  0.11646632173E+03  0.11646632173E+03  0.00000000000E+00 0. -1.
         -1   -1    0    0    0  501 -0.00000000000E+00 -0.00000000000E+00 -0.50589254269E+03  0.50589254269E+03  0.00000000000E+00 0.  1.
         23    2    1    2    0    0 -0.95336706214E+02  0.50906674092E+02 -0.38233967972E+03  0.40735001614E+03  0.89832221101E+02 0.  0.
         23    2    1    2    0    0  0.47605116466E+02 -0.66875832983E+02  0.53169381587E+02  0.13649709800E+03  0.95214759747E+02 0.  0.
        -11    1    3    3    0    0 -0.46156258598E+02  0.70467283086E+02 -0.27596425844E+03  0.28853476416E+03  0.00000000000E+00 0.  1.
         11    1    3    3    0    0 -0.49180447616E+02 -0.19560608994E+02 -0.10637542128E+03  0.11881525198E+03  0.00000000000E+00 0. -1.
        -13    1    4    4    0    0  0.51177868163E+02  0.69001569021E+01  0.25797255049E+02  0.57725944973E+02  0.00000000000E+00 0.  1.
         13    1    4    4    0    0 -0.35727516971E+01 -0.73775989885E+02  0.27372126539E+02  0.78771153028E+02  0.00000000000E+00 0. -1.
         21    1    1    2  502  501  0.47731589748E+02  0.15969158891E+02 -0.60255922831E+02  0.78511750278E+02  0.00000000000E+00 0.  1.
<scales pt_clust_5="13000.00000" pt_clust_6="13000.00000" pt_clust_7="13000.00000" pt_clust_8="13000.00000" pt_clust_9="50.33208"></scales>
<clustering>
<clus scale="   50.332">  2  9  1 -1</clus>
<clus scale="   89.832">  5  6 -1 -1</clus>
<clus scale="   95.215">  7  8 -1 -1</clus>
<clus scale="  122.725">  2  5  1 -1</clus>
<clus scale="  126.718">  1  5  2 -1</clus>
</clustering>
</event>
<event>
 9    1  0.5300912E-006  0.9380907E+02  0.7546771E-02  0.1294024E+00
         -3   -1    0    0    0  501 -0.00000000000E+00  0.00000000000E+00  0.38655565843E+02  0.38655565843E+02  0.00000000000E+00 0.  1.
          3   -1    0    0  502    0  0.00000000000E+00 -0.00000000000E+00 -0.78527318482E+03  0.78527318482E+03  0.00000000000E+00 0. -1.
         23    2    1    2    0    0  0.13330638894E+02 -0.11695043919E+02 -0.58585008736E+02  0.10866701679E+03  0.89787734713E+02 0.  0.
         23    2    1    2    0    0 -0.63205824481E+02  0.52914828454E+02 -0.54130954965E+03  0.55490506489E+03  0.90048027120E+02 0.  0.
        -11    1    3    3    0    0 -0.86591846227E+01 -0.40700329926E+02 -0.23466716649E+01  0.41677394380E+02  0.00000000000E+00 0. -1.
         11    1    3    3    0    0  0.21989823517E+02  0.29005286007E+02 -0.56238337072E+02  0.66989622414E+02  0.00000000000E+00 0.  1.
        -11    1    4    4    0    0 -0.35324641416E+01 -0.24064911252E+02 -0.92121653760E+02  0.95278525114E+02  0.00000000000E+00 0. -1.
         11    1    4    4    0    0 -0.59673360339E+02  0.76979739705E+02 -0.44918789589E+03  0.45962653978E+03  0.00000000000E+00 0.  1.
         21    1    1    2  502  501  0.49875185587E+02 -0.41219784535E+02 -0.14672306059E+03  0.16035666897E+03  0.00000000000E+00 0. -1.
<scales pt_clust_5="13000.00000" pt_clust_6="13000.00000" pt_clust_7="13000.00000" pt_clust_8="13000.00000" pt_clust_9="64.70398"></scales>
<clustering>
<clus scale="   64.704">  2  9  1 -1</clus>
<clus scale="   89.788">  5  6 -1 -1</clus>
<clus scale="   90.048">  7  8 -1 -1</clus>
<clus scale="   93.559">  1  5  2 -1</clus>
<clus scale="   64.704">  2  5  1 -1</clus>
</clustering>
</event>
<event>
 9    1  0.5300912E-006  0.1248309E+03  0.7546771E-02  0.1248707E+00
         -2   -1    0    0    0  501 -0.00000000000E+00  0.00000000000E+00  0.68199953092E+02  0.68199953092E+02  0.00000000000E+00 0.  1.
          2   -1    0    0  502    0  0.00000000000E+00 -0.00000000000E+00 -0.41846878422E+03  0.41846878422E+03  0.00000000000E+00 0. -1.
         23    2    1    2    0    0  0.97070014038E+01  0.21154833887E+02 -0.40647299530E+02  0.10353772094E+03  0.92336903923E+02 0.  0.
         23    2    1    2    0    0  0.49639692786E+02  0.55564784657E+02 -0.22447242444E+03  0.25406397785E+03  0.92785188019E+02 0.  0.
        -13    1    3    3    0    0  0.40755959910E+01  0.55504514820E+02 -0.40325878058E+02  0.68728000766E+02  0.00000000000E+00 0. -1.
         13    1    3    3    0    0  0.56314054128E+01 -0.34349680933E+02 -0.32142147151E+00  0.34809720178E+02  0.00000000000E+00 0.  1.
        -13    1    4    4    0    0 -0.15601057163E+02  0.49049140118E+02 -0.12197635916E+03  0.13239125094E+03  0.00000000000E+00 0.  1.
         13    1    4    4    0    0  0.65240749949E+02  0.65156445395E+01 -0.10249606528E+03  0.12167272692E+03  0.00000000000E+00 0. -1.
         21    1    1    2  502  501 -0.59346694190E+02 -0.76719618544E+02 -0.85149107161E+02  0.12906703852E+03  0.00000000000E+00 0.  1.
<scales pt_clust_5="13000.00000" pt_clust_6="13000.00000" pt_clust_7="13000.00000" pt_clust_8="13000.00000" pt_clust_9="83.50841"></scales>
<clustering>
<clus scale="   92.337">  5  6 -1 -1</clus>
<clus scale="   92.785">  7  8 -1 -1</clus>
<clus scale="   95.225">  1  5  2 -1</clus>
<clus scale="   83.508">  1  9  2 -1</clus>
<clus scale="  124.831">  2  5  1 -1</clus>
</clustering>
</event>
<event>
 9    1  0.5300912E-006  0.1401648E+03  0.7546771E-02  0.1227192E+00
          1   -1    0    0  502    0  0.00000000000E+00  0.00000000000E+00  0.17443929475E+03  0.17443929475E+03  0.00000000000E+00 0. -1.
         -1   -1    0    0    0  501 -0.00000000000E+00 -0.00000000000E+00 -0.35776205873E+03  0.35776205873E+03  0.00000000000E+00 0.  1.
         23    2    1    2    0    0 -0.35281564743E+02  0.11271047033E+02 -0.11927336162E+03  0.15843592457E+03  0.97488369007E+02 0.  0.
         23    2    1    2    0    0 -0.72169174936E+02 -0.16167968532E+01 -0.18004580516E+03  0.21535447138E+03  0.93541715538E+02 0.  0.
        -11    1    3    3    0    0 -0.36205486110E+02  0.51544805740E+02 -0.83245417489E+02  0.10439110956E+03  0.00000000000E+00 0.  1.
         11    1    3    3    0    0  0.92392136654E+00 -0.40273758707E+02 -0.36027944127E+02  0.54044815006E+02  0.00000000000E+00 0. -1.
        -13    1    4    4    0    0 -0.84220615248E+02  0.22041570489E+02 -0.10893192751E+03  0.13944571594E+03  0.00000000000E+00 0.  1.
         13    1    4    4    0    0  0.12051440312E+02 -0.23658367342E+02 -0.71113877644E+02  0.75908755440E+02  0.00000000000E+00 0. -1.
         21    1    1    2  502  501  0.10745073968E+03 -0.96542501796E+01  0.11599640279E+03  0.15841095753E+03  0.00000000000E+00 0. -1.
<scales pt_clust_5="13000.00000" pt_clust_6="13000.00000" pt_clust_7="13000.00000" pt_clust_8="13000.00000" pt_clust_9="104.38450"></scales>
<clustering>
<clus scale="   93.542">  7  8 -1 -1</clus>
<clus scale="   97.488">  5  6 -1 -1</clus>
<clus scale="  104.287">  2  5  1 -1</clus>
<clus scale="  104.385">  1  9  2 -1</clus>
<clus scale="  104.385">  1  5  2 -1</clus>
</clustering>
</event>
<event>
 9    1  0.5300912E-006  0.9625028E+02  0.7546771E-02  0.1290247E+00
          1   -1    0    0  502    0  0.00000000000E+00  0.00000000000E+00  0.28889186910E+03  0.28889186910E+03  0.00000000000E+00 0. -1.
         -1   -1    0    0    0  501 -0.00000000000E+00 -0.00000000000E+00 -0.79346436648E+02  0.79346436648E+02  0.00000000000E+00 0.  1.
         23    2    1    2    0    0 -0.17405062360E+02  0.53668197286E+02  0.28480941372E+02  0.10845150377E+03  0.88132587917E+02 0.  0.
         23    2    1    2    0    0  0.96585219662E+01 -0.20307584366E+02  0.19965608281E+03  0.22081775444E+03  0.91609193027E+02 0.  0.
        -13    1    4    4    0    0  0.49949900474E+02 -0.20564972864E+02  0.11216153068E+03  0.12449144400E+03  0.00000000000E+00 0.  1.
         13    1    4    4    0    0 -0.40291378508E+02  0.25738849806E+00  0.87494552128E+02  0.96326310440E+02  0.00000000000E+00 0. -1.
        -13    1    3    3    0    0  0.28272638640E+01  0.28626064527E+02 -0.30082654159E+02  0.41622242521E+02  0.00000000000E+00 0.  1.
         13    1    3    3    0    0 -0.20232326224E+02  0.25042132759E+02  0.58563595531E+02  0.66829261249E+02  0.00000000000E+00 0. -1.
         21    1    1    2  502  501  0.77465403942E+01 -0.33360612920E+02 -0.18591591728E+02  0.38969047531E+02  0.00000000000E+00 0.  1.
<scales pt_clust_5="13000.00000" pt_clust_6="13000.00000" pt_clust_7="13000.00000" pt_clust_8="13000.00000" pt_clust_9="34.24820"></scales>
<clustering>
<clus scale="   34.248">  2  9  1 -1</clus>
<clus scale="   88.133">  7  8 -1 -1</clus>
<clus scale="   91.609">  5  6 -1 -1</clus>
<clus scale="   92.947">  2  7  1 -1</clus>
<clus scale="   96.250">  1  5  2 -1</clus>
</clustering>
</event>
<event>
 9    1  0.5300912E-006  0.2671625E+03  0.7546771E-02  0.1112228E+00
         -1   -1    0    0    0  501 -0.00000000000E+00  0.00000000000E+00  0.49513417571E+03  0.49513417571E+03  0.00000000000E+00 0.  1.
          1   -1    0    0  502    0  0.00000000000E+00 -0.00000000000E+00 -0.30784357474E+03  0.30784357474E+03  0.00000000000E+00 0. -1.
         23    2    1    2    0    0  0.35599233373E+01  0.20235254593E+03  0.32059239340E+02  0.22336466409E+03  0.88908674729E+02 0.  0.
         23    2    1    2    0    0  0.17869179665E+03  0.63252390312E+02 -0.22495669913E+02  0.21171558795E+03  0.91574079002E+02 0.  0.
        -13    1    4    4    0    0  0.15725801320E+03  0.15311386057E+02 -0.16579642293E+02  0.15886914677E+03  0.00000000000E+00 0.  1.
         13    1    4    4    0    0  0.21433783453E+02  0.47941004255E+02 -0.59160276195E+01  0.52846441175E+02  0.00000000000E+00 0. -1.
        -13    1    3    3    0    0  0.21606575564E+02  0.15954339807E+02  0.23842860576E+02  0.35914719360E+02  0.00000000000E+00 0. -1.
         13    1    3    3    0    0 -0.18046652227E+02  0.18639820612E+03  0.82163787637E+01  0.18744994473E+03  0.00000000000E+00 0.  1.
         21    1    1    2  502  501 -0.18225171999E+03 -0.26560493624E+03  0.17772703154E+03  0.36789749841E+03  0.00000000000E+00 0. -1.
<scales pt_clust_5="13000.00000" pt_clust_6="13000.00000" pt_clust_7="13000.00000" pt_clust_8="13000.00000" pt_clust_9="251.93461"></scales>
<clustering>
<clus scale="   88.909">  7  8 -1 -1</clus>
<clus scale="   91.574">  5  6 -1 -1</clus>
<clus scale="  210.517">  2  5  1 -1</clus>
<clus scale="  251.935">  2  9  1 -1</clus>
<clus scale="  210.517">  2  5  1 -1</clus>
</clustering>
</event>
<event>
 9    1  0.5300912E-006  0.2671212E+03  0.7546771E-02  0.1136516E+00
         -1   -1    0    0    0  501 -0.00000000000E+00  0.00000000000E+00  0.10114448594E+03  0.10114448594E+03  0.00000000000E+00 0.  1.
          1   -1    0    0  502    0  0.00000000000E+00 -0.00000000000E+00 -0.13062135225E+04  0.13062135225E+04  0.00000000000E+00 0. -1.
         23    2    1    2    0    0 -0.12637139690E+02  0.73886608406E+02 -0.15446636419E+03  0.19274052526E+03  0.87579245323E+02 0.  0.
         23    2    1    2    0    0  0.18504781984E+03 -0.23587592064E+03 -0.32651541728E+03  0.45286402378E+03  0.92700381615E+02 0.  0.
        -13    1    4    4    0    0  0.14671458180E+03 -0.20805624442E+03 -0.22068849951E+03  0.33692133084E+03  0.00000000000E+00 0. -1.
         13    1    4    4    0    0  0.38333238034E+02 -0.27819676217E+02 -0.10582691777E+03  0.11594269295E+03  0.00000000000E+00 0.  1.
        -13    1    3    3    0    0  0.20233235313E+02  0.44450172492E+02 -0.13671995332E+03  0.14518108444E+03  0.00000000000E+00 0. -1.
         13    1    3    3    0    0 -0.32870375002E+02  0.29436435915E+02 -0.17746410876E+02  0.47559440820E+02  0.00000000000E+00 0.  1.
         21    1    1    2  502  501 -0.17241068015E+03  0.16198931223E+03 -0.72408725508E+03  0.76175345938E+03  0.00000000000E+00 0. -1.
<scales pt_clust_5="13000.00000" pt_clust_6="13000.00000" pt_clust_7="13000.00000" pt_clust_8="13000.00000" pt_clust_9="250.52017"></scales>
<clustering>
<clus scale="   87.579">  7  8 -1 -1</clus>
<clus scale="   92.700">  5  6 -1 -1</clus>
<clus scale="  115.278">  1  7  2 -1</clus>
<clus scale="  250.520">  2  9  1 -1</clus>
<clus scale="  250.520">  2  5  1 -1</clus>
</clustering>
</event>
<event>
 9    1  0.5300912E-006  0.1099563E+03  0.7546771E-02  0.1261584E+00
          3   -1    0    0  502    0  0.00000000000E+00  0.00000000000E+00  0.36526678905E+02  0.36526678905E+02  0.00000000000E+00 0. -1.
         -3   -1    0    0    0  501 -0.00000000000E+00 -0.00000000000E+00 -0.56407448820E+03  0.56407448820E+03  0.00000000000E+00 0.  1.
         23    2    1    2    0    0 -0.14283319659E+02 -0.88564228437E+02 -0.20160694389E+03  0.23819188074E+03  0.89679297760E+02 0.  0.
         23    2    1    2    0    0  0.11493580887E+02  0.34827418930E+02 -0.16248702436E+03  0.19032620907E+03  0.92070523314E+02 0.  0.
        -11    1    4    4    0    0 -0.22737526188E+02  0.52140643810E+02 -0.12168243697E+03  0.13432146999E+03  0.00000000000E+00 0. -1.
         11    1    4    4    0    0  0.34231107074E+02 -0.17313224879E+02 -0.40804587392E+02  0.56004739080E+02  0.00000000000E+00 0.  1.
        -11    1    3    3    0    0 -0.32168392273E+02  0.40013997375E+01 -0.56798550818E+02  0.65397951316E+02  0.00000000000E+00 0. -1.
         11    1    3    3    0    0  0.17885072614E+02 -0.92565628174E+02 -0.14480839307E+03  0.17279392942E+03  0.00000000000E+00 0.  1.
         21    1    1    2  502  501  0.27897387722E+01  0.53736809506E+02 -0.16345384104E+03  0.17208307729E+03  0.00000000000E+00 0. -1.
<scales pt_clust_5="13000.00000" pt_clust_6="13000.00000" pt_clust_7="13000.00000" pt_clust_8="13000.00000" pt_clust_9="53.80918"></scales>
<clustering>
<clus scale="   53.809">  2  9  1 -1</clus>
<clus scale="   89.679">  7  8 -1 -1</clus>
<clus scale="   92.071">  5  6 -1 -1</clus>
<clus scale="  107.962">  2  7  1 -1</clus>
<clus scale="  109.956">  1  5  2 -1</clus>
</clustering>
</event>
<event>
 9    1  0.5300912E-006  0.1235220E+03  0.7546771E-02  0.1246636E+00
         -2   -1    0    0    0  501 -0.00000000000E+00  0.00000000000E+00  0.52424122690E+02  0.52424122690E+02  0.00000000000E+00 0.  1.
          2   -1    0    0  502    0  0.00000000000E+00 -0.00000000000E+00 -0.12353034714E+04  0.12353034714E+04  0.00000000000E+00 0. -1.
         23    2    1    2    0    0  0.14879919417E+02 -0.82888891082E+02 -0.11503083246E+03  0.16935420060E+03  0.91415384801E+02 0.  0.
         23    2    1    2    0    0 -0.53408325644E+02 -0.34470577644E+02 -0.18218167988E+03  0.22413437173E+03  0.11404114230E+03 0.  0.
        -11    1    3    3    0    0 -0.22097632736E+02 -0.61998215395E+02 -0.26104112609E+02  0.70806135184E+02  0.00000000000E+00 0.  1.
         11    1    3    3    0    0  0.36977552153E+02 -0.20890675687E+02 -0.88926719854E+02  0.98548065419E+02  0.00000000000E+00 0. -1.
        -11    1    4    4    0    0  0.31884398980E+02  0.54566520186E+01 -0.24932738322E+02  0.40841540003E+02  0.00000000000E+00 0. -1.
         11    1    4    4    0    0 -0.85292724624E+02 -0.39927229663E+02 -0.15724894156E+03  0.18329283173E+03  0.00000000000E+00 0.  1.
         21    1    1    2  502  501  0.38528406227E+02  0.11735946873E+03 -0.88566683634E+03  0.89423902172E+03  0.00000000000E+00 0. -1.
<scales pt_clust_5="13000.00000" pt_clust_6="13000.00000" pt_clust_7="13000.00000" pt_clust_8="13000.00000" pt_clust_9="123.52199"></scales>
<clustering>
<clus scale="   91.415">  5  6 -1 -1</clus>
<clus scale="  114.041">  7  8 -1 -1</clus>
<clus scale="  123.522">  2  9  1 -1</clus>
<clus scale="  102.454">  1  5  2 -1</clus>
<clus scale="  123.522">  2  5  1 -1</clus>
</clustering>
</event>
<event>
 9    1  0.5300912E-006  0.2584931E+03  0.7546771E-02  0.1147088E+00
          2   -1    0    0  502    0  0.00000000000E+00  0.00000000000E+00  0.25727730546E+03  0.25727730546E+03  0.00000000000E+00 0. -1.
         -2   -1    0    0    0  501 -0.00000000000E+00 -0.00000000000E+00 -0.60711925605E+03  0.60711925605E+03  0.00000000000E+00 0.  1.
         23    2    1    2    0    0 -0.25725339717E+03 -0.36417013837E+02  0.92256212807E+02  0.29211292608E+03  0.96505147680E+02 0.  0.
         23    2    1    2    0    0  0.20443155015E+02  0.37202214141E+02 -0.41724190458E+02  0.10711804605E+03  0.89058634595E+02 0.  0.
        -11    1    3    3    0    0 -0.54192400278E+02 -0.35932214228E+02  0.56055760502E+02  0.85849802287E+02  0.00000000000E+00 0. -1.
         11    1    3    3    0    0 -0.20306099690E+03 -0.48479960901E+00  0.36200452305E+02  0.20626312380E+03  0.00000000000E+00 0.  1.
        -13    1    4    4    0    0  0.31787205596E+02 -0.77496557550E+01  0.13166902659E+02  0.35268270862E+02  0.00000000000E+00 0. -1.
         13    1    4    4    0    0 -0.11344050581E+02  0.44951869896E+02 -0.54891093118E+02  0.71849775187E+02  0.00000000000E+00 0.  1.
         21    1    1    2  502  501  0.23681024216E+03 -0.78520030349E+00 -0.40037397295E+03  0.46516558938E+03  0.00000000000E+00 0.  1.
<scales pt_clust_5="13000.00000" pt_clust_6="13000.00000" pt_clust_7="13000.00000" pt_clust_8="13000.00000" pt_clust_9="239.80294"></scales>
<clustering>
<clus scale="   89.059">  7  8 -1 -1</clus>
<clus scale="   96.505">  5  6 -1 -1</clus>
<clus scale="   98.658">  1  7  2 -1</clus>
<clus scale="  239.803">  2  9  1 -1</clus>
<clus scale="   98.658">  1  5  2 -1</clus>
</clustering>
</event>
<event>
 9    1  0.5300912E-006  0.9525415E+02  0.7546771E-02  0.1291617E+00
          2   -1    0    0  502    0  0.00000000000E+00  0.00000000000E+00  0.73694497407E+03  0.73694497407E+03  0.00000000000E+00 0. -1.
         -2   -1    0    0    0  501 -0.00000000000E+00 -0.00000000000E+00 -0.19707648946E+02  0.19707648946E+02  0.00000000000E+00 0.  1.
         23    2    1    2    0    0  0.20860551133E+02 -0.23677487091E+02  0.19617027495E+03  0.21946813434E+03  0.93207828134E+02 0.  0.
         23    2    1    2    0    0  0.11974018000E+02  0.48250081761E+01  0.38896136241E+03  0.39976019086E+03  0.91381677266E+02 0.  0.
        -11    1    4    4    0    0 -0.38657023762E+02  0.18993124415E+01  0.12091762297E+03  0.12696079875E+03  0.00000000000E+00 0.  1.
         11    1    4    4    0    0  0.50631041763E+02  0.29256957347E+01  0.26804373944E+03  0.27279939211E+03  0.00000000000E+00 0. -1.
        -13    1    3    3    0    0 -0.15836889509E+02  0.23048702397E+02  0.11807295557E+03  0.12133949311E+03  0.00000000000E+00 0. -1.
         13    1    3    3    0    0  0.36697440643E+02 -0.46726189488E+02  0.78097319382E+02  0.98128641224E+02  0.00000000000E+00 0.  1.
         21    1    1    2  502  501 -0.32834569133E+02  0.18852478915E+02  0.13210568776E+03  0.13742429781E+03  0.00000000000E+00 0. -1.
<scales pt_clust_5="13000.00000" pt_clust_6="13000.00000" pt_clust_7="13000.00000" pt_clust_8="13000.00000" pt_clust_9="37.86192"></scales>
<clustering>
<clus scale="   37.862">  1  9  2 -1</clus>
<clus scale="   91.382">  5  6 -1 -1</clus>
<clus scale="   93.208">  7  8 -1 -1</clus>
<clus scale="   93.468">  1  5  2 -1</clus>
<clus scale="   37.862">  1  5  2 -1</clus>
</clustering>
</event>
<event>
 9    1  0.5300912E-006  0.1857399E+03  0.7546771E-02  0.1163505E+00
         -1   -1    0    0    0  501 -0.00000000000E+00  0.00000000000E+00  0.12802924927E+03  0.12802924927E+03  0.00000000000E+00 0.  1.
          1   -1    0    0  502    0  0.00000000000E+00 -0.00000000000E+00 -0.57812375511E+03  0.57812375511E+03  0.00000000000E+00 0. -1.
         23    2    1    2    0    0 -0.12944392331E+03 -0.10021204185E+03  0.18768515893E+02  0.18380944604E+03  0.81458410566E+02 0.  0.
         23    2    1    2    0    0  0.91872080466E+02  0.12487217920E+03 -0.41350900444E+03  0.45104255570E+03  0.91739577019E+02 0.  0.
        -11    1    3    3    0    0 -0.86959023171E+02 -0.23922325868E+02 -0.12513685667E+02  0.91053510172E+02  0.00000000000E+00 0. -1.
         11    1    3    3    0    0 -0.42484900136E+02 -0.76289715983E+02  0.31282201560E+02  0.92755935868E+02  0.00000000000E+00 0.  1.
        -13    1    4    4    0    0  0.38115706466E+02  0.10871013065E+03 -0.33703167762E+03  0.35617559055E+03  0.00000000000E+00 0.  1.
         13    1    4    4    0    0  0.53756374000E+02  0.16162048552E+02 -0.76477326823E+02  0.94866965151E+02  0.00000000000E+00 0. -1.
         21    1    1    2  502  501  0.37571842840E+02 -0.24660137346E+02 -0.55354017285E+02  0.71301002643E+02  0.00000000000E+00 0. -1.
<scales pt_clust_5="13000.00000" pt_clust_6="13000.00000" pt_clust_7="13000.00000" pt_clust_8="13000.00000" pt_clust_9="44.94180"></scales>
<clustering>
<clus scale="   44.942">  2  9  1 -1</clus>
<clus scale="   81.458">  5  6 -1 -1</clus>
<clus scale="   91.740">  7  8 -1 -1</clus>
<clus scale="  180.883">  1  5  2 -1</clus>
<clus scale="   44.942">  2  5  1 -1</clus>
</clustering>
</event>
<event>
 9    1  0.5300912E-006  0.1146184E+03  0.7546771E-02  0.1252468E+00
         -2   -1    0    0    0  501 -0.00000000000E+00  0.00000000000E+00  0.29344245811E+02  0.29344245811E+02  0.00000000000E+00 0. -1.
          2   -1    0    0  502    0  0.00000000000E+00 -0.00000000000E+00 -0.91922388034E+03  0.91922388034E+03  0.00000000000E+00 0.  1.
         23    2    1    2    0    0  0.31896290582E+02  0.94908292685E+02 -0.24457033530E+03  0.27934107597E+03  0.90508731309E+02 0.  0.
         23    2    1    2    0    0 -0.33775735241E+02 -0.16354969780E+02 -0.34406244190E+03  0.35790113429E+03  0.91137109210E+02 0.  0.
        -11    1    4    4    0    0  0.28900264427E+02  0.96098605437E+01 -0.11905028752E+03  0.12288427752E+03  0.00000000000E+00 0.  1.
         11    1    4    4    0    0 -0.62675999668E+02 -0.25964830324E+02 -0.22501215438E+03  0.23501685677E+03  0.00000000000E+00 0. -1.
        -11    1    3    3    0    0  0.62227759268E+02  0.76397360562E+02 -0.16472392962E+03  0.19194484550E+03  0.00000000000E+00 0. -1.
         11    1    3    3    0    0 -0.30331468687E+02  0.18510932123E+02 -0.79846405684E+02  0.87396230476E+02  0.00000000000E+00 0.  1.
         21    1    1    2  502  501  0.18794446595E+01 -0.78553322905E+02 -0.30124685732E+03  0.31132591588E+03  0.00000000000E+00 0.  1.
<scales pt_clust_5="13000.00000" pt_clust_6="13000.00000" pt_clust_7="13000.00000" pt_clust_8="13000.00000" pt_clust_9="78.57580"></scales>
<clustering>
<clus scale="   78.576">  2  9  1 -1</clus>
<clus scale="   90.509">  7  8 -1 -1</clus>
<clus scale="   91.137">  5  6 -1 -1</clus>
<clus scale="  114.119">  1  7  2 -1</clus>
<clus scale="   78.576">  2  5  1 -1</clus>
</clustering>
</event>
<event>
 9    1  0.5300912E-006  0.1138937E+03  0.7546771E-02  0.1258603E+00
          3   -1    0    0  502    0  0.00000000000E+00  0.00000000000E+00  0.14167159174E+03  0.14167159174E+03  0.00000000000E+00 0. -1.
         -3   -1    0    0    0  501 -0.00000000000E+00 -0.00000000000E+00 -0.15997562528E+03  0.15997562528E+03  0.00000000000E+00 0.  1.
         23    2    1    2    0    0 -0.41532226393E+02 -0.65451031254E+02 -0.39813710353E+02  0.13487683776E+03  0.10294593975E+03 0.  0.
         23    2    1    2    0    0  0.14367623674E+02  0.36838906845E+02  0.56544311796E+02  0.11400680325E+03  0.90756588322E+02 0.  0.
        -11    1    3    3    0    0 -0.22619437830E+01 -0.71413667087E+02 -0.57192922791E+02  0.91520809950E+02  0.00000000000E+00 0.  1.
         11    1    3    3    0    0 -0.39270282611E+02  0.59626358332E+01  0.17379212438E+02  0.43356027809E+02  0.00000000000E+00 0. -1.
        -13    1    4    4    0    0  0.40625083744E+02  0.43375398243E+02  0.62559566304E+02  0.86287437893E+02  0.00000000000E+00 0. -1.
         13    1    4    4    0    0 -0.26257460070E+02 -0.65364913979E+01 -0.60152545081E+01  0.27719365360E+02  0.00000000000E+00 0.  1.
         21    1    1    2  502  501  0.27164602720E+02  0.28612124409E+02 -0.35034634989E+02  0.52763576006E+02  0.00000000000E+00 0. -1.
<scales pt_clust_5="13000.00000" pt_clust_6="13000.00000" pt_clust_7="13000.00000" pt_clust_8="13000.00000" pt_clust_9="39.45338"></scales>
<clustering>
<clus scale="   39.453">  2  9  1 -1</clus>
<clus scale="   90.757">  7  8 -1 -1</clus>
<clus scale="  102.946">  5  6 -1 -1</clus>
<clus scale="  103.008">  1  7  2 -1</clus>
<clus scale="  103.008">  1  5  2 -1</clus>
</clustering>
</event>
<event>
 9    1  0.5300912E-006  0.1760905E+03  0.7546771E-02  0.1184891E+00
         -2   -1    0    0    0  501 -0.00000000000E+00  0.00000000000E+00  0.91665603239E+02  0.91665603239E+02  0.00000000000E+00 0.  1.
          2   -1    0    0  502    0  0.00000000000E+00 -0.00000000000E+00 -0.77068354211E+03  0.77068354211E+03  0.00000000000E+00 0. -1.
         23    2    1    2    0    0  0.42481508074E+02  0.86197359928E+02 -0.24042714500E+03  0.27654743436E+03  0.97152498724E+02 0.  0.
         23    2    1    2    0    0  0.87621561059E+02  0.27816804744E+02 -0.38211976675E+03  0.40382639605E+03  0.92784316653E+02 0.  0.
        -11    1    3    3    0    0  0.71668322156E+02  0.64262173012E+02 -0.20070549231E+03  0.22259530526E+03  0.00000000000E+00 0. -1.
         11    1    3    3    0    0 -0.29186814082E+02  0.21935186916E+02 -0.39721652694E+02  0.53952129097E+02  0.00000000000E+00 0.  1.
        -13    1    4    4    0    0  0.44993591350E+02  0.58910276585E+02 -0.26864886576E+03  0.27868809990E+03  0.00000000000E+00 0. -1.
         13    1    4    4    0    0  0.42627969709E+02 -0.31093471841E+02 -0.11347090100E+03  0.12513829616E+03  0.00000000000E+00 0.  1.
         21    1    1    2  502  501 -0.13010306913E+03 -0.11401416467E+03 -0.56471027115E+02  0.18197531494E+03  0.00000000000E+00 0.  1.
<scales pt_clust_5="13000.00000" pt_clust_6="13000.00000" pt_clust_7="13000.00000" pt_clust_8="13000.00000" pt_clust_9="146.86479"></scales>
<clustering>
<clus scale="   92.784">  7  8 -1 -1</clus>
<clus scale="   97.152">  5  6 -1 -1</clus>
<clus scale="  130.615">  2  7  1 -1</clus>
<clus scale="  146.865">  1  9  2 -1</clus>
<clus scale="  130.615">  2  5  1 -1</clus>
</clustering>
</event>
<event>
 9    1  0.5300912E-006  0.9815671E+02  0.7546771E-02  0.1284435E+00
          2   -1    0    0  502    0  0.00000000000E+00  0.00000000000E+00  0.44088262567E+03  0.44088262567E+03  0.00000000000E+00 0. -1.
         -2   -1    0    0    0  501 -0.00000000000E+00 -0.00000000000E+00 -0.46572316451E+02  0.46572316451E+02  0.00000000000E+00 0.  1.
         23    2    1    2    0    0 -0.21223253179E+02  0.41041417314E+02  0.99151870528E+02  0.14175094980E+03  0.90152170967E+02 0.  0.
         23    2    1    2    0    0  0.52923047173E+02  0.20314038723E+02  0.14217822305E+03  0.17785788631E+03  0.90582953812E+02 0.  0.
        -11    1    4    4    0    0  0.46579356420E+02  0.49545923296E+02  0.61034511730E+02  0.91376400575E+02  0.00000000000E+00 0.  1.
         11    1    4    4    0    0  0.63436907526E+01 -0.29231884574E+02  0.81143711320E+02  0.86481485735E+02  0.00000000000E+00 0. -1.
        -13    1    3    3    0    0 -0.29755535046E+02  0.67184947406E+02  0.77042992948E+02  0.10646516701E+03  0.00000000000E+00 0.  1.
         13    1    3    3    0    0  0.85322818670E+01 -0.26143530092E+02  0.22108877580E+02  0.35285782794E+02  0.00000000000E+00 0. -1.
         21    1    1    2  502  501 -0.31699793994E+02 -0.61355456037E+02  0.15298021564E+03  0.16784610601E+03  0.00000000000E+00 0.  1.
<scales pt_clust_5="13000.00000" pt_clust_6="13000.00000" pt_clust_7="13000.00000" pt_clust_8="13000.00000" pt_clust_9="69.06062"></scales>
<clustering>
<clus scale="   69.061">  1  9  2 -1</clus>
<clus scale="   90.152">  7  8 -1 -1</clus>
<clus scale="   90.583">  5  6 -1 -1</clus>
<clus scale="   97.759">  2  7  1 -1</clus>
<clus scale="   69.061">  1  5  2 -1</clus>
</clustering>
</event>
<event>
 9    1  0.5300912E-006  0.1129898E+03  0.7546771E-02  0.1256071E+00
          1   -1    0    0  502    0  0.00000000000E+00  0.00000000000E+00  0.87510693720E+02  0.87510693720E+02  0.00000000000E+00 0. -1.
         -1   -1    0    0    0  501 -0.00000000000E+00 -0.00000000000E+00 -0.35350052561E+03  0.35350052561E+03  0.00000000000E+00 0.  1.
         23    2    1    2    0    0 -0.31108916368E+02  0.96953758118E+02 -0.99750723910E+02  0.16940665916E+03  0.91545689988E+02 0.  0.
         23    2    1    2    0    0  0.13499212420E+02 -0.50116902034E+02 -0.53742782680E+01  0.10313709685E+03  0.88963168074E+02 0.  0.
        -11    1    3    3    0    0 -0.27985634433E+02 -0.90068699377E+01 -0.11852467071E+02  0.31698586978E+02  0.00000000000E+00 0. -1.
         11    1    3    3    0    0 -0.31232819341E+01  0.10596062806E+03 -0.87898256839E+02  0.13770807218E+03  0.00000000000E+00 0.  1.
        -13    1    4    4    0    0  0.43416107108E+01 -0.75670413028E+02 -0.24403254849E+01  0.75834135980E+02  0.00000000000E+00 0. -1.
         13    1    4    4    0    0  0.91576017093E+01  0.25553510994E+02 -0.29339527831E+01  0.27302960867E+02  0.00000000000E+00 0.  1.
         21    1    1    2  502  501  0.17609703947E+02 -0.46836856083E+02 -0.16086482971E+03  0.16846746332E+03  0.00000000000E+00 0. -1.
<scales pt_clust_5="13000.00000" pt_clust_6="13000.00000" pt_clust_7="13000.00000" pt_clust_8="13000.00000" pt_clust_9="50.03791"></scales>
<clustering>
<clus scale="   50.038">  2  9  1 -1</clus>
<clus scale="   88.963">  7  8 -1 -1</clus>
<clus scale="   91.546">  5  6 -1 -1</clus>
<clus scale="  110.908">  1  7  2 -1</clus>
<clus scale="  110.908">  1  5  2 -1</clus>
</clustering>
</event>
<event>
 9    1  0.5300912E-006  0.1022590E+03  0.7546771E-02  0.1275910E+00
         -2   -1    0    0    0  501 -0.00000000000E+00  0.00000000000E+00  0.59247269450E+03  0.59247269450E+03  0.00000000000E+00 0.  1.
          2   -1    0    0  502    0  0.00000000000E+00 -0.00000000000E+00 -0.96857375254E+02  0.96857375254E+02  0.00000000000E+00 0. -1.
         23    2    1    2    0    0  0.33033768756E+02 -0.20553476616E+02  0.18873566034E+03  0.21345300425E+03  0.91800655015E+02 0.  0.
         23    2    1    2    0    0  0.56347084566E+02  0.14109938980E+02 -0.41778501862E+02  0.11588683065E+03  0.91160462829E+02 0.  0.
        -11    1    3    3    0    0 -0.95532692315E+01 -0.42352605359E+02  0.47587437695E+02  0.64417174419E+02  0.00000000000E+00 0.  1.
         11    1    3    3    0    0  0.42587037988E+02  0.21799128743E+02  0.14114822264E+03  0.14903582983E+03  0.00000000000E+00 0. -1.
        -13    1    4    4    0    0  0.61567787547E+02 -0.17479165748E+02 -0.95841924733E+00  0.64008064071E+02  0.00000000000E+00 0.  1.
         13    1    4    4    0    0 -0.52207029810E+01  0.31589104728E+02 -0.40820082614E+02  0.51878766579E+02  0.00000000000E+00 0. -1.
         21    1    1    2  502  501 -0.89380853323E+02  0.64435376354E+01  0.34865816077E+03  0.35999023485E+03  0.00000000000E+00 0.  1.
<scales pt_clust_5="13000.00000" pt_clust_6="13000.00000" pt_clust_7="13000.00000" pt_clust_8="13000.00000" pt_clust_9="89.61281"></scales>
<clustering>
<clus scale="   89.613">  1  9  2 -1</clus>
<clus scale="   91.160">  7  8 -1 -1</clus>
<clus scale="   91.801">  5  6 -1 -1</clus>
<clus scale="  101.685">  2  7  1 -1</clus>
<clus scale="  101.685">  2  5  1 -1</clus>
</clustering>
</event>
<event>
 9    1  0.5300912E-006  0.9852230E+02  0.7546771E-02  0.1284331E+00
          2   -1    0    0  502    0  0.00000000000E+00  0.00000000000E+00  0.27766529307E+03  0.27766529307E+03  0.00000000000E+00 0. -1.
         -2   -1    0    0    0  501 -0.00000000000E+00 -0.00000000000E+00 -0.28694352448E+03  0.28694352448E+03  0.00000000000E+00 0.  1.
         23    2    1    2    0    0  0.95001726509E+02  0.26056537200E+02  0.44204230459E+02  0.14064623191E+03  0.90128116538E+02 0.  0.
         23    2    1    2    0    0 -0.90219200900E+01 -0.22251358495E+02  0.16430412075E+03  0.18978743309E+03  0.91907059939E+02 0.  0.
        -13    1    3    3    0    0  0.12515110707E+02 -0.30829873745E+02  0.94383238785E+01  0.34585995270E+02  0.00000000000E+00 0. -1.
         13    1    3    3    0    0  0.82486615802E+02  0.56886410946E+02  0.34765906580E+02  0.10606023664E+03  0.00000000000E+00 0.  1.
        -13    1    4    4    0    0 -0.46901770985E+02 -0.23591929117E+02  0.65380601333E+02  0.83850928865E+02  0.00000000000E+00 0.  1.
         13    1    4    4    0    0  0.37879850895E+02  0.13405706221E+01  0.98923519422E+02  0.10593650423E+03  0.00000000000E+00 0. -1.
         21    1    1    2  502  501 -0.85979806419E+02 -0.38051787056E+01 -0.21778658263E+03  0.23417515254E+03  0.00000000000E+00 0.  1.
<scales pt_clust_5="13000.00000" pt_clust_6="13000.00000" pt_clust_7="13000.00000" pt_clust_8="13000.00000" pt_clust_9="86.06397"></scales>
<clustering>
<clus scale="   86.064">  2  9  1 -1</clus>
<clus scale="   90.128">  5  6 -1 -1</clus>
<clus scale="   91.907">  7  8 -1 -1</clus>
<clus scale="   96.865">  2  5  1 -1</clus>
<clus scale="   98.522">  1  5  2 -1</clus>
</clustering>
</event>
<event>
 9    1  0.5300912E-006  0.9248140E+02  0.7546771E-02  0.1297566E+00
         -1   -1    0    0    0  501 -0.00000000000E+00  0.00000000000E+00  0.23032784351E+03  0.23032784351E+03  0.00000000000E+00 0.  1.
          1   -1    0    0  502    0  0.00000000000E+00 -0.00000000000E+00 -0.15766273690E+03  0.15766273690E+03  0.00000000000E+00 0. -1.
         23    2    1    2    0    0 -0.34164696420E+01 -0.16163409334E+02  0.17742652817E+03  0.20020348261E+03  0.91259703508E+02 0.  0.
         23    2    1    2    0    0 -0.38484094197E+02  0.20971718512E+01 -0.10486370997E+03  0.14358837893E+03  0.90198676584E+02 0.  0.
        -13    1    4    4    0    0 -0.74073795061E+01 -0.26404603889E+02  0.31798457788E+01  0.27607676412E+02  0.00000000000E+00 0. -1.
         13    1    4    4    0    0 -0.31076714691E+02  0.28501775741E+02 -0.10804355575E+03  0.11598070251E+03  0.00000000000E+00 0.  1.
        -13    1    3    3    0    0 -0.23703394693E+02 -0.24982792773E+02  0.17452809226E+03  0.17789335525E+03  0.00000000000E+00 0.  1.
         13    1    3    3    0    0  0.20286925051E+02  0.88193834384E+01  0.28984359170E+01  0.22310127365E+02  0.00000000000E+00 0. -1.
         21    1    1    2  502  501  0.41900563839E+02  0.14066237483E+02  0.10228840616E+00  0.44198718872E+02  0.00000000000E+00 0.  1.
<scales pt_clust_5="13000.00000" pt_clust_6="13000.00000" pt_clust_7="13000.00000" pt_clust_8="13000.00000" pt_clust_9="44.19860"></scales>
<clustering>
<clus scale="   44.199">  2  9  1 -1</clus>
<clus scale="   90.199">  5  6 -1 -1</clus>
<clus scale="   91.260">  7  8 -1 -1</clus>
<clus scale="   91.435">  2  5  1 -1</clus>
<clus scale="   44.199">  2  5  1 -1</clus>
</clustering>
</event>
<event>
 9    1  0.5300912E-006  0.1244625E+03  0.7546771E-02  0.1244119E+00
         -1   -1    0    0    0  501 -0.00000000000E+00  0.00000000000E+00  0.11360573214E+03  0.11360573214E+03  0.00000000000E+00 0.  1.
          1   -1    0    0  502    0  0.00000000000E+00 -0.00000000000E+00 -0.31184437293E+03  0.31184437293E+03  0.00000000000E+00 0. -1.
         23    2    1    2    0    0 -0.39329628067E+02  0.55323742369E+02  0.10563310444E+02  0.11452255064E+03  0.91631299045E+02 0.  0.
         23    2    1    2    0    0 -0.30998651461E+02  0.45996736992E+02 -0.11508611652E+03  0.15602576582E+03  0.89569019072E+02 0.  0.
        -13    1    3    3    0    0 -0.58202423066E+02  0.42267071430E+02 -0.21515942508E+02  0.75079712040E+02  0.00000000000E+00 0. -1.
         13    1    3    3    0    0  0.18872795000E+02  0.13056670939E+02  0.32079252951E+02  0.39442838603E+02  0.00000000000E+00 0.  1.
        -13    1    4    4    0    0 -0.19102089502E+01  0.66036781131E+02 -0.93980180251E+02  0.11487723726E+03  0.00000000000E+00 0.  1.
         13    1    4    4    0    0 -0.29088442511E+02 -0.20040044140E+02 -0.21105936270E+02  0.41148528561E+02  0.00000000000E+00 0. -1.
         21    1    1    2  502  501  0.70328279528E+02 -0.10132047936E+03 -0.93715834715E+02  0.15490178861E+03  0.00000000000E+00 0. -1.
<scales pt_clust_5="13000.00000" pt_clust_6="13000.00000" pt_clust_7="13000.00000" pt_clust_8="13000.00000" pt_clust_9="84.22955"></scales>
<clustering>
<clus scale="   89.569">  7  8 -1 -1</clus>
<clus scale="   91.631">  5  6 -1 -1</clus>
<clus scale="  105.353">  2  7  1 -1</clus>
<clus scale="   84.230">  2  9  1 -1</clus>
<clus scale="  105.353">  2  5  1 -1</clus>
</clustering>
</event>
<event>
 9    1  0.5300912E-006  0.1349085E+03  0.7546771E-02  0.1229258E+00
          1   -1    0    0  502    0  0.00000000000E+00  0.00000000000E+00  0.21453632263E+03  0.21453632263E+03  0.00000000000E+00 0. -1.
         -1   -1    0    0    0  501 -0.00000000000E+00 -0.00000000000E+00 -0.15572995963E+03  0.15572995963E+03  0.00000000000E+00 0.  1.
         23    2    1    2    0    0  0.10579064522E+02  0.55750919852E+02  0.12835282333E+02  0.11279345314E+03  0.96630931531E+02 0.  0.
         23    2    1    2    0    0  0.55354972159E+02  0.35363545771E+02 -0.35709473646E+02  0.11847334714E+03  0.91902198898E+02 0.  0.
        -11    1    4    4    0    0  0.36231085198E+02  0.64309054092E+02 -0.83361987666E+01  0.74282152518E+02  0.00000000000E+00 0. -1.
         11    1    4    4    0    0  0.19123886962E+02 -0.28945508321E+02 -0.27373274879E+02  0.44191194622E+02  0.00000000000E+00 0.  1.
        -11    1    3    3    0    0 -0.39562453302E+02  0.42410792751E+02 -0.42830790389E+01  0.58156752136E+02  0.00000000000E+00 0.  1.
         11    1    3    3    0    0  0.50141517823E+02  0.13340127101E+02  0.17118361372E+02  0.54636701005E+02  0.00000000000E+00 0. -1.
         21    1    1    2  502  501 -0.65934036681E+02 -0.91114465622E+02  0.81680554314E+02  0.13899948198E+03  0.00000000000E+00 0.  1.
<scales pt_clust_5="13000.00000" pt_clust_6="13000.00000" pt_clust_7="13000.00000" pt_clust_8="13000.00000" pt_clust_9="98.76374"></scales>
<clustering>
<clus scale="   91.902">  5  6 -1 -1</clus>
<clus scale="   96.631">  7  8 -1 -1</clus>
<clus scale="  112.061">  2  7  1 -1</clus>
<clus scale="   98.764">  1  9  2 -1</clus>
<clus scale="   98.764">  1  5  2 -1</clus>
</clustering>
</event>
<event>
 9    1  0.5300912E-006  0.1037044E+03  0.7546771E-02  0.1273754E+00
         -1   -1    0    0    0  501 -0.00000000000E+00  0.00000000000E+00  0.18849323660E+03  0.18849323660E+03  0.00000000000E+00 0.  1.
          1   -1    0    0  502    0  0.00000000000E+00 -0.00000000000E+00 -0.13314610805E+03  0.13314610805E+03  0.00000000000E+00 0. -1.
         23    2    1    2    0    0  0.24308284196E+02 -0.47048907580E+02  0.12515856547E+03  0.16468056550E+03  0.93008224134E+02 0.  0.
         23    2    1    2    0    0 -0.31897702876E+02  0.40683691891E+01 -0.40459380743E+02  0.10436154389E+03  0.90666174926E+02 0.  0.
        -11    1    4    4    0    0  0.26722697406E+01 -0.33854488687E+02  0.67611475855E+01  0.34626298481E+02  0.00000000000E+00 0.  1.
         11    1    4    4    0    0 -0.34569972616E+02  0.37922857876E+02 -0.47220528328E+02  0.69735245406E+02  0.00000000000E+00 0. -1.
        -13    1    3    3    0    0 -0.94847530671E+00  0.27343444413E+02  0.22585094196E+02  0.35477458162E+02  0.00000000000E+00 0. -1.
         13    1    3    3    0    0  0.25256759503E+02 -0.74392351993E+02  0.10257347128E+03  0.12920310734E+03  0.00000000000E+00 0.  1.
         21    1    1    2  502  501  0.75894186793E+01  0.42980538391E+02 -0.29352056180E+02  0.52597235272E+02  0.00000000000E+00 0. -1.
<scales pt_clust_5="13000.00000" pt_clust_6="13000.00000" pt_clust_7="13000.00000" pt_clust_8="13000.00000" pt_clust_9="43.64546"></scales>
<clustering>
<clus scale="   43.645">  2  9  1 -1</clus>
<clus scale="   90.666">  5  6 -1 -1</clus>
<clus scale="   93.008">  7  8 -1 -1</clus>
<clus scale="  101.609">  2  5  1 -1</clus>
<clus scale="   43.645">  2  5  1 -1</clus>
</clustering>
</event>
<event>
 9    1  0.5300912E-006  0.1527686E+03  0.7546771E-02  0.1197992E+00
          1   -1    0    0  502    0  0.00000000000E+00  0.00000000000E+00  0.46144738765E+03  0.46144738765E+03  0.00000000000E+00 0. -1.
         -1   -1    0    0    0  501 -0.00000000000E+00 -0.00000000000E+00 -0.16085509779E+03  0.16085509779E+03  0.00000000000E+00 0.  1.
         23    2    1    2    0    0 -0.34197951155E+02  0.74818905646E+02  0.67742261377E+02  0.13895987725E+03  0.89182201163E+02 0.  0.
         23    2    1    2    0    0  0.96062838934E+02 -0.10889602390E+03  0.32444797765E+03  0.36767628370E+03  0.93983755746E+02 0.  0.
        -11    1    4    4    0    0 -0.12856643885E+02 -0.44675074365E+02  0.83702128968E+02  0.95745506189E+02  0.00000000000E+00 0.  1.
         11    1    4    4    0    0  0.10891948282E+03 -0.64220949538E+02  0.24074584868E+03  0.27193077751E+03  0.00000000000E+00 0. -1.
        -13    1    3    3    0    0 -0.59010500117E+02  0.75748964933E+02  0.58655785987E+02  0.11251953627E+03  0.00000000000E+00 0.  1.
         13    1    3    3    0    0  0.24812548962E+02 -0.93005928736E+00  0.90864753907E+01  0.26440340983E+02  0.00000000000E+00 0. -1.
         21    1    1    2  502  501 -0.61864887779E+02  0.34077118257E+02 -0.91597949176E+02  0.11566632449E+03  0.00000000000E+00 0.  1.
<scales pt_clust_5="13000.00000" pt_clust_6="13000.00000" pt_clust_7="13000.00000" pt_clust_8="13000.00000" pt_clust_9="70.62942"></scales>
<clustering>
<clus scale="   70.629">  2  9  1 -1</clus>
<clus scale="   89.182">  7  8 -1 -1</clus>
<clus scale="   93.984">  5  6 -1 -1</clus>
<clus scale="  149.863">  2  7  1 -1</clus>
<clus scale="  152.769">  1  5  2 -1</clus>
</clustering>
</event>
<event>
 9    1  0.5300912E-006  0.1801311E+03  0.7546771E-02  0.1168299E+00
          2   -1    0    0  502    0  0.00000000000E+00  0.00000000000E+00  0.38567365847E+03  0.38567365847E+03  0.00000000000E+00 0. -1.
         -2   -1    0    0    0  501 -0.00000000000E+00 -0.00000000000E+00 -0.28294663038E+03  0.28294663038E+03  0.00000000000E+00 0.  1.
         23    2    1    2    0    0  0.81004409115E+02  0.18045660151E+03 -0.27666041834E+01  0.21745149232E+03  0.90283985790E+02 0.  0.
         23    2    1    2    0    0 -0.12656012361E+03 -0.76316423095E+02  0.22546092924E+03  0.28590339718E+03  0.95217963537E+02 0.  0.
        -13    1    3    3    0    0  0.20726954078E+02  0.85174207688E+02  0.40658372265E+02  0.96629992838E+02  0.00000000000E+00 0.  1.
         13    1    3    3    0    0  0.60277455037E+02  0.95282393819E+02 -0.43424976448E+02  0.12082149948E+03  0.00000000000E+00 0. -1.
        -13    1    4    4    0    0 -0.77130587631E+02  0.80189423495E+01  0.11059082696E+03  0.13506947098E+03  0.00000000000E+00 0. -1.
         13    1    4    4    0    0 -0.49429535979E+02 -0.84335365445E+02  0.11487010229E+03  0.15083392619E+03  0.00000000000E+00 0.  1.
         21    1    1    2  502  501  0.45555714495E+02 -0.10414017841E+03 -0.11996729697E+03  0.16526539936E+03  0.00000000000E+00 0.  1.
<scales pt_clust_5="13000.00000" pt_clust_6="13000.00000" pt_clust_7="13000.00000" pt_clust_8="13000.00000" pt_clust_9="113.66838"></scales>
<clustering>
<clus scale="   90.284">  5  6 -1 -1</clus>
<clus scale="   95.218">  7  8 -1 -1</clus>
<clus scale="  113.668">  2  9  1 -1</clus>
<clus scale="  177.572">  2  5  1 -1</clus>
<clus scale="  180.131">  1  5  2 -1</clus>
</clustering>
</event>
<event>
 9    1  0.5300912E-006  0.1129324E+03  0.7546771E-02  0.1260326E+00
          1   -1    0    0  502    0  0.00000000000E+00  0.00000000000E+00  0.10344749954E+03  0.10344749954E+03  0.00000000000E+00 0. -1.
         -1   -1    0    0    0  501 -0.00000000000E+00 -0.00000000000E+00 -0.26589708868E+03  0.26589708868E+03  0.00000000000E+00 0.  1.
         23    2    1    2    0    0 -0.93080770822E+02  0.27677338995E+02 -0.14499417214E+03  0.19773211017E+03  0.92976408015E+02 0.  0.
         23    2    1    2    0    0  0.80077880866E+01 -0.29943669787E+02 -0.13578931497E+02  0.86421071288E+02  0.79520224796E+02 0.  0.
        -11    1    4    4    0    0  0.28776208118E+02  0.16642706413E+02 -0.12155999871E+02  0.35395171468E+02  0.00000000000E+00 0. -1.
         11    1    4    4    0    0 -0.20768420031E+02 -0.46586376200E+02 -0.14229316255E+01  0.51025899820E+02  0.00000000000E+00 0.  1.
        -13    1    3    3    0    0 -0.23546505142E+02  0.51001684011E+02 -0.37280597285E+02  0.67419971895E+02  0.00000000000E+00 0. -1.
         13    1    3    3    0    0 -0.69534265680E+02 -0.23324345016E+02 -0.10771357485E+03  0.13031213828E+03  0.00000000000E+00 0.  1.
         21    1    1    2  502  501  0.85072982736E+02  0.22663307923E+01 -0.38764855051E+01  0.85191406765E+02  0.00000000000E+00 0. -1.
<scales pt_clust_5="13000.00000" pt_clust_6="13000.00000" pt_clust_7="13000.00000" pt_clust_8="13000.00000" pt_clust_9="85.10316"></scales>
<clustering>
<clus scale="   79.520">  5  6 -1 -1</clus>
<clus scale="   85.103">  1  9  2 -1</clus>
<clus scale="   92.976">  7  8 -1 -1</clus>
<clus scale="  102.140">  1  5  2 -1</clus>
<clus scale="   85.103">  1  5  2 -1</clus>
</clustering>
</event>
<event>
 9    1  0.5300912E-006  0.1064367E+03  0.7546771E-02  0.1267944E+00
         -3   -1    0    0    0  501 -0.00000000000E+00  0.00000000000E+00  0.41434565685E+03  0.41434565685E+03  0.00000000000E+00 0.  1.
          3   -1    0    0  502    0  0.00000000000E+00 -0.00000000000E+00 -0.12617678977E+03  0.12617678977E+03  0.00000000000E+00 0. -1.
         23    2    1    2    0    0 -0.39634267031E+02  0.40601187718E+02  0.35702691252E+03  0.37322910157E+03  0.92803094963E+02 0.  0.
         23    2    1    2    0    0  0.27065922746E+02 -0.44583502877E+01 -0.83658471989E+01  0.95714199883E+02  0.91316918468E+02 0.  0.
        -11    1    4    4    0    0 -0.23401873402E+02  0.24077413352E+02 -0.16077277019E+02  0.37226984148E+02  0.00000000000E+00 0.  1.
         11    1    4    4    0    0  0.50467796148E+02 -0.28535763639E+02  0.77114298206E+01  0.58487215735E+02  0.00000000000E+00 0. -1.
        -11    1    3    3    0    0 -0.66129188632E+02  0.34239679185E+02  0.31055132058E+03  0.31935489339E+03  0.00000000000E+00 0.  1.
         11    1    3    3    0    0  0.26494921601E+02  0.63615085331E+01  0.46475591936E+02  0.53874208182E+02  0.00000000000E+00 0. -1.
         21    1    1    2  502  501  0.12568344284E+02 -0.36142837430E+02 -0.60492198232E+02  0.71579145165E+02  0.00000000000E+00 0. -1.
<scales pt_clust_5="13000.00000" pt_clust_6="13000.00000" pt_clust_7="13000.00000" pt_clust_8="13000.00000" pt_clust_9="38.26575"></scales>
<clustering>
<clus scale="   38.266">  2  9  1 -1</clus>
<clus scale="   91.317">  5  6 -1 -1</clus>
<clus scale="   92.803">  7  8 -1 -1</clus>
<clus scale="  105.143">  2  5  1 -1</clus>
<clus scale="   38.266">  2  5  1 -1</clus>
</clustering>
</event>
<event>
 9    1  0.5300912E-006  0.9511047E+02  0.7546771E-02  0.1292927E+00
         -1   -1    0    0    0  501 -0.00000000000E+00  0.00000000000E+00  0.33033644410E+02  0.33033644410E+02  0.00000000000E+00 0.  1.
          1   -1    0    0  502    0  0.00000000000E+00 -0.00000000000E+00 -0.83548898349E+03  0.83548898349E+03  0.00000000000E+00 0. -1.
         23    2    1    2    0    0 -0.79147947839E+01 -0.10776795310E+02 -0.36899805810E+03  0.38000165632E+03  0.89793700378E+02 0.  0.
         23    2    1    2    0    0 -0.25471765093E+02  0.21114620875E+02 -0.44165405535E+03  0.45262222331E+03  0.93348456866E+02 0.  0.
        -11    1    4    4    0    0 -0.59487741258E+02  0.17105308679E+02 -0.33277583496E+03  0.33848358790E+03  0.00000000000E+00 0. -1.
         11    1    4    4    0    0  0.34015976165E+02  0.40093121957E+01 -0.10887822039E+03  0.11413863541E+03  0.00000000000E+00 0.  1.
        -13    1    3    3    0    0  0.15904696118E+01 -0.48488663264E+02 -0.15227310691E+03  0.15981482768E+03  0.00000000000E+00 0.  1.
         13    1    3    3    0    0 -0.95052643956E+01  0.37711867955E+02 -0.21672495119E+03  0.22018682864E+03  0.00000000000E+00 0. -1.
         21    1    1    2  502  501  0.33386559877E+02 -0.10337825565E+02  0.81967743641E+01  0.35898748276E+02  0.00000000000E+00 0.  1.
<scales pt_clust_5="13000.00000" pt_clust_6="13000.00000" pt_clust_7="13000.00000" pt_clust_8="13000.00000" pt_clust_9="34.95044"></scales>
<clustering>
<clus scale="   34.950">  1  9  2 -1</clus>
<clus scale="   89.794">  7  8 -1 -1</clus>
<clus scale="   91.624">  1  7  2 -1</clus>
<clus scale="   93.348">  5  6 -1 -1</clus>
<clus scale="   95.110">  2  5  1 -1</clus>
</clustering>
</event>
<event>
 9    1  0.5300912E-006  0.1008759E+03  0.7546771E-02  0.1279112E+00
          2   -1    0    0  502    0  0.00000000000E+00  0.00000000000E+00  0.67475365012E+03  0.67475365012E+03  0.00000000000E+00 0. -1.
         -2   -1    0    0    0  501 -0.00000000000E+00 -0.00000000000E+00 -0.29133664172E+02  0.29133664172E+02  0.00000000000E+00 0.  1.
         23    2    1    2    0    0 -0.26009299448E+01  0.16734051823E+02  0.99798278580E+02  0.13732253192E+03  0.92795409571E+02 0.  0.
         23    2    1    2    0    0  0.15066148061E+01 -0.45661332586E+02  0.51173070249E+03  0.52184139128E+03  0.91448885154E+02 0.  0.
        -11    1    4    4    0    0  0.43384333997E+02 -0.41465833413E+02  0.28797719827E+03  0.29416404013E+03  0.00000000000E+00 0. -1.
         11    1    4    4    0    0 -0.41877719191E+02 -0.41954991726E+01  0.22375350422E+03  0.22767735115E+03  0.00000000000E+00 0.  1.
        -11    1    3    3    0    0 -0.29685310859E+02 -0.22096921621E+02  0.14459986858E+02  0.39731383639E+02  0.00000000000E+00 0.  1.
         11    1    3    3    0    0  0.27084380914E+02  0.38830973445E+02  0.85338291722E+02  0.97591148278E+02  0.00000000000E+00 0. -1.
         21    1    1    2  502  501  0.10943151387E+01  0.28927280763E+02  0.34091004881E+02  0.44723391103E+02  0.00000000000E+00 0.  1.
<scales pt_clust_5="13000.00000" pt_clust_6="13000.00000" pt_clust_7="13000.00000" pt_clust_8="13000.00000" pt_clust_9="28.94797"></scales>
<clustering>
<clus scale="   28.948">  2  9  1 -1</clus>
<clus scale="   91.449">  5  6 -1 -1</clus>
<clus scale="   92.795">  7  8 -1 -1</clus>
<clus scale="   99.639">  1  5  2 -1</clus>
<clus scale="   99.639">  1  5  2 -1</clus>
</clustering>
</event>
<event>
 9    1  0.5300912E-006  0.2509124E+03  0.7546771E-02  0.1112810E+00
          1   -1    0    0  502    0  0.00000000000E+00  0.00000000000E+00  0.20696857037E+03  0.20696857037E+03  0.00000000000E+00 0. -1.
         -1   -1    0    0    0  501 -0.00000000000E+00 -0.00000000000E+00 -0.33203733240E+03  0.33203733240E+03  0.00000000000E+00 0.  1.
         23    2    1    2    0    0 -0.21086182253E+03  0.11167282463E+03 -0.69329051376E+02  0.26520926415E+03  0.92714122234E+02 0.  0.
         23    2    1    2    0    0  0.20981053914E+03 -0.89254939142E+02 -0.50596622148E+02  0.25077234393E+03  0.91322745323E+02 0.  0.
        -13    1    4    4    0    0  0.18377346598E+03 -0.10672170668E+03 -0.53908167760E+02  0.21924484037E+03  0.00000000000E+00 0.  1.
         13    1    4    4    0    0  0.26037073158E+02  0.17466767538E+02  0.33115456120E+01  0.31527503567E+02  0.00000000000E+00 0. -1.
        -13    1    3    3    0    0 -0.18051909055E+03  0.10595017356E+03 -0.24455310810E+02  0.21073832959E+03  0.00000000000E+00 0. -1.
         13    1    3    3    0    0 -0.30342731983E+02  0.57226510724E+01 -0.44873740566E+02  0.54470934560E+02  0.00000000000E+00 0.  1.
         21    1    1    2  502  501  0.10512833886E+01 -0.22417885492E+02 -0.51430884967E+01  0.23024294690E+02  0.00000000000E+00 0. -1.
<scales pt_clust_5="13000.00000" pt_clust_6="13000.00000" pt_clust_7="13000.00000" pt_clust_8="13000.00000" pt_clust_9="22.44252"></scales>
<clustering>
<clus scale="   22.443">  1  9  2 -1</clus>
<clus scale="   91.323">  5  6 -1 -1</clus>
<clus scale="   92.714">  7  8 -1 -1</clus>
<clus scale="  250.402">  1  5  2 -1</clus>
<clus scale="   22.443">  1  5  2 -1</clus>
</clustering>
</event>
<event>
 9    1  0.5300912E-006  0.9713084E+02  0.7546771E-02  0.1287471E+00
          1   -1    0    0  502    0  0.00000000000E+00  0.00000000000E+00  0.48063496970E+02  0.48063496970E+02  0.00000000000E+00 0. -1.
         -1   -1    0    0    0  501 -0.00000000000E+00 -0.00000000000E+00 -0.40349575679E+03  0.40349575679E+03  0.00000000000E+00 0.  1.
         23    2    1    2    0    0  0.11814401867E+02  0.59035224826E+01 -0.23201105856E+03  0.24944188318E+03  0.90651476116E+02 0.  0.
         23    2    1    2    0    0  0.13256477540E+02 -0.42589557987E+02 -0.38849915768E+02  0.10658352043E+03  0.88662992419E+02 0.  0.
        -13    1    3    3    0    0  0.15195947150E+02 -0.39425519361E+02 -0.76137543033E+02  0.87075908527E+02  0.00000000000E+00 0. -1.
         13    1    3    3    0    0 -0.33815452826E+01  0.45329041844E+02 -0.15587351553E+03  0.16236597466E+03  0.00000000000E+00 0.  1.
        -13    1    4    4    0    0  0.75376433313E+01  0.26875527824E+02 -0.20127738416E+02  0.34412728990E+02  0.00000000000E+00 0.  1.
         13    1    4    4    0    0  0.57188342086E+01 -0.69465085812E+02 -0.18722177352E+02  0.72170791435E+02  0.00000000000E+00 0. -1.
         21    1    1    2  502  501 -0.25070879407E+02  0.36686035505E+02 -0.84571285493E+02  0.95533850154E+02  0.00000000000E+00 0.  1.
<scales pt_clust_5="13000.00000" pt_clust_6="13000.00000" pt_clust_7="13000.00000" pt_clust_8="13000.00000" pt_clust_9="44.43438"></scales>
<clustering>
<clus scale="   44.434">  2  9  1 -1</clus>
<clus scale="   88.663">  7  8 -1 -1</clus>
<clus scale="   90.651">  5  6 -1 -1</clus>
<clus scale="   95.278">  1  7  2 -1</clus>
<clus scale="   95.278">  1  5  2 -1</clus>
</clustering>
</event>
<event>
 9    1  0.5300912E-006  0.9189173E+02  0.7546771E-02  0.1298430E+00
         -1   -1    0    0    0  501 -0.00000000000E+00  0.00000000000E+00  0.78707981349E+02  0.78707981349E+02  0.00000000000E+00 0.  1.
          1   -1    0    0  502    0  0.00000000000E+00 -0.00000000000E+00 -0.19683933017E+03  0.19683933017E+03  0.00000000000E+00 0. -1.
         23    2    1    2    0    0 -0.92069369113E+01 -0.24620990750E+02  0.14480378850E+02  0.94429164272E+02  0.89533372664E+02 0.  0.
         23    2    1    2    0    0 -0.16092740805E+02  0.15905170733E+02 -0.12057150587E+03  0.15177524091E+03  0.89366016828E+02 0.  0.
        -11    1    4    4    0    0 -0.17613466128E+02 -0.32185452779E+02 -0.82937684264E+02  0.90690666723E+02  0.00000000000E+00 0. -1.
         11    1    4    4    0    0  0.15207253238E+01  0.48090623512E+02 -0.37633821608E+02  0.61084574191E+02  0.00000000000E+00 0.  1.
        -13    1    3    3    0    0 -0.35563812997E+02  0.19887335477E+02  0.12668057108E+02  0.42670488375E+02  0.00000000000E+00 0.  1.
         13    1    3    3    0    0  0.26356876086E+02 -0.44508326227E+02  0.18123217419E+01  0.51758675897E+02  0.00000000000E+00 0. -1.
         21    1    1    2  502  501  0.25299677716E+02  0.87158200164E+01 -0.12040221799E+02  0.29342906333E+02  0.00000000000E+00 0. -1.
<scales pt_clust_5="13000.00000" pt_clust_6="13000.00000" pt_clust_7="13000.00000" pt_clust_8="13000.00000" pt_clust_9="26.75891"></scales>
<clustering>
<clus scale="   26.759">  1  9  2 -1</clus>
<clus scale="   89.366">  5  6 -1 -1</clus>
<clus scale="   89.533">  7  8 -1 -1</clus>
<clus scale="   91.729">  2  5  1 -1</clus>
<clus scale="   91.729">  2  5  1 -1</clus>
</clustering>
</event>
<event>
 9    1  0.5300912E-006  0.1209527E+03  0.7546771E-02  0.1241771E+00
         -1   -1    0    0    0  501 -0.00000000000E+00  0.00000000000E+00  0.67606990253E+02  0.67606990253E+02  0.00000000000E+00 0.  1.
          1   -1    0    0  502    0  0.00000000000E+00 -0.00000000000E+00 -0.78518778330E+03  0.78518778330E+03  0.00000000000E+00 0. -1.
         23    2    1    2    0    0 -0.27500384890E+02 -0.35685730426E+02 -0.21521832235E+02  0.10402062318E+03  0.91254360213E+02 0.  0.
         23    2    1    2    0    0  0.55677504084E+01  0.83861281692E+02 -0.68296908250E+03  0.69424645916E+03  0.92019910926E+02 0.  0.
        -11    1    4    4    0    0 -0.18416780326E+02 -0.13613462093E+02 -0.91691947405E+02  0.94508821634E+02  0.00000000000E+00 0.  1.
         11    1    4    4    0    0  0.23984530735E+02  0.97474743784E+02 -0.59127713509E+03  0.59973763753E+03  0.00000000000E+00 0. -1.
        -13    1    3    3    0    0 -0.41503978188E+02 -0.14900873772E+02 -0.49610573130E+02  0.66376390463E+02  0.00000000000E+00 0.  1.
         13    1    3    3    0    0  0.14003593298E+02 -0.20784856655E+02  0.28088740895E+02  0.37644232712E+02  0.00000000000E+00 0. -1.
         21    1    1    2  502  501  0.21932634482E+02 -0.48175551265E+02 -0.13089878322E+02  0.54527691217E+02  0.00000000000E+00 0. -1.
<scales pt_clust_5="13000.00000" pt_clust_6="13000.00000" pt_clust_7="13000.00000" pt_clust_8="13000.00000" pt_clust_9="52.93321"></scales>
<clustering>
<clus scale="   52.933">  1  9  2 -1</clus>
<clus scale="   91.254">  7  8 -1 -1</clus>
<clus scale="   92.020">  5  6 -1 -1</clus>
<clus scale="  120.371">  1  7  2 -1</clus>
<clus scale="  120.953">  2  5  1 -1</clus>
</clustering>
</event>
<event>
 9    1  0.5300912E-006  0.1145861E+03  0.7546771E-02  0.1253717E+00
          2   -1    0    0  502    0  0.00000000000E+00  0.00000000000E+00  0.24409133350E+03  0.24409133350E+03  0.00000000000E+00 0. -1.
         -2   -1    0    0    0  501 -0.00000000000E+00 -0.00000000000E+00 -0.80029352211E+02  0.80029352211E+02  0.00000000000E+00 0.  1.
         23    2    1    2    0    0  0.62125642328E+02  0.41109851993E+02  0.78882588884E+02  0.14428258939E+03  0.95107241614E+02 0.  0.
         23    2    1    2    0    0 -0.59975518162E+02 -0.18920858003E+01  0.88281196718E+02  0.14043914444E+03  0.91263031017E+02 0.  0.
        -11    1    4    4    0    0 -0.38872078313E+02 -0.45766573886E+02  0.42104419729E+02  0.73337575078E+02  0.00000000000E+00 0.  1.
         11    1    4    4    0    0 -0.21103439850E+02  0.43874488085E+02  0.46176776989E+02  0.67101569366E+02  0.00000000000E+00 0. -1.
        -11    1    3    3    0    0  0.24808238563E+02 -0.21753226349E+02 -0.46018556622E+01  0.33314090604E+02  0.00000000000E+00 0.  1.
         11    1    3    3    0    0  0.37317403766E+02  0.62863078342E+02  0.83484444546E+02  0.11096849879E+03  0.00000000000E+00 0. -1.
         21    1    1    2  502  501 -0.21501241660E+01 -0.39217766193E+02 -0.31018043107E+01  0.39398951877E+02  0.00000000000E+00 0.  1.
<scales pt_clust_5="13000.00000" pt_clust_6="13000.00000" pt_clust_7="13000.00000" pt_clust_8="13000.00000" pt_clust_9="39.27666"></scales>
<clustering>
<clus scale="   39.277">  2  9  1 -1</clus>
<clus scale="   91.263">  5  6 -1 -1</clus>
<clus scale="   95.107">  7  8 -1 -1</clus>
<clus scale="  111.416">  1  5  2 -1</clus>
<clus scale="  111.416">  1  5  2 -1</clus>
</clustering>
</event>
<event>
 9    1  0.5300912E-006  0.1061085E+03  0.7546771E-02  0.1268590E+00
         -3   -1    0    0    0  501 -0.00000000000E+00  0.00000000000E+00  0.31489118155E+03  0.31489118155E+03  0.00000000000E+00 0.  1.
          3   -1    0    0  502    0  0.00000000000E+00 -0.00000000000E+00 -0.27534967187E+03  0.27534967187E+03  0.00000000000E+00 0. -1.
         23    2    1    2    0    0  0.53425309320E+02 -0.12079370790E+02  0.27937818983E+03  0.29878451036E+03  0.90663310152E+02 0.  0.
         23    2    1    2    0    0 -0.70363175945E+02 -0.31248454789E+02 -0.18760601925E+03  0.22151183840E+03  0.89129308512E+02 0.  0.
        -13    1    3    3    0    0  0.53106626690E+02  0.15847992870E+02  0.25724888532E+03  0.26315102446E+03  0.00000000000E+00 0.  1.
         13    1    3    3    0    0  0.31868263009E+00 -0.27927363660E+02  0.22129304506E+02  0.35633485902E+02  0.00000000000E+00 0. -1.
        -13    1    4    4    0    0 -0.48091251863E+02 -0.48680193810E+02 -0.17948420469E+03  0.19208620332E+03  0.00000000000E+00 0. -1.
         13    1    4    4    0    0 -0.22271924082E+02  0.17431739021E+02 -0.81218145594E+01  0.29425635071E+02  0.00000000000E+00 0.  1.
         21    1    1    2  502  501  0.16937866624E+02  0.43327825579E+02 -0.52230660896E+02  0.69944504665E+02  0.00000000000E+00 0. -1.
<scales pt_clust_5="13000.00000" pt_clust_6="13000.00000" pt_clust_7="13000.00000" pt_clust_8="13000.00000" pt_clust_9="46.52087"></scales>
<clustering>
<clus scale="   46.521">  2  9  1 -1</clus>
<clus scale="   89.129">  7  8 -1 -1</clus>
<clus scale="   90.663">  5  6 -1 -1</clus>
<clus scale="  104.801">  2  7  1 -1</clus>
<clus scale="   46.521">  2  5  1 -1</clus>
</clustering>
</event>
<event>
 9    1  0.5300912E-006  0.9155223E+02  0.7546771E-02  0.1299428E+00
          1   -1    0    0  502    0  0.00000000000E+00  0.00000000000E+00  0.10250907569E+03  0.10250907569E+03  0.00000000000E+00 0. -1.
         -1   -1    0    0    0  501 -0.00000000000E+00 -0.00000000000E+00 -0.16205032270E+03  0.16205032270E+03  0.00000000000E+00 0.  1.
         23    2    1    2    0    0 -0.19853805535E+01  0.10681743372E+02 -0.43720077138E+02  0.99668921867E+02  0.88906734637E+02 0.  0.
         23    2    1    2    0    0 -0.32534923103E+02  0.27185429132E+01  0.36273868923E+02  0.10097559481E+03  0.88398899789E+02 0.  0.
        -11    1    4    4    0    0 -0.14990324951E+02 -0.41683840125E+02  0.28315481361E+02  0.52573937026E+02  0.00000000000E+00 0. -1.
         11    1    4    4    0    0 -0.17544598153E+02  0.44402383038E+02  0.79583875617E+01  0.48401657785E+02  0.00000000000E+00 0.  1.
        -13    1    3    3    0    0  0.38622971639E+02 -0.65980847376E+01 -0.24699404551E+01  0.39260275932E+02  0.00000000000E+00 0. -1.
         13    1    3    3    0    0 -0.40608352193E+02  0.17279828109E+02 -0.41250136683E+02  0.60408645935E+02  0.00000000000E+00 0.  1.
         21    1    1    2  502  501  0.34520303657E+02 -0.13400286285E+02 -0.52095038793E+02  0.63914881709E+02  0.00000000000E+00 0. -1.
<scales pt_clust_5="13000.00000" pt_clust_6="13000.00000" pt_clust_7="13000.00000" pt_clust_8="13000.00000" pt_clust_9="37.02997"></scales>
<clustering>
<clus scale="   37.030">  2  9  1 -1</clus>
<clus scale="   88.399">  5  6 -1 -1</clus>
<clus scale="   88.907">  7  8 -1 -1</clus>
<clus scale="   91.059">  1  5  2 -1</clus>
<clus scale="   91.059">  1  5  2 -1</clus>
</clustering>
</event>
<event>
 9    1  0.5300912E-006  0.2532085E+03  0.7546771E-02  0.1149735E+00
         -1   -1    0    0    0  501 -0.00000000000E+00  0.00000000000E+00  0.43712276738E+03  0.43712276738E+03  0.00000000000E+00 0.  1.
          1   -1    0    0  502    0  0.00000000000E+00 -0.00000000000E+00 -0.30090181760E+03  0.30090181760E+03  0.00000000000E+00 0. -1.
         23    2    1    2    0    0  0.36393331486E+02 -0.57112337028E+01  0.18400082369E+03  0.20873806749E+03  0.91423109404E+02 0.  0.
         23    2    1    2    0    0 -0.14318551408E+03  0.19841886645E+03 -0.13302794209E+03  0.29304927422E+03  0.91155393353E+02 0.  0.
        -13    1    3    3    0    0  0.59048497297E+02  0.20349035336E+02  0.99806197926E+02  0.11773735778E+03  0.00000000000E+00 0. -1.
         13    1    3    3    0    0 -0.22655165810E+02 -0.26060269038E+02  0.84194625767E+02  0.91000709713E+02  0.00000000000E+00 0.  1.
        -13    1    4    4    0    0 -0.91055693194E+02  0.90709470161E+02 -0.23155375025E+02  0.13059677880E+03  0.00000000000E+00 0.  1.
         13    1    4    4    0    0 -0.52129820882E+02  0.10770939629E+03 -0.10987256706E+03  0.16245249542E+03  0.00000000000E+00 0. -1.
         21    1    1    2  502  501  0.10679218259E+03 -0.19270763275E+03  0.85248068175E+02  0.23623724327E+03  0.00000000000E+00 0.  1.
<scales pt_clust_5="13000.00000" pt_clust_6="13000.00000" pt_clust_7="13000.00000" pt_clust_8="13000.00000" pt_clust_9="236.23128"></scales>
<clustering>
<clus scale="   91.155">  7  8 -1 -1</clus>
<clus scale="   91.423">  5  6 -1 -1</clus>
<clus scale="   98.566">  1  5  2 -1</clus>
<clus scale="  236.231">  1  9  2 -1</clus>
<clus scale="  253.208">  2  5  1 -1</clus>
</clustering>
</event>
<event>
 9    1  0.5300912E-006  0.1098342E+03  0.7546771E-02  0.1260883E+00
         -1   -1    0    0    0  501 -0.00000000000E+00  0.00000000000E+00  0.51068524250E+02  0.51068524250E+02  0.00000000000E+00 0.  1.
          1   -1    0    0  502    0  0.00000000000E+00 -0.00000000000E+00 -0.41090188263E+03  0.41090188263E+03  0.00000000000E+00 0. -1.
         23    2    1    2    0    0 -0.45180029027E+02  0.21290961719E+02 -0.61323259072E+02  0.12127723517E+03  0.91940663437E+02 0.  0.
         23    2    1    2    0    0  0.65735731497E+02  0.13806401515E+02 -0.26339784942E+03  0.28696020323E+03  0.91956120191E+02 0.  0.
        -11    1    4    4    0    0  0.13937545906E+02  0.46008622118E+02 -0.15838497372E+03  0.16551993353E+03  0.00000000000E+00 0. -1.
         11    1    4    4    0    0  0.51798185591E+02 -0.32202220603E+02 -0.10501287569E+03  0.12144026969E+03  0.00000000000E+00 0.  1.
        -13    1    3    3    0    0 -0.40784374574E+02 -0.12602880009E+02  0.85115773507E+01  0.43527517077E+02  0.00000000000E+00 0. -1.
         13    1    3    3    0    0 -0.43956544533E+01  0.33893841728E+02 -0.69834836423E+02  0.77749718092E+02  0.00000000000E+00 0.  1.
         21    1    1    2  502  501 -0.20555702470E+02 -0.35097363234E+02 -0.35112249897E+02  0.53732968490E+02  0.00000000000E+00 0. -1.
<scales pt_clust_5="13000.00000" pt_clust_6="13000.00000" pt_clust_7="13000.00000" pt_clust_8="13000.00000" pt_clust_9="40.67385"></scales>
<clustering>
<clus scale="   40.674">  1  9  2 -1</clus>
<clus scale="   91.941">  7  8 -1 -1</clus>
<clus scale="   91.956">  5  6 -1 -1</clus>
<clus scale="  109.821">  1  7  2 -1</clus>
<clus scale="  109.834">  2  5  1 -1</clus>
</clustering>
</event>
<event>
 9    1  0.5300912E-006  0.4006905E+03  0.7546771E-02  0.1072488E+00
         -1   -1    0    0    0  501 -0.00000000000E+00  0.00000000000E+00  0.64808693580E+03  0.64808693580E+03  0.00000000000E+00 0.  1.
          1   -1    0    0  502    0  0.00000000000E+00 -0.00000000000E+00 -0.46096989536E+03  0.46096989536E+03  0.00000000000E+00 0. -1.
         23    2    1    2    0    0  0.17672366106E+03  0.26408876948E+03 -0.19026015423E+03  0.38166838858E+03  0.92182981120E+02 0.  0.
         23    2    1    2    0    0  0.15259539234E+03 -0.54772116956E+01  0.23589339583E+02  0.17921253727E+03  0.90803760721E+02 0.  0.
        -11    1    3    3    0    0  0.10562212409E+03  0.76967162778E+02 -0.75333939433E+02  0.15084820076E+03  0.00000000000E+00 0.  1.
         11    1    3    3    0    0  0.71101536967E+02  0.18712160671E+03 -0.11492621479E+03  0.23082018781E+03  0.00000000000E+00 0. -1.
        -13    1    4    4    0    0  0.74863646938E+02 -0.34877307424E+02  0.44081925544E+02  0.93617350772E+02  0.00000000000E+00 0. -1.
         13    1    4    4    0    0  0.77731745406E+02  0.29400095728E+02 -0.20492585960E+02  0.85595186500E+02  0.00000000000E+00 0.  1.
         21    1    1    2  502  501 -0.32931905340E+03 -0.25861155779E+03  0.35378785509E+03  0.54817590531E+03  0.00000000000E+00 0.  1.
<scales pt_clust_5="13000.00000" pt_clust_6="13000.00000" pt_clust_7="13000.00000" pt_clust_8="13000.00000" pt_clust_9="389.94252"></scales>
<clustering>
<clus scale="   90.804">  7  8 -1 -1</clus>
<clus scale="   92.183">  5  6 -1 -1</clus>
<clus scale="  177.653">  2  7  1 -1</clus>
<clus scale="  389.943">  1  9  2 -1</clus>
<clus scale="  177.653">  2  5  1 -1</clus>
</clustering>
</event>
<event>
 9    1  0.5300912E-006  0.1335058E+03  0.7546771E-02  0.1237627E+00
         -1   -1    0    0    0  501 -0.00000000000E+00  0.00000000000E+00  0.11113308262E+03  0.11113308262E+03  0.00000000000E+00 0.  1.
          1   -1    0    0  502    0  0.00000000000E+00 -0.00000000000E+00 -0.31517668779E+03  0.31517668779E+03  0.00000000000E+00 0. -1.
         23    2    1    2    0    0  0.50759642221E+02 -0.67858966534E+02 -0.35007212093E+02  0.13048255515E+03  0.92837555346E+02 0.  0.
         23    2    1    2    0    0  0.72344137674E+01 -0.17448357759E+02 -0.16621272530E+03  0.19263504885E+03  0.95523871690E+02 0.  0.
        -11    1    4    4    0    0  0.43885087544E+02  0.11986265166E+02 -0.51791459888E+02  0.68934220665E+02  0.00000000000E+00 0.  1.
         11    1    4    4    0    0 -0.36650673777E+02 -0.29434622925E+02 -0.11442126541E+03  0.12370082819E+03  0.00000000000E+00 0. -1.
        -13    1    3    3    0    0  0.27076252737E+02 -0.66453694231E+02  0.16626433300E+02  0.73659047126E+02  0.00000000000E+00 0. -1.
         13    1    3    3    0    0  0.23683389484E+02 -0.14052723035E+01 -0.51633645393E+02  0.56823508025E+02  0.00000000000E+00 0.  1.
         21    1    1    2  502  501 -0.57994055989E+02  0.85307324293E+02 -0.28236677723E+01  0.10319216641E+03  0.00000000000E+00 0.  1.
<scales pt_clust_5="13000.00000" pt_clust_6="13000.00000" pt_clust_7="13000.00000" pt_clust_8="13000.00000" pt_clust_9="95.94259"></scales>
<clustering>
<clus scale="   92.838">  7  8 -1 -1</clus>
<clus scale="   95.524">  5  6 -1 -1</clus>
<clus scale="   97.373">  2  5  1 -1</clus>
<clus scale="   95.943">  1  9  2 -1</clus>
<clus scale="   97.373">  2  5  1 -1</clus>
</clustering>
</event>
<event>
 9    1  0.5300912E-006  0.9332671E+02  0.7546771E-02  0.1296415E+00
          1   -1    0    0  502    0  0.00000000000E+00  0.00000000000E+00  0.52315409504E+03  0.52315409504E+03  0.00000000000E+00 0. -1.
         -1   -1    0    0    0  501 -0.00000000000E+00 -0.00000000000E+00 -0.48672128937E+02  0.48672128937E+02  0.00000000000E+00 0.  1.
         23    2    1    2    0    0 -0.27992075212E+02  0.29877366537E+01  0.71757718803E+02  0.11856276869E+03  0.90085942672E+02 0.  0.
         23    2    1    2    0    0 -0.60093633752E+02 -0.33822494386E+02  0.23922615180E+03  0.26500432100E+03  0.90790596988E+02 0.  0.
        -13    1    3    3    0    0 -0.38769132927E+02 -0.35510768130E+02  0.29063695160E+02  0.60072944804E+02  0.00000000000E+00 0.  1.
         13    1    3    3    0    0  0.10777057715E+02  0.38498504784E+02  0.42694023642E+02  0.58489823887E+02  0.00000000000E+00 0. -1.
        -13    1    4    4    0    0 -0.50549813884E+02  0.20064587321E+02  0.15769008815E+03  0.16680538136E+03  0.00000000000E+00 0. -1.
         13    1    4    4    0    0 -0.95438198679E+01 -0.53887081707E+02  0.81536063648E+02  0.98198939647E+02  0.00000000000E+00 0.  1.
         21    1    1    2  502  501  0.88085708965E+02  0.30834757732E+02  0.16349809549E+03  0.18825913428E+03  0.00000000000E+00 0. -1.
<scales pt_clust_5="13000.00000" pt_clust_6="13000.00000" pt_clust_7="13000.00000" pt_clust_8="13000.00000" pt_clust_9="93.32671"></scales>
<clustering>
<clus scale="   90.086">  5  6 -1 -1</clus>
<clus scale="   90.791">  7  8 -1 -1</clus>
<clus scale="   93.327">  1  9  2 -1</clus>
<clus scale="   90.891">  2  5  1 -1</clus>
<clus scale="   93.327">  1  5  2 -1</clus>
</clustering>
</event>
<event>
 9    1  0.5300912E-006  0.1173400E+03  0.7546771E-02  0.1247792E+00
         -1   -1    0    0    0  501 -0.00000000000E+00  0.00000000000E+00  0.15280212337E+03  0.15280212337E+03  0.00000000000E+00 0.  1.
          1   -1    0    0  502    0  0.00000000000E+00 -0.00000000000E+00 -0.20555237262E+03  0.20555237262E+03  0.00000000000E+00 0. -1.
         23    2    1    2    0    0 -0.94038283383E+01  0.35971927999E+02 -0.19113266789E+02  0.99786505536E+02  0.90606943048E+02 0.  0.
         23    2    1    2    0    0  0.87285773633E+02 -0.80614034936E+02  0.25396772845E+02  0.15112731202E+03  0.89872350923E+02 0.  0.
        -13    1    3    3    0    0  0.27490241504E+02  0.21157326068E+01  0.21779865167E+02  0.35136195428E+02  0.00000000000E+00 0.  1.
         13    1    3    3    0    0 -0.36894069842E+02  0.33856195392E+02 -0.40893131956E+02  0.64650310109E+02  0.00000000000E+00 0. -1.
        -13    1    4    4    0    0  0.17421666937E+02 -0.34914032060E+02  0.50623278090E+02  0.63915728879E+02  0.00000000000E+00 0.  1.
         13    1    4    4    0    0  0.69864106696E+02 -0.45700002876E+02 -0.25226505245E+02  0.87211583142E+02  0.00000000000E+00 0. -1.
         21    1    1    2  502  501 -0.77881945295E+02  0.44642106937E+02 -0.59033755309E+02  0.10744067843E+03  0.00000000000E+00 0. -1.
<scales pt_clust_5="13000.00000" pt_clust_6="13000.00000" pt_clust_7="13000.00000" pt_clust_8="13000.00000" pt_clust_9="89.76923"></scales>
<clustering>
<clus scale="   89.769">  2  9  1 -1</clus>
<clus scale="   89.872">  7  8 -1 -1</clus>
<clus scale="   90.607">  5  6 -1 -1</clus>
<clus scale="  116.774">  2  7  1 -1</clus>
<clus scale="   89.769">  2  5  1 -1</clus>
</clustering>
</event>
<event>
 9    1  0.5300912E-006  0.1553371E+03  0.7546771E-02  0.1209057E+00
         -1   -1    0    0    0  501 -0.00000000000E+00  0.00000000000E+00  0.58404865555E+03  0.58404865555E+03  0.00000000000E+00 0.  1.
          1   -1    0    0  502    0  0.00000000000E+00 -0.00000000000E+00 -0.18366079614E+03  0.18366079614E+03  0.00000000000E+00 0. -1.
         23    2    1    2    0    0  0.10018470428E+03  0.45144553205E+02  0.27615061955E+03  0.30775754177E+03  0.79878246024E+02 0.  0.
         23    2    1    2    0    0  0.61831612731E+02  0.22147583021E+02 -0.11668808457E+03  0.16192082005E+03  0.91041633975E+02 0.  0.
        -11    1    3    3    0    0  0.33153474167E+02  0.50450015216E+02  0.18422839903E+03  0.19386711916E+03  0.00000000000E+00 0. -1.
         11    1    3    3    0    0  0.67031230110E+02 -0.53054620110E+01  0.91922220519E+02  0.11389042261E+03  0.00000000000E+00 0.  1.
        -13    1    4    4    0    0  0.47427104478E+01 -0.28665999294E+02 -0.10094491762E+02  0.30759251972E+02  0.00000000000E+00 0.  1.
         13    1    4    4    0    0  0.57088902283E+02  0.50813582315E+02 -0.10659359281E+03  0.13116156807E+03  0.00000000000E+00 0. -1.
         21    1    1    2  502  501 -0.16201631701E+03 -0.67292136226E+02  0.24092532444E+03  0.29803108987E+03  0.00000000000E+00 0.  1.
<scales pt_clust_5="13000.00000" pt_clust_6="13000.00000" pt_clust_7="13000.00000" pt_clust_8="13000.00000" pt_clust_9="133.22572"></scales>
<clustering>
<clus scale="   79.878">  5  6 -1 -1</clus>
<clus scale="   91.042">  7  8 -1 -1</clus>
<clus scale="  112.260">  2  7  1 -1</clus>
<clus scale="  133.226">  2  9  1 -1</clus>
<clus scale="  112.260">  2  5  1 -1</clus>
</clustering>
</event>
<event>
 9    1  0.5300912E-006  0.9291563E+02  0.7546771E-02  0.1296281E+00
          1   -1    0    0  502    0  0.00000000000E+00  0.00000000000E+00  0.49932982938E+03  0.49932982938E+03  0.00000000000E+00 0. -1.
         -1   -1    0    0    0  501 -0.00000000000E+00 -0.00000000000E+00 -0.39984078237E+02  0.39984078237E+02  0.00000000000E+00 0.  1.
         23    2    1    2    0    0 -0.15345933777E+02  0.21012262202E+02  0.54323181596E+02  0.10934228546E+03  0.91256312023E+02 0.  0.
         23    2    1    2    0    0 -0.29891055011E+02 -0.33752372739E+01  0.25611337988E+03  0.27334660318E+03  0.90661098164E+02 0.  0.
        -11    1    3    3    0    0  0.10658170914E+01  0.48558149423E+02  0.27923525920E+01  0.48650047014E+02  0.00000000000E+00 0.  1.
         11    1    3    3    0    0 -0.16411750868E+02 -0.27545887222E+02  0.51530829004E+02  0.60692238443E+02  0.00000000000E+00 0. -1.
        -13    1    4    4    0    0 -0.48018226521E+02  0.28662829196E+02  0.12081262191E+03  0.13312774868E+03  0.00000000000E+00 0.  1.
         13    1    4    4    0    0  0.18127171511E+02 -0.32038066470E+02  0.13530075797E+03  0.14021885450E+03  0.00000000000E+00 0. -1.
         21    1    1    2  502  501  0.45236988787E+02 -0.17637024928E+02  0.14890918967E+03  0.15662501898E+03  0.00000000000E+00 0. -1.
<scales pt_clust_5="13000.00000" pt_clust_6="13000.00000" pt_clust_7="13000.00000" pt_clust_8="13000.00000" pt_clust_9="48.55358"></scales>
<clustering>
<clus scale="   48.554">  1  9  2 -1</clus>
<clus scale="   90.661">  7  8 -1 -1</clus>
<clus scale="   91.256">  5  6 -1 -1</clus>
<clus scale="   92.331">  1  7  2 -1</clus>
<clus scale="   48.554">  1  5  2 -1</clus>
</clustering>
</event>
<event>
 9    1  0.5300912E-006  0.2046999E+03  0.7546771E-02  0.1163001E+00
          2   -1    0    0  502    0  0.00000000000E+00  0.00000000000E+00  0.12787593028E+04  0.12787593028E+04  0.00000000000E+00 0. -1.
         -2   -1    0    0    0  501 -0.00000000000E+00 -0.00000000000E+00 -0.89557721075E+02  0.89557721075E+02  0.00000000000E+00 0.  1.
         23    2    1    2    0    0  0.10689429072E+03 -0.72687630237E+02  0.63113571328E+03  0.65066638788E+03  0.91239129558E+02 0.  0.
         23    2    1    2    0    0 -0.14419250158E+02 -0.10217888305E+03  0.48959057323E+03  0.50832123851E+03  0.89683405383E+02 0.  0.
        -11    1    4    4    0    0 -0.40521839612E+02 -0.25518164673E+02  0.27128119412E+03  0.27547537549E+03  0.00000000000E+00 0.  1.
         11    1    4    4    0    0  0.26102589454E+02 -0.76660718382E+02  0.21830937911E+03  0.23284586302E+03  0.00000000000E+00 0. -1.
        -13    1    3    3    0    0  0.27385610411E+01 -0.23258664446E+02  0.27505467824E+02  0.36125004479E+02  0.00000000000E+00 0.  1.
         13    1    3    3    0    0  0.10415572968E+03 -0.49428965791E+02  0.60363024545E+03  0.61454138340E+03  0.00000000000E+00 0. -1.
         21    1    1    2  502  501 -0.92475040560E+02  0.17486651329E+03  0.68475295210E+02  0.20932939749E+03  0.00000000000E+00 0.  1.
<scales pt_clust_5="13000.00000" pt_clust_6="13000.00000" pt_clust_7="13000.00000" pt_clust_8="13000.00000" pt_clust_9="183.24156"></scales>
<clustering>
<clus scale="   89.683">  5  6 -1 -1</clus>
<clus scale="   91.239">  7  8 -1 -1</clus>
<clus scale="  136.717">  1  5  2 -1</clus>
<clus scale="  183.242">  2  9  1 -1</clus>
<clus scale="  136.717">  1  5  2 -1</clus>
</clustering>
</event>
<event>
 9    1  0.5300912E-006  0.1429324E+03  0.7546771E-02  0.1227105E+00
          1   -1    0    0  502    0  0.00000000000E+00  0.00000000000E+00  0.12818420463E+03  0.12818420463E+03  0.00000000000E+00 0. -1.
         -1   -1    0    0    0  501 -0.00000000000E+00 -0.00000000000E+00 -0.52252485727E+03  0.52252485727E+03  0.00000000000E+00 0.  1.
         23    2    1    2    0    0 -0.18457500651E+02 -0.30062444602E+02 -0.37564278906E+03  0.38834827478E+03  0.91991562905E+02 0.  0.
         23    2    1    2    0    0  0.11645405820E+03 -0.28604134680E+02 -0.20369209909E+02  0.14813344269E+03  0.84550978336E+02 0.  0.
        -11    1    4    4    0    0  0.96605597737E+02  0.11812013122E+02  0.30650716869E+01  0.97373301436E+02  0.00000000000E+00 0. -1.
         11    1    4    4    0    0  0.19848460466E+02 -0.40416147802E+02 -0.23434281596E+02  0.50760141252E+02  0.00000000000E+00 0.  1.
        -13    1    3    3    0    0 -0.42159323890E+02  0.16957158404E+02 -0.19211859251E+03  0.19741962263E+03  0.00000000000E+00 0.  1.
         13    1    3    3    0    0  0.23701823239E+02 -0.47019603006E+02 -0.18352419655E+03  0.19092865215E+03  0.00000000000E+00 0. -1.
         21    1    1    2  502  501 -0.97996557552E+02  0.58666579283E+02  0.16713463361E+01  0.11422734443E+03  0.00000000000E+00 0.  1.
<scales pt_clust_5="13000.00000" pt_clust_6="13000.00000" pt_clust_7="13000.00000" pt_clust_8="13000.00000" pt_clust_9="115.24236"></scales>
<clustering>
<clus scale="   84.551">  5  6 -1 -1</clus>
<clus scale="   91.992">  7  8 -1 -1</clus>
<clus scale="   98.523">  2  7  1 -1</clus>
<clus scale="  115.242">  1  9  2 -1</clus>
<clus scale="  115.242">  1  5  2 -1</clus>
</clustering>
</event>
<event>
 9    1  0.5300912E-006  0.1172953E+03  0.7546771E-02  0.1248005E+00
         -1   -1    0    0    0  501 -0.00000000000E+00  0.00000000000E+00  0.37700360739E+02  0.37700360739E+02  0.00000000000E+00 0.  1.
          1   -1    0    0  502    0  0.00000000000E+00 -0.00000000000E+00 -0.67472550534E+03  0.67472550534E+03  0.00000000000E+00 0. -1.
         23    2    1    2    0    0  0.29399505557E+02  0.14719933507E+02 -0.12468516765E+03  0.15784869337E+03  0.91042910741E+02 0.  0.
         23    2    1    2    0    0 -0.10059265400E+03 -0.17016330493E+02 -0.38282997575E+03  0.40677129246E+03  0.92171885616E+02 0.  0.
        -13    1    3    3    0    0  0.49684421269E+02  0.25904357295E+02 -0.36977050605E+02  0.67133298110E+02  0.00000000000E+00 0.  1.
         13    1    3    3    0    0 -0.20284915712E+02 -0.11184423788E+02 -0.87708117047E+02  0.90715395258E+02  0.00000000000E+00 0. -1.
        -13    1    4    4    0    0 -0.21107322307E+02 -0.26479958583E+02 -0.30865302453E+02  0.45818927934E+02  0.00000000000E+00 0.  1.
         13    1    4    4    0    0 -0.79485331696E+02  0.94636280901E+01 -0.35196467329E+03  0.36095236453E+03  0.00000000000E+00 0. -1.
         21    1    1    2  502  501  0.71193148446E+02  0.22963969856E+01 -0.12951000120E+03  0.14780588025E+03  0.00000000000E+00 0.  1.
<scales pt_clust_5="13000.00000" pt_clust_6="13000.00000" pt_clust_7="13000.00000" pt_clust_8="13000.00000" pt_clust_9="71.23017"></scales>
<clustering>
<clus scale="   71.230">  1  9  2 -1</clus>
<clus scale="   91.043">  5  6 -1 -1</clus>
<clus scale="   92.172">  7  8 -1 -1</clus>
<clus scale="  116.410">  1  5  2 -1</clus>
<clus scale="  117.295">  2  5  1 -1</clus>
</clustering>
</event>
<event>
 9    1  0.5300912E-006  0.9185302E+02  0.7546771E-02  0.1300566E+00
          2   -1    0    0  502    0  0.00000000000E+00  0.00000000000E+00  0.14325944468E+03  0.14325944468E+03  0.00000000000E+00 0. -1.
         -2   -1    0    0    0  501 -0.00000000000E+00 -0.00000000000E+00 -0.13576752535E+03  0.13576752535E+03  0.00000000000E+00 0.  1.
         23    2    1    2    0    0 -0.30395188069E+02  0.24017327392E+01  0.32604772120E+02  0.10185747370E+03  0.91554562999E+02 0.  0.
         23    2    1    2    0    0 -0.13216444325E+02 -0.44783396943E+01  0.40899197648E+02  0.98024833977E+02  0.87985190691E+02 0.  0.
        -11    1    4    4    0    0  0.22948106326E+01  0.40785390873E+02  0.14298990724E+02  0.43280196398E+02  0.00000000000E+00 0.  1.
         11    1    4    4    0    0 -0.15511254957E+02 -0.45263730567E+02  0.26600206924E+02  0.54744637579E+02  0.00000000000E+00 0. -1.
        -11    1    3    3    0    0 -0.38278811451E+01  0.31841560865E+02  0.49314473604E+02  0.58825631992E+02  0.00000000000E+00 0.  1.
         11    1    3    3    0    0 -0.26567306924E+02 -0.29439828125E+02 -0.16709701484E+02  0.43031841709E+02  0.00000000000E+00 0. -1.
         21    1    1    2  502  501  0.43611632393E+02  0.20766069552E+01 -0.66012050439E+02  0.79144662357E+02  0.00000000000E+00 0.  1.
<scales pt_clust_5="13000.00000" pt_clust_6="13000.00000" pt_clust_7="13000.00000" pt_clust_8="13000.00000" pt_clust_9="43.66104"></scales>
<clustering>
<clus scale="   43.661">  2  9  1 -1</clus>
<clus scale="   87.985">  5  6 -1 -1</clus>
<clus scale="   88.296">  1  5  2 -1</clus>
<clus scale="   91.555">  7  8 -1 -1</clus>
<clus scale="   88.296">  1  5  2 -1</clus>
</clustering>
</event>
<event>
 9    1  0.5300912E-006  0.1275519E+03  0.7546771E-02  0.1231153E+00
          2   -1    0    0  502    0  0.00000000000E+00  0.00000000000E+00  0.68383558999E+03  0.68383558999E+03  0.00000000000E+00 0. -1.
         -2   -1    0    0    0  501 -0.00000000000E+00 -0.00000000000E+00 -0.55074128871E+02  0.55074128871E+02  0.00000000000E+00 0.  1.
         23    2    1    2    0    0 -0.32800113852E+02  0.10693848090E+03  0.80809964462E+02  0.16434061235E+03  0.89251892670E+02 0.  0.
         23    2    1    2    0    0  0.25633780079E+00 -0.38650554827E+02  0.31133074233E+03  0.32615067003E+03  0.89182382458E+02 0.  0.
        -11    1    3    3    0    0  0.28916294177E+02  0.52953781894E+02  0.42735858200E+02  0.73936517783E+02  0.00000000000E+00 0. -1.
         11    1    3    3    0    0 -0.61716408029E+02  0.53984699007E+02  0.38074106261E+02  0.90404094567E+02  0.00000000000E+00 0.  1.
        -13    1    4    4    0    0 -0.40872171922E+02 -0.38348335170E+02  0.17608261286E+03  0.18478694705E+03  0.00000000000E+00 0.  1.
         13    1    4    4    0    0  0.41128509723E+02 -0.30221965728E+00  0.13524812948E+03  0.14136372298E+03  0.00000000000E+00 0. -1.
         21    1    1    2  502  501  0.32543776051E+02 -0.68287926074E+02  0.23662075433E+03  0.24841843648E+03  0.00000000000E+00 0. -1.
<scales pt_clust_5="13000.00000" pt_clust_6="13000.00000" pt_clust_7="13000.00000" pt_clust_8="13000.00000" pt_clust_9="75.64614"></scales>
<clustering>
<clus scale="   75.646">  1  9  2 -1</clus>
<clus scale="   89.182">  7  8 -1 -1</clus>
<clus scale="   89.252">  5  6 -1 -1</clus>
<clus scale="  127.503">  1  7  2 -1</clus>
<clus scale="   75.646">  1  5  2 -1</clus>
</clustering>
</event>
<event>
 9    1  0.5300912E-006  0.1052399E+03  0.7546771E-02  0.1270322E+00
         -1   -1    0    0    0  501 -0.00000000000E+00  0.00000000000E+00  0.18799905135E+03  0.18799905135E+03  0.00000000000E+00 0.  1.
          1   -1    0    0  502    0  0.00000000000E+00 -0.00000000000E+00 -0.17857955599E+03  0.17857955599E+03  0.00000000000E+00 0. -1.
         23    2    1    2    0    0 -0.17018555787E+02 -0.58514885608E+02  0.12512088544E+03  0.16593442260E+03  0.90362456537E+02 0.  0.
         23    2    1    2    0    0 -0.29312182903E+02  0.10951539486E+02 -0.75706070119E+02  0.12313009015E+03  0.91926436701E+02 0.  0.
        -11    1    3    3    0    0 -0.42284405010E+02 -0.43464384500E+02  0.32589163955E+02  0.68841682390E+02  0.00000000000E+00 0.  1.
         11    1    3    3    0    0  0.25265849222E+02 -0.15050501107E+02  0.92531721482E+02  0.97092740207E+02  0.00000000000E+00 0. -1.
        -13    1    4    4    0    0 -0.53524052253E+02 -0.19494862907E+02 -0.54450287051E+02  0.78801698010E+02  0.00000000000E+00 0. -1.
         13    1    4    4    0    0  0.24211869351E+02  0.30446402393E+02 -0.21255783068E+02  0.44328392142E+02  0.00000000000E+00 0.  1.
         21    1    1    2  502  501  0.46330738690E+02  0.47563346122E+02 -0.39995319957E+02  0.77514094591E+02  0.00000000000E+00 0.  1.
<scales pt_clust_5="13000.00000" pt_clust_6="13000.00000" pt_clust_7="13000.00000" pt_clust_8="13000.00000" pt_clust_9="66.39886"></scales>
<clustering>
<clus scale="   66.399">  2  9  1 -1</clus>
<clus scale="   90.362">  5  6 -1 -1</clus>
<clus scale="   91.926">  7  8 -1 -1</clus>
<clus scale="  103.877">  1  5  2 -1</clus>
<clus scale="   66.399">  2  5  1 -1</clus>
</clustering>
</event>
<event>
 9    1  0.5300912E-006  0.1134113E+03  0.7546771E-02  0.1254963E+00
          2   -1    0    0  502    0  0.00000000000E+00  0.00000000000E+00  0.39038973794E+03  0.39038973794E+03  0.00000000000E+00 0. -1.
         -2   -1    0    0    0  501 -0.00000000000E+00 -0.00000000000E+00 -0.51524363721E+02  0.51524363721E+02  0.00000000000E+00 0.  1.
         23    2    1    2    0    0 -0.31141020499E+02 -0.74546513098E+02  0.68514328539E+02  0.13882819978E+03  0.89733550399E+02 0.  0.
         23    2    1    2    0    0  0.31542895926E+02  0.54402171942E+02  0.25392993987E+03  0.27709342796E+03  0.91355365788E+02 0.  0.
        -11    1    4    4    0    0  0.25855655562E+02  0.78182210969E+02  0.22265800194E+03  0.23739747021E+03  0.00000000000E+00 0. -1.
         11    1    4    4    0    0  0.56872403647E+01 -0.23780039027E+02  0.31271937936E+02  0.39695957746E+02  0.00000000000E+00 0.  1.
        -11    1    3    3    0    0 -0.87308410441E+01 -0.89105542736E+02  0.67426442670E+02  0.11208189195E+03  0.00000000000E+00 0.  1.
         11    1    3    3    0    0 -0.22410179455E+02  0.14559029638E+02  0.10878858689E+01  0.26746307836E+02  0.00000000000E+00 0. -1.
         21    1    1    2  502  501 -0.40187542767E+00  0.20144341156E+02  0.16421105804E+02  0.25992473917E+02  0.00000000000E+00 0. -1.
<scales pt_clust_5="13000.00000" pt_clust_6="13000.00000" pt_clust_7="13000.00000" pt_clust_8="13000.00000" pt_clust_9="20.14835"></scales>
<clustering>
<clus scale="   20.148">  2  9  1 -1</clus>
<clus scale="   89.734">  7  8 -1 -1</clus>
<clus scale="   91.355">  5  6 -1 -1</clus>
<clus scale="  112.109">  2  7  1 -1</clus>
<clus scale="  113.411">  1  5  2 -1</clus>
</clustering>
</event>
<event>
 9    1  0.5300912E-006  0.1078296E+03  0.7546771E-02  0.1269827E+00
         -1   -1    0    0    0  501 -0.00000000000E+00  0.00000000000E+00  0.13894157609E+03  0.13894157609E+03  0.00000000000E+00 0.  1.
          1   -1    0    0  502    0  0.00000000000E+00 -0.00000000000E+00 -0.17150597968E+03  0.17150597968E+03  0.00000000000E+00 0. -1.
         23    2    1    2    0    0 -0.18280703481E+01 -0.45458960891E+02  0.44476298132E+02  0.11034249230E+03  0.90152457229E+02 0.  0.
         23    2    1    2    0    0  0.53306253649E+02  0.49058302096E+00 -0.61938767712E+02  0.13010344368E+03  0.10123585215E+03 0.  0.
        -13    1    3    3    0    0 -0.37353886727E+02 -0.10782922662E+02 -0.62359185977E+01  0.39376020057E+02  0.00000000000E+00 0. -1.
         13    1    3    3    0    0  0.35525816379E+02 -0.34676038230E+02  0.50712216730E+02  0.70966472241E+02  0.00000000000E+00 0.  1.
        -13    1    4    4    0    0  0.69847478141E+02 -0.13101260085E+02 -0.73235261456E+01  0.71441915243E+02  0.00000000000E+00 0.  1.
         13    1    4    4    0    0 -0.16541224491E+02  0.13591843106E+02 -0.54615241567E+02  0.58661528433E+02  0.00000000000E+00 0. -1.
         21    1    1    2  502  501 -0.51478183301E+02  0.44968377870E+02 -0.15101934008E+02  0.70001619803E+02  0.00000000000E+00 0. -1.
<scales pt_clust_5="13000.00000" pt_clust_6="13000.00000" pt_clust_7="13000.00000" pt_clust_8="13000.00000" pt_clust_9="68.35319"></scales>
<clustering>
<clus scale="   68.353">  2  9  1 -1</clus>
<clus scale="   90.152">  5  6 -1 -1</clus>
<clus scale="   97.499">  1  5  2 -1</clus>
<clus scale="  101.236">  7  8 -1 -1</clus>
<clus scale="   68.353">  2  5  1 -1</clus>
</clustering>
</event>
<event>
 9    1  0.5300912E-006  0.1263131E+03  0.7546771E-02  0.1243094E+00
          2   -1    0    0  502    0  0.00000000000E+00  0.00000000000E+00  0.51774995441E+03  0.51774995441E+03  0.00000000000E+00 0. -1.
         -2   -1    0    0    0  501 -0.00000000000E+00 -0.00000000000E+00 -0.60594349193E+02  0.60594349193E+02  0.00000000000E+00 0.  1.
         23    2    1    2    0    0 -0.12308577900E+01  0.56198679546E+02  0.95040903521E+02  0.14542336067E+03  0.94632837288E+02 0.  0.
         23    2    1    2    0    0 -0.32271526156E+01  0.54289148214E+02  0.27020273235E+03  0.28913205584E+03  0.87350460911E+02 0.  0.
        -11    1    4    4    0    0 -0.29200979799E+02  0.67607602122E+02  0.19801200193E+03  0.21126343269E+03  0.00000000000E+00 0.  1.
         11    1    4    4    0    0  0.25973827183E+02 -0.13318453908E+02  0.72190730418E+02  0.77868623150E+02  0.00000000000E+00 0. -1.
        -13    1    3    3    0    0  0.28789414905E+02  0.38738975817E+02  0.45285567716E+01  0.48477278022E+02  0.00000000000E+00 0.  1.
         13    1    3    3    0    0 -0.30020272695E+02  0.17459703729E+02  0.90512346749E+02  0.96946082650E+02  0.00000000000E+00 0. -1.
         21    1    1    2  502  501  0.44580104056E+01 -0.11048782776E+03  0.91911969345E+02  0.14378888708E+03  0.00000000000E+00 0. -1.
<scales pt_clust_5="13000.00000" pt_clust_6="13000.00000" pt_clust_7="13000.00000" pt_clust_8="13000.00000" pt_clust_9="83.66372"></scales>
<clustering>
<clus scale="   87.350">  5  6 -1 -1</clus>
<clus scale="   94.633">  7  8 -1 -1</clus>
<clus scale="  102.897">  1  5  2 -1</clus>
<clus scale="   83.664">  1  9  2 -1</clus>
<clus scale="  102.897">  1  5  2 -1</clus>
</clustering>
</event>
<event>
 9    1  0.5300912E-006  0.1506368E+03  0.7546771E-02  0.1212488E+00
         -3   -1    0    0    0  501 -0.00000000000E+00  0.00000000000E+00  0.58674588995E+03  0.58674588995E+03  0.00000000000E+00 0.  1.
          3   -1    0    0  502    0  0.00000000000E+00 -0.00000000000E+00 -0.17915309076E+03  0.17915309076E+03  0.00000000000E+00 0. -1.
         23    2    1    2    0    0 -0.60373188687E+02 -0.33118198394E+02  0.18231264340E+03  0.21524045797E+03  0.91371865620E+02 0.  0.
         23    2    1    2    0    0 -0.94545247795E+02  0.66839450098E+02 -0.10680012540E+03  0.18267189536E+03  0.92501019455E+02 0.  0.
        -11    1    3    3    0    0 -0.59745806509E+01 -0.47577955477E+02  0.12935401486E+03  0.13795585751E+03  0.00000000000E+00 0.  1.
         11    1    3    3    0    0 -0.54398608036E+02  0.14459757083E+02  0.52958628535E+02  0.77284600455E+02  0.00000000000E+00 0. -1.
        -13    1    4    4    0    0 -0.21081935115E+02 -0.22238737598E+02 -0.35807744899E+02  0.47129651313E+02  0.00000000000E+00 0.  1.
         13    1    4    4    0    0 -0.73463312680E+02  0.89078187696E+02 -0.70992380499E+02  0.13554224405E+03  0.00000000000E+00 0. -1.
         21    1    1    2  502  501  0.15491843648E+03 -0.33721251704E+02  0.33208028119E+03  0.36798662738E+03  0.00000000000E+00 0.  1.
<scales pt_clust_5="13000.00000" pt_clust_6="13000.00000" pt_clust_7="13000.00000" pt_clust_8="13000.00000" pt_clust_9="118.89079"></scales>
<clustering>
<clus scale="   91.372">  5  6 -1 -1</clus>
<clus scale="   92.501">  7  8 -1 -1</clus>
<clus scale="  114.414">  1  5  2 -1</clus>
<clus scale="  118.891">  1  9  2 -1</clus>
<clus scale="  150.637">  2  5  1 -1</clus>
</clustering>
</event>
<event>
 9    1  0.5300912E-006  0.1076630E+03  0.7546771E-02  0.1265585E+00
          1   -1    0    0  502    0  0.00000000000E+00  0.00000000000E+00  0.80516150236E+02  0.80516150236E+02  0.00000000000E+00 0. -1.
         -1   -1    0    0    0  501 -0.00000000000E+00 -0.00000000000E+00 -0.41045777258E+03  0.41045777258E+03  0.00000000000E+00 0.  1.
         23    2    1    2    0    0 -0.58569768773E+02  0.40760701374E+02 -0.29846327365E+03  0.32002366715E+03  0.90790799216E+02 0.  0.
         23    2    1    2    0    0  0.27738257285E+02 -0.74098449053E+01 -0.65364557066E+02  0.11428336193E+03  0.89240376368E+02 0.  0.
        -13    1    4    4    0    0 -0.14434962598E+02  0.32359548527E+02 -0.20101427779E+02  0.40737892984E+02  0.00000000000E+00 0.  1.
         13    1    4    4    0    0  0.42173219882E+02 -0.39769393432E+02 -0.45263129287E+02  0.73545468943E+02  0.00000000000E+00 0. -1.
        -13    1    3    3    0    0 -0.77887021021E+02  0.51475731991E+02 -0.24399761392E+03  0.26124887488E+03  0.00000000000E+00 0.  1.
         13    1    3    3    0    0  0.19317252248E+02 -0.10715030617E+02 -0.54465659738E+02  0.58774792269E+02  0.00000000000E+00 0. -1.
         21    1    1    2  502  501  0.30831511488E+02 -0.33350856469E+02  0.33886208379E+02  0.56666893740E+02  0.00000000000E+00 0. -1.
<scales pt_clust_5="13000.00000" pt_clust_6="13000.00000" pt_clust_7="13000.00000" pt_clust_8="13000.00000" pt_clust_9="45.41874"></scales>
<clustering>
<clus scale="   45.419">  1  9  2 -1</clus>
<clus scale="   89.240">  5  6 -1 -1</clus>
<clus scale="   90.791">  7  8 -1 -1</clus>
<clus scale="  106.359">  1  5  2 -1</clus>
<clus scale="   45.419">  1  5  2 -1</clus>
</clustering>
</event>
<event>
 9    1  0.5300912E-006  0.1007898E+03  0.7546771E-02  0.1279339E+00
          2   -1    0    0  502    0  0.00000000000E+00  0.00000000000E+00  0.22213270051E+03  0.22213270051E+03  0.00000000000E+00 0. -1.
         -2   -1    0    0    0  501 -0.00000000000E+00 -0.00000000000E+00 -0.20317834111E+03  0.20317834111E+03  0.00000000000E+00 0.  1.
         23    2    1    2    0    0 -0.38200100920E+02 -0.26337775412E+02 -0.15203822538E+03  0.18345962313E+03  0.91590857720E+02 0.  0.
         23    2    1    2    0    0  0.61651732035E+01  0.30437485474E+02  0.34169415982E+02  0.10126826254E+03  0.90129141388E+02 0.  0.
        -11    1    3    3    0    0 -0.58614846065E+02 -0.28728489363E+02 -0.14901364409E+03  0.16268402628E+03  0.00000000000E+00 0.  1.
         11    1    3    3    0    0  0.20414745145E+02  0.23907139516E+01 -0.30245812878E+01  0.20775596851E+02  0.00000000000E+00 0. -1.
        -13    1    4    4    0    0  0.40291168543E+02 -0.38433838196E+01  0.34058013651E+02  0.52897052428E+02  0.00000000000E+00 0.  1.
         13    1    4    4    0    0 -0.34125995340E+02  0.34280869293E+02  0.11140233115E+00  0.48371210114E+02  0.00000000000E+00 0. -1.
         21    1    1    2  502  501  0.32034927717E+02 -0.40997100621E+01  0.13682316880E+03  0.14058315595E+03  0.00000000000E+00 0. -1.
<scales pt_clust_5="13000.00000" pt_clust_6="13000.00000" pt_clust_7="13000.00000" pt_clust_8="13000.00000" pt_clust_9="32.29620"></scales>
<clustering>
<clus scale="   32.296">  1  9  2 -1</clus>
<clus scale="   90.129">  7  8 -1 -1</clus>
<clus scale="   91.591">  5  6 -1 -1</clus>
<clus scale="   99.463">  1  7  2 -1</clus>
<clus scale="   32.296">  1  5  2 -1</clus>
</clustering>
</event>
<event>
 9    1  0.5300912E-006  0.1057779E+03  0.7546771E-02  0.1268869E+00
         -1   -1    0    0    0  501 -0.00000000000E+00  0.00000000000E+00  0.85355847782E+02  0.85355847782E+02  0.00000000000E+00 0.  1.
          1   -1    0    0  502    0  0.00000000000E+00 -0.00000000000E+00 -0.21871429751E+03  0.21871429751E+03  0.00000000000E+00 0. -1.
         23    2    1    2    0    0  0.96393884041E+00  0.20502856685E+02 -0.43087219273E+01  0.94556777688E+02  0.92201533674E+02 0.  0.
         23    2    1    2    0    0  0.77151977961E+01 -0.66708592242E+02 -0.10984103288E+03  0.15872684014E+03  0.92841783272E+02 0.  0.
        -11    1    4    4    0    0  0.36444881761E+02 -0.19154870930E+02 -0.91303640315E+02  0.10015734233E+03  0.00000000000E+00 0. -1.
         11    1    4    4    0    0 -0.28729683965E+02 -0.47553721312E+02 -0.18537392566E+02  0.58569497817E+02  0.00000000000E+00 0.  1.
        -11    1    3    3    0    0 -0.32284572260E+02 -0.16940621323E+01 -0.32342732783E+02  0.45729813212E+02  0.00000000000E+00 0. -1.
         11    1    3    3    0    0  0.33248511100E+02  0.22196918817E+02  0.28034010856E+02  0.48826964477E+02  0.00000000000E+00 0.  1.
         21    1    1    2  502  501 -0.86791366365E+01  0.46205735557E+02 -0.19208694920E+02  0.50786527462E+02  0.00000000000E+00 0.  1.
<scales pt_clust_5="13000.00000" pt_clust_6="13000.00000" pt_clust_7="13000.00000" pt_clust_8="13000.00000" pt_clust_9="47.01380"></scales>
<clustering>
<clus scale="   47.014">  1  9  2 -1</clus>
<clus scale="   92.202">  7  8 -1 -1</clus>
<clus scale="   92.842">  5  6 -1 -1</clus>
<clus scale="  105.216">  1  7  2 -1</clus>
<clus scale="  105.778">  2  5  1 -1</clus>
</clustering>
</event>
<event>
 9    1  0.5300912E-006  0.9174713E+02  0.7546771E-02  0.1300278E+00
          1   -1    0    0  502    0  0.00000000000E+00  0.00000000000E+00  0.10410975048E+03  0.10410975048E+03  0.00000000000E+00 0. -1.
         -1   -1    0    0    0  501 -0.00000000000E+00 -0.00000000000E+00 -0.23899468291E+03  0.23899468291E+03  0.00000000000E+00 0.  1.
         23    2    1    2    0    0 -0.88755930297E+01 -0.12435066937E+02 -0.15029077375E+03  0.17528636569E+03  0.88907740261E+02 0.  0.
         23    2    1    2    0    0 -0.17028389580E+02 -0.44476044909E+02  0.19894549753E+02  0.10512804083E+03  0.91586173824E+02 0.  0.
        -11    1    4    4    0    0  0.12331924999E+02  0.18987122998E+02  0.26542745213E+02  0.34887025344E+02  0.00000000000E+00 0.  1.
         11    1    4    4    0    0 -0.29360314579E+02 -0.63463167907E+02 -0.66481954606E+01  0.70241015482E+02  0.00000000000E+00 0. -1.
        -13    1    3    3    0    0  0.18790351531E+02 -0.42774775200E+02 -0.99903089147E+02  0.11028774150E+03  0.00000000000E+00 0. -1.
         13    1    3    3    0    0 -0.27665944561E+02  0.30339708263E+02 -0.50387684607E+02  0.64998624186E+02  0.00000000000E+00 0.  1.
         21    1    1    2  502  501  0.25903982610E+02  0.56911111846E+02 -0.44887084305E+01  0.62690026878E+02  0.00000000000E+00 0.  1.
<scales pt_clust_5="13000.00000" pt_clust_6="13000.00000" pt_clust_7="13000.00000" pt_clust_8="13000.00000" pt_clust_9="62.52912"></scales>
<clustering>
<clus scale="   62.529">  1  9  2 -1</clus>
<clus scale="   88.908">  7  8 -1 -1</clus>
<clus scale="   89.074">  2  7  1 -1</clus>
<clus scale="   91.586">  5  6 -1 -1</clus>
<clus scale="   62.529">  1  5  2 -1</clus>
</clustering>
</event>
<event>
 9    1  0.5300912E-006  0.1338671E+03  0.7546771E-02  0.1236908E+00
         -2   -1    0    0    0  501 -0.00000000000E+00  0.00000000000E+00  0.89812256080E+02  0.89812256080E+02  0.00000000000E+00 0.  1.
          2   -1    0    0  502    0  0.00000000000E+00 -0.00000000000E+00 -0.37939531391E+03  0.37939531391E+03  0.00000000000E+00 0. -1.
         23    2    1    2    0    0 -0.72396698525E+01 -0.24379103701E+02 -0.14489456994E+02  0.99080397129E+02  0.94658476718E+02 0.  0.
         23    2    1    2    0    0 -0.50983319638E+02 -0.71131349029E+02 -0.19426222150E+03  0.23212037966E+03  0.92103703792E+02 0.  0.
        -11    1    3    3    0    0  0.37975793449E+02  0.68073832390E+01  0.85490352872E+01  0.39516924969E+02  0.00000000000E+00 0.  1.
         11    1    3    3    0    0 -0.45215463301E+02 -0.31186486940E+02 -0.23038492281E+02  0.59563472161E+02  0.00000000000E+00 0. -1.
        -11    1    4    4    0    0 -0.20812916830E+02 -0.34670812353E+02 -0.96971476606E+01  0.41584581385E+02  0.00000000000E+00 0.  1.
         11    1    4    4    0    0 -0.30170402808E+02 -0.36460536676E+02 -0.18456507384E+03  0.19053579827E+03  0.00000000000E+00 0. -1.
         21    1    1    2  502  501  0.58222989491E+02  0.95510452730E+02 -0.80831379334E+02  0.13800679321E+03  0.00000000000E+00 0.  1.
<scales pt_clust_5="13000.00000" pt_clust_6="13000.00000" pt_clust_7="13000.00000" pt_clust_8="13000.00000" pt_clust_9="97.14581"></scales>
<clustering>
<clus scale="   92.104">  7  8 -1 -1</clus>
<clus scale="   94.658">  5  6 -1 -1</clus>
<clus scale="   98.015">  1  5  2 -1</clus>
<clus scale="   97.146">  1  9  2 -1</clus>
<clus scale="  133.867">  2  5  1 -1</clus>
</clustering>
</event>
<event>
 9    1  0.5300912E-006  0.1356652E+03  0.7546771E-02  0.1233760E+00
          2   -1    0    0  502    0  0.00000000000E+00  0.00000000000E+00  0.76448849515E+03  0.76448849515E+03  0.00000000000E+00 0. -1.
         -2   -1    0    0    0  501 -0.00000000000E+00 -0.00000000000E+00 -0.10000668828E+03  0.10000668828E+03  0.00000000000E+00 0.  1.
         23    2    1    2    0    0  0.19982755102E+02 -0.12027170309E+03  0.18950466700E+03  0.23933044021E+03  0.80637756231E+02 0.  0.
         23    2    1    2    0    0 -0.38567113830E+02  0.14164147379E+02  0.50375052384E+03  0.51366541859E+03  0.91648931518E+02 0.  0.
        -11    1    3    3    0    0  0.42902691163E+02 -0.28380795390E+02  0.64469334399E+02  0.82476696914E+02  0.00000000000E+00 0.  1.
         11    1    3    3    0    0 -0.22919936061E+02 -0.91890907697E+02  0.12503533260E+03  0.15685374329E+03  0.00000000000E+00 0. -1.
        -11    1    4    4    0    0 -0.37765795314E+02 -0.34646048903E+02  0.23594525206E+03  0.24144723227E+03  0.00000000000E+00 0. -1.
         11    1    4    4    0    0 -0.80131851539E+00  0.48810196282E+02  0.26780527178E+03  0.27221818632E+03  0.00000000000E+00 0.  1.
         21    1    1    2  502  501  0.18584358727E+02  0.10610755571E+03 -0.28773383971E+02  0.11149932463E+03  0.00000000000E+00 0.  1.
<scales pt_clust_5="13000.00000" pt_clust_6="13000.00000" pt_clust_7="13000.00000" pt_clust_8="13000.00000" pt_clust_9="109.09906"></scales>
<clustering>
<clus scale="   80.638">  5  6 -1 -1</clus>
<clus scale="   91.649">  7  8 -1 -1</clus>
<clus scale="  100.437">  1  7  2 -1</clus>
<clus scale="  109.099">  2  9  1 -1</clus>
<clus scale="  100.437">  1  5  2 -1</clus>
</clustering>
</event>
<event>
 9    1  0.5300912E-006  0.1832545E+03  0.7546771E-02  0.1193631E+00
         -2   -1    0    0    0  501 -0.00000000000E+00  0.00000000000E+00  0.33446231824E+03  0.33446231824E+03  0.00000000000E+00 0. -1.
          2   -1    0    0  502    0  0.00000000000E+00 -0.00000000000E+00 -0.21290186371E+03  0.21290186371E+03  0.00000000000E+00 0.  1.
         23    2    1    2    0    0 -0.39070988721E+02  0.47251054015E+02  0.96738938228E+02  0.13594617274E+03  0.73237527587E+02 0.  0.
         23    2    1    2    0    0 -0.33049148939E+02  0.14117230437E+03 -0.74507957793E+02  0.18653799528E+03  0.90681432186E+02 0.  0.
        -13    1    3    3    0    0  0.21801492752E+02  0.15943313421E+02  0.29438670670E+02  0.39951591456E+02  0.00000000000E+00 0.  1.
         13    1    3    3    0    0 -0.60872481473E+02  0.31307740594E+02  0.67300267559E+02  0.95994581281E+02  0.00000000000E+00 0. -1.
        -13    1    4    4    0    0 -0.27298175219E+02  0.17737566394E+02 -0.51377431655E+02  0.60823121552E+02  0.00000000000E+00 0.  1.
         13    1    4    4    0    0 -0.57509737204E+01  0.12343473798E+03 -0.23130526137E+02  0.12571487373E+03  0.00000000000E+00 0. -1.
         21    1    1    2  502  501  0.72120137661E+02 -0.18842335838E+03  0.99329474100E+02  0.22488001393E+03  0.00000000000E+00 0. -1.
<scales pt_clust_5="13000.00000" pt_clust_6="13000.00000" pt_clust_7="13000.00000" pt_clust_8="13000.00000" pt_clust_9="159.24543"></scales>
<clustering>
<clus scale="   73.238">  5  6 -1 -1</clus>
<clus scale="   90.681">  7  8 -1 -1</clus>
<clus scale="   95.514">  1  5  2 -1</clus>
<clus scale="  159.245">  1  9  2 -1</clus>
<clus scale="  183.255">  2  5  1 -1</clus>
</clustering>
</event>
<event>
 9    1  0.5300912E-006  0.9638473E+02  0.7546771E-02  0.1288426E+00
          2   -1    0    0  502    0  0.00000000000E+00  0.00000000000E+00  0.20758657722E+03  0.20758657722E+03  0.00000000000E+00 0.  1.
         -2   -1    0    0    0  501 -0.00000000000E+00 -0.00000000000E+00 -0.76493544323E+02  0.76493544323E+02  0.00000000000E+00 0. -1.
         23    2    1    2    0    0  0.54561258166E+02  0.77076081760E+01  0.35542619061E+02  0.11164794778E+03  0.90363977095E+02 0.  0.
         23    2    1    2    0    0 -0.25845697914E+01 -0.46727929476E+01  0.66161474628E+02  0.11264508498E+03  0.91011314961E+02 0.  0.
        -11    1    4    4    0    0  0.41758689882E+02  0.12029813049E+02  0.26904144209E+02  0.51111031669E+02  0.00000000000E+00 0.  1.
         11    1    4    4    0    0 -0.44343259673E+02 -0.16702605997E+02  0.39257330419E+02  0.61534053314E+02  0.00000000000E+00 0. -1.
        -11    1    3    3    0    0  0.63044994182E+02  0.30901117731E+02  0.23166813395E+01  0.70248967116E+02  0.00000000000E+00 0.  1.
         11    1    3    3    0    0 -0.84837360161E+01 -0.23193509555E+02  0.33225937722E+02  0.41398980661E+02  0.00000000000E+00 0. -1.
         21    1    1    2  502  501 -0.51976688374E+02 -0.30348152283E+01  0.29388939212E+02  0.59787088788E+02  0.00000000000E+00 0. -1.
<scales pt_clust_5="13000.00000" pt_clust_6="13000.00000" pt_clust_7="13000.00000" pt_clust_8="13000.00000" pt_clust_9="52.06521"></scales>
<clustering>
<clus scale="   52.065">  1  9  2 -1</clus>
<clus scale="   90.364">  7  8 -1 -1</clus>
<clus scale="   91.011">  5  6 -1 -1</clus>
<clus scale="   95.774">  2  7  1 -1</clus>
<clus scale="   52.065">  1  5  2 -1</clus>
</clustering>
</event>
<event>
 9    1  0.5300912E-006  0.1449379E+03  0.7546771E-02  0.1228443E+00
          3   -1    0    0  502    0  0.00000000000E+00  0.00000000000E+00  0.86232771066E+02  0.86232771066E+02  0.00000000000E+00 0. -1.
         -3   -1    0    0    0  501 -0.00000000000E+00 -0.00000000000E+00 -0.43227508198E+03  0.43227508198E+03  0.00000000000E+00 0.  1.
         23    2    1    2    0    0 -0.33586950238E+02  0.10618445364E+03 -0.24251499504E+03  0.28120424107E+03  0.88651457738E+02 0.  0.
         23    2    1    2    0    0  0.71863979548E+01  0.11877209121E+02 -0.35594314001E+02  0.98557663851E+02  0.90851227303E+02 0.  0.
        -11    1    3    3    0    0 -0.27521609303E+02 -0.62540393178E+01 -0.33640425411E+02  0.43911618147E+02  0.00000000000E+00 0. -1.
         11    1    3    3    0    0 -0.60653409349E+01  0.11243849296E+03 -0.20887456962E+03  0.23729262293E+03  0.00000000000E+00 0.  1.
        -13    1    4    4    0    0 -0.22411193721E+02  0.41180086560E+02 -0.31979500499E+02  0.56751648304E+02  0.00000000000E+00 0.  1.
         13    1    4    4    0    0  0.29597591676E+02 -0.29302877439E+02 -0.36148135015E+01  0.41806015546E+02  0.00000000000E+00 0. -1.
         21    1    1    2  502  501  0.26400552283E+02 -0.11806166276E+03 -0.67933001874E+02  0.13874594812E+03  0.00000000000E+00 0. -1.
<scales pt_clust_5="13000.00000" pt_clust_6="13000.00000" pt_clust_7="13000.00000" pt_clust_8="13000.00000" pt_clust_9="114.66435"></scales>
<clustering>
<clus scale="   88.651">  5  6 -1 -1</clus>
<clus scale="   90.851">  7  8 -1 -1</clus>
<clus scale="   91.906">  1  7  2 -1</clus>
<clus scale="  114.664">  1  9  2 -1</clus>
<clus scale="   91.906">  1  5  2 -1</clus>
</clustering>
</event>
<event>
 9    1  0.5300912E-006  0.1027954E+03  0.7546771E-02  0.1275204E+00
         -1   -1    0    0    0  501 -0.00000000000E+00  0.00000000000E+00  0.66746295504E+02  0.66746295504E+02  0.00000000000E+00 0.  1.
          1   -1    0    0  502    0  0.00000000000E+00 -0.00000000000E+00 -0.43415121962E+03  0.43415121962E+03  0.00000000000E+00 0. -1.
         23    2    1    2    0    0 -0.20327297537E+02  0.77052880356E+02 -0.42922649700E+02  0.12889057305E+03  0.91760996987E+02 0.  0.
         23    2    1    2    0    0 -0.24036329096E+01  0.35394792954E+01 -0.11396171022E+03  0.14544407754E+03  0.90268504649E+02 0.  0.
        -13    1    3    3    0    0 -0.14987771449E+01  0.94958895201E+02 -0.38760515785E+02  0.10257590212E+03  0.00000000000E+00 0.  1.
         13    1    3    3    0    0 -0.18828520392E+02 -0.17906014845E+02 -0.41621339149E+01  0.26314670937E+02  0.00000000000E+00 0. -1.
        -13    1    4    4    0    0  0.17898702293E+02  0.37746847623E+02 -0.89438307278E+02  0.98713721731E+02  0.00000000000E+00 0.  1.
         13    1    4    4    0    0 -0.20302335203E+02 -0.34207368327E+02 -0.24523402942E+02  0.46730355813E+02  0.00000000000E+00 0. -1.
         21    1    1    2  502  501  0.22730930447E+02 -0.80592359652E+02 -0.21052056419E+03  0.22656286453E+03  0.00000000000E+00 0. -1.
<scales pt_clust_5="13000.00000" pt_clust_6="13000.00000" pt_clust_7="13000.00000" pt_clust_8="13000.00000" pt_clust_9="83.73663"></scales>
<clustering>
<clus scale="   83.737">  2  9  1 -1</clus>
<clus scale="   90.269">  7  8 -1 -1</clus>
<clus scale="   91.761">  5  6 -1 -1</clus>
<clus scale="  101.465">  2  7  1 -1</clus>
<clus scale="   83.737">  2  5  1 -1</clus>
</clustering>
</event>
<event>
 9    1  0.5300912E-006  0.1604066E+03  0.7546771E-02  0.1212947E+00
          1   -1    0    0  502    0  0.00000000000E+00  0.00000000000E+00  0.18688701818E+03  0.18688701818E+03  0.00000000000E+00 0. -1.
         -1   -1    0    0    0  501 -0.00000000000E+00 -0.00000000000E+00 -0.21719366279E+03  0.21719366279E+03  0.00000000000E+00 0.  1.
         23    2    1    2    0    0  0.87511268945E+01 -0.21077125921E+02 -0.33927828260E+02  0.99782122148E+02  0.91019486435E+02 0.  0.
         23    2    1    2    0    0  0.34357406910E+02 -0.10922511189E+03 -0.51138223052E+02  0.15652978172E+03  0.93679764255E+02 0.  0.
        -11    1    4    4    0    0  0.48228659274E+01 -0.19685042048E+02  0.27218235641E+02  0.33935133234E+02  0.00000000000E+00 0. -1.
         11    1    4    4    0    0  0.29534540983E+02 -0.89540069840E+02 -0.78356458692E+02  0.12259464848E+03  0.00000000000E+00 0.  1.
        -11    1    3    3    0    0  0.16596062143E+02  0.21291031467E+02 -0.47475876139E+02  0.54614065173E+02  0.00000000000E+00 0. -1.
         11    1    3    3    0    0 -0.78449352481E+01 -0.42368157388E+02  0.13548047879E+02  0.45168056974E+02  0.00000000000E+00 0.  1.
         21    1    1    2  502  501 -0.43108533805E+02  0.13030223781E+03  0.54759406697E+02  0.14776877710E+03  0.00000000000E+00 0. -1.
<scales pt_clust_5="13000.00000" pt_clust_6="13000.00000" pt_clust_7="13000.00000" pt_clust_8="13000.00000" pt_clust_9="130.20892"></scales>
<clustering>
<clus scale="   91.019">  7  8 -1 -1</clus>
<clus scale="   93.680">  5  6 -1 -1</clus>
<clus scale="   93.837">  2  7  1 -1</clus>
<clus scale="  130.209">  1  9  2 -1</clus>
<clus scale="  130.209">  1  5  2 -1</clus>
</clustering>
</event>
<event>
 9    1  0.5300912E-006  0.1009632E+03  0.7546771E-02  0.1281687E+00
         -1   -1    0    0    0  501 -0.00000000000E+00  0.00000000000E+00  0.48328064827E+02  0.48328064827E+02  0.00000000000E+00 0.  1.
          1   -1    0    0  502    0  0.00000000000E+00 -0.00000000000E+00 -0.54663933499E+03  0.54663933499E+03  0.00000000000E+00 0. -1.
         23    2    1    2    0    0  0.30104434542E+02  0.26112755769E+02 -0.26225129491E+03  0.28053370958E+03  0.91297686366E+02 0.  0.
         23    2    1    2    0    0  0.90757148459E+01 -0.18446256492E+02 -0.25225807642E+03  0.27134961198E+03  0.97846010788E+02 0.  0.
        -11    1    3    3    0    0  0.43809602042E+01  0.45511955710E+02 -0.23158013987E+03  0.23605061345E+03  0.00000000000E+00 0. -1.
         11    1    3    3    0    0  0.25723474338E+02 -0.19399199941E+02 -0.30671155038E+02  0.44483096135E+02  0.00000000000E+00 0.  1.
        -13    1    4    4    0    0  0.46432887317E+02  0.98433161103E+01 -0.17184016641E+03  0.17827491885E+03  0.00000000000E+00 0. -1.
         13    1    4    4    0    0 -0.37357172471E+02 -0.28289572602E+02 -0.80417910004E+02  0.93074693136E+02  0.00000000000E+00 0.  1.
         21    1    1    2  502  501 -0.39180149388E+02 -0.76664992773E+01  0.16198101169E+02  0.43084078250E+02  0.00000000000E+00 0.  1.
<scales pt_clust_5="13000.00000" pt_clust_6="13000.00000" pt_clust_7="13000.00000" pt_clust_8="13000.00000" pt_clust_9="39.92317"></scales>
<clustering>
<clus scale="   39.923">  1  9  2 -1</clus>
<clus scale="   91.298">  5  6 -1 -1</clus>
<clus scale="   94.631">  1  5  2 -1</clus>
<clus scale="   97.846">  7  8 -1 -1</clus>
<clus scale="  100.963">  2  5  1 -1</clus>
</clustering>
</event>
<event>
 9    1  0.5300912E-006  0.1178294E+03  0.7546771E-02  0.1256695E+00
         -1   -1    0    0    0  501 -0.00000000000E+00  0.00000000000E+00  0.15674543525E+03  0.15674543525E+03  0.00000000000E+00 0.  1.
          1   -1    0    0  502    0  0.00000000000E+00 -0.00000000000E+00 -0.51347008224E+03  0.51347008224E+03  0.00000000000E+00 0. -1.
         23    2    1    2    0    0  0.66415926828E+02  0.12852261358E+02  0.10249882410E+03  0.15530680701E+03  0.95068077724E+02 0.  0.
         23    2    1    2    0    0  0.28298587503E+02  0.12211834385E+02 -0.86972105482E+02  0.12997998030E+03  0.91546213422E+02 0.  0.
        -13    1    3    3    0    0  0.89906362982E+02  0.10060661798E+01  0.73304248699E+02  0.11600723749E+03  0.00000000000E+00 0. -1.
         13    1    3    3    0    0 -0.23490436154E+02  0.11846195179E+02  0.29194575406E+02  0.39299569515E+02  0.00000000000E+00 0.  1.
        -13    1    4    4    0    0  0.32612220055E+02  0.47923001044E+02 -0.67857971229E+02  0.89246149414E+02  0.00000000000E+00 0.  1.
         13    1    4    4    0    0 -0.43136325525E+01 -0.35711166659E+02 -0.19114134254E+02  0.40733830881E+02  0.00000000000E+00 0. -1.
         21    1    1    2  502  501 -0.94714514331E+02 -0.25064095743E+02 -0.37225136561E+03  0.38492873018E+03  0.00000000000E+00 0. -1.
<scales pt_clust_5="13000.00000" pt_clust_6="13000.00000" pt_clust_7="13000.00000" pt_clust_8="13000.00000" pt_clust_9="69.61198"></scales>
<clustering>
<clus scale="   91.546">  7  8 -1 -1</clus>
<clus scale="   95.068">  5  6 -1 -1</clus>
<clus scale="   96.595">  2  7  1 -1</clus>
<clus scale="   69.612">  2  9  1 -1</clus>
<clus scale="   96.595">  2  5  1 -1</clus>
</clustering>
</event>
<event>
 9    1  0.5300912E-006  0.9272481E+02  0.7546771E-02  0.1296550E+00
         -2   -1    0    0    0  501 -0.00000000000E+00  0.00000000000E+00  0.42531840133E+02  0.42531840133E+02  0.00000000000E+00 0.  1.
          2   -1    0    0  502    0  0.00000000000E+00 -0.00000000000E+00 -0.47047612007E+03  0.47047612007E+03  0.00000000000E+00 0. -1.
         23    2    1    2    0    0 -0.27565048322E+02 -0.95354077023E+01 -0.59406603873E+02  0.11081361121E+03  0.88880571305E+02 0.  0.
         23    2    1    2    0    0 -0.97364051389E+01  0.46633798717E+02 -0.17720071494E+03  0.20375664659E+03  0.88584247388E+02 0.  0.
        -11    1    3    3    0    0 -0.25555678514E+02  0.17663580638E+02 -0.73730366870E+02  0.80007885761E+02  0.00000000000E+00 0. -1.
         11    1    3    3    0    0 -0.20093698085E+01 -0.27198988340E+02  0.14323762997E+02  0.30805725444E+02  0.00000000000E+00 0.  1.
        -13    1    4    4    0    0  0.20475270658E+02  0.29049967784E+02 -0.16162650493E+03  0.16548795858E+03  0.00000000000E+00 0. -1.
         13    1    4    4    0    0 -0.30211675797E+02  0.17583830932E+02 -0.15574210006E+02  0.38268688010E+02  0.00000000000E+00 0.  1.
         21    1    1    2  502  501  0.37301453461E+02 -0.37098391014E+02 -0.19133696112E+03  0.19843770241E+03  0.00000000000E+00 0. -1.
<scales pt_clust_5="13000.00000" pt_clust_6="13000.00000" pt_clust_7="13000.00000" pt_clust_8="13000.00000" pt_clust_9="52.60883"></scales>
<clustering>
<clus scale="   52.609">  2  9  1 -1</clus>
<clus scale="   88.584">  7  8 -1 -1</clus>
<clus scale="   88.881">  5  6 -1 -1</clus>
<clus scale="   92.441">  2  7  1 -1</clus>
<clus scale="   52.609">  2  5  1 -1</clus>
</clustering>
</event>
<event>
 9    1  0.5300912E-006  0.1125935E+03  0.7546771E-02  0.1256684E+00
          1   -1    0    0  502    0  0.00000000000E+00  0.00000000000E+00  0.41201955481E+03  0.41201955481E+03  0.00000000000E+00 0. -1.
         -1   -1    0    0    0  501 -0.00000000000E+00 -0.00000000000E+00 -0.77417920562E+02  0.77417920562E+02  0.00000000000E+00 0.  1.
         23    2    1    2    0    0 -0.13290458512E+02  0.13256055220E+02  0.69421220039E+02  0.11785496046E+03  0.93370908884E+02 0.  0.
         23    2    1    2    0    0  0.99075615637E+02  0.18841718813E+02  0.24126873489E+03  0.27691927659E+03  0.91119127131E+02 0.  0.
        -13    1    3    3    0    0 -0.39183756659E+02 -0.88978373039E+01 -0.37608312693E+00  0.40183077695E+02  0.00000000000E+00 0.  1.
         13    1    3    3    0    0  0.25893298147E+02  0.22153892524E+02  0.69797303166E+02  0.77671882764E+02  0.00000000000E+00 0. -1.
        -13    1    4    4    0    0  0.14490715872E+02  0.40228613452E+02  0.44699021638E+02  0.61857293201E+02  0.00000000000E+00 0.  1.
         13    1    4    4    0    0  0.84584899766E+02 -0.21386894638E+02  0.19656971326E+03  0.21506198339E+03  0.00000000000E+00 0. -1.
         21    1    1    2  502  501 -0.85785157125E+02 -0.32097774033E+02  0.23911679309E+02  0.94663238315E+02  0.00000000000E+00 0.  1.
<scales pt_clust_5="13000.00000" pt_clust_6="13000.00000" pt_clust_7="13000.00000" pt_clust_8="13000.00000" pt_clust_9="91.59345"></scales>
<clustering>
<clus scale="   91.119">  7  8 -1 -1</clus>
<clus scale="   91.593">  2  9  1 -1</clus>
<clus scale="   93.371">  5  6 -1 -1</clus>
<clus scale="  110.733">  1  7  2 -1</clus>
<clus scale="  110.733">  1  5  2 -1</clus>
</clustering>
</event>
<event>
 9    1  0.5300912E-006  0.9636486E+02  0.7546771E-02  0.1290234E+00
         -2   -1    0    0    0  501 -0.00000000000E+00  0.00000000000E+00  0.13740520551E+03  0.13740520551E+03  0.00000000000E+00 0.  1.
          2   -1    0    0  502    0  0.00000000000E+00 -0.00000000000E+00 -0.73180007323E+03  0.73180007323E+03  0.00000000000E+00 0. -1.
         23    2    1    2    0    0 -0.16662249742E+02 -0.28764659831E+02  0.10237415138E+03  0.13764566451E+03  0.85795255493E+02 0.  0.
         23    2    1    2    0    0  0.60880390293E+02  0.73934929680E+02 -0.61138684271E+03  0.62532537644E+03  0.89806231604E+02 0.  0.
        -11    1    3    3    0    0  0.27918808677E+02 -0.29289130908E+01  0.65184913700E+01  0.28818902470E+02  0.00000000000E+00 0. -1.
         11    1    3    3    0    0 -0.44581058419E+02 -0.25835746740E+02  0.95855660014E+02  0.10882676204E+03  0.00000000000E+00 0.  1.
        -13    1    4    4    0    0  0.41276786465E+02  0.90197335621E+02 -0.54984663727E+03  0.55872234336E+03  0.00000000000E+00 0.  1.
         13    1    4    4    0    0  0.19603603828E+02 -0.16262405941E+02 -0.61540205444E+02  0.66603033085E+02  0.00000000000E+00 0. -1.
         21    1    1    2  502  501 -0.44218140551E+02 -0.45170269849E+02 -0.85382176390E+02  0.10623423778E+03  0.00000000000E+00 0.  1.
<scales pt_clust_5="13000.00000" pt_clust_6="13000.00000" pt_clust_7="13000.00000" pt_clust_8="13000.00000" pt_clust_9="63.21074"></scales>
<clustering>
<clus scale="   63.211">  2  9  1 -1</clus>
<clus scale="   85.795">  5  6 -1 -1</clus>
<clus scale="   89.806">  7  8 -1 -1</clus>
<clus scale="   92.638">  1  5  2 -1</clus>
<clus scale="   63.211">  2  5  1 -1</clus>
</clustering>
</event>
<event>
 9    1  0.5300912E-006  0.1669473E+03  0.7546771E-02  0.1202719E+00
          1   -1    0    0  502    0  0.00000000000E+00  0.00000000000E+00  0.13506584782E+03  0.13506584782E+03  0.00000000000E+00 0. -1.
         -1   -1    0    0    0  501 -0.00000000000E+00 -0.00000000000E+00 -0.61705928131E+03  0.61705928131E+03  0.00000000000E+00 0.  1.
         23    2    1    2    0    0  0.12278709195E+03 -0.65890424852E+02 -0.24468977272E+03  0.29602836918E+03  0.91331771301E+02 0.  0.
         23    2    1    2    0    0  0.19599349399E+02  0.47356871957E+02  0.64367618480E+02  0.12199654746E+03  0.90073078476E+02 0.  0.
        -11    1    3    3    0    0  0.22321026001E+02 -0.38541939587E+02 -0.14572014273E+03  0.15237476597E+03  0.00000000000E+00 0.  1.
         11    1    3    3    0    0  0.10046606595E+03 -0.27348485265E+02 -0.98969629994E+02  0.14365360321E+03  0.00000000000E+00 0. -1.
        -11    1    4    4    0    0  0.48443446595E+02  0.50161320581E+02  0.61313076077E+02  0.92855903951E+02  0.00000000000E+00 0. -1.
         11    1    4    4    0    0 -0.28844097196E+02 -0.28044486238E+01  0.30545424027E+01  0.29140643514E+02  0.00000000000E+00 0.  1.
         21    1    1    2  502  501 -0.14238644135E+03  0.18533552894E+02 -0.30167127925E+03  0.33410021249E+03  0.00000000000E+00 0.  1.
<scales pt_clust_5="13000.00000" pt_clust_6="13000.00000" pt_clust_7="13000.00000" pt_clust_8="13000.00000" pt_clust_9="139.74948"></scales>
<clustering>
<clus scale="   90.073">  7  8 -1 -1</clus>
<clus scale="   91.332">  5  6 -1 -1</clus>
<clus scale="  103.634">  1  7  2 -1</clus>
<clus scale="  139.749">  2  9  1 -1</clus>
<clus scale="  103.634">  1  5  2 -1</clus>
</clustering>
</event>
<event>
 9    1  0.5300912E-006  0.2009334E+03  0.7546771E-02  0.1159953E+00
         -1   -1    0    0    0  501 -0.00000000000E+00  0.00000000000E+00  0.56845339774E+03  0.56845339774E+03  0.00000000000E+00 0.  1.
          1   -1    0    0  502    0  0.00000000000E+00 -0.00000000000E+00 -0.13624454263E+03  0.13624454263E+03  0.00000000000E+00 0. -1.
         23    2    1    2    0    0  0.14297019030E+03 -0.54613483251E+02  0.11223729802E+03  0.21086019153E+03  0.91878732243E+02 0.  0.
         23    2    1    2    0    0 -0.19534895521E+02 -0.12768926888E+03  0.11610624665E+03  0.19378503641E+03  0.85940783672E+02 0.  0.
        -11    1    4    4    0    0  0.31166518146E+02 -0.59260021070E+02  0.70295737732E+02  0.97080341438E+02  0.00000000000E+00 0. -1.
         11    1    4    4    0    0 -0.50701413666E+02 -0.68429247809E+02  0.45810508913E+02  0.96704694976E+02  0.00000000000E+00 0.  1.
        -13    1    3    3    0    0  0.12060275902E+03 -0.64981048603E+02  0.53342391486E+02  0.14701351261E+03  0.00000000000E+00 0. -1.
         13    1    3    3    0    0  0.22367431277E+02  0.10367565352E+02  0.58894906534E+02  0.63846678918E+02  0.00000000000E+00 0.  1.
         21    1    1    2  502  501 -0.12343529478E+03  0.18230275213E+03  0.20386531045E+03  0.30005271243E+03  0.00000000000E+00 0.  1.
<scales pt_clust_5="13000.00000" pt_clust_6="13000.00000" pt_clust_7="13000.00000" pt_clust_8="13000.00000" pt_clust_9="178.69672"></scales>
<clustering>
<clus scale="   85.941">  5  6 -1 -1</clus>
<clus scale="   91.879">  7  8 -1 -1</clus>
<clus scale="  155.151">  2  5  1 -1</clus>
<clus scale="  178.697">  2  9  1 -1</clus>
<clus scale="  155.151">  2  5  1 -1</clus>
</clustering>
</event>
<event>
 9    1  0.6150546E-006  0.1188190E+03  0.7546771E-02  0.1247161E+00
          1   -1    0    0  502    0  0.00000000000E+00  0.00000000000E+00  0.33827145531E+03  0.33827145531E+03  0.00000000000E+00 0. -1.
         -1   -1    0    0    0  501 -0.00000000000E+00 -0.00000000000E+00 -0.12853217333E+03  0.12853217333E+03  0.00000000000E+00 0.  1.
         23    2    1    2    0    0 -0.55035055230E+01 -0.27229420806E+02 -0.69734519788E+02  0.11800886914E+03  0.91057454479E+02 0.  0.
         23    2    1    2    0    0  0.54690390735E+02  0.51287136188E+02  0.26519427316E+03  0.29220829218E+03  0.97140487576E+02 0.  0.
        -13    1    3    3    0    0  0.42019106904E+02 -0.41842486516E+01 -0.27614997464E+02  0.50454943927E+02  0.00000000000E+00 0. -1.
         13    1    3    3    0    0 -0.47522612427E+02 -0.23045172154E+02 -0.42119522324E+02  0.67553925217E+02  0.00000000000E+00 0.  1.
        -13    1    4    4    0    0  0.48103136786E+02 -0.14280386390E+02  0.16352790750E+03  0.17105325994E+03  0.00000000000E+00 0. -1.
         13    1    4    4    0    0  0.65872539498E+01  0.65567522578E+02  0.10166636565E+03  0.12115503224E+03  0.00000000000E+00 0.  1.
         21    1    1    2  502  501 -0.49186885212E+02 -0.24057715382E+02  0.14279528605E+02  0.56586467317E+02  0.00000000000E+00 0.  1.
<scales pt_clust_5="13000.00000" pt_clust_6="13000.00000" pt_clust_7="13000.00000" pt_clust_8="13000.00000" pt_clust_9="54.75512"></scales>
<clustering>
<clus scale="   54.755">  2  9  1 -1</clus>
<clus scale="   91.057">  5  6 -1 -1</clus>
<clus scale="   97.140">  7  8 -1 -1</clus>
<clus scale="  113.900">  2  5  1 -1</clus>
<clus scale="  118.819">  1  5  2 -1</clus>
</clustering>
</event>
<event>
 9    1  0.5300912E-006  0.1962091E+03  0.7546771E-02  0.1172264E+00
         -1   -1    0    0    0  501 -0.00000000000E+00  0.00000000000E+00  0.11171953139E+04  0.11171953139E+04  0.00000000000E+00 0.  1.
          1   -1    0    0  502    0  0.00000000000E+00 -0.00000000000E+00 -0.15050007241E+03  0.15050007241E+03  0.00000000000E+00 0. -1.
         23    2    1    2    0    0 -0.36144409200E+02  0.15840813601E+03  0.76978811035E+03  0.79205521128E+03  0.91532327709E+02 0.  0.
         23    2    1    2    0    0  0.53783748318E+02  0.63631337386E+02 -0.57042113705E+02  0.13784897771E+03  0.93845081054E+02 0.  0.
        -13    1    4    4    0    0  0.11752740400E+02  0.79226330756E+02 -0.42790609730E+02  0.90807349223E+02  0.00000000000E+00 0.  1.
         13    1    4    4    0    0  0.42031007917E+02 -0.15594993370E+02 -0.14251503975E+02  0.47041628483E+02  0.00000000000E+00 0. -1.
        -13    1    3    3    0    0  0.11558656953E+02  0.12321207242E+03  0.58667127809E+03  0.59958152562E+03  0.00000000000E+00 0.  1.
         13    1    3    3    0    0 -0.47703066153E+02  0.35196063597E+02  0.18311683226E+03  0.19247368566E+03  0.00000000000E+00 0. -1.
         21    1    1    2  502  501 -0.17639339118E+02 -0.22203947340E+03  0.25394924487E+03  0.33779119735E+03  0.00000000000E+00 0. -1.
<scales pt_clust_5="13000.00000" pt_clust_6="13000.00000" pt_clust_7="13000.00000" pt_clust_8="13000.00000" pt_clust_9="173.55067"></scales>
<clustering>
<clus scale="   91.532">  7  8 -1 -1</clus>
<clus scale="   93.845">  5  6 -1 -1</clus>
<clus scale="  125.493">  2  5  1 -1</clus>
<clus scale="  173.551">  2  9  1 -1</clus>
<clus scale="  125.493">  2  5  1 -1</clus>
</clustering>
</event>
<event>
 9    1  0.5300912E-006  0.9899989E+02  0.7546771E-02  0.1282531E+00
          2   -1    0    0  502    0  0.00000000000E+00  0.00000000000E+00  0.29760835572E+03  0.29760835572E+03  0.00000000000E+00 0. -1.
         -2   -1    0    0    0  501 -0.00000000000E+00 -0.00000000000E+00 -0.12321471817E+03  0.12321471817E+03  0.00000000000E+00 0.  1.
         23    2    1    2    0    0 -0.61258804145E+02  0.57705967830E+01  0.54058158452E+02  0.12262259142E+03  0.91258284879E+02 0.  0.
         23    2    1    2    0    0  0.28875807641E+02 -0.12202183229E+02  0.19449999025E+03  0.21701921320E+03  0.91018608811E+02 0.  0.
        -11    1    3    3    0    0 -0.85370313658E+02  0.62688750493E+01  0.38046328576E+02  0.93674502222E+02  0.00000000000E+00 0.  1.
         11    1    3    3    0    0  0.24111509513E+02 -0.49827826627E+00  0.16011829877E+02  0.28948089199E+02  0.00000000000E+00 0. -1.
        -13    1    4    4    0    0  0.28274464222E+02  0.35589633808E+02  0.12189965435E+03  0.13009839773E+03  0.00000000000E+00 0. -1.
         13    1    4    4    0    0  0.60134341931E+00 -0.47791817038E+02  0.72600335903E+02  0.86920815475E+02  0.00000000000E+00 0.  1.
         21    1    1    2  502  501  0.32382996504E+02  0.64315864465E+01 -0.74164511148E+02  0.81181269272E+02  0.00000000000E+00 0.  1.
<scales pt_clust_5="13000.00000" pt_clust_6="13000.00000" pt_clust_7="13000.00000" pt_clust_8="13000.00000" pt_clust_9="33.01551"></scales>
<clustering>
<clus scale="   33.016">  2  9  1 -1</clus>
<clus scale="   91.019">  7  8 -1 -1</clus>
<clus scale="   91.258">  5  6 -1 -1</clus>
<clus scale="   98.779">  1  7  2 -1</clus>
<clus scale="   98.779">  1  5  2 -1</clus>
</clustering>
</event>
<event>
 9    1  0.5300912E-006  0.1076977E+03  0.7546771E-02  0.1265922E+00
         -1   -1    0    0    0  501 -0.00000000000E+00  0.00000000000E+00  0.11598571242E+03  0.11598571242E+03  0.00000000000E+00 0.  1.
          1   -1    0    0  502    0  0.00000000000E+00 -0.00000000000E+00 -0.23510649205E+03  0.23510649205E+03  0.00000000000E+00 0. -1.
         23    2    1    2    0    0 -0.51593847681E+02 -0.36271058702E+02  0.35331962881E+02  0.11789089671E+03  0.93125727429E+02 0.  0.
         23    2    1    2    0    0  0.41090868176E+02 -0.26785778968E+02 -0.12718456850E+03  0.16370288569E+03  0.90646472167E+02 0.  0.
        -11    1    4    4    0    0 -0.22388729248E+02 -0.28603114085E+02 -0.27714227243E+02  0.45688857771E+02  0.00000000000E+00 0.  1.
         11    1    4    4    0    0  0.63479597424E+02  0.18173351171E+01 -0.99470341255E+02  0.11801402792E+03  0.00000000000E+00 0. -1.
        -13    1    3    3    0    0  0.10454790001E+02  0.17781993197E+02 -0.11079090870E+02  0.23414699881E+02  0.00000000000E+00 0. -1.
         13    1    3    3    0    0 -0.62048637682E+02 -0.54053051899E+02  0.46411053752E+02  0.94476196834E+02  0.00000000000E+00 0.  1.
         21    1    1    2  502  501  0.10502979505E+02  0.63056837670E+02 -0.27268174009E+02  0.69498422062E+02  0.00000000000E+00 0. -1.
<scales pt_clust_5="13000.00000" pt_clust_6="13000.00000" pt_clust_7="13000.00000" pt_clust_8="13000.00000" pt_clust_9="63.92556"></scales>
<clustering>
<clus scale="   63.926">  2  9  1 -1</clus>
<clus scale="   90.646">  5  6 -1 -1</clus>
<clus scale="   93.126">  7  8 -1 -1</clus>
<clus scale="  105.561">  2  5  1 -1</clus>
<clus scale="   63.926">  2  5  1 -1</clus>
</clustering>
</event>
<event>
 9    1  0.5300912E-006  0.1021397E+03  0.7546771E-02  0.1276997E+00
         -1   -1    0    0    0  501 -0.00000000000E+00  0.00000000000E+00  0.69497040765E+02  0.69497040765E+02  0.00000000000E+00 0.  1.
          1   -1    0    0  502    0  0.00000000000E+00 -0.00000000000E+00 -0.30275442447E+03  0.30275442447E+03  0.00000000000E+00 0. -1.
         23    2    1    2    0    0 -0.83235433730E+01  0.30550128584E+02 -0.28313616410E+02  0.99278079899E+02  0.89732293760E+02 0.  0.
         23    2    1    2    0    0  0.30459975333E+02 -0.38092212019E+02 -0.22116104763E+03  0.24451455851E+03  0.92175558700E+02 0.  0.
        -11    1    3    3    0    0  0.38649148499E+02  0.28195149191E+02 -0.10453271539E+02  0.48969316959E+02  0.00000000000E+00 0. -1.
         11    1    3    3    0    0 -0.46972691872E+02  0.23549793927E+01 -0.17860344871E+02  0.50308762940E+02  0.00000000000E+00 0.  1.
        -13    1    4    4    0    0  0.46358917366E+02  0.69816560314E+01 -0.16095254544E+03  0.16764132731E+03  0.00000000000E+00 0. -1.
         13    1    4    4    0    0 -0.15898942032E+02 -0.45073868051E+02 -0.60208502193E+02  0.76873231200E+02  0.00000000000E+00 0.  1.
         21    1    1    2  502  501 -0.22136431960E+02  0.75420834354E+01  0.16217280338E+02  0.28458826821E+02  0.00000000000E+00 0.  1.
<scales pt_clust_5="13000.00000" pt_clust_6="13000.00000" pt_clust_7="13000.00000" pt_clust_8="13000.00000" pt_clust_9="23.38599"></scales>
<clustering>
<clus scale="   23.386">  1  9  2 -1</clus>
<clus scale="   89.732">  5  6 -1 -1</clus>
<clus scale="   92.176">  7  8 -1 -1</clus>
<clus scale="   99.940">  1  5  2 -1</clus>
<clus scale="  102.140">  2  5  1 -1</clus>
</clustering>
</event>
<event>
 9    1  0.5300912E-006  0.1550559E+03  0.7546771E-02  0.1194502E+00
         -2   -1    0    0    0  501 -0.00000000000E+00  0.00000000000E+00  0.18701679371E+03  0.18701679371E+03  0.00000000000E+00 0.  1.
          2   -1    0    0  502    0  0.00000000000E+00 -0.00000000000E+00 -0.25876537138E+03  0.25876537138E+03  0.00000000000E+00 0. -1.
         23    2    1    2    0    0 -0.22037677734E+01 -0.14455109870E+03  0.63620643993E+02  0.18321657709E+03  0.92848538239E+02 0.  0.
         23    2    1    2    0    0  0.56238682446E+02  0.72808679236E+02 -0.10636945406E+03  0.16818479929E+03  0.92237588760E+02 0.  0.
        -11    1    4    4    0    0  0.32166264435E+02  0.92456877568E+02 -0.69978559383E+02  0.12033262879E+03  0.00000000000E+00 0.  1.
         11    1    4    4    0    0  0.24072418012E+02 -0.19648198332E+02 -0.36390894680E+02  0.47852170507E+02  0.00000000000E+00 0. -1.
        -13    1    3    3    0    0 -0.25381291701E+02 -0.26609484881E+02  0.50263636854E+02  0.62279272988E+02  0.00000000000E+00 0.  1.
         13    1    3    3    0    0  0.23177523928E+02 -0.11794161381E+03  0.13357007139E+02  0.12093730411E+03  0.00000000000E+00 0. -1.
         21    1    1    2  502  501 -0.54034914673E+02  0.71742419460E+02 -0.28999767600E+02  0.94380788694E+02  0.00000000000E+00 0.  1.
<scales pt_clust_5="13000.00000" pt_clust_6="13000.00000" pt_clust_7="13000.00000" pt_clust_8="13000.00000" pt_clust_9="89.81507"></scales>
<clustering>
<clus scale="   89.815">  2  9  1 -1</clus>
<clus scale="   92.238">  5  6 -1 -1</clus>
<clus scale="   92.849">  7  8 -1 -1</clus>
<clus scale="  154.691">  2  5  1 -1</clus>
<clus scale="   89.815">  2  5  1 -1</clus>
</clustering>
</event>
<event>
 9    1  0.5300912E-006  0.1474546E+03  0.7546771E-02  0.1218065E+00
          3   -1    0    0  502    0  0.00000000000E+00  0.00000000000E+00  0.34333710832E+03  0.34333710832E+03  0.00000000000E+00 0. -1.
         -3   -1    0    0    0  501 -0.00000000000E+00 -0.00000000000E+00 -0.94671247726E+02  0.94671247726E+02  0.00000000000E+00 0.  1.
         23    2    1    2    0    0 -0.20032530061E+02 -0.44097160488E+02  0.10597899973E+03  0.16532881409E+03  0.11728685588E+03 0.  0.
         23    2    1    2    0    0 -0.34275111853E+02 -0.52218669694E+02  0.11633227476E+03  0.15901062218E+03  0.88598008197E+02 0.  0.
        -11    1    4    4    0    0 -0.13452995892E+02 -0.19328513434E+02 -0.10905041825E+02  0.25951771948E+02  0.00000000000E+00 0.  1.
         11    1    4    4    0    0 -0.20822115961E+02 -0.32890156260E+02  0.12723731659E+03  0.13305885023E+03  0.00000000000E+00 0. -1.
        -13    1    3    3    0    0  0.44207181252E+02 -0.19013272903E+02  0.13524682974E+02  0.49986963003E+02  0.00000000000E+00 0. -1.
         13    1    3    3    0    0 -0.64239711313E+02 -0.25083887585E+02  0.92454316756E+02  0.11534185109E+03  0.00000000000E+00 0.  1.
         21    1    1    2  502  501  0.54307641914E+02  0.96315830182E+02  0.26354586096E+02  0.11366891977E+03  0.00000000000E+00 0.  1.
<scales pt_clust_5="13000.00000" pt_clust_6="13000.00000" pt_clust_7="13000.00000" pt_clust_8="13000.00000" pt_clust_9="89.36810"></scales>
<clustering>
<clus scale="   88.598">  5  6 -1 -1</clus>
<clus scale="  108.403">  1  5  2 -1</clus>
<clus scale="   89.368">  2  9  1 -1</clus>
<clus scale="  117.287">  7  8 -1 -1</clus>
<clus scale="  108.403">  1  5  2 -1</clus>
</clustering>
</event>
<event>
 9    1  0.5300912E-006  0.9614742E+02  0.7546771E-02  0.1290049E+00
          2   -1    0    0  502    0  0.00000000000E+00  0.00000000000E+00  0.57514777777E+03  0.57514777777E+03  0.00000000000E+00 0. -1.
         -2   -1    0    0    0  501 -0.00000000000E+00 -0.00000000000E+00 -0.19029180631E+03  0.19029180631E+03  0.00000000000E+00 0.  1.
         23    2    1    2    0    0 -0.24121471125E+02 -0.30617112929E+02 -0.16500446674E+03  0.19065457960E+03  0.87197716174E+02 0.  0.
         23    2    1    2    0    0  0.52341456694E+02  0.67401444014E+02  0.36612784128E+03  0.38529325858E+03  0.84372484861E+02 0.  0.
        -11    1    4    4    0    0  0.14273175214E+02  0.58590003133E+02  0.31616799662E+03  0.32186754121E+03  0.00000000000E+00 0.  1.
         11    1    4    4    0    0  0.38068281480E+02  0.88114408816E+01  0.49959844661E+02  0.63425717369E+02  0.00000000000E+00 0. -1.
        -13    1    3    3    0    0 -0.55911395217E+02 -0.22877606295E+02 -0.85571327788E+02  0.10474693850E+03  0.00000000000E+00 0.  1.
         13    1    3    3    0    0  0.31789924092E+02 -0.77395066348E+01 -0.79433138949E+02  0.85907641103E+02  0.00000000000E+00 0. -1.
         21    1    1    2  502  501 -0.28219985569E+02 -0.36784331085E+02  0.18373259691E+03  0.18949174590E+03  0.00000000000E+00 0.  1.
<scales pt_clust_5="13000.00000" pt_clust_6="13000.00000" pt_clust_7="13000.00000" pt_clust_8="13000.00000" pt_clust_9="46.36221"></scales>
<clustering>
<clus scale="   46.362">  1  9  2 -1</clus>
<clus scale="   84.372">  5  6 -1 -1</clus>
<clus scale="   87.198">  7  8 -1 -1</clus>
<clus scale="   93.593">  1  5  2 -1</clus>
<clus scale="   46.362">  1  5  2 -1</clus>
</clustering>
</event>
<event>
 9    1  0.5300912E-006  0.1189471E+03  0.7546771E-02  0.1245222E+00
          1   -1    0    0  502    0  0.00000000000E+00  0.00000000000E+00  0.15445271406E+03  0.15445271406E+03  0.00000000000E+00 0. -1.
         -1   -1    0    0    0  501 -0.00000000000E+00 -0.00000000000E+00 -0.18628216410E+03  0.18628216410E+03  0.00000000000E+00 0.  1.
         23    2    1    2    0    0  0.25872414816E+02  0.75721038070E+02 -0.10856684951E+03  0.16316123342E+03  0.91824668924E+02 0.  0.
         23    2    1    2    0    0  0.15300370462E+02 -0.58679454978E+02  0.72991003281E+02  0.13285620646E+03  0.92982284666E+02 0.  0.
        -11    1    4    4    0    0 -0.37529824345E+02 -0.93752071324E+01  0.27600155409E+02  0.47520004238E+02  0.00000000000E+00 0.  1.
         11    1    4    4    0    0  0.52830194806E+02 -0.49304247846E+02  0.45390847872E+02  0.85336202221E+02  0.00000000000E+00 0. -1.
        -13    1    3    3    0    0  0.44868625915E+02  0.12594561824E+02 -0.77155008787E+02  0.90137184114E+02  0.00000000000E+00 0.  1.
         13    1    3    3    0    0 -0.18996211098E+02  0.63126476246E+02 -0.31411840728E+02  0.73024049307E+02  0.00000000000E+00 0. -1.
         21    1    1    2  502  501 -0.41172785278E+02 -0.17041583092E+02  0.37463962022E+01  0.44717438280E+02  0.00000000000E+00 0.  1.
<scales pt_clust_5="13000.00000" pt_clust_6="13000.00000" pt_clust_7="13000.00000" pt_clust_8="13000.00000" pt_clust_9="44.56023"></scales>
<clustering>
<clus scale="   44.560">  1  9  2 -1</clus>
<clus scale="   91.825">  7  8 -1 -1</clus>
<clus scale="   92.982">  5  6 -1 -1</clus>
<clus scale="  118.044">  2  7  1 -1</clus>
<clus scale="   44.560">  1  5  2 -1</clus>
</clustering>
</event>
<event>
 9    1  0.5300912E-006  0.1024880E+03  0.7546771E-02  0.1275238E+00
         -2   -1    0    0    0  501 -0.00000000000E+00  0.00000000000E+00  0.28826765645E+03  0.28826765645E+03  0.00000000000E+00 0.  1.
          2   -1    0    0  502    0  0.00000000000E+00 -0.00000000000E+00 -0.13972780135E+03  0.13972780135E+03  0.00000000000E+00 0. -1.
         23    2    1    2    0    0  0.16631939045E+02 -0.89977931321E+01  0.21746378059E+03  0.23647175571E+03  0.90944014111E+02 0.  0.
         23    2    1    2    0    0 -0.49058316316E+02  0.77297819878E+01 -0.10176258638E+03  0.14535601378E+03  0.91138788804E+02 0.  0.
        -11    1    4    4    0    0  0.20672542132E+02  0.22836519035E+02 -0.43164668506E+02  0.53028758302E+02  0.00000000000E+00 0.  1.
         11    1    4    4    0    0 -0.69730858448E+02 -0.15106737047E+02 -0.58597917875E+02  0.92327255474E+02  0.00000000000E+00 0. -1.
        -13    1    3    3    0    0  0.19450123716E+02  0.36578056519E+02  0.14516114493E+03  0.15095701219E+03  0.00000000000E+00 0.  1.
         13    1    3    3    0    0 -0.28181846711E+01 -0.45575849652E+02  0.72302635659E+02  0.85514743522E+02  0.00000000000E+00 0. -1.
         21    1    1    2  502  501  0.32426377271E+02  0.12680111443E+01  0.32838660886E+02  0.46167688310E+02  0.00000000000E+00 0.  1.
<scales pt_clust_5="13000.00000" pt_clust_6="13000.00000" pt_clust_7="13000.00000" pt_clust_8="13000.00000" pt_clust_9="32.45116"></scales>
<clustering>
<clus scale="   32.451">  1  9  2 -1</clus>
<clus scale="   90.944">  7  8 -1 -1</clus>
<clus scale="   91.139">  5  6 -1 -1</clus>
<clus scale="  102.315">  1  7  2 -1</clus>
<clus scale="  102.488">  2  5  1 -1</clus>
</clustering>
</event>
<event>
 9    1  0.5300912E-006  0.1920009E+03  0.7546771E-02  0.1157161E+00
          1   -1    0    0  502    0  0.00000000000E+00  0.00000000000E+00  0.41514229193E+03  0.41514229193E+03  0.00000000000E+00 0. -1.
         -1   -1    0    0    0  501 -0.00000000000E+00 -0.00000000000E+00 -0.24341570354E+03  0.24341570354E+03  0.00000000000E+00 0.  1.
         23    2    1    2    0    0  0.78736220938E+02 -0.13485054031E+03  0.31560773692E+02  0.19567168598E+03  0.11361014720E+03 0.  0.
         23    2    1    2    0    0  0.11851859206E+03  0.13064634554E+03  0.17301679145E+03  0.26287050217E+03  0.89727178273E+02 0.  0.
        -13    1    3    3    0    0  0.34479103013E+01 -0.66454701499E+02  0.60481887932E+02  0.89923157221E+02  0.00000000000E+00 0.  1.
         13    1    3    3    0    0  0.75288310636E+02 -0.68395838814E+02 -0.28921114241E+02  0.10574852876E+03  0.00000000000E+00 0. -1.
        -13    1    4    4    0    0  0.96061670666E+02  0.13992112430E+03  0.13125285371E+03  0.21455320367E+03  0.00000000000E+00 0.  1.
         13    1    4    4    0    0  0.22456921398E+02 -0.92747787576E+01  0.41763937732E+02  0.48317298502E+02  0.00000000000E+00 0. -1.
         21    1    1    2  502  501 -0.19725481300E+03  0.42041947721E+01 -0.32850976753E+02  0.20001580732E+03  0.00000000000E+00 0. -1.
<scales pt_clust_5="13000.00000" pt_clust_6="13000.00000" pt_clust_7="13000.00000" pt_clust_8="13000.00000" pt_clust_9="168.49722"></scales>
<clustering>
<clus scale="   89.727">  7  8 -1 -1</clus>
<clus scale="  113.610">  5  6 -1 -1</clus>
<clus scale="  193.110">  2  5  1 -1</clus>
<clus scale="  168.497">  2  9  1 -1</clus>
<clus scale="  190.899">  1  5  2 -1</clus>
</clustering>
</event>
<event>
 9    1  0.5300912E-006  0.1949364E+03  0.7546771E-02  0.1154818E+00
         -2   -1    0    0    0  501 -0.00000000000E+00  0.00000000000E+00  0.26218752829E+03  0.26218752829E+03  0.00000000000E+00 0.  1.
          2   -1    0    0  502    0  0.00000000000E+00 -0.00000000000E+00 -0.43741532592E+03  0.43741532592E+03  0.00000000000E+00 0. -1.
         23    2    1    2    0    0  0.15502917179E+03 -0.83171755927E+02 -0.67711934659E+01  0.20151321306E+03  0.98031326041E+02 0.  0.
         23    2    1    2    0    0 -0.16637153495E+03 -0.99457581282E+02 -0.22092855041E+03  0.30773358227E+03  0.91209841315E+02 0.  0.
        -11    1    3    3    0    0  0.82245561461E+02 -0.96756987322E+02 -0.10161122329E+02  0.12739503673E+03  0.00000000000E+00 0.  1.
         11    1    3    3    0    0  0.72783610330E+02  0.13585231396E+02  0.33899288628E+01  0.74118176329E+02  0.00000000000E+00 0. -1.
        -13    1    4    4    0    0 -0.65112359070E+02 -0.24622556773E+02 -0.23309782647E+02  0.73411413096E+02  0.00000000000E+00 0.  1.
         13    1    4    4    0    0 -0.10125917588E+03 -0.74835024509E+02 -0.19761876776E+03  0.23432216917E+03  0.00000000000E+00 0. -1.
         21    1    1    2  502  501  0.11342363162E+02  0.18262933721E+03  0.52471946248E+02  0.19035605889E+03  0.00000000000E+00 0.  1.
<scales pt_clust_5="13000.00000" pt_clust_6="13000.00000" pt_clust_7="13000.00000" pt_clust_8="13000.00000" pt_clust_9="182.98121"></scales>
<clustering>
<clus scale="   91.210">  7  8 -1 -1</clus>
<clus scale="   98.031">  5  6 -1 -1</clus>
<clus scale="  182.981">  1  9  2 -1</clus>
<clus scale="  191.597">  2  7  1 -1</clus>
<clus scale="  191.597">  2  5  1 -1</clus>
</clustering>
</event>
<event>
 9    1  0.5300912E-006  0.1190432E+03  0.7546771E-02  0.1245452E+00
         -1   -1    0    0    0  501 -0.00000000000E+00  0.00000000000E+00  0.97609578576E+02  0.97609578576E+02  0.00000000000E+00 0.  1.
          1   -1    0    0  502    0  0.00000000000E+00 -0.00000000000E+00 -0.33025591831E+03  0.33025591831E+03  0.00000000000E+00 0. -1.
         23    2    1    2    0    0 -0.30290423414E+02  0.57493232030E+02 -0.77404644463E+01  0.11356512205E+03  0.92812395056E+02 0.  0.
         23    2    1    2    0    0 -0.48678888926E+02 -0.69464378789E+02 -0.18596466217E+03  0.22544161767E+03  0.95111162621E+02 0.  0.
        -11    1    3    3    0    0  0.17788132242E+02 -0.16076877370E+02  0.57299682054E+01  0.24651899932E+02  0.00000000000E+00 0.  1.
         11    1    3    3    0    0 -0.48078555656E+02  0.73570109400E+02 -0.13470432652E+02  0.88913222116E+02  0.00000000000E+00 0. -1.
        -13    1    4    4    0    0 -0.46492193891E+02 -0.32220809149E+01 -0.13195792602E+03  0.13994570424E+03  0.00000000000E+00 0. -1.
         13    1    4    4    0    0 -0.21866950356E+01 -0.66242297874E+02 -0.54006736155E+02  0.85495913428E+02  0.00000000000E+00 0.  1.
         21    1    1    2  502  501  0.78969312340E+02  0.11971146759E+02 -0.38941213119E+02  0.88858757167E+02  0.00000000000E+00 0.  1.
<scales pt_clust_5="13000.00000" pt_clust_6="13000.00000" pt_clust_7="13000.00000" pt_clust_8="13000.00000" pt_clust_9="79.87153"></scales>
<clustering>
<clus scale="   79.872">  1  9  2 -1</clus>
<clus scale="   92.812">  5  6 -1 -1</clus>
<clus scale="   95.111">  7  8 -1 -1</clus>
<clus scale="  117.215">  1  5  2 -1</clus>
<clus scale="  119.043">  2  5  1 -1</clus>
</clustering>
</event>
<event>
 9    1  0.5300912E-006  0.1427243E+03  0.7546771E-02  0.1219739E+00
          2   -1    0    0  502    0  0.00000000000E+00  0.00000000000E+00  0.43555358112E+03  0.43555358112E+03  0.00000000000E+00 0. -1.
         -2   -1    0    0    0  501 -0.00000000000E+00 -0.00000000000E+00 -0.10709566406E+03  0.10709566406E+03  0.00000000000E+00 0.  1.
         23    2    1    2    0    0  0.63974114268E+02  0.23860157523E+02  0.81924415511E+02  0.14152722268E+03  0.93039510367E+02 0.  0.
         23    2    1    2    0    0  0.26551863303E+02  0.95894754988E+02  0.20562659989E+03  0.24552778646E+03  0.90004388027E+02 0.  0.
        -13    1    3    3    0    0  0.59930385378E+02 -0.16146107967E+02  0.15652320468E+02  0.64010491562E+02  0.00000000000E+00 0. -1.
         13    1    3    3    0    0  0.40437288906E+01  0.40006265490E+02  0.66272095043E+02  0.77516731118E+02  0.00000000000E+00 0.  1.
        -13    1    4    4    0    0 -0.30438055542E+02  0.58665343756E+02  0.10243963193E+03  0.12190970418E+03  0.00000000000E+00 0.  1.
         13    1    4    4    0    0  0.56989918845E+02  0.37229411232E+02  0.10318696796E+03  0.12361808228E+03  0.00000000000E+00 0. -1.
         21    1    1    2  502  501 -0.90525977571E+02 -0.11975491251E+03  0.40906901654E+02  0.15559423604E+03  0.00000000000E+00 0.  1.
<scales pt_clust_5="13000.00000" pt_clust_6="13000.00000" pt_clust_7="13000.00000" pt_clust_8="13000.00000" pt_clust_9="110.76744"></scales>
<clustering>
<clus scale="   90.004">  7  8 -1 -1</clus>
<clus scale="   93.040">  5  6 -1 -1</clus>
<clus scale="  115.405">  2  5  1 -1</clus>
<clus scale="  110.767">  2  9  1 -1</clus>
<clus scale="  142.724">  1  5  2 -1</clus>
</clustering>
</event>
<event>
 9    1  0.5300912E-006  0.4809846E+03  0.7546771E-02  0.1067843E+00
         -1   -1    0    0    0  501 -0.00000000000E+00  0.00000000000E+00  0.17737370684E+03  0.17737370684E+03  0.00000000000E+00 0.  1.
          1   -1    0    0  502    0  0.00000000000E+00 -0.00000000000E+00 -0.21745841770E+04  0.21745841770E+04  0.00000000000E+00 0. -1.
         23    2    1    2    0    0 -0.26745266988E+02  0.63382673904E+02 -0.15423698629E+03  0.19339537434E+03  0.94234018374E+02 0.  0.
         23    2    1    2    0    0  0.30749420517E+03 -0.37894220778E+03 -0.15911412087E+04  0.16668133046E+04  0.91577088553E+02 0.  0.
        -11    1    4    4    0    0  0.86076221061E+02 -0.68281598981E+02 -0.26454469850E+03  0.28645312024E+03  0.00000000000E+00 0.  1.
         11    1    4    4    0    0  0.22141798411E+03 -0.31066060880E+03 -0.13265965102E+04  0.13803601844E+04  0.00000000000E+00 0. -1.
        -13    1    3    3    0    0 -0.62260392118E+02  0.39060663353E+02 -0.10162230805E+03  0.12541604898E+03  0.00000000000E+00 0.  1.
         13    1    3    3    0    0  0.35515125130E+02  0.24322010551E+02 -0.52614678245E+02  0.67979325365E+02  0.00000000000E+00 0. -1.
         21    1    1    2  502  501 -0.28074893818E+03  0.31555953388E+03 -0.25183227509E+03  0.49174920487E+03  0.00000000000E+00 0.  1.
<scales pt_clust_5="13000.00000" pt_clust_6="13000.00000" pt_clust_7="13000.00000" pt_clust_8="13000.00000" pt_clust_9="472.18619"></scales>
<clustering>
<clus scale="   91.577">  5  6 -1 -1</clus>
<clus scale="   94.234">  7  8 -1 -1</clus>
<clus scale="  116.674">  1  7  2 -1</clus>
<clus scale="  472.186">  1  9  2 -1</clus>
<clus scale="  480.985">  2  5  1 -1</clus>
</clustering>
</event>
<event>
 9    1  0.5300912E-006  0.2860656E+03  0.7546771E-02  0.1119359E+00
          2   -1    0    0  502    0  0.00000000000E+00  0.00000000000E+00  0.32752195457E+04  0.32752195457E+04  0.00000000000E+00 0. -1.
         -2   -1    0    0    0  501 -0.00000000000E+00 -0.00000000000E+00 -0.82386261677E+02  0.82386261677E+02  0.00000000000E+00 0.  1.
         23    2    1    2    0    0 -0.79647007259E+02  0.78984252106E+02  0.35666332241E+02  0.14764668021E+03  0.89136395910E+02 0.  0.
         23    2    1    2    0    0 -0.79878758242E+02  0.18968631678E+03  0.76688974051E+03  0.79934561788E+03  0.92043619710E+02 0.  0.
        -13    1    3    3    0    0 -0.32920007193E+02  0.73841140019E+02 -0.10779878735E+02  0.81562531952E+02  0.00000000000E+00 0.  1.
         13    1    3    3    0    0 -0.46727000066E+02  0.51431120870E+01  0.46446210976E+02  0.66084148259E+02  0.00000000000E+00 0. -1.
        -13    1    4    4    0    0 -0.93236161258E+02  0.10870820629E+03  0.47215736884E+03  0.49339946983E+03  0.00000000000E+00 0.  1.
         13    1    4    4    0    0  0.13357403016E+02  0.80978110485E+02  0.29473237167E+03  0.30594614804E+03  0.00000000000E+00 0. -1.
         21    1    1    2  502  501  0.15952576550E+03 -0.26867056888E+03  0.23902772113E+04  0.24106135093E+04  0.00000000000E+00 0. -1.
<scales pt_clust_5="13000.00000" pt_clust_6="13000.00000" pt_clust_7="13000.00000" pt_clust_8="13000.00000" pt_clust_9="270.85323"></scales>
<clustering>
<clus scale="   89.136">  5  6 -1 -1</clus>
<clus scale="   92.044">  7  8 -1 -1</clus>
<clus scale="  143.274">  2  5  1 -1</clus>
<clus scale="  270.853">  1  9  2 -1</clus>
<clus scale="  270.853">  1  5  2 -1</clus>
</clustering>
</event>
<event>
 9    1  0.5300912E-006  0.2563794E+03  0.7546771E-02  0.1150407E+00
         -1   -1    0    0    0  501 -0.00000000000E+00  0.00000000000E+00  0.49342926084E+02  0.49342926084E+02  0.00000000000E+00 0.  1.
          1   -1    0    0  502    0  0.00000000000E+00 -0.00000000000E+00 -0.17789110459E+04  0.17789110459E+04  0.00000000000E+00 0. -1.
         23    2    1    2    0    0  0.18095210157E+03 -0.15483132156E+03 -0.80384471128E+03  0.84331451818E+03  0.91085978793E+02 0.  0.
         23    2    1    2    0    0  0.16739819357E+02  0.16429471727E+02 -0.30328554378E+03  0.31735720184E+03  0.90461723419E+02 0.  0.
        -13    1    4    4    0    0 -0.33574097866E+02  0.19011871553E+02 -0.18162295137E+03  0.18567597521E+03  0.00000000000E+00 0.  1.
         13    1    4    4    0    0  0.50313917223E+02 -0.25823998259E+01 -0.12166259241E+03  0.13168122663E+03  0.00000000000E+00 0. -1.
        -13    1    3    3    0    0  0.46729648993E+02 -0.98809414309E+02 -0.32728234638E+03  0.34505172758E+03  0.00000000000E+00 0. -1.
         13    1    3    3    0    0  0.13422245258E+03 -0.56021907248E+02 -0.47656236489E+03  0.49826279060E+03  0.00000000000E+00 0.  1.
         21    1    1    2  502  501 -0.19769192093E+03  0.13840184983E+03 -0.62243786472E+03  0.66758225191E+03  0.00000000000E+00 0.  1.
<scales pt_clust_5="13000.00000" pt_clust_6="13000.00000" pt_clust_7="13000.00000" pt_clust_8="13000.00000" pt_clust_9="239.65337"></scales>
<clustering>
<clus scale="   90.462">  5  6 -1 -1</clus>
<clus scale="   91.086">  7  8 -1 -1</clus>
<clus scale="   93.453">  2  5  1 -1</clus>
<clus scale="  239.653">  1  9  2 -1</clus>
<clus scale="   93.453">  2  5  1 -1</clus>
</clustering>
</event>
<event>
 9    1  0.5300912E-006  0.1061132E+03  0.7546771E-02  0.1270803E+00
          1   -1    0    0  502    0  0.00000000000E+00  0.00000000000E+00  0.45154441222E+03  0.45154441222E+03  0.00000000000E+00 0. -1.
         -1   -1    0    0    0  501 -0.00000000000E+00 -0.00000000000E+00 -0.43016880059E+02  0.43016880059E+02  0.00000000000E+00 0.  1.
         23    2    1    2    0    0 -0.21539164584E+02  0.41045204921E+02  0.82159393547E+02  0.13568039234E+03  0.97521066747E+02 0.  0.
         23    2    1    2    0    0 -0.21432254771E+02 -0.41805528604E+02  0.19075128093E+03  0.21661687405E+03  0.91267602036E+02 0.  0.
        -13    1    4    4    0    0 -0.26019734687E+02 -0.68457395609E+02  0.15796645134E+03  0.17411732067E+03  0.00000000000E+00 0. -1.
         13    1    4    4    0    0  0.45874799156E+01  0.26651867005E+02  0.32784829588E+02  0.42499553385E+02  0.00000000000E+00 0.  1.
        -13    1    3    3    0    0  0.17097402138E+02  0.24789682983E+02  0.88320395255E+02  0.93313138197E+02  0.00000000000E+00 0.  1.
         13    1    3    3    0    0 -0.38636566722E+02  0.16255521938E+02 -0.61610017080E+01  0.42367254143E+02  0.00000000000E+00 0. -1.
         21    1    1    2  502  501  0.42971419355E+02  0.76032368251E+00  0.13561685768E+03  0.14226402589E+03  0.00000000000E+00 0.  1.
<scales pt_clust_5="13000.00000" pt_clust_6="13000.00000" pt_clust_7="13000.00000" pt_clust_8="13000.00000" pt_clust_9="42.97815"></scales>
<clustering>
<clus scale="   42.978">  1  9  2 -1</clus>
<clus scale="   91.268">  5  6 -1 -1</clus>
<clus scale="   97.521">  7  8 -1 -1</clus>
<clus scale="  100.396">  1  5  2 -1</clus>
<clus scale="   42.978">  1  5  2 -1</clus>
</clustering>
</event>
<event>
 9    1  0.5300912E-006  0.1045918E+03  0.7546771E-02  0.1271401E+00
          1   -1    0    0  502    0  0.00000000000E+00  0.00000000000E+00  0.31130569618E+02  0.31130569618E+02  0.00000000000E+00 0. -1.
         -1   -1    0    0    0  501 -0.00000000000E+00 -0.00000000000E+00 -0.54381819809E+03  0.54381819809E+03  0.00000000000E+00 0.  1.
         23    2    1    2    0    0  0.53707148082E+02 -0.43883496011E+02 -0.26115979232E+03  0.28474247073E+03  0.89797653297E+02 0.  0.
         23    2    1    2    0    0 -0.46553289807E+02  0.91732486031E+01 -0.13461446810E+03  0.16803954784E+03  0.88684143660E+02 0.  0.
        -11    1    4    4    0    0 -0.71289590488E+01 -0.35263190299E+02 -0.26510862823E+02  0.44689377875E+02  0.00000000000E+00 0. -1.
         11    1    4    4    0    0 -0.39424330759E+02  0.44436438903E+02 -0.10810360527E+03  0.12335016997E+03  0.00000000000E+00 0.  1.
        -11    1    3    3    0    0  0.37695641026E+02  0.41614843424E+01 -0.20758305150E+03  0.21101896260E+03  0.00000000000E+00 0.  1.
         11    1    3    3    0    0  0.16011507057E+02 -0.48044980354E+02 -0.53576740818E+02  0.73723508137E+02  0.00000000000E+00 0. -1.
         21    1    1    2  502  501 -0.71538582750E+01  0.34710247408E+02 -0.11691336805E+03  0.12216674913E+03  0.00000000000E+00 0.  1.
<scales pt_clust_5="13000.00000" pt_clust_6="13000.00000" pt_clust_7="13000.00000" pt_clust_8="13000.00000" pt_clust_9="35.43979"></scales>
<clustering>
<clus scale="   35.440">  2  9  1 -1</clus>
<clus scale="   88.684">  5  6 -1 -1</clus>
<clus scale="   89.798">  7  8 -1 -1</clus>
<clus scale="  103.637">  1  5  2 -1</clus>
<clus scale="  103.637">  1  5  2 -1</clus>
</clustering>
</event>
<event>
 9    1  0.1248062E-005  0.1149288E+03  0.7546771E-02  0.1251778E+00
         -2   -1    0    0    0  501 -0.00000000000E+00  0.00000000000E+00  0.19419073772E+03  0.19419073772E+03  0.00000000000E+00 0.  1.
          2   -1    0    0  502    0  0.00000000000E+00 -0.00000000000E+00 -0.65125387670E+03  0.65125387670E+03  0.00000000000E+00 0. -1.
         23    2    1    2    0    0 -0.18781202136E+02 -0.58118283293E+02 -0.10756045054E+03  0.15499615514E+03  0.93402832838E+02 0.  0.
         23    2    1    2    0    0 -0.14124643964E+02  0.68595298225E+02 -0.51156219556E+03  0.52475040135E+03  0.93607068537E+02 0.  0.
        -11    1    4    4    0    0  0.39598705775E+02  0.26967206269E+02 -0.24658200779E+03  0.25119310158E+03  0.00000000000E+00 0.  1.
         11    1    4    4    0    0 -0.53723349739E+02  0.41628091956E+02 -0.26498018777E+03  0.27355729977E+03  0.00000000000E+00 0. -1.
        -13    1    3    3    0    0  0.23346201411E+02 -0.55883890113E+02 -0.32103540393E+02  0.68547002854E+02  0.00000000000E+00 0.  1.
         13    1    3    3    0    0 -0.42127403547E+02 -0.22343931794E+01 -0.75456910147E+02  0.86449152289E+02  0.00000000000E+00 0. -1.
         21    1    1    2  502  501  0.32905846100E+02 -0.10477014932E+02  0.16205950713E+03  0.16569805792E+03  0.00000000000E+00 0.  1.
<scales pt_clust_5="13000.00000" pt_clust_6="13000.00000" pt_clust_7="13000.00000" pt_clust_8="13000.00000" pt_clust_9="34.53350"></scales>
<clustering>
<clus scale="   34.533">  1  9  2 -1</clus>
<clus scale="   93.403">  7  8 -1 -1</clus>
<clus scale="   93.607">  5  6 -1 -1</clus>
<clus scale="  114.763">  1  7  2 -1</clus>
<clus scale="  114.929">  2  5  1 -1</clus>
</clustering>
</event>
<event>
 9    1  0.5300912E-006  0.4748387E+03  0.7546771E-02  0.1072872E+00
          1   -1    0    0  502    0  0.00000000000E+00  0.00000000000E+00  0.62954302748E+03  0.62954302748E+03  0.00000000000E+00 0. -1.
         -1   -1    0    0    0  501 -0.00000000000E+00 -0.00000000000E+00 -0.47349829048E+03  0.47349829048E+03  0.00000000000E+00 0.  1.
         23    2    1    2    0    0  0.27881563130E+01 -0.49812861401E+03  0.17977727432E+03  0.53726826315E+03  0.90539650544E+02 0.  0.
         23    2    1    2    0    0  0.31468400666E+02  0.50350335919E+02  0.38419906288E+02  0.11240584793E+03  0.87370297480E+02 0.  0.
        -13    1    3    3    0    0  0.11108833486E+02 -0.36385527292E+03  0.88295511576E+02  0.37457998235E+03  0.00000000000E+00 0.  1.
         13    1    3    3    0    0 -0.83206771731E+01 -0.13427334109E+03  0.91481762747E+02  0.16268828080E+03  0.00000000000E+00 0. -1.
        -13    1    4    4    0    0  0.51458922854E+02  0.17952648684E+01  0.28882137030E+02  0.59037458928E+02  0.00000000000E+00 0.  1.
         13    1    4    4    0    0 -0.19990522188E+02  0.48555071050E+02  0.95377692572E+01  0.53368389000E+02  0.00000000000E+00 0. -1.
         21    1    1    2  502  501 -0.34256556979E+02  0.44777827809E+03 -0.62152443616E+02  0.45336720688E+03  0.00000000000E+00 0. -1.
<scales pt_clust_5="13000.00000" pt_clust_6="13000.00000" pt_clust_7="13000.00000" pt_clust_8="13000.00000" pt_clust_9="466.12703"></scales>
<clustering>
<clus scale="   87.370">  7  8 -1 -1</clus>
<clus scale="   90.540">  5  6 -1 -1</clus>
<clus scale="  105.636">  1  7  2 -1</clus>
<clus scale="  466.127">  2  9  1 -1</clus>
<clus scale="  105.636">  1  5  2 -1</clus>
</clustering>
</event>
<event>
 9    1  0.5300912E-006  0.9745762E+02  0.7546771E-02  0.1286568E+00
         -1   -1    0    0    0  501 -0.00000000000E+00  0.00000000000E+00  0.16873301829E+03  0.16873301829E+03  0.00000000000E+00 0.  1.
          1   -1    0    0  502    0  0.00000000000E+00 -0.00000000000E+00 -0.14371836054E+03  0.14371836054E+03  0.00000000000E+00 0. -1.
         23    2    1    2    0    0  0.46064301297E+02  0.23868513141E+02  0.88887763581E+02  0.13761370091E+03  0.91350262122E+02 0.  0.
         23    2    1    2    0    0 -0.10683619774E+02 -0.24492180920E+02 -0.89007682998E+02  0.13143343210E+03  0.92942846861E+02 0.  0.
        -13    1    4    4    0    0 -0.30267519394E+02  0.26840854841E+02 -0.48591606763E+02  0.63227355367E+02  0.00000000000E+00 0.  1.
         13    1    4    4    0    0  0.19583899620E+02 -0.51333035761E+02 -0.40416076234E+02  0.68206076730E+02  0.00000000000E+00 0. -1.
        -13    1    3    3    0    0  0.51304616252E+02 -0.23231021524E+02  0.59110053008E+02  0.81644610211E+02  0.00000000000E+00 0.  1.
         13    1    3    3    0    0 -0.52403149558E+01  0.47099534665E+02  0.29777710572E+02  0.55969090697E+02  0.00000000000E+00 0. -1.
         21    1    1    2  502  501 -0.35380681523E+02  0.62366777860E+00  0.25134577167E+02  0.43404245827E+02  0.00000000000E+00 0.  1.
<scales pt_clust_5="13000.00000" pt_clust_6="13000.00000" pt_clust_7="13000.00000" pt_clust_8="13000.00000" pt_clust_9="35.38618"></scales>
<clustering>
<clus scale="   35.386">  1  9  2 -1</clus>
<clus scale="   91.350">  7  8 -1 -1</clus>
<clus scale="   92.943">  5  6 -1 -1</clus>
<clus scale="   95.940">  1  7  2 -1</clus>
<clus scale="   97.458">  2  5  1 -1</clus>
</clustering>
</event>
<event>
 9    1  0.5300912E-006  0.1138098E+03  0.7546771E-02  0.1257627E+00
          3   -1    0    0  502    0  0.00000000000E+00  0.00000000000E+00  0.25549094328E+03  0.25549094328E+03  0.00000000000E+00 0. -1.
         -3   -1    0    0    0  501 -0.00000000000E+00 -0.00000000000E+00 -0.24743772649E+03  0.24743772649E+03  0.00000000000E+00 0.  1.
         23    2    1    2    0    0 -0.12420832626E+01 -0.67732845913E+02 -0.15321353369E+03  0.19096242345E+03  0.91667764668E+02 0.  0.
         23    2    1    2    0    0 -0.10130381537E+02  0.19861113892E+02 -0.35056502335E+02  0.10957095172E+03  0.10138908535E+03 0.  0.
        -11    1    4    4    0    0  0.14367480218E+02 -0.14693829115E+02  0.27311032969E+02  0.34179315729E+02  0.00000000000E+00 0. -1.
         11    1    4    4    0    0 -0.24497861755E+02  0.34554943007E+02 -0.62367535304E+02  0.75391635986E+02  0.00000000000E+00 0.  1.
        -13    1    3    3    0    0  0.68252764819E+00 -0.90170812864E+02 -0.13308855658E+03  0.16076008594E+03  0.00000000000E+00 0.  1.
         13    1    3    3    0    0 -0.19246109108E+01  0.22437966951E+02 -0.20124977108E+02  0.30202337519E+02  0.00000000000E+00 0. -1.
         21    1    1    2  502  501  0.11372464799E+02  0.47871732021E+02  0.19632325281E+03  0.20239529460E+03  0.00000000000E+00 0. -1.
<scales pt_clust_5="13000.00000" pt_clust_6="13000.00000" pt_clust_7="13000.00000" pt_clust_8="13000.00000" pt_clust_9="49.20402"></scales>
<clustering>
<clus scale="   49.204">  1  9  2 -1</clus>
<clus scale="   91.668">  7  8 -1 -1</clus>
<clus scale="  101.389">  5  6 -1 -1</clus>
<clus scale="  105.242">  2  7  1 -1</clus>
<clus scale="   49.204">  1  5  2 -1</clus>
</clustering>
</event>
<event>
 9    1  0.5300912E-006  0.1489402E+03  0.7546771E-02  0.1203669E+00
          2   -1    0    0  502    0  0.00000000000E+00  0.00000000000E+00  0.35489194984E+03  0.35489194984E+03  0.00000000000E+00 0. -1.
         -2   -1    0    0    0  501 -0.00000000000E+00 -0.00000000000E+00 -0.18489017126E+03  0.18489017126E+03  0.00000000000E+00 0.  1.
         23    2    1    2    0    0 -0.12931673404E+03  0.39016754909E+02 -0.65350504973E+02  0.17033252002E+03  0.80606166072E+02 0.  0.
         23    2    1    2    0    0  0.17722874511E+02 -0.11501389588E+03  0.14569663206E+03  0.20737896596E+03  0.90753679841E+02 0.  0.
        -11    1    3    3    0    0 -0.11329067149E+03  0.58637405594E+02 -0.38120616930E+02  0.13314016305E+03  0.00000000000E+00 0.  1.
         11    1    3    3    0    0 -0.16026062553E+02 -0.19620650684E+02 -0.27229888043E+02  0.37192356971E+02  0.00000000000E+00 0. -1.
        -11    1    4    4    0    0  0.38450855762E+02 -0.96216964579E+02  0.65846050332E+02  0.12276756463E+03  0.00000000000E+00 0.  1.
         11    1    4    4    0    0 -0.20727981250E+02 -0.18796931299E+02  0.79850581725E+02  0.84611401328E+02  0.00000000000E+00 0. -1.
         21    1    1    2  502  501  0.11159385953E+03  0.75997140968E+02  0.89655651503E+02  0.16207063512E+03  0.00000000000E+00 0. -1.
<scales pt_clust_5="13000.00000" pt_clust_6="13000.00000" pt_clust_7="13000.00000" pt_clust_8="13000.00000" pt_clust_9="135.01391"></scales>
<clustering>
<clus scale="   80.606">  5  6 -1 -1</clus>
<clus scale="   90.754">  7  8 -1 -1</clus>
<clus scale="  135.014">  1  9  2 -1</clus>
<clus scale="  142.984">  2  5  1 -1</clus>
<clus scale="  135.014">  1  5  2 -1</clus>
</clustering>
</event>
<event>
 9    1  0.5300912E-006  0.2192733E+03  0.7546771E-02  0.1134510E+00
          1   -1    0    0  502    0  0.00000000000E+00  0.00000000000E+00  0.20166744168E+04  0.20166744168E+04  0.00000000000E+00 0. -1.
         -1   -1    0    0    0  501 -0.00000000000E+00 -0.00000000000E+00 -0.51380237510E+02  0.51380237510E+02  0.00000000000E+00 0.  1.
         23    2    1    2    0    0  0.63359332410E+01  0.18973654860E+03  0.88445288840E+03  0.90925985152E+03  0.91959033597E+02 0.  0.
         23    2    1    2    0    0 -0.25704280242E+02 -0.20645195362E+03  0.11022793079E+04  0.11254162736E+04  0.90879024882E+02 0.  0.
        -11    1    4    4    0    0 -0.44013730223E+02 -0.15218676665E+03  0.94162759945E+03  0.95486153784E+03  0.00000000000E+00 0. -1.
         11    1    4    4    0    0  0.18309449981E+02 -0.54265186977E+02  0.16065170844E+03  0.17055473579E+03  0.00000000000E+00 0.  1.
        -13    1    3    3    0    0 -0.33988956104E+02  0.13518956609E+03  0.66948212741E+03  0.68384046885E+03  0.00000000000E+00 0. -1.
         13    1    3    3    0    0  0.40324889345E+02  0.54546982517E+02  0.21497076099E+03  0.22541938267E+03  0.00000000000E+00 0.  1.
         21    1    1    2  502  501  0.19368347001E+02  0.16715405022E+02 -0.21438017052E+02  0.33378529113E+02  0.00000000000E+00 0.  1.
<scales pt_clust_5="13000.00000" pt_clust_6="13000.00000" pt_clust_7="13000.00000" pt_clust_8="13000.00000" pt_clust_9="25.58393"></scales>
<clustering>
<clus scale="   25.584">  2  9  1 -1</clus>
<clus scale="   90.879">  5  6 -1 -1</clus>
<clus scale="   91.959">  7  8 -1 -1</clus>
<clus scale="  218.823">  1  5  2 -1</clus>
<clus scale="  218.823">  1  5  2 -1</clus>
</clustering>
</event>
<event>
 9    1  0.5300912E-006  0.9040413E+02  0.7546771E-02  0.1311969E+00
         -1   -1    0    0    0  501 -0.00000000000E+00  0.00000000000E+00  0.85202368285E+02  0.85202368285E+02  0.00000000000E+00 0.  1.
          1   -1    0    0  502    0  0.00000000000E+00 -0.00000000000E+00 -0.11152754779E+03  0.11152754779E+03  0.00000000000E+00 0. -1.
         23    2    1    2    0    0  0.28362297868E+01  0.36025760737E+01  0.16968972447E+01  0.89692008257E+02  0.89558663071E+02 0.  0.
         23    2    1    2    0    0  0.14798133734E+02 -0.18220716680E+02 -0.11191129035E+02  0.78613594063E+02  0.74188115787E+02 0.  0.
        -11    1    4    4    0    0 -0.20548058193E+02  0.17806727921E+02 -0.15833742208E+01  0.27236176837E+02  0.00000000000E+00 0.  1.
         11    1    4    4    0    0  0.35346191927E+02 -0.36027444601E+02 -0.96077548141E+01  0.51377417226E+02  0.00000000000E+00 0. -1.
        -13    1    3    3    0    0  0.16561868330E+02 -0.28916603381E+02 -0.28029913289E+02  0.43544706598E+02  0.00000000000E+00 0. -1.
         13    1    3    3    0    0 -0.13725638543E+02  0.32519179455E+02  0.29726810534E+02  0.46147301659E+02  0.00000000000E+00 0.  1.
         21    1    1    2  502  501 -0.17634363520E+02  0.14618140606E+02 -0.16830947719E+02  0.28424313759E+02  0.00000000000E+00 0.  1.
<scales pt_clust_5="13000.00000" pt_clust_6="13000.00000" pt_clust_7="13000.00000" pt_clust_8="13000.00000" pt_clust_9="22.90548"></scales>
<clustering>
<clus scale="   22.905">  2  9  1 -1</clus>
<clus scale="   74.188">  5  6 -1 -1</clus>
<clus scale="   75.207">  2  5  1 -1</clus>
<clus scale="   89.559">  7  8 -1 -1</clus>
<clus scale="   22.905">  2  5  1 -1</clus>
</clustering>
</event>
<event>
 9    1  0.5300912E-006  0.1071167E+03  0.7546771E-02  0.1267864E+00
         -1   -1    0    0    0  501 -0.00000000000E+00  0.00000000000E+00  0.15801664204E+03  0.15801664204E+03  0.00000000000E+00 0.  1.
          1   -1    0    0  502    0  0.00000000000E+00 -0.00000000000E+00 -0.31881510888E+03  0.31881510888E+03  0.00000000000E+00 0. -1.
         23    2    1    2    0    0 -0.92773473947E+02 -0.61373003139E+02 -0.97683308717E+02  0.17421879859E+03  0.91850955349E+02 0.  0.
         23    2    1    2    0    0  0.43025758203E+01  0.26811999750E+02 -0.14577156872E+03  0.17670169397E+03  0.96107975293E+02 0.  0.
        -13    1    3    3    0    0 -0.92621937744E+02 -0.30693552852E+02 -0.10430752317E+03  0.14283198846E+03  0.00000000000E+00 0. -1.
         13    1    3    3    0    0 -0.15153620293E+00 -0.30679450287E+02  0.66242144511E+01  0.31386810132E+02  0.00000000000E+00 0.  1.
        -13    1    4    4    0    0  0.31382207379E+02  0.53368938154E+02 -0.88278092916E+02  0.10782443224E+03  0.00000000000E+00 0.  1.
         13    1    4    4    0    0 -0.27079631558E+02 -0.26556938404E+02 -0.57493475802E+02  0.68877261723E+02  0.00000000000E+00 0. -1.
         21    1    1    2  502  501  0.88470898126E+02  0.34561003390E+02  0.82656410588E+02  0.12591125836E+03  0.00000000000E+00 0.  1.
<scales pt_clust_5="13000.00000" pt_clust_6="13000.00000" pt_clust_7="13000.00000" pt_clust_8="13000.00000" pt_clust_9="94.98191"></scales>
<clustering>
<clus scale="   91.851">  5  6 -1 -1</clus>
<clus scale="   94.982">  1  9  2 -1</clus>
<clus scale="   96.108">  7  8 -1 -1</clus>
<clus scale="  103.314">  1  5  2 -1</clus>
<clus scale="  107.117">  2  5  1 -1</clus>
</clustering>
</event>
<event>
 9    1  0.5300912E-006  0.1069533E+03  0.7546771E-02  0.1266398E+00
          1   -1    0    0  502    0  0.00000000000E+00  0.00000000000E+00  0.25609984255E+03  0.25609984255E+03  0.00000000000E+00 0. -1.
         -1   -1    0    0    0  501 -0.00000000000E+00 -0.00000000000E+00 -0.11566844922E+03  0.11566844922E+03  0.00000000000E+00 0.  1.
         23    2    1    2    0    0  0.83676512572E+02 -0.51682742354E+02 -0.30161822436E+01  0.13462942079E+03  0.91886446088E+02 0.  0.
         23    2    1    2    0    0 -0.20127620374E+02  0.41968661431E+02  0.13872106768E+03  0.17267830207E+03  0.91693902421E+02 0.  0.
        -11    1    3    3    0    0  0.65478213115E+02 -0.66305858569E+02 -0.30979640585E+02  0.98201840125E+02  0.00000000000E+00 0.  1.
         11    1    3    3    0    0  0.18198299457E+02  0.14623116215E+02  0.27963458341E+02  0.36427580669E+02  0.00000000000E+00 0. -1.
        -13    1    4    4    0    0  0.33002242155E+02 -0.14034401726E+01  0.58074825072E+02  0.66811697619E+02  0.00000000000E+00 0.  1.
         13    1    4    4    0    0 -0.53129862530E+02  0.43372101604E+02  0.80646242612E+02  0.10586660445E+03  0.00000000000E+00 0. -1.
         21    1    1    2  502  501 -0.63548892198E+02  0.97140809224E+01  0.47265078836E+01  0.64460568912E+02  0.00000000000E+00 0. -1.
<scales pt_clust_5="13000.00000" pt_clust_6="13000.00000" pt_clust_7="13000.00000" pt_clust_8="13000.00000" pt_clust_9="64.28705"></scales>
<clustering>
<clus scale="   64.287">  2  9  1 -1</clus>
<clus scale="   91.694">  7  8 -1 -1</clus>
<clus scale="   91.886">  5  6 -1 -1</clus>
<clus scale="  106.788">  1  7  2 -1</clus>
<clus scale="  106.788">  1  5  2 -1</clus>
</clustering>
</event>
<event>
 9    1  0.5300912E-006  0.1123652E+03  0.7546771E-02  0.1256626E+00
          1   -1    0    0  502    0  0.00000000000E+00  0.00000000000E+00  0.17337170566E+03  0.17337170566E+03  0.00000000000E+00 0. -1.
         -1   -1    0    0    0  501 -0.00000000000E+00 -0.00000000000E+00 -0.19120114522E+03  0.19120114522E+03  0.00000000000E+00 0.  1.
         23    2    1    2    0    0  0.92589415473E+02  0.11997304368E+02 -0.73245455189E+02  0.14980226855E+03  0.91428047044E+02 0.  0.
         23    2    1    2    0    0 -0.35300013156E+00 -0.54863851802E+02  0.26303312401E+02  0.10897527670E+03  0.90407852788E+02 0.  0.
        -11    1    4    4    0    0  0.19572717660E+02 -0.67847798231E+02  0.40374221220E+02  0.81341826513E+02  0.00000000000E+00 0.  1.
         11    1    4    4    0    0 -0.19925717792E+02  0.12983946430E+02 -0.14070908819E+02  0.27633450190E+02  0.00000000000E+00 0. -1.
        -13    1    3    3    0    0  0.22164396843E+02 -0.34939039870E+02 -0.62153061526E+01  0.41840495037E+02  0.00000000000E+00 0. -1.
         13    1    3    3    0    0  0.70425018631E+02  0.46936344237E+02 -0.67030149036E+02  0.10796177351E+03  0.00000000000E+00 0.  1.
         21    1    1    2  502  501 -0.92236415342E+02  0.42866547434E+02  0.29112703233E+02  0.10579530563E+03  0.00000000000E+00 0. -1.
<scales pt_clust_5="13000.00000" pt_clust_6="13000.00000" pt_clust_7="13000.00000" pt_clust_8="13000.00000" pt_clust_9="101.71085"></scales>
<clustering>
<clus scale="   90.408">  5  6 -1 -1</clus>
<clus scale="   91.428">  7  8 -1 -1</clus>
<clus scale="  101.711">  1  9  2 -1</clus>
<clus scale="  111.537">  1  5  2 -1</clus>
<clus scale="  101.711">  1  5  2 -1</clus>
</clustering>
</event>
