<event>
 9    2  0.3707658E-005  0.1679175E+03  0.7546771E-02  0.1211955E+00
         21   -1    0    0  501  502  0.00000000000E+00  0.00000000000E+00  0.21220806684E+02  0.21220806684E+02  0.00000000000E+00 0. -1.
          2   -1    0    0  502    0 -0.00000000000E+00 -0.00000000000E+00 -0.76658754404E+03  0.76658754404E+03  0.00000000000E+00 0. -1.
         24    2    1    2    0    0  0.90086228872E-01 -0.25303659947E+01 -0.18869643811E+03  0.20636351513E+03  0.83505351630E+02 0.  0.
         23    2    1    2    0    0  0.46715663749E+02 -0.24919140813E+02 -0.27799793919E+03  0.29753897460E+03  0.91887270015E+02 0.  0.
        -13    1    3    3    0    0  0.28206102193E+02 -0.14773984060E+02 -0.16379267599E+03  0.16685890900E+03  0.00000000000E+00 0.  1.
         14    1    3    3    0    0 -0.28116015964E+02  0.12243618065E+02 -0.24903762125E+02  0.39504606123E+02  0.00000000000E+00 0. -1.
        -11    1    4    4    0    0 -0.27754799680E+02 -0.27102762765E+01 -0.86078542880E+02  0.90483092603E+02  0.00000000000E+00 0.  1.
         11    1    4    4    0    0  0.74470463429E+02 -0.22208864537E+02 -0.19191939632E+03  0.20705588200E+03  0.00000000000E+00 0. -1.
          1    1    1    2  501    0 -0.46805749978E+02  0.27449506808E+02 -0.27867236005E+03  0.28390586100E+03  0.00000000000E+00 0. -1.
<scales pt_clust_5="13000.00000" pt_clust_6="13000.00000" pt_clust_7="13000.00000" pt_clust_8="13000.00000" pt_clust_9="13000.00000"></scales>
<clustering>
<clus scale="   83.505">  5  6 -1 -1</clus>
<clus scale="   83.544">  2  5  1 -1</clus>
<clus scale="   91.887">  7  8 -1 -1</clus>
<clus scale="   53.600">  7  9 -1 -1</clus>
<clus scale="  167.917">  1  5  2 -1</clus>
</clustering>
</event>
<event>
 9    2  0.3707658E-005  0.2149000E+03  0.7546771E-02  0.1174002E+00
         21   -1    0    0  501  502  0.00000000000E+00  0.00000000000E+00  0.56442262058E+02  0.56442262058E+02  0.00000000000E+00 0.  1.
          2   -1    0    0  502    0 -0.00000000000E+00 -0.00000000000E+00 -0.56853166576E+03  0.56853166576E+03  0.00000000000E+00 0. -1.
         24    2    1    2    0    0 -0.26038229249E+01 -0.44046386021E+02 -0.29067554582E+02  0.96303783270E+02  0.80514793220E+02 0.  0.
         23    2    1    2    0    0  0.38829970144E+02 -0.55404738641E+02 -0.23622997780E+03  0.26013879128E+03  0.85382297178E+02 0.  0.
        -13    1    3    3    0    0 -0.12076189530E+02 -0.58220262314E+02  0.34806514776E+01  0.59561298107E+02  0.00000000000E+00 0.  1.
         14    1    3    3    0    0  0.94723666050E+01  0.14173876292E+02 -0.32548206060E+02  0.36742485163E+02  0.00000000000E+00 0. -1.
        -13    1    4    4    0    0  0.29888257281E+02 -0.15927119337E+00 -0.18095604688E+02  0.34939722375E+02  0.00000000000E+00 0. -1.
         13    1    4    4    0    0  0.89417128632E+01 -0.55245467448E+02 -0.21813437311E+03  0.22519906890E+03  0.00000000000E+00 0.  1.
          1    1    1    2  501    0 -0.36226147219E+02  0.99451124663E+02 -0.24679187132E+03  0.26853135327E+03  0.00000000000E+00 0. -1.
<scales pt_clust_5="13000.00000" pt_clust_6="13000.00000" pt_clust_7="13000.00000" pt_clust_8="13000.00000" pt_clust_9="13000.00000"></scales>
<clustering>
<clus scale="   80.515">  5  6 -1 -1</clus>
<clus scale="   85.382">  7  8 -1 -1</clus>
<clus scale="   91.812">  2  5  1 -1</clus>
<clus scale="   85.683">  7  9 -1 -1</clus>
<clus scale="  214.900">  1  5  2 -1</clus>
</clustering>
</event>
<event>
 9    2  0.3707658E-005  0.2387930E+03  0.7546771E-02  0.1140877E+00
          2   -1    0    0  502    0 -0.00000000000E+00  0.00000000000E+00  0.31580188331E+03  0.31580188331E+03  0.00000000000E+00 0. -1.
         21   -1    0    0  501  502  0.00000000000E+00 -0.00000000000E+00 -0.12565224788E+03  0.12565224788E+03  0.00000000000E+00 0. -1.
         24    2    1    2    0    0 -0.84391035865E+02 -0.85098179213E+02  0.16400575992E+02  0.14613936365E+03  0.82001144358E+02 0.  0.
         23    2    1    2    0    0  0.55675974969E+01  0.11497462844E+02  0.16265057488E+03  0.18690177826E+03  0.91180455213E+02 0.  0.
        -13    1    3    3    0    0 -0.53530785289E+01 -0.52203273756E+02  0.28438097805E+02  0.59687206731E+02  0.00000000000E+00 0.  1.
         14    1    3    3    0    0 -0.79037957336E+02 -0.32894905457E+02 -0.12037521813E+02  0.86452156921E+02  0.00000000000E+00 0. -1.
        -11    1    4    4    0    0 -0.19390720332E+02 -0.33301677551E+02  0.49993323392E+02  0.63121582256E+02  0.00000000000E+00 0. -1.
         11    1    4    4    0    0  0.24958317829E+02  0.44799140395E+02  0.11265725149E+03  0.12378019600E+03  0.00000000000E+00 0.  1.
          1    1    1    2  501    0  0.78823438368E+02  0.73600716369E+02  0.11098484552E+02  0.10841298928E+03  0.00000000000E+00 0. -1.
<scales pt_clust_5="13000.00000" pt_clust_6="13000.00000" pt_clust_7="13000.00000" pt_clust_8="13000.00000" pt_clust_9="13000.00000"></scales>
<clustering>
<clus scale="   82.001">  5  6 -1 -1</clus>
<clus scale="   91.180">  7  8 -1 -1</clus>
<clus scale="  107.843">  7  9 -1 -1</clus>
<clus scale="  145.216">  1  5  2 -1</clus>
<clus scale="  238.793">  2  5  1 -1</clus>
</clustering>
</event>
<event>
 9    2  0.3707658E-005  0.3143291E+03  0.7546771E-02  0.1115709E+00
         21   -1    0    0  501  502  0.00000000000E+00  0.00000000000E+00  0.22267413564E+03  0.22267413564E+03  0.00000000000E+00 0.  1.
         -3   -1    0    0    0  501 -0.00000000000E+00 -0.00000000000E+00 -0.21097016600E+03  0.21097016600E+03  0.00000000000E+00 0.  1.
         24    2    1    2    0    0  0.70699466153E+02 -0.49642646496E+02 -0.84548171183E+01  0.11866942253E+03  0.80920584813E+02 0.  0.
         23    2    1    2    0    0  0.47674820982E+01  0.13876278134E+03 -0.56167890599E+02  0.17546351617E+03  0.91404459422E+02 0.  0.
        -11    1    3    3    0    0  0.38869277565E+02 -0.70216173173E+02 -0.90434999053E+01  0.80764575180E+02  0.00000000000E+00 0.  1.
         12    1    3    3    0    0  0.31830188588E+02  0.20573526677E+02  0.58868278702E+00  0.37904847353E+02  0.00000000000E+00 0. -1.
        -11    1    4    4    0    0 -0.25044583852E+01  0.11966954173E+03 -0.43629510199E+01  0.11977523480E+03  0.00000000000E+00 0.  1.
         11    1    4    4    0    0  0.72719404834E+01  0.19093239607E+02 -0.51804939579E+02  0.55688281369E+02  0.00000000000E+00 0. -1.
         -4    1    1    2    0  502 -0.75466948251E+02 -0.89120134842E+02  0.76326677352E+02  0.13951136294E+03  0.00000000000E+00 0.  1.
<scales pt_clust_5="13000.00000" pt_clust_6="13000.00000" pt_clust_7="13000.00000" pt_clust_8="13000.00000" pt_clust_9="13000.00000"></scales>
<clustering>
<clus scale="   80.921">  5  6 -1 -1</clus>
<clus scale="   91.404">  7  8 -1 -1</clus>
<clus scale="  116.780">  7  9 -1 -1</clus>
<clus scale="  118.368">  2  5  1 -1</clus>
<clus scale="  314.329">  1  5  2 -1</clus>
</clustering>
</event>
<event>
 9    2  0.3707658E-005  0.6650014E+03  0.7546771E-02  0.1036178E+00
         -1   -1    0    0    0  501 -0.00000000000E+00  0.00000000000E+00  0.45837005151E+03  0.45837005151E+03  0.00000000000E+00 0.  1.
         21   -1    0    0  501  502  0.00000000000E+00 -0.00000000000E+00 -0.32714303843E+03  0.32714303843E+03  0.00000000000E+00 0.  1.
         24    2    1    2    0    0 -0.21454366725E+02  0.70596948935E+02  0.55659642282E+01  0.10874312381E+03  0.79686058800E+02 0.  0.
         23    2    1    2    0    0 -0.14784352637E+03 -0.29218075077E+03 -0.55350017244E+02  0.34431521148E+03  0.90895770185E+02 0.  0.
        -13    1    3    3    0    0 -0.18338062513E+02  0.87406278213E+02  0.12720602092E+02  0.90210618696E+02  0.00000000000E+00 0.  1.
         14    1    3    3    0    0 -0.31163042116E+01 -0.16809329279E+02 -0.71546378639E+01  0.18532505111E+02  0.00000000000E+00 0. -1.
        -11    1    4    4    0    0 -0.12934118065E+03 -0.17571814017E+03 -0.60042472280E+02  0.22629870586E+03  0.00000000000E+00 0.  1.
         11    1    4    4    0    0 -0.18502345724E+02 -0.11646261060E+03  0.46924550354E+01  0.11801650562E+03  0.00000000000E+00 0. -1.
         -2    1    1    2    0  502  0.16929789309E+03  0.22158380183E+03  0.18101106610E+03  0.33245475465E+03  0.00000000000E+00 0.  1.
<scales pt_clust_5="13000.00000" pt_clust_6="13000.00000" pt_clust_7="13000.00000" pt_clust_8="13000.00000" pt_clust_9="13000.00000"></scales>
<clustering>
<clus scale="   79.686">  5  6 -1 -1</clus>
<clus scale="   90.896">  7  8 -1 -1</clus>
<clus scale="  108.601">  1  5  2 -1</clus>
<clus scale="  308.807">  7  9 -1 -1</clus>
<clus scale="  665.001">  2  5  1 -1</clus>
</clustering>
</event>
<event>
 9    2  0.3707658E-005  0.1718913E+03  0.7546771E-02  0.1183550E+00
          4   -1    0    0  502    0 -0.00000000000E+00  0.00000000000E+00  0.17532626051E+03  0.17532626051E+03  0.00000000000E+00 0. -1.
         21   -1    0    0  501  502  0.00000000000E+00 -0.00000000000E+00 -0.26629990245E+03  0.26629990245E+03  0.00000000000E+00 0. -1.
         24    2    1    2    0    0  0.69380851639E+02 -0.98347762548E+02  0.10661986673E+03  0.17972959959E+03  0.80305342378E+02 0.  0.
         23    2    1    2    0    0 -0.52232422365E+02  0.54243297549E+02 -0.17080619364E+03  0.20751979714E+03  0.90659523202E+02 0.  0.
        -13    1    3    3    0    0  0.34207648953E+02 -0.26310244264E+01  0.31475947991E+01  0.34452763161E+02  0.00000000000E+00 0.  1.
         14    1    3    3    0    0  0.35173202685E+02 -0.95716738122E+02  0.10347227193E+03  0.14527683643E+03  0.00000000000E+00 0. -1.
        -13    1    4    4    0    0 -0.24172163394E+02  0.56300795940E+01  0.28830199407E+01  0.24986057779E+02  0.00000000000E+00 0.  1.
         13    1    4    4    0    0 -0.28060258971E+02  0.48613217955E+02 -0.17368921358E+03  0.18253373936E+03  0.00000000000E+00 0. -1.
          3    1    1    2  501    0 -0.17148429274E+02  0.44104465000E+02 -0.26787315031E+02  0.54376766234E+02  0.00000000000E+00 0. -1.
<scales pt_clust_5="13000.00000" pt_clust_6="13000.00000" pt_clust_7="13000.00000" pt_clust_8="13000.00000" pt_clust_9="13000.00000"></scales>
<clustering>
<clus scale="   80.305">  5  6 -1 -1</clus>
<clus scale="   90.660">  7  8 -1 -1</clus>
<clus scale="   47.321">  7  9 -1 -1</clus>
<clus scale="  144.689">  1  5  2 -1</clus>
<clus scale="  171.891">  2  5  1 -1</clus>
</clustering>
</event>
<event>
 9    2  0.3707658E-005  0.1774772E+03  0.7546771E-02  0.1185885E+00
         21   -1    0    0  501  502  0.00000000000E+00  0.00000000000E+00  0.18102024022E+03  0.18102024022E+03  0.00000000000E+00 0. -1.
          2   -1    0    0  502    0 -0.00000000000E+00 -0.00000000000E+00 -0.12617772942E+03  0.12617772942E+03  0.00000000000E+00 0. -1.
         24    2    1    2    0    0 -0.34445806994E+02  0.88739001995E+02  0.22960434216E+02  0.12687983911E+03  0.80685735652E+02 0.  0.
         23    2    1    2    0    0  0.47670328151E+02 -0.20916619784E+02  0.35424103943E+02  0.11112774503E+03  0.91567152436E+02 0.  0.
        -11    1    3    3    0    0  0.10524031829E+01  0.30634633646E+02 -0.28247190178E+02  0.41683235048E+02  0.00000000000E+00 0.  1.
         12    1    3    3    0    0 -0.35498210177E+02  0.58104368349E+02  0.51207624395E+02  0.85196604059E+02  0.00000000000E+00 0. -1.
        -13    1    4    4    0    0 -0.15427107626E+02 -0.20246931877E+02  0.40487012836E+02  0.47823970021E+02  0.00000000000E+00 0.  1.
         13    1    4    4    0    0  0.63097435778E+02 -0.66968790689E+00 -0.50629088926E+01  0.63303775006E+02  0.00000000000E+00 0. -1.
          1    1    1    2  501    0 -0.13224521157E+02 -0.67822382210E+02 -0.35420273639E+01  0.69190385505E+02  0.00000000000E+00 0. -1.
<scales pt_clust_5="13000.00000" pt_clust_6="13000.00000" pt_clust_7="13000.00000" pt_clust_8="13000.00000" pt_clust_9="13000.00000"></scales>
<clustering>
<clus scale="   80.686">  5  6 -1 -1</clus>
<clus scale="   91.567">  7  8 -1 -1</clus>
<clus scale="   69.100">  7  9 -1 -1</clus>
<clus scale="  124.785">  2  5  1 -1</clus>
<clus scale="  177.477">  1  5  2 -1</clus>
</clustering>
</event>
<event>
 9    2  0.3707658E-005  0.2577497E+03  0.7546771E-02  0.1130942E+00
          2   -1    0    0  502    0 -0.00000000000E+00  0.00000000000E+00  0.87291405108E+03  0.87291405108E+03  0.00000000000E+00 0. -1.
         21   -1    0    0  501  502  0.00000000000E+00 -0.00000000000E+00 -0.85605298671E+02  0.85605298671E+02  0.00000000000E+00 0. -1.
         24    2    1    2    0    0  0.77307812925E+02 -0.95977109326E+02  0.19119540084E+02  0.14824187675E+03  0.80137343069E+02 0.  0.
         23    2    1    2    0    0  0.43615656836E+02  0.48717785607E+02  0.21532139446E+03  0.24237012735E+03  0.90023483407E+02 0.  0.
        -13    1    3    3    0    0  0.15556127962E+02 -0.52580973870E+02 -0.25597584961E+02  0.60514364296E+02  0.00000000000E+00 0.  1.
         14    1    3    3    0    0  0.61751684963E+02 -0.43396135456E+02  0.44717125045E+02  0.87727512449E+02  0.00000000000E+00 0. -1.
        -11    1    4    4    0    0  0.13789121259E+02  0.72052680609E+02  0.14487252456E+03  0.16238773667E+03  0.00000000000E+00 0.  1.
         11    1    4    4    0    0  0.29826535576E+02 -0.23334895001E+02  0.70448869901E+02  0.79982390684E+02  0.00000000000E+00 0. -1.
          1    1    1    2  501    0 -0.12092346976E+03  0.47259323718E+02  0.55286781786E+03  0.56790734565E+03  0.00000000000E+00 0. -1.
<scales pt_clust_5="13000.00000" pt_clust_6="13000.00000" pt_clust_7="13000.00000" pt_clust_8="13000.00000" pt_clust_9="13000.00000"></scales>
<clustering>
<clus scale="   80.137">  5  6 -1 -1</clus>
<clus scale="   90.023">  7  8 -1 -1</clus>
<clus scale="  129.830">  7  9 -1 -1</clus>
<clus scale="  147.004">  1  5  2 -1</clus>
<clus scale="  257.750">  2  5  1 -1</clus>
</clustering>
</event>
<event>
 9    2  0.3707658E-005  0.1316850E+03  0.7546771E-02  0.1244180E+00
         21   -1    0    0  501  502  0.00000000000E+00  0.00000000000E+00  0.10735534473E+03  0.10735534473E+03  0.00000000000E+00 0.  1.
          4   -1    0    0  502    0 -0.00000000000E+00 -0.00000000000E+00 -0.12315844696E+03  0.12315844696E+03  0.00000000000E+00 0. -1.
         24    2    1    2    0    0  0.20261632507E+02 -0.17884534241E+02 -0.38607292116E+02  0.96868884298E+02  0.84632543526E+02 0.  0.
         23    2    1    2    0    0  0.71304522982E+01  0.97261774976E+01  0.38691635393E+02  0.10094481535E+03  0.92451994124E+02 0.  0.
        -11    1    3    3    0    0  0.49977551007E+02  0.40849007221E+01 -0.31555357795E+02  0.59246794210E+02  0.00000000000E+00 0.  1.
         12    1    3    3    0    0 -0.29715918500E+02 -0.21969434963E+02 -0.70519343215E+01  0.37622090088E+02  0.00000000000E+00 0. -1.
        -13    1    4    4    0    0 -0.35532408621E+01 -0.23211040269E+02 -0.21283370271E+02  0.31691635507E+02  0.00000000000E+00 0. -1.
         13    1    4    4    0    0  0.10683693160E+02  0.32937217767E+02  0.59975005663E+02  0.69253179841E+02  0.00000000000E+00 0.  1.
          3    1    1    2  501    0 -0.27392084805E+02  0.81583567429E+01 -0.15887445507E+02  0.32700092041E+02  0.00000000000E+00 0. -1.
<scales pt_clust_5="13000.00000" pt_clust_6="13000.00000" pt_clust_7="13000.00000" pt_clust_8="13000.00000" pt_clust_9="13000.00000"></scales>
<clustering>
<clus scale="   84.633">  5  6 -1 -1</clus>
<clus scale="   88.843">  2  5  1 -1</clus>
<clus scale="   92.452">  7  8 -1 -1</clus>
<clus scale="   18.513">  7  9 -1 -1</clus>
<clus scale="  131.685">  1  5  2 -1</clus>
</clustering>
</event>
<event>
 9    2  0.3707658E-005  0.2157330E+03  0.7546771E-02  0.1177132E+00
          2   -1    0    0  502    0 -0.00000000000E+00  0.00000000000E+00  0.33037708360E+03  0.33037708360E+03  0.00000000000E+00 0. -1.
         21   -1    0    0  501  502  0.00000000000E+00 -0.00000000000E+00 -0.27950775504E+03  0.27950775504E+03  0.00000000000E+00 0.  1.
         24    2    1    2    0    0  0.96336904044E+01  0.22601745377E+02  0.28159583054E+03  0.29401231826E+03  0.80891190050E+02 0.  0.
         23    2    1    2    0    0 -0.74283029302E+02 -0.64680037161E+02 -0.17594492964E+03  0.22126205412E+03  0.91097764395E+02 0.  0.
        -11    1    3    3    0    0  0.84926276146E+01  0.21682393175E+02  0.15636797233E+02  0.28049248213E+02  0.00000000000E+00 0.  1.
         12    1    3    3    0    0  0.11410627898E+01  0.91935220202E+00  0.26595903330E+03  0.26596307005E+03  0.00000000000E+00 0. -1.
        -13    1    4    4    0    0  0.13295495371E+02 -0.23028918828E+02 -0.87800705530E+01  0.28003409408E+02  0.00000000000E+00 0. -1.
         13    1    4    4    0    0 -0.87578524673E+02 -0.41651118334E+02 -0.16716485909E+03  0.19325864471E+03  0.00000000000E+00 0.  1.
          1    1    1    2  501    0  0.64649338897E+02  0.42078291784E+02 -0.54781572331E+02  0.94610466263E+02  0.00000000000E+00 0. -1.
<scales pt_clust_5="13000.00000" pt_clust_6="13000.00000" pt_clust_7="13000.00000" pt_clust_8="13000.00000" pt_clust_9="13000.00000"></scales>
<clustering>
<clus scale="   80.891">  5  6 -1 -1</clus>
<clus scale="   84.540">  1  5  2 -1</clus>
<clus scale="   91.098">  7  8 -1 -1</clus>
<clus scale="   86.917">  7  9 -1 -1</clus>
<clus scale="  215.733">  2  5  1 -1</clus>
</clustering>
</event>
<event>
 9    2  0.3707658E-005  0.1594280E+03  0.7546771E-02  0.1214141E+00
         -1   -1    0    0    0  501 -0.00000000000E+00  0.00000000000E+00  0.30520748905E+03  0.30520748905E+03  0.00000000000E+00 0.  1.
         21   -1    0    0  501  502  0.00000000000E+00 -0.00000000000E+00 -0.13576951275E+03  0.13576951275E+03  0.00000000000E+00 0.  1.
         24    2    1    2    0    0  0.45251150535E+02  0.14429931718E+02  0.24677434558E+03  0.26378158154E+03  0.80170166340E+02 0.  0.
         23    2    1    2    0    0 -0.35182828764E+02  0.33025202006E+02 -0.75450731839E+02  0.12864733638E+03  0.92351658427E+02 0.  0.
        -13    1    3    3    0    0  0.66566994183E+02  0.17866923176E+00  0.15991510521E+03  0.17321673566E+03  0.00000000000E+00 0.  1.
         14    1    3    3    0    0 -0.21315843648E+02  0.14251262487E+02  0.86859240366E+02  0.90564845883E+02  0.00000000000E+00 0. -1.
        -11    1    4    4    0    0 -0.61577794425E+02  0.25529544468E+02 -0.76143594472E+02  0.10119994756E+03  0.00000000000E+00 0.  1.
         11    1    4    4    0    0  0.26394965662E+02  0.74956575385E+01  0.69286263295E+00  0.27447388816E+02  0.00000000000E+00 0. -1.
         -2    1    1    2    0  502 -0.10068321771E+02 -0.47455133725E+02 -0.18856374460E+01  0.48548083883E+02  0.00000000000E+00 0.  1.
<scales pt_clust_5="13000.00000" pt_clust_6="13000.00000" pt_clust_7="13000.00000" pt_clust_8="13000.00000" pt_clust_9="13000.00000"></scales>
<clustering>
<clus scale="   80.170">  5  6 -1 -1</clus>
<clus scale="   92.352">  7  8 -1 -1</clus>
<clus scale="   48.511">  7  9 -1 -1</clus>
<clus scale="   93.183">  1  5  2 -1</clus>
<clus scale="  159.428">  2  5  1 -1</clus>
</clustering>
</event>
<event>
 9    2  0.3707658E-005  0.1893753E+03  0.7546771E-02  0.1189698E+00
          2   -1    0    0  502    0 -0.00000000000E+00  0.00000000000E+00  0.27811144387E+03  0.27811144387E+03  0.00000000000E+00 0. -1.
         21   -1    0    0  501  502  0.00000000000E+00 -0.00000000000E+00 -0.91534223740E+02  0.91534223740E+02  0.00000000000E+00 0.  1.
         24    2    1    2    0    0  0.20739512258E+02 -0.40125571071E+02 -0.12120531503E+02  0.95157445084E+02  0.82872451687E+02 0.  0.
         23    2    1    2    0    0 -0.47137843152E+02  0.24230487499E+02  0.28595077507E+02  0.10161704129E+03  0.81848957491E+02 0.  0.
        -11    1    3    3    0    0 -0.93366159910E+01  0.17992921731E+02 -0.20918612503E+02  0.29129125968E+02  0.00000000000E+00 0.  1.
         12    1    3    3    0    0  0.30076128249E+02 -0.58118492802E+02  0.87980809999E+01  0.66028319116E+02  0.00000000000E+00 0. -1.
        -13    1    4    4    0    0 -0.34440854032E+02  0.53047395130E+02  0.74456820305E+01  0.63683881300E+02  0.00000000000E+00 0. -1.
         13    1    4    4    0    0 -0.12696989121E+02 -0.28816907631E+02  0.21149395477E+02  0.37933159995E+02  0.00000000000E+00 0.  1.
          1    1    1    2  501    0  0.26398330894E+02  0.15895083572E+02  0.17010267412E+03  0.17287118123E+03  0.00000000000E+00 0. -1.
<scales pt_clust_5="13000.00000" pt_clust_6="13000.00000" pt_clust_7="13000.00000" pt_clust_8="13000.00000" pt_clust_9="13000.00000"></scales>
<clustering>
<clus scale="   81.849">  7  8 -1 -1</clus>
<clus scale="   30.814">  7  9 -1 -1</clus>
<clus scale="   82.872">  5  6 -1 -1</clus>
<clus scale="   94.382">  1  5  2 -1</clus>
<clus scale="  189.375">  2  5  1 -1</clus>
</clustering>
</event>
<event>
 9    2  0.3707658E-005  0.7800181E+03  0.7546771E-02  0.1020358E+00
          2   -1    0    0  502    0 -0.00000000000E+00  0.00000000000E+00  0.14572262341E+04  0.14572262341E+04  0.00000000000E+00 0. -1.
         21   -1    0    0  501  502  0.00000000000E+00 -0.00000000000E+00 -0.14603403080E+03  0.14603403080E+03  0.00000000000E+00 0. -1.
         24    2    1    2    0    0  0.61642838506E+02  0.38408838104E+02  0.34533471055E+03  0.36176560169E+03  0.79644270794E+02 0.  0.
         23    2    1    2    0    0 -0.11662620987E+03  0.30516157265E+03  0.18484547486E+03  0.38648380342E+03  0.92068574857E+02 0.  0.
        -13    1    3    3    0    0  0.32041263473E+02 -0.46587034231E+01  0.37576141805E+02  0.49601537431E+02  0.00000000000E+00 0.  1.
         14    1    3    3    0    0  0.29601575033E+02  0.43067541527E+02  0.30775856875E+03  0.31216406426E+03  0.00000000000E+00 0. -1.
        -11    1    4    4    0    0 -0.26875139541E+02  0.34248695739E+02  0.62040265575E+02  0.75790770136E+02  0.00000000000E+00 0.  1.
         11    1    4    4    0    0 -0.89751070326E+02  0.27091287691E+03  0.12280520928E+03  0.31069303328E+03  0.00000000000E+00 0. -1.
          1    1    1    2  501    0  0.54983371361E+02 -0.34357041076E+03  0.78101201791E+03  0.85501085981E+03  0.00000000000E+00 0. -1.
<scales pt_clust_5="13000.00000" pt_clust_6="13000.00000" pt_clust_7="13000.00000" pt_clust_8="13000.00000" pt_clust_9="13000.00000"></scales>
<clustering>
<clus scale="   79.644">  5  6 -1 -1</clus>
<clus scale="   92.069">  7  8 -1 -1</clus>
<clus scale="  107.788">  1  5  2 -1</clus>
<clus scale="  330.794">  7  9 -1 -1</clus>
<clus scale="  780.018">  2  5  1 -1</clus>
</clustering>
</event>
<event>
 9    2  0.3707658E-005  0.1878858E+03  0.7546771E-02  0.1191012E+00
          2   -1    0    0  502    0 -0.00000000000E+00  0.00000000000E+00  0.86273765271E+03  0.86273765271E+03  0.00000000000E+00 0. -1.
         21   -1    0    0  501  502  0.00000000000E+00 -0.00000000000E+00 -0.23021826050E+02  0.23021826050E+02  0.00000000000E+00 0.  1.
         24    2    1    2    0    0  0.20179046376E+02 -0.44740002236E+02  0.26891150319E+03  0.28482800468E+03  0.80029581949E+02 0.  0.
         23    2    1    2    0    0 -0.76289545133E+02  0.10108207104E+02  0.31531688119E+03  0.33707245403E+03  0.90944121032E+02 0.  0.
        -11    1    3    3    0    0  0.29977177837E+02 -0.57552115354E+02  0.25620450927E+03  0.26429458516E+03  0.00000000000E+00 0.  1.
         12    1    3    3    0    0 -0.97981314608E+01  0.12812113118E+02  0.12706993921E+02  0.20533419520E+02  0.00000000000E+00 0. -1.
        -11    1    4    4    0    0 -0.29336278373E+02  0.42589005752E+02  0.82592480497E+02  0.97447208654E+02  0.00000000000E+00 0.  1.
         11    1    4    4    0    0 -0.46953266760E+02 -0.32480798648E+02  0.23272440070E+03  0.23962524537E+03  0.00000000000E+00 0. -1.
          1    1    1    2  501    0  0.56110498757E+02  0.34631795132E+02  0.25548744227E+03  0.26385902005E+03  0.00000000000E+00 0. -1.
<scales pt_clust_5="13000.00000" pt_clust_6="13000.00000" pt_clust_7="13000.00000" pt_clust_8="13000.00000" pt_clust_9="13000.00000"></scales>
<clustering>
<clus scale="   80.030">  5  6 -1 -1</clus>
<clus scale="   90.944">  7  8 -1 -1</clus>
<clus scale="   65.937">  7  9 -1 -1</clus>
<clus scale="   93.881">  1  5  2 -1</clus>
<clus scale="  187.886">  2  5  1 -1</clus>
</clustering>
</event>
<event>
 9    2  0.3707658E-005  0.1828468E+03  0.7546771E-02  0.1188336E+00
         -1   -1    0    0    0  501 -0.00000000000E+00  0.00000000000E+00  0.35346515989E+03  0.35346515989E+03  0.00000000000E+00 0.  1.
         21   -1    0    0  501  502  0.00000000000E+00 -0.00000000000E+00 -0.71654930953E+02  0.71654930953E+02  0.00000000000E+00 0.  1.
         24    2    1    2    0    0 -0.48346180821E+02  0.54219832789E+02  0.19448155743E+03  0.22248925526E+03  0.80007806235E+02 0.  0.
         23    2    1    2    0    0 -0.66618941291E+01 -0.48188960190E+01  0.40969728732E+02  0.11536404672E+03  0.10753019116E+03 0.  0.
        -11    1    3    3    0    0 -0.25966103513E+02  0.73817442658E+02  0.14437224872E+03  0.16421510154E+03  0.00000000000E+00 0.  1.
         12    1    3    3    0    0 -0.22380077309E+02 -0.19597609869E+02  0.50109308710E+02  0.58274153724E+02  0.00000000000E+00 0. -1.
        -13    1    4    4    0    0 -0.11619652494E+02 -0.54725632979E+02  0.11244679089E+02  0.57064472633E+02  0.00000000000E+00 0.  1.
         13    1    4    4    0    0  0.49577583653E+01  0.49906736960E+02  0.29725049643E+02  0.58299574084E+02  0.00000000000E+00 0. -1.
         -2    1    1    2    0  502  0.55008074950E+02 -0.49400936770E+02  0.46358942771E+02  0.87266788862E+02  0.00000000000E+00 0.  1.
<scales pt_clust_5="13000.00000" pt_clust_6="13000.00000" pt_clust_7="13000.00000" pt_clust_8="13000.00000" pt_clust_9="13000.00000"></scales>
<clustering>
<clus scale="   80.008">  5  6 -1 -1</clus>
<clus scale="  107.530">  7  8 -1 -1</clus>
<clus scale="   73.935">  7  9 -1 -1</clus>
<clus scale="  108.067">  1  5  2 -1</clus>
<clus scale="  182.847">  2  5  1 -1</clus>
</clustering>
</event>
<event>
 9    2  0.3707658E-005  0.5301714E+03  0.7546771E-02  0.1047117E+00
          2   -1    0    0  502    0 -0.00000000000E+00  0.00000000000E+00  0.20048345869E+04  0.20048345869E+04  0.00000000000E+00 0. -1.
         21   -1    0    0  501  502  0.00000000000E+00 -0.00000000000E+00 -0.62564818610E+02  0.62564818610E+02  0.00000000000E+00 0. -1.
         24    2    1    2    0    0 -0.13188574884E+03 -0.22147697040E+02  0.69178824430E+03  0.70917050306E+03  0.80420496319E+02 0.  0.
         23    2    1    2    0    0 -0.10644468111E+03 -0.16244219001E+03  0.39051875001E+03  0.44696012054E+03  0.97726762038E+02 0.  0.
        -13    1    3    3    0    0 -0.66708121231E+02 -0.49250067736E+02  0.43634476963E+03  0.44415346513E+03  0.00000000000E+00 0.  1.
         14    1    3    3    0    0 -0.65177627610E+02  0.27102370695E+02  0.25544347467E+03  0.26501703792E+03  0.00000000000E+00 0. -1.
        -13    1    4    4    0    0 -0.93886020227E+02 -0.71371343827E+02  0.15985149320E+03  0.19864781245E+03  0.00000000000E+00 0.  1.
         13    1    4    4    0    0 -0.12558660886E+02 -0.91070846178E+02  0.23066725681E+03  0.24831230809E+03  0.00000000000E+00 0. -1.
          1    1    1    2  501    0  0.23833042995E+03  0.18458988705E+03  0.85996277401E+03  0.91126878194E+03  0.00000000000E+00 0. -1.
<scales pt_clust_5="13000.00000" pt_clust_6="13000.00000" pt_clust_7="13000.00000" pt_clust_8="13000.00000" pt_clust_9="13000.00000"></scales>
<clustering>
<clus scale="   80.420">  5  6 -1 -1</clus>
<clus scale="   97.727">  7  8 -1 -1</clus>
<clus scale="  156.051">  1  5  2 -1</clus>
<clus scale="  225.577">  7  9 -1 -1</clus>
<clus scale="  530.171">  2  5  1 -1</clus>
</clustering>
</event>
<event>
 9    2  0.3707658E-005  0.2907977E+03  0.7546771E-02  0.1121353E+00
         21   -1    0    0  501  502  0.00000000000E+00  0.00000000000E+00  0.82774174101E+02  0.82774174101E+02  0.00000000000E+00 0. -1.
          2   -1    0    0  502    0 -0.00000000000E+00 -0.00000000000E+00 -0.62736215800E+03  0.62736215800E+03  0.00000000000E+00 0. -1.
         24    2    1    2    0    0  0.10185227979E+03  0.15346582253E+02 -0.31151988024E+03  0.33746484042E+03  0.78920708627E+02 0.  0.
         23    2    1    2    0    0  0.29869233892E+02 -0.44606247839E+02 -0.35808890386E+01  0.10645528843E+03  0.91858680535E+02 0.  0.
        -11    1    3    3    0    0 -0.80987741663E+00  0.25297419828E+02 -0.82388763141E+02  0.86188883525E+02  0.00000000000E+00 0.  1.
         12    1    3    3    0    0  0.10266215721E+03 -0.99508375753E+01 -0.22913111710E+03  0.25127595690E+03  0.00000000000E+00 0. -1.
        -11    1    4    4    0    0 -0.80320146921E+01 -0.37310668728E+02 -0.38641315612E+02  0.54311605879E+02  0.00000000000E+00 0. -1.
         11    1    4    4    0    0  0.37901248584E+02 -0.72955791114E+01  0.35060426574E+02  0.52143682554E+02  0.00000000000E+00 0.  1.
          1    1    1    2  501    0 -0.13172151368E+03  0.29259665587E+02 -0.22948721462E+03  0.26621620325E+03  0.00000000000E+00 0. -1.
<scales pt_clust_5="13000.00000" pt_clust_6="13000.00000" pt_clust_7="13000.00000" pt_clust_8="13000.00000" pt_clust_9="13000.00000"></scales>
<clustering>
<clus scale="   78.921">  5  6 -1 -1</clus>
<clus scale="   91.859">  7  8 -1 -1</clus>
<clus scale="  129.761">  2  5  1 -1</clus>
<clus scale="   63.942">  7  9 -1 -1</clus>
<clus scale="  290.798">  1  5  2 -1</clus>
</clustering>
</event>
<event>
 9    2  0.3707658E-005  0.1284047E+03  0.7546771E-02  0.1246688E+00
          2   -1    0    0  502    0 -0.00000000000E+00  0.00000000000E+00  0.25896965221E+03  0.25896965221E+03  0.00000000000E+00 0. -1.
         21   -1    0    0  501  502  0.00000000000E+00 -0.00000000000E+00 -0.12985549410E+03  0.12985549410E+03  0.00000000000E+00 0.  1.
         24    2    1    2    0    0  0.43140934314E+02  0.11910299997E+02  0.21556623148E+03  0.23402938567E+03  0.79359673282E+02 0.  0.
         23    2    1    2    0    0 -0.81028569014E+01  0.25486570346E+01 -0.39894819837E+02  0.94759886668E+02  0.85531792503E+02 0.  0.
        -13    1    3    3    0    0  0.19675320478E+02 -0.24298543586E+02  0.29361705150E+02  0.42891108468E+02  0.00000000000E+00 0.  1.
         14    1    3    3    0    0  0.23465613837E+02  0.36208843583E+02  0.18620452633E+03  0.19113827720E+03  0.00000000000E+00 0. -1.
        -11    1    4    4    0    0  0.24020968062E+02  0.12276495148E+02 -0.52404326993E+02  0.58940077429E+02  0.00000000000E+00 0.  1.
         11    1    4    4    0    0 -0.32123824963E+02 -0.97278381136E+01  0.12509507156E+02  0.35819809239E+02  0.00000000000E+00 0. -1.
          1    1    1    2  501    0 -0.35038077413E+02 -0.14458957032E+02 -0.46557253534E+02  0.60035873974E+02  0.00000000000E+00 0. -1.
<scales pt_clust_5="13000.00000" pt_clust_6="13000.00000" pt_clust_7="13000.00000" pt_clust_8="13000.00000" pt_clust_9="13000.00000"></scales>
<clustering>
<clus scale="   79.360">  5  6 -1 -1</clus>
<clus scale="   85.532">  7  8 -1 -1</clus>
<clus scale="   37.904">  7  9 -1 -1</clus>
<clus scale="   91.110">  1  5  2 -1</clus>
<clus scale="  128.405">  2  5  1 -1</clus>
</clustering>
</event>
<event>
 9    2  0.3707658E-005  0.3684693E+03  0.7546771E-02  0.1104431E+00
         21   -1    0    0  501  502  0.00000000000E+00  0.00000000000E+00  0.33879745787E+03  0.33879745787E+03  0.00000000000E+00 0. -1.
          2   -1    0    0  502    0 -0.00000000000E+00 -0.00000000000E+00 -0.20219264210E+03  0.20219264210E+03  0.00000000000E+00 0. -1.
         24    2    1    2    0    0  0.49589103194E+02  0.19391605127E+02 -0.68282683515E+02  0.11938780924E+03  0.82193738339E+02 0.  0.
         23    2    1    2    0    0 -0.41263330419E+02  0.15648065491E+03  0.14551163920E+03  0.23579092642E+03  0.90746162676E+02 0.  0.
        -13    1    3    3    0    0  0.30979998633E+02 -0.15747721260E+02  0.58718476895E+01  0.35245278201E+02  0.00000000000E+00 0.  1.
         14    1    3    3    0    0  0.18609104561E+02  0.35139326387E+02 -0.74154531205E+02  0.84142531039E+02  0.00000000000E+00 0. -1.
        -11    1    4    4    0    0 -0.40820272029E+02  0.52353475510E+02  0.13654781127E+02  0.67776353207E+02  0.00000000000E+00 0.  1.
         11    1    4    4    0    0 -0.44305839024E+00  0.10412717940E+03  0.13185685807E+03  0.16801457321E+03  0.00000000000E+00 0. -1.
          1    1    1    2  501    0 -0.83257727752E+01 -0.17587226004E+03  0.59375860091E+02  0.18581136431E+03  0.00000000000E+00 0. -1.
<scales pt_clust_5="13000.00000" pt_clust_6="13000.00000" pt_clust_7="13000.00000" pt_clust_8="13000.00000" pt_clust_9="13000.00000"></scales>
<clustering>
<clus scale="   82.194">  5  6 -1 -1</clus>
<clus scale="   90.746">  7  8 -1 -1</clus>
<clus scale="   97.933">  2  5  1 -1</clus>
<clus scale="  165.844">  7  9 -1 -1</clus>
<clus scale="  368.469">  1  5  2 -1</clus>
</clustering>
</event>
<event>
 9    2  0.3707658E-005  0.4801018E+03  0.7546771E-02  0.1070624E+00
         21   -1    0    0  501  502  0.00000000000E+00  0.00000000000E+00  0.83894096840E+02  0.83894096840E+02  0.00000000000E+00 0.  1.
          2   -1    0    0  502    0 -0.00000000000E+00 -0.00000000000E+00 -0.11209449657E+04  0.11209449657E+04  0.00000000000E+00 0. -1.
         24    2    1    2    0    0 -0.42077267796E+01 -0.71305371210E+02 -0.82833878337E+02  0.13665002825E+03  0.81912257278E+02 0.  0.
         23    2    1    2    0    0 -0.10631324170E+03  0.16442303050E+03 -0.18144785189E+03  0.28202243326E+03  0.90971927478E+02 0.  0.
        -11    1    3    3    0    0 -0.40510408445E+01 -0.88789034622E+02 -0.57466865518E+02  0.10584112733E+03  0.00000000000E+00 0.  1.
         12    1    3    3    0    0 -0.15668593511E+00  0.17483663413E+02 -0.25367012819E+02  0.30808900924E+02  0.00000000000E+00 0. -1.
        -13    1    4    4    0    0 -0.52233726782E+01  0.48888197736E+02 -0.70291616312E+01  0.49666373063E+02  0.00000000000E+00 0. -1.
         13    1    4    4    0    0 -0.10108986902E+03  0.11553483277E+03 -0.17441869026E+03  0.23235606020E+03  0.00000000000E+00 0.  1.
          1    1    1    2  501    0  0.11052096848E+03 -0.93117659293E+02 -0.77276913866E+03  0.78616660105E+03  0.00000000000E+00 0. -1.
<scales pt_clust_5="13000.00000" pt_clust_6="13000.00000" pt_clust_7="13000.00000" pt_clust_8="13000.00000" pt_clust_9="13000.00000"></scales>
<clustering>
<clus scale="   81.912">  5  6 -1 -1</clus>
<clus scale="   90.972">  7  8 -1 -1</clus>
<clus scale="  108.682">  2  5  1 -1</clus>
<clus scale="  182.857">  7  9 -1 -1</clus>
<clus scale="  480.102">  1  5  2 -1</clus>
</clustering>
</event>
<event>
 9    2  0.3707658E-005  0.1212790E+03  0.7546771E-02  0.1258013E+00
          2   -1    0    0  502    0 -0.00000000000E+00  0.00000000000E+00  0.16170384661E+03  0.16170384661E+03  0.00000000000E+00 0. -1.
         21   -1    0    0  501  502  0.00000000000E+00 -0.00000000000E+00 -0.24077002380E+03  0.24077002380E+03  0.00000000000E+00 0.  1.
         24    2    1    2    0    0  0.29238411974E+02  0.18962040539E+01  0.13278118475E+03  0.15836753823E+03  0.81184689534E+02 0.  0.
         23    2    1    2    0    0 -0.25089788014E+02  0.22633277870E+02 -0.15537803227E+03  0.18239983529E+03  0.89362208315E+02 0.  0.
        -11    1    3    3    0    0  0.38980408209E+02 -0.21041790444E+02  0.32249087667E+02  0.54792634766E+02  0.00000000000E+00 0.  1.
         12    1    3    3    0    0 -0.97419962351E+01  0.22937994498E+02  0.10053209709E+03  0.10357490346E+03  0.00000000000E+00 0. -1.
        -11    1    4    4    0    0 -0.47174648941E+01 -0.21629181310E+02 -0.29014058899E+01  0.22326981778E+02  0.00000000000E+00 0. -1.
         11    1    4    4    0    0 -0.20372323120E+02  0.44262459180E+02 -0.15247662638E+03  0.16007285352E+03  0.00000000000E+00 0.  1.
          1    1    1    2  501    0 -0.41486239599E+01 -0.24529481924E+02 -0.56469329674E+02  0.61706496887E+02  0.00000000000E+00 0. -1.
<scales pt_clust_5="13000.00000" pt_clust_6="13000.00000" pt_clust_7="13000.00000" pt_clust_8="13000.00000" pt_clust_9="13000.00000"></scales>
<clustering>
<clus scale="   81.185">  5  6 -1 -1</clus>
<clus scale="   86.310">  1  5  2 -1</clus>
<clus scale="   89.362">  7  8 -1 -1</clus>
<clus scale="   24.229">  7  9 -1 -1</clus>
<clus scale="  121.279">  2  5  1 -1</clus>
</clustering>
</event>
<event>
 9    2  0.3707658E-005  0.3092926E+03  0.7546771E-02  0.1099083E+00
         21   -1    0    0  501  502  0.00000000000E+00  0.00000000000E+00  0.21916748251E+03  0.21916748251E+03  0.00000000000E+00 0. -1.
          2   -1    0    0  502    0 -0.00000000000E+00 -0.00000000000E+00 -0.30452462023E+03  0.30452462023E+03  0.00000000000E+00 0. -1.
         24    2    1    2    0    0  0.45317946647E+02  0.16471689894E+03 -0.98451327037E+02  0.21412246131E+03  0.83488870859E+02 0.  0.
         23    2    1    2    0    0 -0.28848518106E+02  0.38316650064E+02 -0.21850688396E+02  0.10289354561E+03  0.88369827862E+02 0.  0.
        -13    1    3    3    0    0 -0.21120431166E+02  0.62221421107E+02 -0.50622612330E+02  0.82947132176E+02  0.00000000000E+00 0.  1.
         14    1    3    3    0    0  0.66438377813E+02  0.10249547784E+03 -0.47828714707E+02  0.13117532914E+03  0.00000000000E+00 0. -1.
        -11    1    4    4    0    0  0.20960312849E+02 -0.99355309476E+01 -0.24178745459E+02  0.33506137078E+02  0.00000000000E+00 0.  1.
         11    1    4    4    0    0 -0.49808830956E+02  0.48252181011E+02  0.23280570627E+01  0.69387408535E+02  0.00000000000E+00 0. -1.
          1    1    1    2  501    0 -0.16469428541E+02 -0.20303354901E+03  0.34944877715E+02  0.20667609581E+03  0.00000000000E+00 0. -1.
<scales pt_clust_5="13000.00000" pt_clust_6="13000.00000" pt_clust_7="13000.00000" pt_clust_8="13000.00000" pt_clust_9="13000.00000"></scales>
<clustering>
<clus scale="   83.489">  5  6 -1 -1</clus>
<clus scale="   88.370">  7  8 -1 -1</clus>
<clus scale="  190.147">  2  5  1 -1</clus>
<clus scale="  108.066">  7  9 -1 -1</clus>
<clus scale="  309.293">  1  5  2 -1</clus>
</clustering>
</event>
<event>
 9    2  0.3707658E-005  0.6579292E+03  0.7546771E-02  0.1025470E+00
          2   -1    0    0  502    0 -0.00000000000E+00  0.00000000000E+00  0.35741754247E+03  0.35741754247E+03  0.00000000000E+00 0. -1.
         21   -1    0    0  501  502  0.00000000000E+00 -0.00000000000E+00 -0.53599642446E+03  0.53599642446E+03  0.00000000000E+00 0. -1.
         24    2    1    2    0    0 -0.13183178345E+03  0.29927558002E+01  0.94916700330E+02  0.18090387740E+03  0.79551600493E+02 0.  0.
         23    2    1    2    0    0  0.26168597464E+02 -0.23232455969E+03  0.92388416492E+02  0.26795538452E+03  0.92762988639E+02 0.  0.
        -11    1    3    3    0    0 -0.84589211076E+02 -0.20512890430E+02  0.20067010017E+02  0.89324118777E+02  0.00000000000E+00 0.  1.
         12    1    3    3    0    0 -0.47242572379E+02  0.23505646230E+02  0.74849690313E+02  0.91579758624E+02  0.00000000000E+00 0. -1.
        -13    1    4    4    0    0  0.32412289334E+02 -0.22497465090E+02  0.28006213770E+02  0.48384299572E+02  0.00000000000E+00 0.  1.
         13    1    4    4    0    0 -0.62436918700E+01 -0.20982709460E+03  0.64382202723E+02  0.21957108495E+03  0.00000000000E+00 0. -1.
          1    1    1    2  501    0  0.10566318599E+03  0.22933180389E+03 -0.36588399881E+03  0.44455470500E+03  0.00000000000E+00 0. -1.
<scales pt_clust_5="13000.00000" pt_clust_6="13000.00000" pt_clust_7="13000.00000" pt_clust_8="13000.00000" pt_clust_9="13000.00000"></scales>
<clustering>
<clus scale="   79.552">  5  6 -1 -1</clus>
<clus scale="   92.763">  7  8 -1 -1</clus>
<clus scale="  154.003">  1  5  2 -1</clus>
<clus scale="  244.069">  7  9 -1 -1</clus>
<clus scale="  657.929">  2  5  1 -1</clus>
</clustering>
</event>
<event>
 9    2  0.3707658E-005  0.2267843E+03  0.7546771E-02  0.1163095E+00
          2   -1    0    0  502    0 -0.00000000000E+00  0.00000000000E+00  0.13918191822E+03  0.13918191822E+03  0.00000000000E+00 0. -1.
         21   -1    0    0  501  502  0.00000000000E+00 -0.00000000000E+00 -0.25307991629E+03  0.25307991629E+03  0.00000000000E+00 0. -1.
         24    2    1    2    0    0  0.42409524204E+02  0.42044719825E+02  0.50349064589E+02  0.11224719086E+03  0.80610652780E+02 0.  0.
         23    2    1    2    0    0 -0.35738592655E+02  0.62226328809E+02 -0.52778687028E+02  0.12723325841E+03  0.90847945713E+02 0.  0.
        -13    1    3    3    0    0 -0.21318750850E+02  0.21927063375E+02  0.38281467799E+01  0.30821095921E+02  0.00000000000E+00 0.  1.
         14    1    3    3    0    0  0.63728275054E+02  0.20117656451E+02  0.46520917809E+02  0.81426094934E+02  0.00000000000E+00 0. -1.
        -13    1    4    4    0    0 -0.41201642827E+02  0.53203741583E+01  0.95818169492E+01  0.42634410619E+02  0.00000000000E+00 0. -1.
         13    1    4    4    0    0  0.54630501716E+01  0.56905954651E+02 -0.62360503978E+02  0.84598847795E+02  0.00000000000E+00 0.  1.
          1    1    1    2  501    0 -0.66709315490E+01 -0.10427104863E+03 -0.11146837563E+03  0.15278138524E+03  0.00000000000E+00 0. -1.
<scales pt_clust_5="13000.00000" pt_clust_6="13000.00000" pt_clust_7="13000.00000" pt_clust_8="13000.00000" pt_clust_9="13000.00000"></scales>
<clustering>
<clus scale="   80.611">  5  6 -1 -1</clus>
<clus scale="   90.848">  7  8 -1 -1</clus>
<clus scale="  100.322">  1  5  2 -1</clus>
<clus scale="   89.667">  7  9 -1 -1</clus>
<clus scale="  226.784">  2  5  1 -1</clus>
</clustering>
</event>
<event>
 9    2  0.3707658E-005  0.2696169E+03  0.7546771E-02  0.1120618E+00
         21   -1    0    0  501  502  0.00000000000E+00  0.00000000000E+00  0.36839309759E+02  0.36839309759E+02  0.00000000000E+00 0. -1.
          2   -1    0    0  502    0 -0.00000000000E+00 -0.00000000000E+00 -0.14549922044E+04  0.14549922044E+04  0.00000000000E+00 0. -1.
         24    2    1    2    0    0  0.10395664551E+03 -0.99456831838E+02 -0.31238811881E+03  0.35367114673E+03  0.82451790258E+02 0.  0.
         23    2    1    2    0    0 -0.29601097363E+02 -0.17887714599E+02 -0.22397097415E+03  0.24549088839E+03  0.94374698519E+02 0.  0.
        -11    1    3    3    0    0  0.43443395004E+02 -0.50524883393E+02 -0.60381932041E+02  0.89922578523E+02  0.00000000000E+00 0.  1.
         12    1    3    3    0    0  0.60513250502E+02 -0.48931948445E+02 -0.25200618677E+03  0.26374856821E+03  0.00000000000E+00 0. -1.
        -11    1    4    4    0    0 -0.29900688428E+02 -0.38534109256E+02 -0.21884670206E+03  0.22421598459E+03  0.00000000000E+00 0. -1.
         11    1    4    4    0    0  0.29959106501E+00  0.20646394657E+02 -0.51242720961E+01  0.21274903799E+02  0.00000000000E+00 0.  1.
          1    1    1    2  501    0 -0.74355548143E+02  0.11734454644E+03 -0.88179380173E+03  0.89266947908E+03  0.00000000000E+00 0. -1.
<scales pt_clust_5="13000.00000" pt_clust_6="13000.00000" pt_clust_7="13000.00000" pt_clust_8="13000.00000" pt_clust_9="13000.00000"></scales>
<clustering>
<clus scale="   82.452">  5  6 -1 -1</clus>
<clus scale="   94.375">  7  8 -1 -1</clus>
<clus scale="  138.919">  7  9 -1 -1</clus>
<clus scale="  165.822">  2  5  1 -1</clus>
<clus scale="  269.617">  1  5  2 -1</clus>
</clustering>
</event>
<event>
 9    2  0.3707658E-005  0.1859584E+03  0.7546771E-02  0.1188969E+00
          4   -1    0    0  502    0 -0.00000000000E+00  0.00000000000E+00  0.15290221188E+03  0.15290221188E+03  0.00000000000E+00 0. -1.
         21   -1    0    0  501  502  0.00000000000E+00 -0.00000000000E+00 -0.15448721181E+03  0.15448721181E+03  0.00000000000E+00 0.  1.
         24    2    1    2    0    0  0.52202043785E+02  0.34179300742E+02  0.51994454978E+02  0.11386611008E+03  0.79804697248E+02 0.  0.
         23    2    1    2    0    0  0.30184657627E+02 -0.35708647051E+02 -0.39942876381E+02  0.11000167723E+03  0.91206987608E+02 0.  0.
        -13    1    3    3    0    0  0.50008300427E+02  0.32337585655E+02  0.72124455333E+02  0.93533344934E+02  0.00000000000E+00 0.  1.
         14    1    3    3    0    0  0.21937433585E+01  0.18417150867E+01 -0.20130000355E+02  0.20332765150E+02  0.00000000000E+00 0. -1.
        -11    1    4    4    0    0  0.46507019424E+01  0.30407180907E+02 -0.18754352338E+02  0.36027092734E+02  0.00000000000E+00 0. -1.
         11    1    4    4    0    0  0.25533955685E+02 -0.66115827958E+02 -0.21188524043E+02  0.73974584491E+02  0.00000000000E+00 0.  1.
          3    1    1    2  501    0 -0.82386701412E+02  0.15293463093E+01 -0.13636578528E+02  0.83521636380E+02  0.00000000000E+00 0. -1.
<scales pt_clust_5="13000.00000" pt_clust_6="13000.00000" pt_clust_7="13000.00000" pt_clust_8="13000.00000" pt_clust_9="13000.00000"></scales>
<clustering>
<clus scale="   79.805">  5  6 -1 -1</clus>
<clus scale="   91.207">  7  8 -1 -1</clus>
<clus scale="   82.401">  7  9 -1 -1</clus>
<clus scale="  101.302">  1  5  2 -1</clus>
<clus scale="  185.958">  2  5  1 -1</clus>
</clustering>
</event>
<event>
 9    2  0.3707658E-005  0.3438178E+03  0.7546771E-02  0.1113690E+00
          2   -1    0    0  502    0 -0.00000000000E+00  0.00000000000E+00  0.14549316555E+03  0.14549316555E+03  0.00000000000E+00 0. -1.
         21   -1    0    0  501  502  0.00000000000E+00 -0.00000000000E+00 -0.46468731999E+03  0.46468731999E+03  0.00000000000E+00 0. -1.
         24    2    1    2    0    0 -0.10866056917E+02  0.48403224814E+02  0.48464786021E+02  0.10680810620E+03  0.81229260121E+02 0.  0.
         23    2    1    2    0    0 -0.61349771495E+02  0.11349486909E+03 -0.13498574241E+03  0.21086095089E+03  0.97960758372E+02 0.  0.
        -11    1    3    3    0    0  0.10472878411E+02  0.20223577200E+02 -0.19642219023E+02  0.30074757274E+02  0.00000000000E+00 0.  1.
         12    1    3    3    0    0 -0.21338935327E+02  0.28179647614E+02  0.68107005045E+02  0.76733348922E+02  0.00000000000E+00 0. -1.
        -13    1    4    4    0    0 -0.23794502512E+02 -0.12199507509E+02 -0.71241733094E+01  0.27672372117E+02  0.00000000000E+00 0.  1.
         13    1    4    4    0    0 -0.37555268983E+02  0.12569437660E+03 -0.12786156910E+03  0.18318857877E+03  0.00000000000E+00 0. -1.
          1    1    1    2  501    0  0.72215828412E+02 -0.16189809391E+03 -0.23267319805E+03  0.29251142845E+03  0.00000000000E+00 0. -1.
<scales pt_clust_5="13000.00000" pt_clust_6="13000.00000" pt_clust_7="13000.00000" pt_clust_8="13000.00000" pt_clust_9="13000.00000"></scales>
<clustering>
<clus scale="   81.229">  5  6 -1 -1</clus>
<clus scale="   95.179">  1  5  2 -1</clus>
<clus scale="   97.961">  7  8 -1 -1</clus>
<clus scale="  155.892">  7  9 -1 -1</clus>
<clus scale="  343.818">  2  5  1 -1</clus>
</clustering>
</event>
<event>
 9    2  0.3707658E-005  0.4200019E+03  0.7546771E-02  0.1093521E+00
         21   -1    0    0  501  502  0.00000000000E+00  0.00000000000E+00  0.14515295008E+03  0.14515295008E+03  0.00000000000E+00 0. -1.
          2   -1    0    0  502    0 -0.00000000000E+00 -0.00000000000E+00 -0.67264147948E+03  0.67264147948E+03  0.00000000000E+00 0. -1.
         24    2    1    2    0    0 -0.33411183300E+02 -0.93695301270E+01 -0.35168640701E+03  0.36248358320E+03  0.80665506598E+02 0.  0.
         23    2    1    2    0    0 -0.41334377120E+02  0.38677671105E+01 -0.29676849133E+03  0.31300824408E+03  0.90438559601E+02 0.  0.
        -11    1    3    3    0    0 -0.28005183112E+02 -0.42736625931E+02 -0.16391784429E+03  0.17169673600E+03  0.00000000000E+00 0.  1.
         12    1    3    3    0    0 -0.54060001874E+01  0.33367095804E+02 -0.18776856272E+03  0.19078684720E+03  0.00000000000E+00 0. -1.
        -13    1    4    4    0    0 -0.62807123493E+02 -0.21397393689E+02 -0.19895720692E+03  0.20972971512E+03  0.00000000000E+00 0. -1.
         13    1    4    4    0    0  0.21472746373E+02  0.25265160800E+02 -0.97811284414E+02  0.10327852897E+03  0.00000000000E+00 0.  1.
          1    1    1    2  501    0  0.74745560419E+02  0.55017630164E+01  0.12096636894E+03  0.14230260227E+03  0.00000000000E+00 0. -1.
<scales pt_clust_5="13000.00000" pt_clust_6="13000.00000" pt_clust_7="13000.00000" pt_clust_8="13000.00000" pt_clust_9="13000.00000"></scales>
<clustering>
<clus scale="   80.666">  5  6 -1 -1</clus>
<clus scale="   87.812">  2  5  1 -1</clus>
<clus scale="   90.439">  7  8 -1 -1</clus>
<clus scale="   73.798">  7  9 -1 -1</clus>
<clus scale="  420.002">  1  5  2 -1</clus>
</clustering>
</event>
<event>
 9    2  0.3707658E-005  0.5944558E+03  0.7546771E-02  0.1037622E+00
         21   -1    0    0  501  502  0.00000000000E+00  0.00000000000E+00  0.24095400661E+03  0.24095400661E+03  0.00000000000E+00 0. -1.
          2   -1    0    0  502    0 -0.00000000000E+00 -0.00000000000E+00 -0.61092214795E+03  0.61092214795E+03  0.00000000000E+00 0. -1.
         24    2    1    2    0    0 -0.46823764293E+02 -0.10912022664E+03 -0.17172938668E+03  0.22523726259E+03  0.84505345659E+02 0.  0.
         23    2    1    2    0    0 -0.93540128265E+02 -0.14513602579E+03 -0.26520887283E+03  0.32858980045E+03  0.88438052639E+02 0.  0.
        -13    1    3    3    0    0  0.95544134972E+01 -0.51429204716E+02 -0.11583955598E+03  0.12710252808E+03  0.00000000000E+00 0.  1.
         14    1    3    3    0    0 -0.56378177790E+02 -0.57691021927E+02 -0.55889830703E+02  0.98134734513E+02  0.00000000000E+00 0. -1.
        -13    1    4    4    0    0 -0.77466517204E+02 -0.73523568609E+02 -0.93862721237E+02  0.14218645107E+03  0.00000000000E+00 0.  1.
         13    1    4    4    0    0 -0.16073611060E+02 -0.71612457177E+02 -0.17134615159E+03  0.18640334938E+03  0.00000000000E+00 0. -1.
          1    1    1    2  501    0  0.14036389256E+03  0.25425625243E+03  0.66970118162E+02  0.29804909153E+03  0.00000000000E+00 0. -1.
<scales pt_clust_5="13000.00000" pt_clust_6="13000.00000" pt_clust_7="13000.00000" pt_clust_8="13000.00000" pt_clust_9="13000.00000"></scales>
<clustering>
<clus scale="   84.505">  5  6 -1 -1</clus>
<clus scale="   88.438">  7  8 -1 -1</clus>
<clus scale="  145.742">  2  5  1 -1</clus>
<clus scale="  257.348">  7  9 -1 -1</clus>
<clus scale="  594.456">  1  5  2 -1</clus>
</clustering>
</event>
<event>
 9    2  0.3707658E-005  0.1929430E+03  0.7546771E-02  0.1191147E+00
          2   -1    0    0  502    0 -0.00000000000E+00  0.00000000000E+00  0.54620166307E+03  0.54620166307E+03  0.00000000000E+00 0. -1.
         21   -1    0    0  501  502  0.00000000000E+00 -0.00000000000E+00 -0.37339111547E+02  0.37339111547E+02  0.00000000000E+00 0. -1.
         24    2    1    2    0    0 -0.17449056063E+02 -0.15616265051E+02  0.10533122783E+03  0.13625501670E+03  0.83201110139E+02 0.  0.
         23    2    1    2    0    0 -0.61794100507E+02  0.28313984361E+01  0.26128054718E+03  0.28395108892E+03  0.92380565536E+02 0.  0.
        -13    1    3    3    0    0  0.15537471777E+02 -0.37033520971E+02  0.79883375149E+02  0.89410560506E+02  0.00000000000E+00 0.  1.
         14    1    3    3    0    0 -0.32986527841E+02  0.21417255921E+02  0.25447852682E+02  0.46844456195E+02  0.00000000000E+00 0. -1.
        -13    1    4    4    0    0 -0.54609079587E+02  0.40267107265E+02  0.20532617916E+03  0.21624622852E+03  0.00000000000E+00 0.  1.
         13    1    4    4    0    0 -0.71850209195E+01 -0.37435708829E+02  0.55954368027E+02  0.67704860405E+02  0.00000000000E+00 0. -1.
          1    1    1    2  501    0  0.79243156570E+02  0.12784866614E+02  0.14225077651E+03  0.16333466899E+03  0.00000000000E+00 0. -1.
<scales pt_clust_5="13000.00000" pt_clust_6="13000.00000" pt_clust_7="13000.00000" pt_clust_8="13000.00000" pt_clust_9="13000.00000"></scales>
<clustering>
<clus scale="   83.201">  5  6 -1 -1</clus>
<clus scale="   86.434">  1  5  2 -1</clus>
<clus scale="   92.381">  7  8 -1 -1</clus>
<clus scale="   73.328">  7  9 -1 -1</clus>
<clus scale="  192.943">  2  5  1 -1</clus>
</clustering>
</event>
<event>
 9    2  0.3707658E-005  0.2751044E+03  0.7546771E-02  0.1139325E+00
          2   -1    0    0  502    0 -0.00000000000E+00  0.00000000000E+00  0.99654633769E+03  0.99654633769E+03  0.00000000000E+00 0. -1.
         21   -1    0    0  501  502  0.00000000000E+00 -0.00000000000E+00 -0.39959736737E+02  0.39959736737E+02  0.00000000000E+00 0. -1.
         24    2    1    2    0    0 -0.35413984201E+02 -0.44306591446E+02  0.44343481773E+03  0.45426284642E+03  0.80641625406E+02 0.  0.
         23    2    1    2    0    0 -0.33764919919E+01 -0.88213424449E+02  0.31689561863E+03  0.34227919362E+03  0.94547365509E+02 0.  0.
        -13    1    3    3    0    0  0.25839695937E+02 -0.94845033049E+01  0.14839937646E+03  0.15093051587E+03  0.00000000000E+00 0.  1.
         14    1    3    3    0    0 -0.61253680139E+02 -0.34822088141E+02  0.29503544127E+03  0.30333233055E+03  0.00000000000E+00 0. -1.
        -11    1    4    4    0    0 -0.12803474410E+02  0.18245867637E+02  0.61951201590E+02  0.65839137458E+02  0.00000000000E+00 0.  1.
         11    1    4    4    0    0  0.94269824183E+01 -0.10645929209E+03  0.25494441705E+03  0.27644005616E+03  0.00000000000E+00 0. -1.
          1    1    1    2  501    0  0.38790476193E+02  0.13252001589E+03  0.19625616459E+03  0.23996403438E+03  0.00000000000E+00 0. -1.
<scales pt_clust_5="13000.00000" pt_clust_6="13000.00000" pt_clust_7="13000.00000" pt_clust_8="13000.00000" pt_clust_9="13000.00000"></scales>
<clustering>
<clus scale="   80.642">  5  6 -1 -1</clus>
<clus scale="   94.547">  7  8 -1 -1</clus>
<clus scale="   98.592">  1  5  2 -1</clus>
<clus scale="  117.499">  7  9 -1 -1</clus>
<clus scale="  275.104">  2  5  1 -1</clus>
</clustering>
</event>
<event>
 9    2  0.3707658E-005  0.2095032E+03  0.7546771E-02  0.1159918E+00
         21   -1    0    0  501  502  0.00000000000E+00  0.00000000000E+00  0.30836747234E+02  0.30836747234E+02  0.00000000000E+00 0. -1.
          2   -1    0    0  502    0 -0.00000000000E+00 -0.00000000000E+00 -0.97799307840E+03  0.97799307840E+03  0.00000000000E+00 0. -1.
         24    2    1    2    0    0 -0.86881929705E+02  0.64951743515E+02 -0.40893321850E+03  0.43126967591E+03  0.83665748479E+02 0.  0.
         23    2    1    2    0    0  0.58940504205E+02 -0.10419542436E+02 -0.15620250869E+03  0.19065676893E+03  0.91478029692E+02 0.  0.
        -11    1    3    3    0    0 -0.76164607787E+02  0.61083456136E+01 -0.25180140209E+03  0.26313932709E+03  0.00000000000E+00 0.  1.
         12    1    3    3    0    0 -0.10717321918E+02  0.58843397901E+02 -0.15713181641E+03  0.16813034882E+03  0.00000000000E+00 0. -1.
        -11    1    4    4    0    0 -0.62088228825E+01 -0.31254134767E+02 -0.18357722077E+02  0.36774670378E+02  0.00000000000E+00 0. -1.
         11    1    4    4    0    0  0.65149327087E+02  0.20834592330E+02 -0.13784478661E+03  0.15388209855E+03  0.00000000000E+00 0.  1.
          1    1    1    2  501    0  0.27941425501E+02 -0.54532201078E+02 -0.38202060397E+03  0.38690338079E+03  0.00000000000E+00 0. -1.
<scales pt_clust_5="13000.00000" pt_clust_6="13000.00000" pt_clust_7="13000.00000" pt_clust_8="13000.00000" pt_clust_9="13000.00000"></scales>
<clustering>
<clus scale="   83.666">  5  6 -1 -1</clus>
<clus scale="   91.478">  7  8 -1 -1</clus>
<clus scale="   61.274">  7  9 -1 -1</clus>
<clus scale="  136.993">  2  5  1 -1</clus>
<clus scale="  209.503">  1  5  2 -1</clus>
</clustering>
</event>
<event>
 9    2  0.3707658E-005  0.2037389E+03  0.7546771E-02  0.1186546E+00
         -1   -1    0    0    0  501 -0.00000000000E+00  0.00000000000E+00  0.13806348284E+03  0.13806348284E+03  0.00000000000E+00 0.  1.
         21   -1    0    0  501  502  0.00000000000E+00 -0.00000000000E+00 -0.25347921257E+03  0.25347921257E+03  0.00000000000E+00 0.  1.
         24    2    1    2    0    0  0.13057172121E+02  0.10472948323E+02  0.76521798926E+02  0.11163276293E+03  0.79536882383E+02 0.  0.
         23    2    1    2    0    0  0.34085173749E+02 -0.18292805837E+02 -0.20858700933E+03  0.22930601808E+03  0.87041850017E+02 0.  0.
        -11    1    3    3    0    0 -0.82916322513E+01 -0.31773425155E+02  0.40564749556E+02  0.52190043284E+02  0.00000000000E+00 0.  1.
         12    1    3    3    0    0  0.21348804372E+02  0.42246373477E+02  0.35957049371E+02  0.59442719651E+02  0.00000000000E+00 0. -1.
        -13    1    4    4    0    0  0.17469087539E+02  0.32397621400E+02 -0.12360439566E+03  0.12896829656E+03  0.00000000000E+00 0.  1.
         13    1    4    4    0    0  0.16616086210E+02 -0.50690427236E+02 -0.84982613668E+02  0.10033772152E+03  0.00000000000E+00 0. -1.
         -2    1    1    2    0  502 -0.47142345870E+02  0.78198575142E+01  0.16649480664E+02  0.50603914394E+02  0.00000000000E+00 0.  1.
<scales pt_clust_5="13000.00000" pt_clust_6="13000.00000" pt_clust_7="13000.00000" pt_clust_8="13000.00000" pt_clust_9="13000.00000"></scales>
<clustering>
<clus scale="   79.537">  5  6 -1 -1</clus>
<clus scale="   81.279">  1  5  2 -1</clus>
<clus scale="   87.042">  7  8 -1 -1</clus>
<clus scale="   40.390">  7  9 -1 -1</clus>
<clus scale="  203.739">  2  5  1 -1</clus>
</clustering>
</event>
<event>
 9    2  0.3707658E-005  0.3558581E+03  0.7546771E-02  0.1088501E+00
         21   -1    0    0  501  502  0.00000000000E+00  0.00000000000E+00  0.13601716198E+03  0.13601716198E+03  0.00000000000E+00 0. -1.
          2   -1    0    0  502    0 -0.00000000000E+00 -0.00000000000E+00 -0.58753319686E+03  0.58753319686E+03  0.00000000000E+00 0. -1.
         24    2    1    2    0    0  0.12690784568E+03 -0.66909060009E+02 -0.22798345983E+02  0.16638448429E+03  0.81127112769E+02 0.  0.
         23    2    1    2    0    0  0.22912830418E+02 -0.49143400206E+02 -0.20704515594E+02  0.10728904908E+03  0.90234092804E+02 0.  0.
        -11    1    3    3    0    0  0.83033168626E+02 -0.36673509537E+02  0.25694221753E+02  0.94337937360E+02  0.00000000000E+00 0.  1.
         12    1    3    3    0    0  0.43874677058E+02 -0.30235550472E+02 -0.48492567736E+02  0.72046546933E+02  0.00000000000E+00 0. -1.
        -11    1    4    4    0    0 -0.54767498602E+01 -0.62907435228E+02 -0.35501809112E+02  0.72441139183E+02  0.00000000000E+00 0.  1.
         11    1    4    4    0    0  0.28389580278E+02  0.13764035022E+02  0.14797293518E+02  0.34847909893E+02  0.00000000000E+00 0. -1.
          1    1    1    2  501    0 -0.14982067610E+03  0.11605246021E+03 -0.40801317330E+03  0.44987682547E+03  0.00000000000E+00 0. -1.
<scales pt_clust_5="13000.00000" pt_clust_6="13000.00000" pt_clust_7="13000.00000" pt_clust_8="13000.00000" pt_clust_9="13000.00000"></scales>
<clustering>
<clus scale="   81.127">  5  6 -1 -1</clus>
<clus scale="   90.234">  7  8 -1 -1</clus>
<clus scale="  164.815">  2  5  1 -1</clus>
<clus scale="   69.970">  7  9 -1 -1</clus>
<clus scale="  355.858">  1  5  2 -1</clus>
</clustering>
</event>
<event>
 9    2  0.5150259E-005  0.9577027E+03  0.7546771E-02  0.9664992E-01
          2   -1    0    0  502    0 -0.00000000000E+00  0.00000000000E+00  0.23086123582E+04  0.23086123582E+04  0.00000000000E+00 0. -1.
         21   -1    0    0  501  502  0.00000000000E+00 -0.00000000000E+00 -0.17935156871E+03  0.17935156871E+03  0.00000000000E+00 0. -1.
         24    2    1    2    0    0  0.19209391290E+03  0.25125230285E+03  0.46391778795E+03  0.56688042744E+03  0.78140347939E+02 0.  0.
         23    2    1    2    0    0  0.27361736234E+03  0.97335121568E+02  0.26042936552E+03  0.40049726087E+03  0.90741471643E+02 0.  0.
        -13    1    3    3    0    0  0.53121667917E+02  0.21920851021E+02  0.88830474364E+02  0.10579833877E+03  0.00000000000E+00 0.  1.
         14    1    3    3    0    0  0.13897224499E+03  0.22933145183E+03  0.37508731358E+03  0.46108208866E+03  0.00000000000E+00 0. -1.
        -13    1    4    4    0    0  0.12364221646E+02  0.30262868521E+02  0.15584460967E+02  0.36215888939E+02  0.00000000000E+00 0.  1.
         13    1    4    4    0    0  0.26125314069E+03  0.67072253047E+02  0.24484490456E+03  0.36428137193E+03  0.00000000000E+00 0. -1.
          1    1    1    2  501    0 -0.46571127524E+03 -0.34858742442E+03  0.14049136360E+04  0.15205862386E+04  0.00000000000E+00 0. -1.
<scales pt_clust_5="13000.00000" pt_clust_6="13000.00000" pt_clust_7="13000.00000" pt_clust_8="13000.00000" pt_clust_9="13000.00000"></scales>
<clustering>
<clus scale="   78.140">  5  6 -1 -1</clus>
<clus scale="   90.741">  7  8 -1 -1</clus>
<clus scale="  325.782">  1  5  2 -1</clus>
<clus scale="  340.769">  7  9 -1 -1</clus>
<clus scale="  957.703">  2  5  1 -1</clus>
</clustering>
</event>
<event>
 9    2  0.3707658E-005  0.4929607E+03  0.7546771E-02  0.1070830E+00
         -1   -1    0    0    0  501 -0.00000000000E+00  0.00000000000E+00  0.13748120644E+03  0.13748120644E+03  0.00000000000E+00 0.  1.
         21   -1    0    0  501  502  0.00000000000E+00 -0.00000000000E+00 -0.64513297946E+03  0.64513297946E+03  0.00000000000E+00 0. -1.
         24    2    1    2    0    0 -0.47292879275E+02 -0.27947883281E+02 -0.11575019485E+03  0.15285461568E+03  0.83359014616E+02 0.  0.
         23    2    1    2    0    0 -0.59338113031E+02  0.19654024417E+03 -0.35889495488E+03  0.42756414532E+03  0.10888723748E+03 0.  0.
        -11    1    3    3    0    0  0.71811777094E+01 -0.25176731311E+02 -0.14665882640E+01  0.26221899129E+02  0.00000000000E+00 0.  1.
         12    1    3    3    0    0 -0.54474056984E+02 -0.27711519703E+01 -0.11428360658E+03  0.12663271655E+03  0.00000000000E+00 0. -1.
        -13    1    4    4    0    0 -0.58112248072E+02  0.60419789633E+02 -0.74004538969E+02  0.11182243131E+03  0.00000000000E+00 0. -1.
         13    1    4    4    0    0 -0.12258649588E+01  0.13612045454E+03 -0.28489041591E+03  0.31574171401E+03  0.00000000000E+00 0.  1.
         -2    1    1    2    0  502  0.10663099231E+03 -0.16859236089E+03 -0.33006623292E+02  0.20219542490E+03  0.00000000000E+00 0.  1.
<scales pt_clust_5="13000.00000" pt_clust_6="13000.00000" pt_clust_7="13000.00000" pt_clust_8="13000.00000" pt_clust_9="13000.00000"></scales>
<clustering>
<clus scale="   83.359">  5  6 -1 -1</clus>
<clus scale="   99.832">  1  5  2 -1</clus>
<clus scale="  108.887">  7  8 -1 -1</clus>
<clus scale="  202.112">  7  9 -1 -1</clus>
<clus scale="  492.961">  2  5  1 -1</clus>
</clustering>
</event>
<event>
 9    2  0.3707658E-005  0.3175263E+03  0.7546771E-02  0.1087642E+00
         21   -1    0    0  501  502  0.00000000000E+00  0.00000000000E+00  0.70131986078E+03  0.70131986078E+03  0.00000000000E+00 0. -1.
          2   -1    0    0  502    0 -0.00000000000E+00 -0.00000000000E+00 -0.12979575652E+03  0.12979575652E+03  0.00000000000E+00 0. -1.
         24    2    1    2    0    0  0.13941249723E+03  0.17020785096E+03  0.41269453861E+03  0.47608067408E+03  0.89047566670E+02 0.  0.
         23    2    1    2    0    0  0.17723624471E+02 -0.54052888136E+02  0.10356684218E+03  0.15196425420E+03  0.95557324039E+02 0.  0.
        -11    1    3    3    0    0  0.66107532347E+02  0.79960667352E+02  0.28543536829E+03  0.30370588343E+03  0.00000000000E+00 0.  1.
         12    1    3    3    0    0  0.73304964879E+02  0.90247183604E+02  0.12725917031E+03  0.17237479065E+03  0.00000000000E+00 0. -1.
        -13    1    4    4    0    0  0.29033104771E+02  0.77587594616E+01 -0.88806676635E+00  0.30065065834E+02  0.00000000000E+00 0.  1.
         13    1    4    4    0    0 -0.11309480300E+02 -0.61811647597E+02  0.10445490894E+03  0.12189918837E+03  0.00000000000E+00 0. -1.
          1    1    1    2  501    0 -0.15713612170E+03 -0.11615496282E+03  0.55262723471E+02  0.20307068901E+03  0.00000000000E+00 0. -1.
<scales pt_clust_5="13000.00000" pt_clust_6="13000.00000" pt_clust_7="13000.00000" pt_clust_8="13000.00000" pt_clust_9="13000.00000"></scales>
<clustering>
<clus scale="   89.048">  5  6 -1 -1</clus>
<clus scale="   95.557">  7  8 -1 -1</clus>
<clus scale="  195.407">  7  9 -1 -1</clus>
<clus scale="  237.352">  2  5  1 -1</clus>
<clus scale="  317.526">  1  5  2 -1</clus>
</clustering>
</event>
<event>
 9    2  0.3707658E-005  0.2148339E+03  0.7546771E-02  0.1160596E+00
         21   -1    0    0  501  502  0.00000000000E+00  0.00000000000E+00  0.83489779851E+02  0.83489779851E+02  0.00000000000E+00 0. -1.
          2   -1    0    0  502    0 -0.00000000000E+00 -0.00000000000E+00 -0.49124958312E+03  0.49124958312E+03  0.00000000000E+00 0. -1.
         24    2    1    2    0    0 -0.22531325237E+02 -0.92252556839E+02 -0.31836914219E+03  0.34205011561E+03  0.81370609133E+02 0.  0.
         23    2    1    2    0    0  0.62480522322E+02 -0.12244722422E+01 -0.22114281485E+02  0.11078762898E+03  0.88766785945E+02 0.  0.
        -11    1    3    3    0    0 -0.44913253692E+02 -0.41862415218E+02 -0.22858768104E+03  0.23668964930E+03  0.00000000000E+00 0.  1.
         12    1    3    3    0    0  0.22381928455E+02 -0.50390141622E+02 -0.89781461147E+02  0.10536046630E+03  0.00000000000E+00 0. -1.
        -13    1    4    4    0    0  0.66083076833E+02 -0.28727953074E+02 -0.35109803681E+02  0.80155889653E+02  0.00000000000E+00 0.  1.
         13    1    4    4    0    0 -0.36025545120E+01  0.27503480832E+02  0.12995522195E+02  0.30631739324E+02  0.00000000000E+00 0. -1.
          1    1    1    2  501    0 -0.39949197085E+02  0.93477029082E+02 -0.67276379599E+02  0.12190161839E+03  0.00000000000E+00 0. -1.
<scales pt_clust_5="13000.00000" pt_clust_6="13000.00000" pt_clust_7="13000.00000" pt_clust_8="13000.00000" pt_clust_9="13000.00000"></scales>
<clustering>
<clus scale="   81.371">  5  6 -1 -1</clus>
<clus scale="   88.767">  7  8 -1 -1</clus>
<clus scale="  101.656">  7  9 -1 -1</clus>
<clus scale="  125.057">  2  5  1 -1</clus>
<clus scale="  214.834">  1  5  2 -1</clus>
</clustering>
</event>
<event>
 9    2  0.3708793E-005  0.4939888E+03  0.7546771E-02  0.1045531E+00
          2   -1    0    0  502    0 -0.00000000000E+00  0.00000000000E+00  0.90969401303E+03  0.90969401303E+03  0.00000000000E+00 0. -1.
         21   -1    0    0  501  502  0.00000000000E+00 -0.00000000000E+00 -0.13547419297E+03  0.13547419297E+03  0.00000000000E+00 0. -1.
         24    2    1    2    0    0  0.18126136993E+03  0.39258780635E+02  0.16442837507E+03  0.26039403229E+03  0.79821209211E+02 0.  0.
         23    2    1    2    0    0  0.93112518755E+02 -0.55752846369E+02  0.43790530906E+03  0.46058606670E+03  0.92736961943E+02 0.  0.
        -11    1    3    3    0    0  0.75763272068E+02  0.45908716134E+02  0.11080244418E+03  0.14186213465E+03  0.00000000000E+00 0.  1.
         12    1    3    3    0    0  0.10549809786E+03 -0.66499354991E+01  0.53625930885E+02  0.11853189764E+03  0.00000000000E+00 0. -1.
        -11    1    4    4    0    0  0.81546316487E+02 -0.77389017543E+02  0.29709325093E+03  0.31765273730E+03  0.00000000000E+00 0. -1.
         11    1    4    4    0    0  0.11566202269E+02  0.21636171174E+02  0.14081205813E+03  0.14293332940E+03  0.00000000000E+00 0.  1.
          1    1    1    2  501    0 -0.27437388868E+03  0.16494065734E+02  0.17188613594E+03  0.32418810700E+03  0.00000000000E+00 0. -1.
<scales pt_clust_5="13000.00000" pt_clust_6="13000.00000" pt_clust_7="13000.00000" pt_clust_8="13000.00000" pt_clust_9="13000.00000"></scales>
<clustering>
<clus scale="   79.821">  5  6 -1 -1</clus>
<clus scale="   92.737">  7  8 -1 -1</clus>
<clus scale="  201.912">  1  5  2 -1</clus>
<clus scale="  212.094">  7  9 -1 -1</clus>
<clus scale="  493.989">  2  5  1 -1</clus>
</clustering>
</event>
<event>
 9    2  0.3707658E-005  0.1268025E+03  0.7546771E-02  0.1253304E+00
         -3   -1    0    0    0  501 -0.00000000000E+00  0.00000000000E+00  0.62733378905E+02  0.62733378905E+02  0.00000000000E+00 0.  1.
         21   -1    0    0  501  502  0.00000000000E+00 -0.00000000000E+00 -0.19908789853E+03  0.19908789853E+03  0.00000000000E+00 0.  1.
         24    2    1    2    0    0  0.16967235999E+02 -0.81537579466E+01 -0.10004203077E+03  0.12992183898E+03  0.80727352602E+02 0.  0.
         23    2    1    2    0    0 -0.38488367177E+02 -0.10720993441E+01 -0.19901804319E+02  0.10330597597E+03  0.93773871897E+02 0.  0.
        -13    1    3    3    0    0 -0.16925702927E+01 -0.38714949580E+02 -0.79988886628E+02  0.88881573451E+02  0.00000000000E+00 0.  1.
         14    1    3    3    0    0  0.18659806292E+02  0.30561191633E+02 -0.20053144140E+02  0.41040265530E+02  0.00000000000E+00 0. -1.
        -13    1    4    4    0    0  0.24768506129E+02  0.71603137949E+01 -0.29074332099E+02  0.38859564800E+02  0.00000000000E+00 0. -1.
         13    1    4    4    0    0 -0.63256873306E+02 -0.82324131390E+01  0.91725277803E+01  0.64446411168E+02  0.00000000000E+00 0.  1.
         -4    1    1    2    0  502  0.21521131178E+02  0.92258572908E+01 -0.16410684542E+02  0.28593462488E+02  0.00000000000E+00 0.  1.
<scales pt_clust_5="13000.00000" pt_clust_6="13000.00000" pt_clust_7="13000.00000" pt_clust_8="13000.00000" pt_clust_9="13000.00000"></scales>
<clustering>
<clus scale="   80.727">  5  6 -1 -1</clus>
<clus scale="   82.893">  1  5  2 -1</clus>
<clus scale="   93.774">  7  8 -1 -1</clus>
<clus scale="   25.059">  7  9 -1 -1</clus>
<clus scale="  126.802">  2  5  1 -1</clus>
</clustering>
</event>
<event>
 9    2  0.3707658E-005  0.2289395E+03  0.7546771E-02  0.1175910E+00
         21   -1    0    0  501  502  0.00000000000E+00  0.00000000000E+00  0.41569290052E+02  0.41569290052E+02  0.00000000000E+00 0. -1.
          2   -1    0    0  502    0 -0.00000000000E+00 -0.00000000000E+00 -0.71217578920E+03  0.71217578920E+03  0.00000000000E+00 0. -1.
         24    2    1    2    0    0 -0.13095147635E+02 -0.17479433183E+02 -0.36345420191E+03  0.37065785965E+03  0.69363380487E+02 0.  0.
         23    2    1    2    0    0 -0.55416043849E+02 -0.26476568400E+02 -0.65888034275E+02  0.12846130181E+03  0.91592174399E+02 0.  0.
        -11    1    3    3    0    0  0.19564481347E+02  0.16278373542E+02 -0.11213476509E+03  0.11498678149E+03  0.00000000000E+00 0.  1.
         12    1    3    3    0    0 -0.32659628983E+02 -0.33757806725E+02 -0.25131943683E+03  0.25567107816E+03  0.00000000000E+00 0. -1.
        -11    1    4    4    0    0 -0.68941937441E+01 -0.29450146572E+02 -0.73292005291E+02  0.79287824286E+02  0.00000000000E+00 0. -1.
         11    1    4    4    0    0 -0.48521850104E+02  0.29735781718E+01  0.74039710153E+01  0.49173477521E+02  0.00000000000E+00 0.  1.
          1    1    1    2  501    0  0.68511191484E+02  0.43956001584E+02 -0.24126426296E+03  0.25462591780E+03  0.00000000000E+00 0. -1.
<scales pt_clust_5="13000.00000" pt_clust_6="13000.00000" pt_clust_7="13000.00000" pt_clust_8="13000.00000" pt_clust_9="13000.00000"></scales>
<clustering>
<clus scale="   69.363">  5  6 -1 -1</clus>
<clus scale="   72.721">  2  5  1 -1</clus>
<clus scale="   91.592">  7  8 -1 -1</clus>
<clus scale="   66.926">  7  9 -1 -1</clus>
<clus scale="  228.939">  1  5  2 -1</clus>
</clustering>
</event>
<event>
 9    2  0.3707658E-005  0.1831489E+03  0.7546771E-02  0.1184592E+00
         21   -1    0    0  501  502  0.00000000000E+00  0.00000000000E+00  0.76844181330E+03  0.76844181330E+03  0.00000000000E+00 0. -1.
          4   -1    0    0  502    0 -0.00000000000E+00 -0.00000000000E+00 -0.40407114129E+02  0.40407114129E+02  0.00000000000E+00 0. -1.
         24    2    1    2    0    0 -0.76008748293E+02  0.39583481915E+02  0.97316340241E+02  0.15207715151E+03  0.79453181651E+02 0.  0.
         23    2    1    2    0    0  0.18331714878E+02 -0.15645558693E+01  0.20032784646E+03  0.22087262229E+03  0.91186455141E+02 0.  0.
        -11    1    3    3    0    0 -0.57330692829E+02 -0.83983628259E+01  0.77816374848E+02  0.97019219915E+02  0.00000000000E+00 0.  1.
         12    1    3    3    0    0 -0.18678055464E+02  0.47981844741E+02  0.19499965392E+02  0.55057931590E+02  0.00000000000E+00 0. -1.
        -11    1    4    4    0    0 -0.30677992783E+02  0.22806895557E+02  0.86373241751E+02  0.94454383788E+02  0.00000000000E+00 0. -1.
         11    1    4    4    0    0  0.49009707661E+02 -0.24371451426E+02  0.11395460471E+03  0.12641823850E+03  0.00000000000E+00 0.  1.
          3    1    1    2  501    0  0.57677033415E+02 -0.38018926045E+02  0.43039051246E+03  0.43589915364E+03  0.00000000000E+00 0. -1.
<scales pt_clust_5="13000.00000" pt_clust_6="13000.00000" pt_clust_7="13000.00000" pt_clust_8="13000.00000" pt_clust_9="13000.00000"></scales>
<clustering>
<clus scale="   79.453">  5  6 -1 -1</clus>
<clus scale="   91.186">  7  8 -1 -1</clus>
<clus scale="   69.080">  7  9 -1 -1</clus>
<clus scale="  116.863">  2  5  1 -1</clus>
<clus scale="  183.149">  1  5  2 -1</clus>
</clustering>
</event>
<event>
 9    2  0.3707658E-005  0.6740594E+03  0.7546771E-02  0.1007350E+00
          2   -1    0    0  502    0 -0.00000000000E+00  0.00000000000E+00  0.75291554648E+03  0.75291554648E+03  0.00000000000E+00 0. -1.
         21   -1    0    0  501  502  0.00000000000E+00 -0.00000000000E+00 -0.28284832632E+03  0.28284832632E+03  0.00000000000E+00 0. -1.
         24    2    1    2    0    0 -0.15861456099E+03 -0.17523474698E+03  0.12166514050E+03  0.27698848719E+03  0.77810154311E+02 0.  0.
         23    2    1    2    0    0  0.14125775290E+03  0.37733738046E+02  0.51404445678E+03  0.54280042563E+03  0.94936877870E+02 0.  0.
        -11    1    3    3    0    0 -0.12343428037E+03 -0.93473561766E+02  0.10323005638E+03  0.18609076511E+03  0.00000000000E+00 0.  1.
         12    1    3    3    0    0 -0.35180280617E+02 -0.81761185214E+02  0.18435084125E+02  0.90897722076E+02  0.00000000000E+00 0. -1.
        -11    1    4    4    0    0  0.42614909688E+02  0.14416355384E+02  0.47701664089E+02  0.65569128308E+02  0.00000000000E+00 0.  1.
         11    1    4    4    0    0  0.98642843213E+02  0.23317382662E+02  0.46634279269E+03  0.47723129732E+03  0.00000000000E+00 0. -1.
          1    1    1    2  501    0  0.17356808086E+02  0.13750100893E+03 -0.16564237711E+03  0.21597495998E+03  0.00000000000E+00 0. -1.
<scales pt_clust_5="13000.00000" pt_clust_6="13000.00000" pt_clust_7="13000.00000" pt_clust_8="13000.00000" pt_clust_9="13000.00000"></scales>
<clustering>
<clus scale="   77.810">  5  6 -1 -1</clus>
<clus scale="   94.937">  7  8 -1 -1</clus>
<clus scale="  138.592">  7  9 -1 -1</clus>
<clus scale="  248.838">  1  5  2 -1</clus>
<clus scale="  674.059">  2  5  1 -1</clus>
</clustering>
</event>
<event>
 9    2  0.3707658E-005  0.2114032E+03  0.7546771E-02  0.1166613E+00
         21   -1    0    0  501  502  0.00000000000E+00  0.00000000000E+00  0.10955292015E+03  0.10955292015E+03  0.00000000000E+00 0.  1.
          4   -1    0    0  502    0 -0.00000000000E+00 -0.00000000000E+00 -0.30444254665E+03  0.30444254665E+03  0.00000000000E+00 0. -1.
         24    2    1    2    0    0 -0.80159513185E+02 -0.98495432085E+01 -0.16474827056E+03  0.20045428731E+03  0.80730214881E+02 0.  0.
         23    2    1    2    0    0  0.63833711034E+02 -0.44498158769E+02  0.37207522001E+02  0.12547259322E+03  0.91127071489E+02 0.  0.
        -13    1    3    3    0    0 -0.25080991952E+02  0.35071576312E+02 -0.61744436333E+02  0.75309010353E+02  0.00000000000E+00 0.  1.
         14    1    3    3    0    0 -0.55078521233E+02 -0.44921119521E+02 -0.10300383423E+03  0.12514527696E+03  0.00000000000E+00 0. -1.
        -11    1    4    4    0    0  0.37926499043E+02 -0.11203185777E+02 -0.27542058683E+02  0.48192278404E+02  0.00000000000E+00 0. -1.
         11    1    4    4    0    0  0.25907211991E+02 -0.33294972992E+02  0.64749580684E+02  0.77280314818E+02  0.00000000000E+00 0.  1.
          3    1    1    2  501    0  0.16325802151E+02  0.54347701977E+02 -0.67348877939E+02  0.88068586259E+02  0.00000000000E+00 0. -1.
<scales pt_clust_5="13000.00000" pt_clust_6="13000.00000" pt_clust_7="13000.00000" pt_clust_8="13000.00000" pt_clust_9="13000.00000"></scales>
<clustering>
<clus scale="   80.730">  5  6 -1 -1</clus>
<clus scale="   91.127">  7  8 -1 -1</clus>
<clus scale="   56.747">  7  9 -1 -1</clus>
<clus scale="  114.193">  2  5  1 -1</clus>
<clus scale="  211.403">  1  5  2 -1</clus>
</clustering>
</event>
<event>
 9    2  0.3707658E-005  0.3116909E+03  0.7546771E-02  0.1098498E+00
          2   -1    0    0  502    0 -0.00000000000E+00  0.00000000000E+00  0.68599453289E+03  0.68599453289E+03  0.00000000000E+00 0. -1.
         21   -1    0    0  501  502  0.00000000000E+00 -0.00000000000E+00 -0.93849901882E+02  0.93849901882E+02  0.00000000000E+00 0. -1.
         24    2    1    2    0    0  0.10246132709E+03 -0.13688734394E+03  0.16207611239E+03  0.24870402950E+03  0.79677848885E+02 0.  0.
         23    2    1    2    0    0 -0.62522833892E+02 -0.64971678122E+01  0.33873472017E+03  0.35650918187E+03  0.91685703155E+02 0.  0.
        -13    1    3    3    0    0 -0.94210663423E+01 -0.28496619920E+02  0.11776979097E+02  0.32241449635E+02  0.00000000000E+00 0.  1.
         14    1    3    3    0    0  0.11188239344E+03 -0.10839072401E+03  0.15029913329E+03  0.21646257987E+03  0.00000000000E+00 0. -1.
        -13    1    4    4    0    0  0.27807496241E+01 -0.31382916382E+02  0.18463059914E+03  0.18729943446E+03  0.00000000000E+00 0. -1.
         13    1    4    4    0    0 -0.65303583516E+02  0.24885748569E+02  0.15410412103E+03  0.16920974741E+03  0.00000000000E+00 0.  1.
          1    1    1    2  501    0 -0.39938493203E+02  0.14338451175E+03  0.91333798456E+02  0.17463122341E+03  0.00000000000E+00 0. -1.
<scales pt_clust_5="13000.00000" pt_clust_6="13000.00000" pt_clust_7="13000.00000" pt_clust_8="13000.00000" pt_clust_9="13000.00000"></scales>
<clustering>
<clus scale="   79.678">  5  6 -1 -1</clus>
<clus scale="   91.686">  7  8 -1 -1</clus>
<clus scale="  148.843">  7  9 -1 -1</clus>
<clus scale="  188.640">  1  5  2 -1</clus>
<clus scale="  311.691">  2  5  1 -1</clus>
</clustering>
</event>
<event>
 9    2  0.3707658E-005  0.4462765E+03  0.7546771E-02  0.1076042E+00
          2   -1    0    0  502    0 -0.00000000000E+00  0.00000000000E+00  0.48195638743E+03  0.48195638743E+03  0.00000000000E+00 0. -1.
         21   -1    0    0  501  502  0.00000000000E+00 -0.00000000000E+00 -0.16682089870E+03  0.16682089870E+03  0.00000000000E+00 0. -1.
         24    2    1    2    0    0  0.77290122242E+02  0.33620505425E+02  0.98352075958E+02  0.15263440321E+03  0.80746695400E+02 0.  0.
         23    2    1    2    0    0 -0.94677479766E+02  0.18462768301E+03  0.10295177034E+03  0.24937936297E+03  0.92411001249E+02 0.  0.
        -13    1    3    3    0    0  0.35567309776E+02  0.26581818097E+02 -0.12466826160E+01  0.44420499723E+02  0.00000000000E+00 0.  1.
         14    1    3    3    0    0  0.41722812466E+02  0.70386873275E+01  0.99598758574E+02  0.10821390349E+03  0.00000000000E+00 0. -1.
        -13    1    4    4    0    0 -0.28995418625E+02  0.65782018577E+02 -0.10221946971E+02  0.72611958170E+02  0.00000000000E+00 0.  1.
         13    1    4    4    0    0 -0.65682061140E+02  0.11884566443E+03  0.11317371732E+03  0.17676740480E+03  0.00000000000E+00 0. -1.
          1    1    1    2  501    0  0.17387357524E+02 -0.21824818843E+03  0.11383164242E+03  0.24676351994E+03  0.00000000000E+00 0. -1.
<scales pt_clust_5="13000.00000" pt_clust_6="13000.00000" pt_clust_7="13000.00000" pt_clust_8="13000.00000" pt_clust_9="13000.00000"></scales>
<clustering>
<clus scale="   80.747">  5  6 -1 -1</clus>
<clus scale="   92.411">  7  8 -1 -1</clus>
<clus scale="  116.722">  1  5  2 -1</clus>
<clus scale="  209.019">  7  9 -1 -1</clus>
<clus scale="  446.276">  2  5  1 -1</clus>
</clustering>
</event>
<event>
 9    2  0.3707658E-005  0.1321480E+03  0.7546771E-02  0.1247709E+00
         21   -1    0    0  501  502  0.00000000000E+00  0.00000000000E+00  0.42291545366E+02  0.42291545366E+02  0.00000000000E+00 0.  1.
         -1   -1    0    0    0  501 -0.00000000000E+00 -0.00000000000E+00 -0.32771729186E+03  0.32771729186E+03  0.00000000000E+00 0.  1.
         24    2    1    2    0    0 -0.62204924201E+01 -0.14981582475E+02 -0.19033868570E+03  0.20720634556E+03  0.80265260403E+02 0.  0.
         23    2    1    2    0    0  0.38331890738E+02 -0.10826947617E+02 -0.41599684956E+02  0.95288630116E+02  0.75913322932E+02 0.  0.
        -13    1    3    3    0    0  0.34275460732E+02 -0.16374856453E+02 -0.62893227449E+02  0.73474493474E+02  0.00000000000E+00 0.  1.
         14    1    3    3    0    0 -0.40495953152E+02  0.13932739783E+01 -0.12744545825E+03  0.13373185208E+03  0.00000000000E+00 0. -1.
        -11    1    4    4    0    0 -0.78450141827E+01  0.22148427537E+02 -0.28712603066E+02  0.37101356642E+02  0.00000000000E+00 0. -1.
         11    1    4    4    0    0  0.46176904921E+02 -0.32975375154E+02 -0.12887081890E+02  0.58187273473E+02  0.00000000000E+00 0.  1.
         -2    1    1    2    0  502 -0.32111398318E+02  0.25808530091E+02 -0.53487375845E+02  0.67513861556E+02  0.00000000000E+00 0.  1.
<scales pt_clust_5="13000.00000" pt_clust_6="13000.00000" pt_clust_7="13000.00000" pt_clust_8="13000.00000" pt_clust_9="13000.00000"></scales>
<clustering>
<clus scale="   75.913">  7  8 -1 -1</clus>
<clus scale="   41.197">  7  9 -1 -1</clus>
<clus scale="   80.265">  5  6 -1 -1</clus>
<clus scale="   81.888">  2  5  1 -1</clus>
<clus scale="  132.148">  1  5  2 -1</clus>
</clustering>
</event>
<event>
 9    2  0.3707658E-005  0.2717840E+03  0.7546771E-02  0.1105774E+00
         21   -1    0    0  501  502  0.00000000000E+00  0.00000000000E+00  0.25068556394E+03  0.25068556394E+03  0.00000000000E+00 0.  1.
         -3   -1    0    0    0  501 -0.00000000000E+00 -0.00000000000E+00 -0.29766880411E+03  0.29766880411E+03  0.00000000000E+00 0.  1.
         24    2    1    2    0    0  0.15816740567E+03  0.14831602196E+03  0.79196782994E+02  0.24870803945E+03  0.92568827718E+02 0.  0.
         23    2    1    2    0    0 -0.16123213213E+03 -0.80784650199E+02 -0.11020230479E+03  0.23018291230E+03  0.91201233515E+02 0.  0.
        -13    1    3    3    0    0  0.95923009909E+02  0.13337976050E+03  0.83995038455E+02  0.18451707462E+03  0.00000000000E+00 0.  1.
         14    1    3    3    0    0  0.62244395765E+02  0.14936261452E+02 -0.47982554613E+01  0.64190964830E+02  0.00000000000E+00 0. -1.
        -13    1    4    4    0    0 -0.13647468461E+03 -0.10032265675E+03 -0.10150616584E+03  0.19746765989E+03  0.00000000000E+00 0.  1.
         13    1    4    4    0    0 -0.24757447512E+02  0.19538006555E+02 -0.86961389517E+01  0.32715252408E+02  0.00000000000E+00 0. -1.
         -4    1    1    2    0  502  0.30647264514E+01 -0.67531371758E+02 -0.15977718363E+02  0.69463416298E+02  0.00000000000E+00 0.  1.
<scales pt_clust_5="13000.00000" pt_clust_6="13000.00000" pt_clust_7="13000.00000" pt_clust_8="13000.00000" pt_clust_9="13000.00000"></scales>
<clustering>
<clus scale="   91.201">  7  8 -1 -1</clus>
<clus scale="   67.601">  7  9 -1 -1</clus>
<clus scale="   92.569">  5  6 -1 -1</clus>
<clus scale="  235.762">  2  5  1 -1</clus>
<clus scale="  271.784">  1  5  2 -1</clus>
</clustering>
</event>
<event>
 9    2  0.3707658E-005  0.1637431E+03  0.7546771E-02  0.1218072E+00
         21   -1    0    0  501  502  0.00000000000E+00  0.00000000000E+00  0.10619208661E+03  0.10619208661E+03  0.00000000000E+00 0.  1.
         -3   -1    0    0    0  501 -0.00000000000E+00 -0.00000000000E+00 -0.14003792453E+03  0.14003792453E+03  0.00000000000E+00 0.  1.
         24    2    1    2    0    0 -0.19960299683E+01 -0.15680938093E+02 -0.21515755904E+02  0.82023290840E+02  0.77556537654E+02 0.  0.
         23    2    1    2    0    0  0.16781334705E+02  0.62940857779E+02  0.28786760482E+01  0.11240506428E+03  0.91561164951E+02 0.  0.
        -11    1    3    3    0    0 -0.33754700696E+02 -0.94408611832E+01  0.10407788770E+02  0.36562709774E+02  0.00000000000E+00 0.  1.
         12    1    3    3    0    0  0.31758670728E+02 -0.62400769097E+01 -0.31923544674E+02  0.45460581065E+02  0.00000000000E+00 0. -1.
        -11    1    4    4    0    0  0.13629348336E+02  0.85692896962E+02  0.12186298282E+02  0.87621558943E+02  0.00000000000E+00 0.  1.
         11    1    4    4    0    0  0.31519863689E+01 -0.22752039183E+02 -0.93076222334E+01  0.24783505335E+02  0.00000000000E+00 0. -1.
         -4    1    1    2    0  502 -0.14785304736E+02 -0.47259919686E+02 -0.15208758060E+02  0.51801656022E+02  0.00000000000E+00 0.  1.
<scales pt_clust_5="13000.00000" pt_clust_6="13000.00000" pt_clust_7="13000.00000" pt_clust_8="13000.00000" pt_clust_9="13000.00000"></scales>
<clustering>
<clus scale="   77.557">  5  6 -1 -1</clus>
<clus scale="   79.151">  2  5  1 -1</clus>
<clus scale="   91.561">  7  8 -1 -1</clus>
<clus scale="   55.436">  7  9 -1 -1</clus>
<clus scale="  163.743">  1  5  2 -1</clus>
</clustering>
</event>
<event>
 9    2  0.3707658E-005  0.3704656E+03  0.7546771E-02  0.1077634E+00
         21   -1    0    0  501  502  0.00000000000E+00  0.00000000000E+00  0.22861712542E+03  0.22861712542E+03  0.00000000000E+00 0. -1.
          2   -1    0    0  502    0 -0.00000000000E+00 -0.00000000000E+00 -0.78262896542E+03  0.78262896542E+03  0.00000000000E+00 0. -1.
         24    2    1    2    0    0  0.15943002234E+03  0.79188653383E+02 -0.60638239879E+03  0.63709715163E+03  0.80649812154E+02 0.  0.
         23    2    1    2    0    0  0.41398472110E+02 -0.12753610755E+03 -0.37638169872E+01  0.16009140336E+03  0.87383058368E+02 0.  0.
        -13    1    3    3    0    0  0.75812568474E+02  0.25821693921E+02 -0.14982401832E+03  0.16988685023E+03  0.00000000000E+00 0.  1.
         14    1    3    3    0    0  0.83617453866E+02  0.53366959461E+02 -0.45655838048E+03  0.46721030140E+03  0.00000000000E+00 0. -1.
        -11    1    4    4    0    0  0.10810506557E+02 -0.97917678824E+02 -0.37866774600E+02  0.10553971526E+03  0.00000000000E+00 0.  1.
         11    1    4    4    0    0  0.30587965553E+02 -0.29618428727E+02  0.34102957613E+02  0.54551688103E+02  0.00000000000E+00 0. -1.
          1    1    1    2  501    0 -0.20082849445E+03  0.48347454168E+02  0.56134375786E+02  0.21405753585E+03  0.00000000000E+00 0. -1.
<scales pt_clust_5="13000.00000" pt_clust_6="13000.00000" pt_clust_7="13000.00000" pt_clust_8="13000.00000" pt_clust_9="13000.00000"></scales>
<clustering>
<clus scale="   80.650">  5  6 -1 -1</clus>
<clus scale="   87.383">  7  8 -1 -1</clus>
<clus scale="  195.431">  2  5  1 -1</clus>
<clus scale="  150.441">  7  9 -1 -1</clus>
<clus scale="  370.466">  1  5  2 -1</clus>
</clustering>
</event>
<event>
 9    2  0.3707658E-005  0.2606982E+03  0.7546771E-02  0.1131947E+00
         21   -1    0    0  501  502  0.00000000000E+00  0.00000000000E+00  0.36966495223E+02  0.36966495223E+02  0.00000000000E+00 0.  1.
          2   -1    0    0  502    0 -0.00000000000E+00 -0.00000000000E+00 -0.14259549181E+04  0.14259549181E+04  0.00000000000E+00 0. -1.
         24    2    1    2    0    0 -0.88673020536E+02  0.67928817759E+02 -0.18577971836E+03  0.23179398611E+03  0.82079957297E+02 0.  0.
         23    2    1    2    0    0 -0.30148543156E+02  0.31425756950E+02 -0.43769674047E+03  0.45010344383E+03  0.95489060519E+02 0.  0.
        -13    1    3    3    0    0 -0.92824162376E+02  0.69416702612E+02 -0.12355507009E+03  0.16941327890E+03  0.00000000000E+00 0.  1.
         14    1    3    3    0    0  0.41511418400E+01 -0.14878848534E+01 -0.62224648269E+02  0.62380707211E+02  0.00000000000E+00 0. -1.
        -11    1    4    4    0    0 -0.59077192772E+02  0.20081202898E+01 -0.31925717761E+03  0.32468337301E+03  0.00000000000E+00 0. -1.
         11    1    4    4    0    0  0.28928649616E+02  0.29417636660E+02 -0.11843956286E+03  0.12542007082E+03  0.00000000000E+00 0.  1.
          1    1    1    2  501    0  0.11882156369E+03 -0.99354574709E+02 -0.76551196407E+03  0.78102398340E+03  0.00000000000E+00 0. -1.
<scales pt_clust_5="13000.00000" pt_clust_6="13000.00000" pt_clust_7="13000.00000" pt_clust_8="13000.00000" pt_clust_9="13000.00000"></scales>
<clustering>
<clus scale="   82.080">  5  6 -1 -1</clus>
<clus scale="   95.489">  7  8 -1 -1</clus>
<clus scale="  138.616">  2  5  1 -1</clus>
<clus scale="   84.042">  7  9 -1 -1</clus>
<clus scale="  260.698">  1  5  2 -1</clus>
</clustering>
</event>
<event>
 9    2  0.3707658E-005  0.5076048E+03  0.7546771E-02  0.1055811E+00
         21   -1    0    0  501  502  0.00000000000E+00  0.00000000000E+00  0.83074023412E+03  0.83074023412E+03  0.00000000000E+00 0.  1.
         -3   -1    0    0    0  501 -0.00000000000E+00 -0.00000000000E+00 -0.12592569145E+03  0.12592569145E+03  0.00000000000E+00 0.  1.
         24    2    1    2    0    0 -0.77459154605E+02  0.83656595754E+02  0.16594899220E+03  0.21636953552E+03  0.79236110721E+02 0.  0.
         23    2    1    2    0    0  0.78155133313E+02  0.18964279363E+03  0.17398958683E+03  0.28441536448E+03  0.92450577007E+02 0.  0.
        -13    1    3    3    0    0 -0.66310991723E+02  0.46896078079E+02  0.52786535030E+02  0.96864895824E+02  0.00000000000E+00 0.  1.
         14    1    3    3    0    0 -0.11148162883E+02  0.36760517675E+02  0.11316245717E+03  0.11950463969E+03  0.00000000000E+00 0. -1.
        -11    1    4    4    0    0  0.43064201900E+02  0.60123888666E+02  0.11746645255E+03  0.13880841094E+03  0.00000000000E+00 0. -1.
         11    1    4    4    0    0  0.35090931413E+02  0.12951890497E+03  0.56523134284E+02  0.14560695355E+03  0.00000000000E+00 0.  1.
         -4    1    1    2    0  502 -0.69597870761E+00 -0.27329938939E+03  0.36487596364E+03  0.45588102556E+03  0.00000000000E+00 0.  1.
<scales pt_clust_5="13000.00000" pt_clust_6="13000.00000" pt_clust_7="13000.00000" pt_clust_8="13000.00000" pt_clust_9="13000.00000"></scales>
<clustering>
<clus scale="   79.236">  5  6 -1 -1</clus>
<clus scale="   92.451">  7  8 -1 -1</clus>
<clus scale="  138.841">  2  5  1 -1</clus>
<clus scale="  238.193">  7  9 -1 -1</clus>
<clus scale="  507.605">  1  5  2 -1</clus>
</clustering>
</event>
<event>
 9    2  0.3707658E-005  0.2049690E+03  0.7546771E-02  0.1168633E+00
         21   -1    0    0  501  502  0.00000000000E+00  0.00000000000E+00  0.15603120789E+03  0.15603120789E+03  0.00000000000E+00 0. -1.
          2   -1    0    0  502    0 -0.00000000000E+00 -0.00000000000E+00 -0.19774818923E+03  0.19774818923E+03  0.00000000000E+00 0. -1.
         24    2    1    2    0    0 -0.99493561673E+02  0.98294105357E+01  0.49481920978E+02  0.12943699338E+03  0.65649742002E+02 0.  0.
         23    2    1    2    0    0 -0.97675278194E+01 -0.15977375920E+02 -0.59250707259E+02  0.11034034094E+03  0.91179292536E+02 0.  0.
        -11    1    3    3    0    0 -0.34148050055E+02  0.35628270495E+02  0.20138885123E+02  0.53301385302E+02  0.00000000000E+00 0.  1.
         12    1    3    3    0    0 -0.65345511618E+02 -0.25798859960E+02  0.29343035855E+02  0.76135608075E+02  0.00000000000E+00 0. -1.
        -11    1    4    4    0    0 -0.13985248267E+02  0.34762446862E+02 -0.84389101894E+01  0.38408724088E+02  0.00000000000E+00 0.  1.
         11    1    4    4    0    0  0.42177204474E+01 -0.50739822781E+02 -0.50811797069E+02  0.71931616853E+02  0.00000000000E+00 0. -1.
          1    1    1    2  501    0  0.10926108949E+03  0.61479653839E+01 -0.31948195061E+02  0.11400206280E+03  0.00000000000E+00 0. -1.
<scales pt_clust_5="13000.00000" pt_clust_6="13000.00000" pt_clust_7="13000.00000" pt_clust_8="13000.00000" pt_clust_9="13000.00000"></scales>
<clustering>
<clus scale="   65.650">  5  6 -1 -1</clus>
<clus scale="   91.179">  7  8 -1 -1</clus>
<clus scale="  109.434">  7  9 -1 -1</clus>
<clus scale="  119.606">  2  5  1 -1</clus>
<clus scale="  204.969">  1  5  2 -1</clus>
</clustering>
</event>
<event>
 9    2  0.3707658E-005  0.2151794E+03  0.7546771E-02  0.1167786E+00
         21   -1    0    0  501  502  0.00000000000E+00  0.00000000000E+00  0.25900632276E+02  0.25900632276E+02  0.00000000000E+00 0.  1.
          2   -1    0    0  502    0 -0.00000000000E+00 -0.00000000000E+00 -0.11889487233E+04  0.11889487233E+04  0.00000000000E+00 0. -1.
         24    2    1    2    0    0 -0.60976085335E+02  0.37227039458E+02 -0.18056210487E+03  0.20907558643E+03  0.77498333385E+02 0.  0.
         23    2    1    2    0    0 -0.26186286892E+02 -0.11709962648E+02 -0.25452095802E+03  0.27216523421E+03  0.92033427594E+02 0.  0.
        -13    1    3    3    0    0 -0.56204787265E+02  0.58097752238E+02 -0.16063572989E+03  0.17982815309E+03  0.00000000000E+00 0.  1.
         14    1    3    3    0    0 -0.47712980704E+01 -0.20870712781E+02 -0.19926374980E+02  0.29247433342E+02  0.00000000000E+00 0. -1.
        -11    1    4    4    0    0 -0.41735194919E+02 -0.43893587174E+02 -0.16566318852E+03  0.17638811049E+03  0.00000000000E+00 0.  1.
         11    1    4    4    0    0  0.15548908027E+02  0.32183624526E+02 -0.88857769497E+02  0.95777123721E+02  0.00000000000E+00 0. -1.
          1    1    1    2  501    0  0.87162372227E+02 -0.25517076810E+02 -0.72796502818E+03  0.73360853498E+03  0.00000000000E+00 0. -1.
<scales pt_clust_5="13000.00000" pt_clust_6="13000.00000" pt_clust_7="13000.00000" pt_clust_8="13000.00000" pt_clust_9="13000.00000"></scales>
<clustering>
<clus scale="   77.498">  5  6 -1 -1</clus>
<clus scale="   92.033">  7  8 -1 -1</clus>
<clus scale="   90.821">  7  9 -1 -1</clus>
<clus scale="  105.404">  2  5  1 -1</clus>
<clus scale="  215.179">  1  5  2 -1</clus>
</clustering>
</event>
<event>
 9    2  0.3707658E-005  0.4599400E+03  0.7546771E-02  0.1047240E+00
          2   -1    0    0  502    0 -0.00000000000E+00  0.00000000000E+00  0.17683345341E+04  0.17683345341E+04  0.00000000000E+00 0. -1.
         21   -1    0    0  501  502  0.00000000000E+00 -0.00000000000E+00 -0.80596441978E+02  0.80596441978E+02  0.00000000000E+00 0. -1.
         24    2    1    2    0    0  0.11259614358E+03  0.19375239428E+03  0.95134063358E+03  0.98069940645E+03  0.80650126394E+02 0.  0.
         23    2    1    2    0    0 -0.10322995315E+03  0.97306443215E+02  0.28749076529E+03  0.33314261284E+03  0.90598527848E+02 0.  0.
        -11    1    3    3    0    0  0.25650756649E+02 -0.15172859203E+00  0.99933303405E+02  0.10317291053E+03  0.00000000000E+00 0.  1.
         12    1    3    3    0    0  0.86945386933E+02  0.19390412287E+03  0.85140733017E+03  0.87752649592E+03  0.00000000000E+00 0. -1.
        -13    1    4    4    0    0 -0.69133268679E+02  0.66485306226E+02  0.26529572743E+03  0.28210198116E+03  0.00000000000E+00 0.  1.
         13    1    4    4    0    0 -0.34096684467E+02  0.30821136989E+02  0.22195037857E+02  0.51040631681E+02  0.00000000000E+00 0. -1.
          1    1    1    2  501    0 -0.93661904361E+01 -0.29105883750E+03  0.44890669321E+03  0.53508895674E+03  0.00000000000E+00 0. -1.
<scales pt_clust_5="13000.00000" pt_clust_6="13000.00000" pt_clust_7="13000.00000" pt_clust_8="13000.00000" pt_clust_9="13000.00000"></scales>
<clustering>
<clus scale="   80.650">  5  6 -1 -1</clus>
<clus scale="   90.599">  7  8 -1 -1</clus>
<clus scale="  238.164">  1  5  2 -1</clus>
<clus scale="  182.292">  7  9 -1 -1</clus>
<clus scale="  459.940">  2  5  1 -1</clus>
</clustering>
</event>
<event>
 9    2  0.3707658E-005  0.1697496E+03  0.7546771E-02  0.1207552E+00
          2   -1    0    0  502    0 -0.00000000000E+00  0.00000000000E+00  0.36155565520E+03  0.36155565520E+03  0.00000000000E+00 0. -1.
         21   -1    0    0  501  502  0.00000000000E+00 -0.00000000000E+00 -0.47046048350E+02  0.47046048350E+02  0.00000000000E+00 0.  1.
         24    2    1    2    0    0  0.30235154173E+02 -0.20919817778E+01  0.83442086913E+02  0.12188385634E+03  0.83513781097E+02 0.  0.
         23    2    1    2    0    0 -0.57293486457E+02  0.33344699081E+01  0.81561392818E+02  0.13477779597E+03  0.90659424269E+02 0.  0.
        -11    1    3    3    0    0  0.18741701055E+02  0.15775534071E+02 -0.97013010544E+01  0.26348322068E+02  0.00000000000E+00 0.  1.
         12    1    3    3    0    0  0.11493453118E+02 -0.17867515849E+02  0.93143387967E+02  0.95535534275E+02  0.00000000000E+00 0. -1.
        -11    1    4    4    0    0 -0.70440438293E+02 -0.24990753200E+02  0.47453428554E+02  0.88533727889E+02  0.00000000000E+00 0.  1.
         11    1    4    4    0    0  0.13146951836E+02  0.28325223108E+02  0.34107964264E+02  0.46244068084E+02  0.00000000000E+00 0. -1.
          1    1    1    2  501    0  0.27058332284E+02 -0.12424881303E+01  0.14950612712E+03  0.15194005123E+03  0.00000000000E+00 0. -1.
<scales pt_clust_5="13000.00000" pt_clust_6="13000.00000" pt_clust_7="13000.00000" pt_clust_8="13000.00000" pt_clust_9="13000.00000"></scales>
<clustering>
<clus scale="   83.514">  5  6 -1 -1</clus>
<clus scale="   88.843">  1  5  2 -1</clus>
<clus scale="   90.659">  7  8 -1 -1</clus>
<clus scale="   44.728">  7  9 -1 -1</clus>
<clus scale="  169.750">  2  5  1 -1</clus>
</clustering>
</event>
<event>
 9    2  0.3707658E-005  0.1906452E+03  0.7546771E-02  0.1172317E+00
         -1   -1    0    0    0  501 -0.00000000000E+00  0.00000000000E+00  0.50111053349E+02  0.50111053349E+02  0.00000000000E+00 0.  1.
         21   -1    0    0  501  502  0.00000000000E+00 -0.00000000000E+00 -0.81526452790E+03  0.81526452790E+03  0.00000000000E+00 0.  1.
         24    2    1    2    0    0 -0.46694063141E+02 -0.10017837667E+03 -0.89503027813E+02  0.16334343576E+03  0.80338305513E+02 0.  0.
         23    2    1    2    0    0  0.15756243311E+02  0.13260956939E+02 -0.26142579712E+03  0.27765749156E+03  0.91247591964E+02 0.  0.
        -13    1    3    3    0    0 -0.66247488989E+02 -0.52009199855E+02 -0.61558177301E+02  0.10432207753E+03  0.00000000000E+00 0.  1.
         14    1    3    3    0    0  0.19553425848E+02 -0.48169176811E+02 -0.27944850512E+02  0.59021358229E+02  0.00000000000E+00 0. -1.
        -13    1    4    4    0    0  0.51726696550E+02  0.21405956027E+02 -0.17357310670E+03  0.18237732715E+03  0.00000000000E+00 0. -1.
         13    1    4    4    0    0 -0.35970453239E+02 -0.81449990879E+01 -0.87852690419E+02  0.95280164411E+02  0.00000000000E+00 0.  1.
         -2    1    1    2    0  502  0.30937819830E+02  0.86917419727E+02 -0.41422464962E+03  0.42437465393E+03  0.00000000000E+00 0.  1.
<scales pt_clust_5="13000.00000" pt_clust_6="13000.00000" pt_clust_7="13000.00000" pt_clust_8="13000.00000" pt_clust_9="13000.00000"></scales>
<clustering>
<clus scale="   80.338">  5  6 -1 -1</clus>
<clus scale="   91.248">  7  8 -1 -1</clus>
<clus scale="   92.259">  7  9 -1 -1</clus>
<clus scale="  136.639">  1  5  2 -1</clus>
<clus scale="  190.645">  2  5  1 -1</clus>
</clustering>
</event>
<event>
 9    2  0.3707658E-005  0.3181823E+03  0.7546771E-02  0.1110001E+00
         -1   -1    0    0    0  501 -0.00000000000E+00  0.00000000000E+00  0.10433480273E+04  0.10433480273E+04  0.00000000000E+00 0.  1.
         21   -1    0    0  501  502  0.00000000000E+00 -0.00000000000E+00 -0.48684174791E+02  0.48684174791E+02  0.00000000000E+00 0.  1.
         24    2    1    2    0    0  0.87955703978E+02  0.54320309156E+02  0.26451221150E+03  0.29556412108E+03  0.81881241989E+02 0.  0.
         23    2    1    2    0    0  0.76127082382E+02  0.18830571581E+02  0.18722420424E+03  0.22459010999E+03  0.96113951928E+02 0.  0.
        -13    1    3    3    0    0  0.80597857657E+02  0.85230695600E+01  0.20255351849E+03  0.21816641636E+03  0.00000000000E+00 0.  1.
         14    1    3    3    0    0  0.73578463208E+01  0.45797239596E+02  0.61958693005E+02  0.77397704721E+02  0.00000000000E+00 0. -1.
        -11    1    4    4    0    0  0.52224516356E+02  0.35114708680E+02  0.18519616660E+03  0.19559668452E+03  0.00000000000E+00 0. -1.
         11    1    4    4    0    0  0.23902566026E+02 -0.16284137099E+02  0.20280376410E+01  0.28993425468E+02  0.00000000000E+00 0.  1.
         -2    1    1    2    0  502 -0.16408278636E+03 -0.73150880737E+02  0.54292743673E+03  0.57187797098E+03  0.00000000000E+00 0.  1.
<scales pt_clust_5="13000.00000" pt_clust_6="13000.00000" pt_clust_7="13000.00000" pt_clust_8="13000.00000" pt_clust_9="13000.00000"></scales>
<clustering>
<clus scale="   81.881">  5  6 -1 -1</clus>
<clus scale="   96.114">  7  8 -1 -1</clus>
<clus scale="  131.877">  1  5  2 -1</clus>
<clus scale="  105.318">  7  9 -1 -1</clus>
<clus scale="  318.182">  2  5  1 -1</clus>
</clustering>
</event>
<event>
 9    2  0.3707658E-005  0.4317015E+03  0.7546771E-02  0.1061067E+00
         21   -1    0    0  501  502  0.00000000000E+00  0.00000000000E+00  0.90462998926E+02  0.90462998926E+02  0.00000000000E+00 0. -1.
          2   -1    0    0  502    0 -0.00000000000E+00 -0.00000000000E+00 -0.12367631402E+04  0.12367631402E+04  0.00000000000E+00 0. -1.
         24    2    1    2    0    0 -0.16965555409E+03  0.54056026321E+02 -0.60077667546E+03  0.63155233144E+03  0.78871240338E+02 0.  0.
         23    2    1    2    0    0  0.20245015000E+02  0.14135536367E+03 -0.32056324668E+03  0.36233281004E+03  0.90183538637E+02 0.  0.
        -13    1    3    3    0    0 -0.99224328724E+02  0.42450541103E+02 -0.23124584934E+03  0.25519043612E+03  0.00000000000E+00 0.  1.
         14    1    3    3    0    0 -0.70431225369E+02  0.11605485218E+02 -0.36953082612E+03  0.37636189532E+03  0.00000000000E+00 0. -1.
        -13    1    4    4    0    0  0.12798129227E+02  0.56064655697E+02 -0.42832608305E+02  0.71705439573E+02  0.00000000000E+00 0.  1.
         13    1    4    4    0    0  0.74468857734E+01  0.85290707969E+02 -0.27773063837E+03  0.29062737047E+03  0.00000000000E+00 0. -1.
          1    1    1    2  501    0  0.14941053909E+03 -0.19541138999E+03 -0.22496021918E+03  0.33334099769E+03  0.00000000000E+00 0. -1.
<scales pt_clust_5="13000.00000" pt_clust_6="13000.00000" pt_clust_7="13000.00000" pt_clust_8="13000.00000" pt_clust_9="13000.00000"></scales>
<clustering>
<clus scale="   78.871">  5  6 -1 -1</clus>
<clus scale="   90.184">  7  8 -1 -1</clus>
<clus scale="  194.745">  2  5  1 -1</clus>
<clus scale="  186.057">  7  9 -1 -1</clus>
<clus scale="  431.702">  1  5  2 -1</clus>
</clustering>
</event>
<event>
 9    2  0.3707658E-005  0.2262107E+03  0.7546771E-02  0.1137075E+00
         21   -1    0    0  501  502  0.00000000000E+00  0.00000000000E+00  0.22018024176E+03  0.22018024176E+03  0.00000000000E+00 0. -1.
          2   -1    0    0  502    0 -0.00000000000E+00 -0.00000000000E+00 -0.28443671087E+03  0.28443671087E+03  0.00000000000E+00 0. -1.
         24    2    1    2    0    0 -0.14670513752E+03 -0.83601994841E+02 -0.17181448470E+03  0.25413740413E+03  0.80956235747E+02 0.  0.
         23    2    1    2    0    0  0.76654593300E+02  0.17102040001E+02  0.93963519446E+02  0.15293913091E+03  0.91612380874E+02 0.  0.
        -11    1    3    3    0    0  0.29272377860E+01 -0.23691124464E+02 -0.10433052041E+02  0.26051615580E+02  0.00000000000E+00 0.  1.
         12    1    3    3    0    0 -0.14963237531E+03 -0.59910870378E+02 -0.16138143266E+03  0.22808578855E+03  0.00000000000E+00 0. -1.
        -11    1    4    4    0    0  0.47815556672E+02  0.34085063282E+02  0.10274223200E+03  0.11833885768E+03  0.00000000000E+00 0. -1.
         11    1    4    4    0    0  0.28839036628E+02 -0.16983023281E+02 -0.87787125582E+01  0.34600273230E+02  0.00000000000E+00 0.  1.
          1    1    1    2  501    0  0.70050544222E+02  0.66499954840E+02  0.13594496144E+02  0.97540417597E+02  0.00000000000E+00 0. -1.
<scales pt_clust_5="13000.00000" pt_clust_6="13000.00000" pt_clust_7="13000.00000" pt_clust_8="13000.00000" pt_clust_9="13000.00000"></scales>
<clustering>
<clus scale="   80.956">  5  6 -1 -1</clus>
<clus scale="   91.612">  7  8 -1 -1</clus>
<clus scale="   96.588">  7  9 -1 -1</clus>
<clus scale="  187.258">  2  5  1 -1</clus>
<clus scale="  226.211">  1  5  2 -1</clus>
</clustering>
</event>
<event>
 9    2  0.3707658E-005  0.3467439E+03  0.7546771E-02  0.1071987E+00
         -3   -1    0    0    0  501 -0.00000000000E+00  0.00000000000E+00  0.59501364514E+03  0.59501364514E+03  0.00000000000E+00 0.  1.
         21   -1    0    0  501  502  0.00000000000E+00 -0.00000000000E+00 -0.36224840518E+03  0.36224840518E+03  0.00000000000E+00 0.  1.
         24    2    1    2    0    0 -0.71987516680E+02 -0.25617278471E+03  0.46373212266E+03  0.54063625934E+03  0.80208385742E+02 0.  0.
         23    2    1    2    0    0 -0.21888263800E+02  0.23082015043E+02 -0.54357936917E+02  0.10948626438E+03  0.89557698005E+02 0.  0.
        -13    1    3    3    0    0 -0.79335800542E+02 -0.15876293923E+03  0.26142695151E+03  0.31598083976E+03  0.00000000000E+00 0.  1.
         14    1    3    3    0    0  0.73482838620E+01 -0.97409845476E+02  0.20230517115E+03  0.22465541958E+03  0.00000000000E+00 0. -1.
        -13    1    4    4    0    0 -0.32249035150E+02 -0.51996567339E+00 -0.71563199308E+02  0.78495618525E+02  0.00000000000E+00 0. -1.
         13    1    4    4    0    0  0.10360771351E+02  0.23601980716E+02  0.17205262391E+02  0.30990645857E+02  0.00000000000E+00 0.  1.
         -4    1    1    2    0  502  0.93875780480E+02  0.23309076966E+03 -0.17660894579E+03  0.30713952659E+03  0.00000000000E+00 0.  1.
<scales pt_clust_5="13000.00000" pt_clust_6="13000.00000" pt_clust_7="13000.00000" pt_clust_8="13000.00000" pt_clust_9="13000.00000"></scales>
<clustering>
<clus scale="   80.208">  5  6 -1 -1</clus>
<clus scale="   89.558">  7  8 -1 -1</clus>
<clus scale="  251.285">  7  9 -1 -1</clus>
<clus scale="  277.921">  1  5  2 -1</clus>
<clus scale="  346.744">  2  5  1 -1</clus>
</clustering>
</event>
<event>
 9    2  0.3707658E-005  0.2858043E+03  0.7546771E-02  0.1132950E+00
         21   -1    0    0  501  502  0.00000000000E+00  0.00000000000E+00  0.19165041298E+03  0.19165041298E+03  0.00000000000E+00 0.  1.
         -1   -1    0    0    0  501 -0.00000000000E+00 -0.00000000000E+00 -0.29114560801E+03  0.29114560801E+03  0.00000000000E+00 0.  1.
         24    2    1    2    0    0  0.50672444769E+02 -0.38625571399E+02 -0.16053173058E+03  0.19054689296E+03  0.80486337158E+02 0.  0.
         23    2    1    2    0    0 -0.43754786225E+02 -0.99731927338E+02  0.58828504277E+01  0.14314319107E+03  0.92706130179E+02 0.  0.
        -13    1    3    3    0    0  0.20942120108E+02 -0.32700314932E+02 -0.15492547585E+03  0.15971783263E+03  0.00000000000E+00 0.  1.
         14    1    3    3    0    0  0.29730324662E+02 -0.59252564668E+01 -0.56062547217E+01  0.30829060328E+02  0.00000000000E+00 0. -1.
        -11    1    4    4    0    0 -0.16248270322E+02 -0.91237992859E+02 -0.29752484177E+02  0.97332358156E+02  0.00000000000E+00 0.  1.
         11    1    4    4    0    0 -0.27506515903E+02 -0.84939344787E+01  0.35635334604E+02  0.45810832916E+02  0.00000000000E+00 0. -1.
         -2    1    1    2    0  502 -0.69176585447E+01  0.13835749874E+03  0.55153685109E+02  0.14910593696E+03  0.00000000000E+00 0.  1.
<scales pt_clust_5="13000.00000" pt_clust_6="13000.00000" pt_clust_7="13000.00000" pt_clust_8="13000.00000" pt_clust_9="13000.00000"></scales>
<clustering>
<clus scale="   80.486">  5  6 -1 -1</clus>
<clus scale="   92.706">  7  8 -1 -1</clus>
<clus scale="  102.653">  2  5  1 -1</clus>
<clus scale="  123.422">  7  9 -1 -1</clus>
<clus scale="  285.804">  1  5  2 -1</clus>
</clustering>
</event>
<event>
 9    2  0.3707658E-005  0.2964300E+03  0.7546771E-02  0.1129821E+00
         21   -1    0    0  501  502  0.00000000000E+00  0.00000000000E+00  0.43192123628E+03  0.43192123628E+03  0.00000000000E+00 0. -1.
          2   -1    0    0  502    0 -0.00000000000E+00 -0.00000000000E+00 -0.94093991399E+02  0.94093991399E+02  0.00000000000E+00 0. -1.
         24    2    1    2    0    0  0.46362340014E+02 -0.30809211693E+02  0.44029786591E+02  0.10865722776E+03  0.82274521817E+02 0.  0.
         23    2    1    2    0    0 -0.56102454637E+01  0.93192266019E+02  0.20165460471E+02  0.13376172190E+03  0.93644429356E+02 0.  0.
        -13    1    3    3    0    0  0.45908097559E+02 -0.56475457159E+02  0.38735229998E+02  0.82446641689E+02  0.00000000000E+00 0.  1.
         14    1    3    3    0    0  0.45424245514E+00  0.25666245467E+02  0.52945565929E+01  0.26210586069E+02  0.00000000000E+00 0. -1.
        -13    1    4    4    0    0 -0.46473456744E+02  0.72003668899E+02  0.18661113773E+02  0.87707170082E+02  0.00000000000E+00 0.  1.
         13    1    4    4    0    0  0.40863211280E+02  0.21188597120E+02  0.15043466985E+01  0.46054551817E+02  0.00000000000E+00 0. -1.
          1    1    1    2  501    0 -0.40752094550E+02 -0.62383054326E+02  0.27363199782E+03  0.28359627802E+03  0.00000000000E+00 0. -1.
<scales pt_clust_5="13000.00000" pt_clust_6="13000.00000" pt_clust_7="13000.00000" pt_clust_8="13000.00000" pt_clust_9="13000.00000"></scales>
<clustering>
<clus scale="   82.275">  5  6 -1 -1</clus>
<clus scale="   93.644">  7  8 -1 -1</clus>
<clus scale="   74.514">  7  9 -1 -1</clus>
<clus scale="   99.337">  2  5  1 -1</clus>
<clus scale="  296.430">  1  5  2 -1</clus>
</clustering>
</event>
<event>
 9    2  0.3954950E-005  0.4064855E+03  0.7546771E-02  0.1057540E+00
          2   -1    0    0  502    0 -0.00000000000E+00  0.00000000000E+00  0.85808532640E+03  0.85808532640E+03  0.00000000000E+00 0. -1.
         21   -1    0    0  501  502  0.00000000000E+00 -0.00000000000E+00 -0.14160093622E+03  0.14160093622E+03  0.00000000000E+00 0. -1.
         24    2    1    2    0    0  0.17703794893E+02 -0.24467059630E+03  0.43411662047E+03  0.50474986723E+03  0.78345792838E+02 0.  0.
         23    2    1    2    0    0  0.44493983595E+02  0.31016221532E+01  0.21330928504E+03  0.23610593500E+03  0.90861580577E+02 0.  0.
        -13    1    3    3    0    0  0.54578653463E+01 -0.32925552471E+02  0.18543134275E+02  0.38180205976E+02  0.00000000000E+00 0.  1.
         14    1    3    3    0    0  0.12245929547E+02 -0.21174504383E+03  0.41557348619E+03  0.46656966125E+03  0.00000000000E+00 0. -1.
        -11    1    4    4    0    0  0.67212135043E+02  0.22270053322E+02  0.13708598878E+03  0.15429191389E+03  0.00000000000E+00 0.  1.
         11    1    4    4    0    0 -0.22718151447E+02 -0.19168431169E+02  0.76223296253E+02  0.81814021111E+02  0.00000000000E+00 0. -1.
          1    1    1    2  501    0 -0.62197778488E+02  0.24156897415E+03  0.69058484672E+02  0.25883046039E+03  0.00000000000E+00 0. -1.
<scales pt_clust_5="13000.00000" pt_clust_6="13000.00000" pt_clust_7="13000.00000" pt_clust_8="13000.00000" pt_clust_9="13000.00000"></scales>
<clustering>
<clus scale="   78.346">  5  6 -1 -1</clus>
<clus scale="   90.862">  7  8 -1 -1</clus>
<clus scale="  249.448">  7  9 -1 -1</clus>
<clus scale="  257.517">  1  5  2 -1</clus>
<clus scale="  406.486">  2  5  1 -1</clus>
</clustering>
</event>
<event>
 9    2  0.3707658E-005  0.1833396E+03  0.7546771E-02  0.1192903E+00
          4   -1    0    0  502    0 -0.00000000000E+00  0.00000000000E+00  0.34223277110E+03  0.34223277110E+03  0.00000000000E+00 0. -1.
         21   -1    0    0  501  502  0.00000000000E+00 -0.00000000000E+00 -0.73447210584E+02  0.73447210584E+02  0.00000000000E+00 0. -1.
         24    2    1    2    0    0 -0.45917088166E+02  0.24446143654E+02  0.19555933180E+03  0.21825786552E+03  0.81774388902E+02 0.  0.
         23    2    1    2    0    0 -0.32083414665E+02 -0.33200529930E+02  0.26596099020E+02  0.10612542008E+03  0.91780344410E+02 0.  0.
        -11    1    3    3    0    0  0.49445067384E+01  0.35522211263E+02  0.37684873428E+02  0.52023315208E+02  0.00000000000E+00 0.  1.
         12    1    3    3    0    0 -0.50861594904E+02 -0.11076067610E+02  0.15787445837E+03  0.16623455031E+03  0.00000000000E+00 0. -1.
        -13    1    4    4    0    0 -0.60248361623E+02 -0.16417236416E+01  0.18614269981E+02  0.63079722429E+02  0.00000000000E+00 0. -1.
         13    1    4    4    0    0  0.28164946958E+02 -0.31558806289E+02  0.79818290388E+01  0.43045697652E+02  0.00000000000E+00 0.  1.
          3    1    1    2  501    0  0.78000502831E+02  0.87543862764E+01  0.46630129695E+02  0.91296696087E+02  0.00000000000E+00 0. -1.
<scales pt_clust_5="13000.00000" pt_clust_6="13000.00000" pt_clust_7="13000.00000" pt_clust_8="13000.00000" pt_clust_9="13000.00000"></scales>
<clustering>
<clus scale="   81.774">  5  6 -1 -1</clus>
<clus scale="   91.780">  7  8 -1 -1</clus>
<clus scale="   78.490">  7  9 -1 -1</clus>
<clus scale="   96.918">  1  5  2 -1</clus>
<clus scale="  183.340">  2  5  1 -1</clus>
</clustering>
</event>
<event>
 9    2  0.5075875E-005  0.9767459E+03  0.7546771E-02  0.9948548E-01
         21   -1    0    0  501  502  0.00000000000E+00  0.00000000000E+00  0.28631028582E+03  0.28631028582E+03  0.00000000000E+00 0. -1.
          2   -1    0    0  502    0 -0.00000000000E+00 -0.00000000000E+00 -0.12384254488E+04  0.12384254488E+04  0.00000000000E+00 0. -1.
         24    2    1    2    0    0 -0.69508282917E+02 -0.59391967595E+02 -0.36622915982E+03  0.38574720237E+03  0.79487731289E+02 0.  0.
         23    2    1    2    0    0 -0.20461934970E+03 -0.12892355617E+03 -0.73179485009E+03  0.77581076993E+03  0.88703362406E+02 0.  0.
        -13    1    3    3    0    0 -0.12549144309E+02 -0.51130336774E+02 -0.25641765168E+03  0.26176669852E+03  0.00000000000E+00 0.  1.
         14    1    3    3    0    0 -0.56959138608E+02 -0.82616308202E+01 -0.10981150814E+03  0.12398050385E+03  0.00000000000E+00 0. -1.
        -11    1    4    4    0    0 -0.54257042565E+02 -0.43145780867E+02 -0.10711738333E+03  0.12759121790E+03  0.00000000000E+00 0.  1.
         11    1    4    4    0    0 -0.15036230714E+03 -0.85777775306E+02 -0.62467746676E+03  0.64821955202E+03  0.00000000000E+00 0. -1.
          1    1    1    2  501    0  0.27412763262E+03  0.18831552377E+03  0.14590884691E+03  0.36317776235E+03  0.00000000000E+00 0. -1.
<scales pt_clust_5="13000.00000" pt_clust_6="13000.00000" pt_clust_7="13000.00000" pt_clust_8="13000.00000" pt_clust_9="13000.00000"></scales>
<clustering>
<clus scale="   79.488">  5  6 -1 -1</clus>
<clus scale="   88.703">  7  8 -1 -1</clus>
<clus scale="  121.149">  2  5  1 -1</clus>
<clus scale="  321.129">  7  9 -1 -1</clus>
<clus scale="  976.746">  1  5  2 -1</clus>
</clustering>
</event>
<event>
 9    2  0.3707658E-005  0.3417869E+03  0.7546771E-02  0.1119246E+00
         21   -1    0    0  501  502  0.00000000000E+00  0.00000000000E+00  0.25850242449E+03  0.25850242449E+03  0.00000000000E+00 0. -1.
          2   -1    0    0  502    0 -0.00000000000E+00 -0.00000000000E+00 -0.19427754807E+03  0.19427754807E+03  0.00000000000E+00 0. -1.
         24    2    1    2    0    0  0.17389238105E+02  0.77625454760E+01 -0.42984460701E+02  0.94573107009E+02  0.82059527134E+02 0.  0.
         23    2    1    2    0    0  0.12463893522E+03 -0.63603594476E+02 -0.63417538545E+01  0.16798574414E+03  0.92729234823E+02 0.  0.
        -13    1    3    3    0    0 -0.30812552653E+02  0.15188741312E+02 -0.10301088272E+02  0.35863960785E+02  0.00000000000E+00 0.  1.
         14    1    3    3    0    0  0.48201790758E+02 -0.74261958356E+01 -0.32683372429E+02  0.58709146223E+02  0.00000000000E+00 0. -1.
        -13    1    4    4    0    0  0.55177459704E+02  0.20217708883E+02  0.20527516531E+01  0.58800693884E+02  0.00000000000E+00 0.  1.
         13    1    4    4    0    0  0.69461475512E+02 -0.83821303359E+02 -0.83945055076E+01  0.10918505026E+03  0.00000000000E+00 0. -1.
          1    1    1    2  501    0 -0.14202817332E+03  0.55841049000E+02  0.11355109097E+03  0.19022112141E+03  0.00000000000E+00 0. -1.
<scales pt_clust_5="13000.00000" pt_clust_6="13000.00000" pt_clust_7="13000.00000" pt_clust_8="13000.00000" pt_clust_9="13000.00000"></scales>
<clustering>
<clus scale="   82.060">  5  6 -1 -1</clus>
<clus scale="   84.240">  2  5  1 -1</clus>
<clus scale="   92.729">  7  8 -1 -1</clus>
<clus scale="  148.594">  7  9 -1 -1</clus>
<clus scale="  341.787">  1  5  2 -1</clus>
</clustering>
</event>
<event>
 9    2  0.3707658E-005  0.2219619E+03  0.7546771E-02  0.1172778E+00
          2   -1    0    0  502    0 -0.00000000000E+00  0.00000000000E+00  0.15013962102E+03  0.15013962102E+03  0.00000000000E+00 0. -1.
         21   -1    0    0  501  502  0.00000000000E+00 -0.00000000000E+00 -0.15759392702E+03  0.15759392702E+03  0.00000000000E+00 0.  1.
         24    2    1    2    0    0  0.18188957963E+02  0.25087166622E+02 -0.28270100687E+01  0.85723381507E+02  0.79876792814E+02 0.  0.
         23    2    1    2    0    0 -0.15982390111E+02  0.77459494205E+02 -0.13821960279E+02  0.11902847670E+03  0.87871051231E+02 0.  0.
        -13    1    3    3    0    0 -0.31045832952E+02  0.16343240300E+01 -0.24715469219E+01  0.31186909160E+02  0.00000000000E+00 0.  1.
         14    1    3    3    0    0  0.49234790915E+02  0.23452842592E+02 -0.35546314682E+00  0.54536472348E+02  0.00000000000E+00 0. -1.
        -13    1    4    4    0    0 -0.25830218242E+02 -0.10373579797E+02  0.59412004199E+01  0.28462417232E+02  0.00000000000E+00 0. -1.
         13    1    4    4    0    0  0.98478281312E+01  0.87833074003E+02 -0.19763160698E+02  0.90566059473E+02  0.00000000000E+00 0.  1.
          1    1    1    2  501    0 -0.22065678518E+01 -0.10254666083E+03  0.91946643428E+01  0.10298168983E+03  0.00000000000E+00 0. -1.
<scales pt_clust_5="13000.00000" pt_clust_6="13000.00000" pt_clust_7="13000.00000" pt_clust_8="13000.00000" pt_clust_9="13000.00000"></scales>
<clustering>
<clus scale="   79.877">  5  6 -1 -1</clus>
<clus scale="   85.677">  1  5  2 -1</clus>
<clus scale="   87.871">  7  8 -1 -1</clus>
<clus scale="   89.888">  7  9 -1 -1</clus>
<clus scale="  221.962">  2  5  1 -1</clus>
</clustering>
</event>
<event>
 9    2  0.3707658E-005  0.1293236E+03  0.7546771E-02  0.1243995E+00
         -1   -1    0    0    0  501 -0.00000000000E+00  0.00000000000E+00  0.44516817064E+02  0.44516817064E+02  0.00000000000E+00 0.  1.
         21   -1    0    0  501  502  0.00000000000E+00 -0.00000000000E+00 -0.36878015267E+03  0.36878015267E+03  0.00000000000E+00 0. -1.
         24    2    1    2    0    0  0.14068931877E+02  0.46936723806E+02 -0.42549627834E+02  0.10331762475E+03  0.80393220289E+02 0.  0.
         23    2    1    2    0    0  0.69396508533E+01 -0.41398501828E+02 -0.26280725247E+03  0.28117853766E+03  0.90728845351E+02 0.  0.
        -11    1    3    3    0    0  0.44947017974E+02  0.42621526154E+02 -0.20952452641E+02  0.65389863038E+02  0.00000000000E+00 0.  1.
         12    1    3    3    0    0 -0.30878086097E+02  0.43151976519E+01 -0.21597175193E+02  0.37927761707E+02  0.00000000000E+00 0. -1.
        -13    1    4    4    0    0 -0.40660172132E+02 -0.20506542549E+02 -0.15399229147E+03  0.16058453760E+03  0.00000000000E+00 0.  1.
         13    1    4    4    0    0  0.47599822986E+02 -0.20891959279E+02 -0.10881496101E+03  0.12059400006E+03  0.00000000000E+00 0. -1.
         -2    1    1    2    0  502 -0.21008582730E+02 -0.55382219786E+01 -0.18906455301E+02  0.28800807334E+02  0.00000000000E+00 0.  1.
<scales pt_clust_5="13000.00000" pt_clust_6="13000.00000" pt_clust_7="13000.00000" pt_clust_8="13000.00000" pt_clust_9="13000.00000"></scales>
<clustering>
<clus scale="   80.393">  5  6 -1 -1</clus>
<clus scale="   90.729">  7  8 -1 -1</clus>
<clus scale="   21.726">  7  9 -1 -1</clus>
<clus scale="   94.149">  1  5  2 -1</clus>
<clus scale="  129.324">  2  5  1 -1</clus>
</clustering>
</event>
<event>
 9    2  0.3707658E-005  0.1950509E+03  0.7546771E-02  0.1184816E+00
          2   -1    0    0  502    0 -0.00000000000E+00  0.00000000000E+00  0.27530263640E+03  0.27530263640E+03  0.00000000000E+00 0. -1.
         21   -1    0    0  501  502  0.00000000000E+00 -0.00000000000E+00 -0.81689834823E+02  0.81689834823E+02  0.00000000000E+00 0. -1.
         24    2    1    2    0    0  0.44567523506E+02 -0.38756916803E+02  0.10593130210E+03  0.14313997720E+03  0.76021375648E+02 0.  0.
         23    2    1    2    0    0 -0.58178716394E+01 -0.47252339734E+02  0.38113808097E+02  0.10728756659E+03  0.88268501389E+02 0.  0.
        -13    1    3    3    0    0 -0.15220377388E+02 -0.21489985461E+02  0.87665643875E+01  0.27754855685E+02  0.00000000000E+00 0.  1.
         14    1    3    3    0    0  0.59787900893E+02 -0.17266931342E+02  0.97164737716E+02  0.11538512151E+03  0.00000000000E+00 0. -1.
        -13    1    4    4    0    0 -0.32639854235E+02 -0.51637751147E+02  0.48695485670E+02  0.78122133564E+02  0.00000000000E+00 0.  1.
         13    1    4    4    0    0  0.26821982596E+02  0.43854114130E+01 -0.10581677572E+02  0.29165433031E+02  0.00000000000E+00 0. -1.
          1    1    1    2  501    0 -0.38749651866E+02  0.86009256537E+02  0.49567691378E+02  0.10656492743E+03  0.00000000000E+00 0. -1.
<scales pt_clust_5="13000.00000" pt_clust_6="13000.00000" pt_clust_7="13000.00000" pt_clust_8="13000.00000" pt_clust_9="13000.00000"></scales>
<clustering>
<clus scale="   76.021">  5  6 -1 -1</clus>
<clus scale="   88.269">  7  8 -1 -1</clus>
<clus scale="   94.335">  7  9 -1 -1</clus>
<clus scale="   96.268">  1  5  2 -1</clus>
<clus scale="  195.051">  2  5  1 -1</clus>
</clustering>
</event>
<event>
 9    2  0.3707658E-005  0.4318943E+03  0.7546771E-02  0.1074830E+00
         21   -1    0    0  501  502  0.00000000000E+00  0.00000000000E+00  0.22250145302E+03  0.22250145302E+03  0.00000000000E+00 0. -1.
          2   -1    0    0  502    0 -0.00000000000E+00 -0.00000000000E+00 -0.35994832743E+03  0.35994832743E+03  0.00000000000E+00 0. -1.
         24    2    1    2    0    0 -0.24161199301E+02  0.97915800326E+02 -0.17682695016E+02  0.13425771676E+03  0.86840021309E+02 0.  0.
         23    2    1    2    0    0  0.17269784931E+03  0.32090965625E+02  0.29551865945E+02  0.20068413051E+03  0.92446904917E+02 0.  0.
        -13    1    3    3    0    0 -0.35576767458E+02  0.11514352845E+01 -0.29899883359E+01  0.35720753299E+02  0.00000000000E+00 0.  1.
         14    1    3    3    0    0  0.11415568157E+02  0.96764365042E+02 -0.14692706680E+02  0.98536963460E+02  0.00000000000E+00 0. -1.
        -13    1    4    4    0    0  0.11607001498E+02  0.22653422958E+02 -0.19457335783E+02  0.32038850966E+02  0.00000000000E+00 0.  1.
         13    1    4    4    0    0  0.16109084781E+03  0.94375426679E+01  0.49009201727E+02  0.16864527954E+03  0.00000000000E+00 0. -1.
          1    1    1    2  501    0 -0.14853665000E+03 -0.13000676595E+03 -0.14931604534E+03  0.24750793317E+03  0.00000000000E+00 0. -1.
<scales pt_clust_5="13000.00000" pt_clust_6="13000.00000" pt_clust_7="13000.00000" pt_clust_8="13000.00000" pt_clust_9="13000.00000"></scales>
<clustering>
<clus scale="   86.840">  5  6 -1 -1</clus>
<clus scale="   92.447">  7  8 -1 -1</clus>
<clus scale="  133.088">  2  5  1 -1</clus>
<clus scale="  176.513">  7  9 -1 -1</clus>
<clus scale="  431.894">  1  5  2 -1</clus>
</clustering>
</event>
<event>
 9    2  0.3707658E-005  0.5377374E+03  0.7546771E-02  0.1058275E+00
         21   -1    0    0  501  502  0.00000000000E+00  0.00000000000E+00  0.11760710225E+03  0.11760710225E+03  0.00000000000E+00 0. -1.
          2   -1    0    0  502    0 -0.00000000000E+00 -0.00000000000E+00 -0.90326266632E+03  0.90326266632E+03  0.00000000000E+00 0. -1.
         24    2    1    2    0    0 -0.48616614034E+02  0.52723115403E+02 -0.18477557106E+03  0.21450863637E+03  0.82028296090E+02 0.  0.
         23    2    1    2    0    0  0.22921125650E+03  0.79573996708E+02 -0.49472761267E+03  0.55860060545E+03  0.91702805955E+02 0.  0.
        -13    1    3    3    0    0 -0.67071181723E+02  0.44630034631E+02 -0.17379579752E+03  0.19156033683E+03  0.00000000000E+00 0.  1.
         14    1    3    3    0    0  0.18454567689E+02  0.80930807725E+01 -0.10979773535E+02  0.22948299542E+02  0.00000000000E+00 0. -1.
        -11    1    4    4    0    0  0.20586011064E+03  0.99533264881E+02 -0.43514834606E+03  0.49156824455E+03  0.00000000000E+00 0. -1.
         11    1    4    4    0    0  0.23351145853E+02 -0.19959268173E+02 -0.59579266613E+02  0.67032360907E+02  0.00000000000E+00 0.  1.
          1    1    1    2  501    0 -0.18059464246E+03 -0.13229711211E+03 -0.10615238034E+03  0.24776052674E+03  0.00000000000E+00 0. -1.
<scales pt_clust_5="13000.00000" pt_clust_6="13000.00000" pt_clust_7="13000.00000" pt_clust_8="13000.00000" pt_clust_9="13000.00000"></scales>
<clustering>
<clus scale="   82.028">  5  6 -1 -1</clus>
<clus scale="   91.703">  7  8 -1 -1</clus>
<clus scale="  108.958">  2  5  1 -1</clus>
<clus scale="  226.606">  7  9 -1 -1</clus>
<clus scale="  537.737">  1  5  2 -1</clus>
</clustering>
</event>
<event>
 9    2  0.3707658E-005  0.5141244E+03  0.7546771E-02  0.1067374E+00
         -1   -1    0    0    0  501 -0.00000000000E+00  0.00000000000E+00  0.50818377966E+03  0.50818377966E+03  0.00000000000E+00 0.  1.
         21   -1    0    0  501  502  0.00000000000E+00 -0.00000000000E+00 -0.19246812331E+03  0.19246812331E+03  0.00000000000E+00 0.  1.
         24    2    1    2    0    0  0.36413627473E+02 -0.34370746039E+02  0.11101100401E+03  0.14727326776E+03  0.82817099292E+02 0.  0.
         23    2    1    2    0    0 -0.13280751654E+03  0.23453298805E+03  0.67429317828E+02  0.29222499759E+03  0.90582434160E+02 0.  0.
        -13    1    3    3    0    0  0.56697803023E+02 -0.36473293237E+02  0.52916733038E+02  0.85703690834E+02  0.00000000000E+00 0.  1.
         14    1    3    3    0    0 -0.20284175550E+02  0.21025471987E+01  0.58094270973E+02  0.61569576922E+02  0.00000000000E+00 0. -1.
        -13    1    4    4    0    0 -0.57695392739E+02  0.62032599807E+02  0.60227588114E+02  0.10394308131E+03  0.00000000000E+00 0. -1.
         13    1    4    4    0    0 -0.75112123801E+02  0.17250038824E+03  0.72017297136E+01  0.18828191628E+03  0.00000000000E+00 0.  1.
         -2    1    1    2    0  502  0.96393889068E+02 -0.20016224201E+03  0.13727533451E+03  0.26115363762E+03  0.00000000000E+00 0.  1.
<scales pt_clust_5="13000.00000" pt_clust_6="13000.00000" pt_clust_7="13000.00000" pt_clust_8="13000.00000" pt_clust_9="13000.00000"></scales>
<clustering>
<clus scale="   82.817">  5  6 -1 -1</clus>
<clus scale="   90.582">  7  8 -1 -1</clus>
<clus scale="   96.778">  1  5  2 -1</clus>
<clus scale="  246.922">  7  9 -1 -1</clus>
<clus scale="  514.124">  2  5  1 -1</clus>
</clustering>
</event>
<event>
 9    2  0.3707658E-005  0.1200050E+03  0.7546771E-02  0.1261977E+00
         -1   -1    0    0    0  501 -0.00000000000E+00  0.00000000000E+00  0.12890163386E+03  0.12890163386E+03  0.00000000000E+00 0.  1.
         21   -1    0    0  501  502  0.00000000000E+00 -0.00000000000E+00 -0.36947419348E+03  0.36947419348E+03  0.00000000000E+00 0.  1.
         24    2    1    2    0    0 -0.76008568336E+01  0.80657998469E+01  0.10446893291E+03  0.13306112243E+03  0.81661950799E+02 0.  0.
         23    2    1    2    0    0  0.24136847512E+02  0.85606933404E+01 -0.26012628090E+03  0.27722116129E+03  0.92358093164E+02 0.  0.
        -13    1    3    3    0    0  0.23618794117E+02  0.22057814545E+02  0.90518419720E+02  0.96114405406E+02  0.00000000000E+00 0.  1.
         14    1    3    3    0    0 -0.31219650951E+02 -0.13992014698E+02  0.13950513187E+02  0.36946717025E+02  0.00000000000E+00 0. -1.
        -11    1    4    4    0    0 -0.18175989041E+02 -0.22480022286E+02 -0.31947066085E+02  0.43085183195E+02  0.00000000000E+00 0. -1.
         11    1    4    4    0    0  0.42312836553E+02  0.31040715626E+02 -0.22817921482E+03  0.23413597810E+03  0.00000000000E+00 0.  1.
         -2    1    1    2    0  502 -0.16535990679E+02 -0.16626493187E+02 -0.84915211615E+02  0.88093543618E+02  0.00000000000E+00 0.  1.
<scales pt_clust_5="13000.00000" pt_clust_6="13000.00000" pt_clust_7="13000.00000" pt_clust_8="13000.00000" pt_clust_9="13000.00000"></scales>
<clustering>
<clus scale="   81.662">  5  6 -1 -1</clus>
<clus scale="   82.411">  1  5  2 -1</clus>
<clus scale="   92.358">  7  8 -1 -1</clus>
<clus scale="   23.458">  7  9 -1 -1</clus>
<clus scale="  120.005">  2  5  1 -1</clus>
</clustering>
</event>
<event>
 9    2  0.3707658E-005  0.4084866E+03  0.7546771E-02  0.1067584E+00
          2   -1    0    0  502    0 -0.00000000000E+00  0.00000000000E+00  0.52581317033E+03  0.52581317033E+03  0.00000000000E+00 0. -1.
         21   -1    0    0  501  502  0.00000000000E+00 -0.00000000000E+00 -0.17199390253E+03  0.17199390253E+03  0.00000000000E+00 0. -1.
         24    2    1    2    0    0  0.36172866254E+01 -0.18417159733E+03  0.13325724639E+03  0.23357770655E+03  0.53561079652E+02 0.  0.
         23    2    1    2    0    0  0.96242455647E+02 -0.57987524229E+02  0.59196343325E+02  0.15657389285E+03  0.91575180178E+02 0.  0.
        -13    1    3    3    0    0  0.23846673868E+02 -0.42695068129E+02  0.35342965952E+02  0.60337864889E+02  0.00000000000E+00 0.  1.
         14    1    3    3    0    0 -0.20229387242E+02 -0.14147652921E+03  0.97914280435E+02  0.17323984166E+03  0.00000000000E+00 0. -1.
        -13    1    4    4    0    0  0.96810798503E+01 -0.21931819247E+02 -0.21997412728E+02  0.32536351505E+02  0.00000000000E+00 0.  1.
         13    1    4    4    0    0  0.86561375797E+02 -0.36055704982E+02  0.81193756053E+02  0.12403754135E+03  0.00000000000E+00 0. -1.
          1    1    1    2  501    0 -0.99859742273E+02  0.24215912156E+03  0.16136567810E+03  0.30765547346E+03  0.00000000000E+00 0. -1.
<scales pt_clust_5="13000.00000" pt_clust_6="13000.00000" pt_clust_7="13000.00000" pt_clust_8="13000.00000" pt_clust_9="13000.00000"></scales>
<clustering>
<clus scale="   53.561">  5  6 -1 -1</clus>
<clus scale="   91.575">  7  8 -1 -1</clus>
<clus scale="  191.836">  1  5  2 -1</clus>
<clus scale="  151.471">  7  9 -1 -1</clus>
<clus scale="  408.487">  2  5  1 -1</clus>
</clustering>
</event>
<event>
 9    2  0.3707658E-005  0.5404820E+03  0.7546771E-02  0.1053347E+00
         21   -1    0    0  501  502  0.00000000000E+00  0.00000000000E+00  0.25047393517E+03  0.25047393517E+03  0.00000000000E+00 0.  1.
          2   -1    0    0  502    0 -0.00000000000E+00 -0.00000000000E+00 -0.44111576163E+03  0.44111576163E+03  0.00000000000E+00 0. -1.
         24    2    1    2    0    0  0.60644344641E+02 -0.70715183538E+02 -0.50355575992E+02  0.13319826653E+03  0.80794309529E+02 0.  0.
         23    2    1    2    0    0 -0.28686326150E+02  0.43564592397E+02  0.19432808271E+03  0.22115972728E+03  0.91801101423E+02 0.  0.
        -11    1    3    3    0    0  0.57486185764E+02 -0.88332785939E+02 -0.43948531580E+02  0.11418763529E+03  0.00000000000E+00 0.  1.
         12    1    3    3    0    0  0.31581588764E+01  0.17617602400E+02 -0.64070444119E+01  0.19010631234E+02  0.00000000000E+00 0. -1.
        -13    1    4    4    0    0 -0.42914749837E+02  0.58227466110E+02  0.93135587324E+02  0.11792519319E+03  0.00000000000E+00 0. -1.
         13    1    4    4    0    0  0.14228423687E+02 -0.14662873713E+02  0.10119249538E+03  0.10323453409E+03  0.00000000000E+00 0.  1.
          1    1    1    2  501    0 -0.31958018490E+02  0.27150591141E+02 -0.33461433317E+03  0.33723170300E+03  0.00000000000E+00 0. -1.
<scales pt_clust_5="13000.00000" pt_clust_6="13000.00000" pt_clust_7="13000.00000" pt_clust_8="13000.00000" pt_clust_9="13000.00000"></scales>
<clustering>
<clus scale="   80.794">  5  6 -1 -1</clus>
<clus scale="   91.801">  7  8 -1 -1</clus>
<clus scale="   41.934">  7  9 -1 -1</clus>
<clus scale="  123.313">  2  5  1 -1</clus>
<clus scale="  540.482">  1  5  2 -1</clus>
</clustering>
</event>
<event>
 9    2  0.3707658E-005  0.1700398E+03  0.7546771E-02  0.1207721E+00
          2   -1    0    0  502    0 -0.00000000000E+00  0.00000000000E+00  0.73100141549E+03  0.73100141549E+03  0.00000000000E+00 0. -1.
         21   -1    0    0  501  502  0.00000000000E+00 -0.00000000000E+00 -0.24057072569E+02  0.24057072569E+02  0.00000000000E+00 0. -1.
         24    2    1    2    0    0 -0.26582718494E+02  0.19329814435E+01  0.32975680728E+03  0.34131463144E+03  0.83938956085E+02 0.  0.
         23    2    1    2    0    0 -0.39345798928E+02  0.17451999776E+02  0.20354862541E+03  0.22700120468E+03  0.90801100381E+02 0.  0.
        -11    1    3    3    0    0  0.16424086855E+02 -0.23726970432E+02  0.55821142111E+02  0.62838838798E+02  0.00000000000E+00 0.  1.
         12    1    3    3    0    0 -0.43006805349E+02  0.25659951876E+02  0.27393566517E+03  0.27847579264E+03  0.00000000000E+00 0. -1.
        -13    1    4    4    0    0  0.26538149943E+02 -0.10200819975E+02  0.47240831462E+02  0.55136433397E+02  0.00000000000E+00 0.  1.
         13    1    4    4    0    0 -0.65883948871E+02  0.27652819751E+02  0.15630779395E+03  0.17186477128E+03  0.00000000000E+00 0. -1.
          1    1    1    2  501    0  0.65928517422E+02 -0.19384981219E+02  0.17363891024E+03  0.18674265194E+03  0.00000000000E+00 0. -1.
<scales pt_clust_5="13000.00000" pt_clust_6="13000.00000" pt_clust_7="13000.00000" pt_clust_8="13000.00000" pt_clust_9="13000.00000"></scales>
<clustering>
<clus scale="   83.939">  5  6 -1 -1</clus>
<clus scale="   88.069">  1  5  2 -1</clus>
<clus scale="   90.801">  7  8 -1 -1</clus>
<clus scale="   56.909">  7  9 -1 -1</clus>
<clus scale="  170.040">  2  5  1 -1</clus>
</clustering>
</event>
<event>
 9    2  0.3707658E-005  0.4186614E+03  0.7546771E-02  0.1054888E+00
         21   -1    0    0  501  502  0.00000000000E+00  0.00000000000E+00  0.69807801757E+02  0.69807801757E+02  0.00000000000E+00 0.  1.
          2   -1    0    0  502    0 -0.00000000000E+00 -0.00000000000E+00 -0.19534102117E+04  0.19534102117E+04  0.00000000000E+00 0. -1.
         24    2    1    2    0    0  0.12185481650E+03  0.20787831245E+03 -0.34339101345E+03  0.42712012318E+03  0.80325726975E+02 0.  0.
         23    2    1    2    0    0 -0.62339176091E+02 -0.27422141427E+02 -0.12416034878E+03  0.16735469752E+03  0.89183271179E+02 0.  0.
        -11    1    3    3    0    0  0.32193269572E+02  0.72604722893E+01 -0.60442693929E+02  0.68865378188E+02  0.00000000000E+00 0.  1.
         12    1    3    3    0    0  0.89661546930E+02  0.20061784016E+03 -0.28294831952E+03  0.35825474499E+03  0.00000000000E+00 0. -1.
        -13    1    4    4    0    0 -0.73610175787E+02  0.89074094239E+01 -0.80273359154E+02  0.10927768350E+03  0.00000000000E+00 0.  1.
         13    1    4    4    0    0  0.11270999696E+02 -0.36329550851E+02 -0.43886989621E+02  0.58077014017E+02  0.00000000000E+00 0. -1.
          1    1    1    2  501    0 -0.59515640411E+02 -0.18045617102E+03 -0.14160510477E+04  0.14287431927E+04  0.00000000000E+00 0. -1.
<scales pt_clust_5="13000.00000" pt_clust_6="13000.00000" pt_clust_7="13000.00000" pt_clust_8="13000.00000" pt_clust_9="13000.00000"></scales>
<clustering>
<clus scale="   80.326">  5  6 -1 -1</clus>
<clus scale="   89.183">  7  8 -1 -1</clus>
<clus scale="  190.017">  7  9 -1 -1</clus>
<clus scale="  253.997">  2  5  1 -1</clus>
<clus scale="  418.661">  1  5  2 -1</clus>
</clustering>
</event>
<event>
 9    2  0.3707658E-005  0.5644944E+03  0.7546771E-02  0.1004482E+00
         21   -1    0    0  501  502  0.00000000000E+00  0.00000000000E+00  0.34500271684E+03  0.34500271684E+03  0.00000000000E+00 0. -1.
          2   -1    0    0  502    0 -0.00000000000E+00 -0.00000000000E+00 -0.83679516376E+03  0.83679516376E+03  0.00000000000E+00 0. -1.
         24    2    1    2    0    0  0.28900103943E+03  0.35293384531E+03 -0.39555468201E+03  0.60915864762E+03  0.80788932134E+02 0.  0.
         23    2    1    2    0    0 -0.81026458682E+01 -0.11667506083E+03  0.76110787003E+02  0.16714429577E+03  0.92008918159E+02 0.  0.
        -11    1    3    3    0    0  0.55570108873E+02  0.38274497757E+02 -0.32015499540E+02  0.74685784387E+02  0.00000000000E+00 0.  1.
         12    1    3    3    0    0  0.23343093056E+03  0.31465934755E+03 -0.36353918247E+03  0.53447286324E+03  0.00000000000E+00 0. -1.
        -13    1    4    4    0    0 -0.27835415102E+02 -0.11132826942E+03  0.86976363385E+02  0.14399195010E+03  0.00000000000E+00 0.  1.
         13    1    4    4    0    0  0.19732769233E+02 -0.53467914125E+01 -0.10865576382E+02  0.23152345673E+02  0.00000000000E+00 0. -1.
          1    1    1    2  501    0 -0.28089839356E+03 -0.23625878448E+03 -0.17234855191E+03  0.40549493720E+03  0.00000000000E+00 0. -1.
<scales pt_clust_5="13000.00000" pt_clust_6="13000.00000" pt_clust_7="13000.00000" pt_clust_8="13000.00000" pt_clust_9="13000.00000"></scales>
<clustering>
<clus scale="   80.789">  5  6 -1 -1</clus>
<clus scale="   92.009">  7  8 -1 -1</clus>
<clus scale="  367.045">  7  9 -1 -1</clus>
<clus scale="  463.261">  2  5  1 -1</clus>
<clus scale="  564.494">  1  5  2 -1</clus>
</clustering>
</event>
<event>
 9    2  0.3707658E-005  0.1050194E+04  0.7546771E-02  0.9566017E-01
          2   -1    0    0  502    0 -0.00000000000E+00  0.00000000000E+00  0.76201318460E+03  0.76201318460E+03  0.00000000000E+00 0. -1.
         21   -1    0    0  501  502  0.00000000000E+00 -0.00000000000E+00 -0.78132175758E+03  0.78132175758E+03  0.00000000000E+00 0.  1.
         24    2    1    2    0    0  0.11301260856E+03 -0.31761597893E+03  0.28650891461E+03  0.44951965452E+03  0.79553767250E+02 0.  0.
         23    2    1    2    0    0 -0.38530642137E+02 -0.14581525520E+03  0.28749215116E+03  0.33728875176E+03  0.91461828391E+02 0.  0.
        -13    1    3    3    0    0  0.48491392856E+02 -0.21743413676E+03  0.21980578194E+03  0.31295942354E+03  0.00000000000E+00 0.  1.
         14    1    3    3    0    0  0.64521215703E+02 -0.10018184217E+03  0.66703132666E+02  0.13656023098E+03  0.00000000000E+00 0. -1.
        -13    1    4    4    0    0  0.15714555435E+02 -0.64056763327E+02  0.18023131732E+03  0.19192067092E+03  0.00000000000E+00 0.  1.
         13    1    4    4    0    0 -0.54245197572E+02 -0.81758491874E+02  0.10726083383E+03  0.14536808084E+03  0.00000000000E+00 0. -1.
          1    1    1    2  501    0 -0.74481966423E+02  0.46343123413E+03 -0.59330963875E+03  0.75652653590E+03  0.00000000000E+00 0. -1.
<scales pt_clust_5="13000.00000" pt_clust_6="13000.00000" pt_clust_7="13000.00000" pt_clust_8="13000.00000" pt_clust_9="13000.00000"></scales>
<clustering>
<clus scale="   79.554">  5  6 -1 -1</clus>
<clus scale="   91.462">  7  8 -1 -1</clus>
<clus scale="  346.382">  1  5  2 -1</clus>
<clus scale="  400.911">  7  9 -1 -1</clus>
<clus scale=" 1050.194">  2  5  1 -1</clus>
</clustering>
</event>
<event>
 9    2  0.3707658E-005  0.1962015E+03  0.7546771E-02  0.1179571E+00
         21   -1    0    0  501  502  0.00000000000E+00  0.00000000000E+00  0.74816400394E+03  0.74816400394E+03  0.00000000000E+00 0. -1.
         -3   -1    0    0    0  501 -0.00000000000E+00 -0.00000000000E+00 -0.32073441645E+02  0.32073441645E+02  0.00000000000E+00 0.  1.
         24    2    1    2    0    0 -0.47627963798E+02  0.43450965887E+02  0.33690814436E+03  0.35330148053E+03  0.84607499890E+02 0.  0.
         23    2    1    2    0    0 -0.19328968837E+02 -0.60017785916E+02  0.31085416181E+03  0.32984610493E+03  0.90511874135E+02 0.  0.
        -11    1    3    3    0    0  0.22319359970E+02  0.11161562285E+02  0.45637885324E+02  0.52014910160E+02  0.00000000000E+00 0.  1.
         12    1    3    3    0    0 -0.69947323769E+02  0.32289403602E+02  0.29127025904E+03  0.30128657037E+03  0.00000000000E+00 0. -1.
        -11    1    4    4    0    0 -0.43231510120E+02 -0.70288527357E+02  0.20845863555E+03  0.22419733112E+03  0.00000000000E+00 0.  1.
         11    1    4    4    0    0  0.23902541283E+02  0.10270741441E+02  0.10239552626E+03  0.10564877381E+03  0.00000000000E+00 0. -1.
         -4    1    1    2    0  502  0.66956932636E+02  0.16566820029E+02  0.68328256127E+02  0.97089860126E+02  0.00000000000E+00 0.  1.
<scales pt_clust_5="13000.00000" pt_clust_6="13000.00000" pt_clust_7="13000.00000" pt_clust_8="13000.00000" pt_clust_9="13000.00000"></scales>
<clustering>
<clus scale="   84.607">  5  6 -1 -1</clus>
<clus scale="   90.512">  7  8 -1 -1</clus>
<clus scale="   68.976">  7  9 -1 -1</clus>
<clus scale="  106.371">  2  5  1 -1</clus>
<clus scale="  196.201">  1  5  2 -1</clus>
</clustering>
</event>
<event>
 9    2  0.3707658E-005  0.3637116E+03  0.7546771E-02  0.1107364E+00
          4   -1    0    0  502    0 -0.00000000000E+00  0.00000000000E+00  0.78416585972E+02  0.78416585972E+02  0.00000000000E+00 0. -1.
         21   -1    0    0  501  502  0.00000000000E+00 -0.00000000000E+00 -0.86553449122E+03  0.86553449122E+03  0.00000000000E+00 0. -1.
         24    2    1    2    0    0  0.34096319079E+02 -0.32085124605E+02 -0.40716769312E+03  0.41797739459E+03  0.82021691468E+02 0.  0.
         23    2    1    2    0    0 -0.40410575328E+02 -0.13782670338E+03 -0.28459968472E+03  0.33103363490E+03  0.89202422232E+02 0.  0.
        -11    1    3    3    0    0  0.97467693230E+01 -0.23905127884E+02 -0.28556422035E+02  0.38495764583E+02  0.00000000000E+00 0.  1.
         12    1    3    3    0    0  0.24349549756E+02 -0.81799967216E+01 -0.37861127108E+03  0.37948163001E+03  0.00000000000E+00 0. -1.
        -11    1    4    4    0    0 -0.28458275590E+02 -0.11788066455E+03 -0.28280878823E+03  0.30771177297E+03  0.00000000000E+00 0. -1.
         11    1    4    4    0    0 -0.11952299738E+02 -0.19946038823E+02 -0.17908964916E+01  0.23321861933E+02  0.00000000000E+00 0.  1.
          3    1    1    2  501    0  0.63142562486E+01  0.16991182798E+03 -0.95350527407E+02  0.19494004770E+03  0.00000000000E+00 0. -1.
<scales pt_clust_5="13000.00000" pt_clust_6="13000.00000" pt_clust_7="13000.00000" pt_clust_8="13000.00000" pt_clust_9="13000.00000"></scales>
<clustering>
<clus scale="   82.022">  5  6 -1 -1</clus>
<clus scale="   89.202">  7  8 -1 -1</clus>
<clus scale="   94.444">  1  5  2 -1</clus>
<clus scale="  150.954">  7  9 -1 -1</clus>
<clus scale="  363.712">  2  5  1 -1</clus>
</clustering>
</event>
<event>
 9    2  0.3707658E-005  0.1960984E+03  0.7546771E-02  0.1188482E+00
         21   -1    0    0  501  502  0.00000000000E+00  0.00000000000E+00  0.50922079027E+02  0.50922079027E+02  0.00000000000E+00 0.  1.
          2   -1    0    0  502    0 -0.00000000000E+00 -0.00000000000E+00 -0.39490378513E+03  0.39490378513E+03  0.00000000000E+00 0. -1.
         24    2    1    2    0    0  0.19859671389E+02  0.44316317058E+02 -0.98467489191E+02  0.13160966905E+03  0.72573521725E+02 0.  0.
         23    2    1    2    0    0 -0.71373870780E+02 -0.28975771148E+02 -0.89930392318E+02  0.14960947725E+03  0.91442306819E+02 0.  0.
        -13    1    3    3    0    0 -0.21662952204E+02  0.32279799109E+02 -0.24550161073E+02  0.45978031030E+02  0.00000000000E+00 0.  1.
         14    1    3    3    0    0  0.41522623593E+02  0.12036517949E+02 -0.73917328118E+02  0.85631638023E+02  0.00000000000E+00 0. -1.
        -11    1    4    4    0    0 -0.91951748354E+01  0.20955565798E+02 -0.60369647689E+02  0.64561453982E+02  0.00000000000E+00 0. -1.
         11    1    4    4    0    0 -0.62178695945E+02 -0.49931336946E+02 -0.29560744629E+02  0.85048023267E+02  0.00000000000E+00 0.  1.
          1    1    1    2  501    0  0.51514199391E+02 -0.15340545910E+02 -0.15558382459E+03  0.16460671785E+03  0.00000000000E+00 0. -1.
<scales pt_clust_5="13000.00000" pt_clust_6="13000.00000" pt_clust_7="13000.00000" pt_clust_8="13000.00000" pt_clust_9="13000.00000"></scales>
<clustering>
<clus scale="   72.574">  5  6 -1 -1</clus>
<clus scale="   87.323">  2  5  1 -1</clus>
<clus scale="   91.442">  7  8 -1 -1</clus>
<clus scale="   63.667">  7  9 -1 -1</clus>
<clus scale="  196.098">  1  5  2 -1</clus>
</clustering>
</event>
<event>
 9    2  0.3707658E-005  0.1766059E+03  0.7546771E-02  0.1203514E+00
         21   -1    0    0  501  502  0.00000000000E+00  0.00000000000E+00  0.42518252668E+03  0.42518252668E+03  0.00000000000E+00 0.  1.
         -1   -1    0    0    0  501 -0.00000000000E+00 -0.00000000000E+00 -0.42536232614E+02  0.42536232614E+02  0.00000000000E+00 0.  1.
         24    2    1    2    0    0 -0.21787343294E+02 -0.17145765044E+02  0.81009916595E+02  0.11818459492E+03  0.81463650199E+02 0.  0.
         23    2    1    2    0    0 -0.91063611629E+01 -0.37834465323E+02  0.12094305139E+03  0.15815149850E+03  0.94182281870E+02 0.  0.
        -11    1    3    3    0    0  0.28068972173E+02 -0.22407054761E+02  0.33300702517E+02  0.48978363489E+02  0.00000000000E+00 0.  1.
         12    1    3    3    0    0 -0.49856315467E+02  0.52612897169E+01  0.47709214078E+02  0.69206231434E+02  0.00000000000E+00 0. -1.
        -11    1    4    4    0    0  0.15506983423E+02 -0.22386201309E+02 -0.60328637841E+01  0.27892722875E+02  0.00000000000E+00 0. -1.
         11    1    4    4    0    0 -0.24613344586E+02 -0.15448264014E+02  0.12697591518E+03  0.13025877563E+03  0.00000000000E+00 0.  1.
         -2    1    1    2    0  502  0.30893704457E+02  0.54980230367E+02  0.18069332607E+03  0.19138266587E+03  0.00000000000E+00 0.  1.
<scales pt_clust_5="13000.00000" pt_clust_6="13000.00000" pt_clust_7="13000.00000" pt_clust_8="13000.00000" pt_clust_9="13000.00000"></scales>
<clustering>
<clus scale="   81.464">  5  6 -1 -1</clus>
<clus scale="   86.052">  2  5  1 -1</clus>
<clus scale="   94.182">  7  8 -1 -1</clus>
<clus scale="   57.396">  7  9 -1 -1</clus>
<clus scale="  176.606">  1  5  2 -1</clus>
</clustering>
</event>
<event>
 9    2  0.3707658E-005  0.2938060E+03  0.7546771E-02  0.1130441E+00
          2   -1    0    0  502    0 -0.00000000000E+00  0.00000000000E+00  0.54454082175E+03  0.54454082175E+03  0.00000000000E+00 0. -1.
         21   -1    0    0  501  502  0.00000000000E+00 -0.00000000000E+00 -0.71706426864E+02  0.71706426864E+02  0.00000000000E+00 0. -1.
         24    2    1    2    0    0  0.64041919257E+01 -0.66963370977E+02  0.13936244245E+03  0.17180880784E+03  0.74640936226E+02 0.  0.
         23    2    1    2    0    0 -0.15207916886E+02 -0.70108501435E+02  0.27461792047E+03  0.29500617900E+03  0.80418658864E+02 0.  0.
        -11    1    3    3    0    0  0.30425188312E+02 -0.28820303465E+02  0.24798040178E+02  0.48695428660E+02  0.00000000000E+00 0.  1.
         12    1    3    3    0    0 -0.24020996386E+02 -0.38143067511E+02  0.11456440227E+03  0.12311337918E+03  0.00000000000E+00 0. -1.
        -11    1    4    4    0    0  0.27235042514E+02 -0.16225681714E+02  0.14427790054E+03  0.14771977820E+03  0.00000000000E+00 0. -1.
         11    1    4    4    0    0 -0.42442959400E+02 -0.53882819721E+02  0.13034001993E+03  0.14728640080E+03  0.00000000000E+00 0.  1.
          1    1    1    2  501    0  0.88037249601E+01  0.13707187241E+03  0.58854031966E+02  0.14943226177E+03  0.00000000000E+00 0. -1.
<scales pt_clust_5="13000.00000" pt_clust_6="13000.00000" pt_clust_7="13000.00000" pt_clust_8="13000.00000" pt_clust_9="13000.00000"></scales>
<clustering>
<clus scale="   74.641">  5  6 -1 -1</clus>
<clus scale="   80.419">  7  8 -1 -1</clus>
<clus scale="  100.481">  1  5  2 -1</clus>
<clus scale="  119.606">  7  9 -1 -1</clus>
<clus scale="  293.806">  2  5  1 -1</clus>
</clustering>
</event>
<event>
 9    2  0.4537525E-005  0.5877714E+03  0.7546771E-02  0.1021780E+00
         21   -1    0    0  501  502  0.00000000000E+00  0.00000000000E+00  0.24763002702E+03  0.24763002702E+03  0.00000000000E+00 0. -1.
          4   -1    0    0  502    0 -0.00000000000E+00 -0.00000000000E+00 -0.70247662547E+03  0.70247662547E+03  0.00000000000E+00 0. -1.
         24    2    1    2    0    0 -0.22779929645E+03  0.18328716172E+01 -0.18105852374E+03  0.30169696860E+03  0.79642909032E+02 0.  0.
         23    2    1    2    0    0 -0.15303765724E+03 -0.33112433131E+02 -0.17842946237E+03  0.25457156840E+03  0.91938308862E+02 0.  0.
        -13    1    3    3    0    0 -0.62819527986E+02  0.36593846964E+02 -0.52585269624E+02  0.89725210022E+02  0.00000000000E+00 0.  1.
         14    1    3    3    0    0 -0.16497976847E+03 -0.34760975347E+02 -0.12847325411E+03  0.21197175857E+03  0.00000000000E+00 0. -1.
        -11    1    4    4    0    0 -0.12645148778E+03  0.87530181731E-01 -0.16888805910E+03  0.21098142792E+03  0.00000000000E+00 0. -1.
         11    1    4    4    0    0 -0.26586169464E+02 -0.33199963312E+02 -0.95414032707E+01  0.43590140480E+02  0.00000000000E+00 0.  1.
          3    1    1    2  501    0  0.38083695370E+03  0.31279561514E+02 -0.95358612343E+02  0.39383811550E+03  0.00000000000E+00 0. -1.
<scales pt_clust_5="13000.00000" pt_clust_6="13000.00000" pt_clust_7="13000.00000" pt_clust_8="13000.00000" pt_clust_9="13000.00000"></scales>
<clustering>
<clus scale="   79.643">  5  6 -1 -1</clus>
<clus scale="   91.938">  7  8 -1 -1</clus>
<clus scale="  241.327">  2  5  1 -1</clus>
<clus scale="  261.990">  7  9 -1 -1</clus>
<clus scale="  587.771">  1  5  2 -1</clus>
</clustering>
</event>
<event>
 9    2  0.3707658E-005  0.1840580E+03  0.7546771E-02  0.1189220E+00
         21   -1    0    0  501  502  0.00000000000E+00  0.00000000000E+00  0.23890546341E+02  0.23890546341E+02  0.00000000000E+00 0.  1.
          2   -1    0    0  502    0 -0.00000000000E+00 -0.00000000000E+00 -0.88153373287E+03  0.88153373287E+03  0.00000000000E+00 0. -1.
         24    2    1    2    0    0  0.18073950775E+02  0.63631064478E+02 -0.36590453826E+03  0.38036786930E+03  0.80112451088E+02 0.  0.
         23    2    1    2    0    0  0.28781390775E+02 -0.40762420414E+02 -0.17419276110E+03  0.20325866539E+03  0.92092473444E+02 0.  0.
        -11    1    3    3    0    0  0.47048591275E+02  0.23289763901E+02 -0.22236458815E+03  0.22847755493E+03  0.00000000000E+00 0.  1.
         12    1    3    3    0    0 -0.28974640499E+02  0.40341300578E+02 -0.14353995011E+03  0.15189031438E+03  0.00000000000E+00 0. -1.
        -11    1    4    4    0    0  0.57328134030E+02 -0.48172287027E+02 -0.11702146979E+03  0.13892842971E+03  0.00000000000E+00 0.  1.
         11    1    4    4    0    0 -0.28546743254E+02  0.74098666126E+01 -0.57171291306E+02  0.64330235685E+02  0.00000000000E+00 0. -1.
          1    1    1    2  501    0 -0.46855341551E+02 -0.22868644064E+02 -0.31754588717E+03  0.32179774451E+03  0.00000000000E+00 0. -1.
<scales pt_clust_5="13000.00000" pt_clust_6="13000.00000" pt_clust_7="13000.00000" pt_clust_8="13000.00000" pt_clust_9="13000.00000"></scales>
<clustering>
<clus scale="   80.112">  5  6 -1 -1</clus>
<clus scale="   92.092">  7  8 -1 -1</clus>
<clus scale="   52.138">  7  9 -1 -1</clus>
<clus scale="  103.892">  2  5  1 -1</clus>
<clus scale="  184.058">  1  5  2 -1</clus>
</clustering>
</event>
<event>
 9    2  0.3707658E-005  0.4572692E+03  0.7546771E-02  0.1072724E+00
         21   -1    0    0  501  502  0.00000000000E+00  0.00000000000E+00  0.13420609965E+03  0.13420609965E+03  0.00000000000E+00 0. -1.
          2   -1    0    0  502    0 -0.00000000000E+00 -0.00000000000E+00 -0.69246858235E+03  0.69246858235E+03  0.00000000000E+00 0. -1.
         24    2    1    2    0    0 -0.77227383124E+01  0.86026713840E+02 -0.24537110849E+03  0.27260235945E+03  0.81515822485E+02 0.  0.
         23    2    1    2    0    0 -0.13370822819E+03  0.78007247767E+02 -0.81746932132E+01  0.18022460687E+03  0.91929659637E+02 0.  0.
        -11    1    3    3    0    0  0.26099841972E+02  0.39194702569E+02 -0.49204787266E+02  0.68106809868E+02  0.00000000000E+00 0.  1.
         12    1    3    3    0    0 -0.33822580285E+02  0.46832011271E+02 -0.19616632122E+03  0.20449554958E+03  0.00000000000E+00 0. -1.
        -11    1    4    4    0    0 -0.45327989178E+02 -0.28055946963E+01 -0.35196293256E+02  0.57456740453E+02  0.00000000000E+00 0.  1.
         11    1    4    4    0    0 -0.88380239011E+02  0.80812842463E+02  0.27021600043E+02  0.12276786641E+03  0.00000000000E+00 0. -1.
          1    1    1    2  501    0  0.14143096650E+03 -0.16403396161E+03 -0.30471668100E+03  0.37384771569E+03  0.00000000000E+00 0. -1.
<scales pt_clust_5="13000.00000" pt_clust_6="13000.00000" pt_clust_7="13000.00000" pt_clust_8="13000.00000" pt_clust_9="13000.00000"></scales>
<clustering>
<clus scale="   81.516">  5  6 -1 -1</clus>
<clus scale="   91.930">  7  8 -1 -1</clus>
<clus scale="  118.765">  2  5  1 -1</clus>
<clus scale="  166.375">  7  9 -1 -1</clus>
<clus scale="  457.269">  1  5  2 -1</clus>
</clustering>
</event>
<event>
 9    2  0.3707658E-005  0.5571022E+03  0.7546771E-02  0.1041417E+00
          2   -1    0    0  502    0 -0.00000000000E+00  0.00000000000E+00  0.16466839007E+04  0.16466839007E+04  0.00000000000E+00 0. -1.
         21   -1    0    0  501  502  0.00000000000E+00 -0.00000000000E+00 -0.86262505031E+02  0.86262505031E+02  0.00000000000E+00 0. -1.
         24    2    1    2    0    0 -0.12602844575E+03 -0.52170333203E+02  0.61953230660E+03  0.63949536341E+03  0.80803020382E+02 0.  0.
         23    2    1    2    0    0  0.15413449138E+03 -0.21785836164E+03  0.42359127445E+03  0.50924005744E+03  0.93145913171E+02 0.  0.
        -13    1    3    3    0    0 -0.57094478285E+02  0.67065526191E+01  0.13785290344E+03  0.14935923234E+03  0.00000000000E+00 0.  1.
         14    1    3    3    0    0 -0.68933967463E+02 -0.58876885823E+02  0.48167940316E+03  0.49013613108E+03  0.00000000000E+00 0. -1.
        -13    1    4    4    0    0  0.12914408829E+03 -0.17228128375E+03  0.39511502437E+03  0.44997213109E+03  0.00000000000E+00 0. -1.
         13    1    4    4    0    0  0.24990403090E+02 -0.45577077889E+02  0.28476250080E+02  0.59267926353E+02  0.00000000000E+00 0.  1.
          1    1    1    2  501    0 -0.28106045636E+02  0.27002869484E+03  0.51729781458E+03  0.58421098484E+03  0.00000000000E+00 0. -1.
<scales pt_clust_5="13000.00000" pt_clust_6="13000.00000" pt_clust_7="13000.00000" pt_clust_8="13000.00000" pt_clust_9="13000.00000"></scales>
<clustering>
<clus scale="   80.803">  5  6 -1 -1</clus>
<clus scale="   93.146">  7  8 -1 -1</clus>
<clus scale="  158.537">  1  5  2 -1</clus>
<clus scale="  260.270">  7  9 -1 -1</clus>
<clus scale="  557.102">  2  5  1 -1</clus>
</clustering>
</event>
<event>
 9    2  0.4098424E-005  0.4845967E+03  0.7546771E-02  0.1063672E+00
          2   -1    0    0  502    0 -0.00000000000E+00  0.00000000000E+00  0.15896697354E+04  0.15896697354E+04  0.00000000000E+00 0. -1.
         21   -1    0    0  501  502  0.00000000000E+00 -0.00000000000E+00 -0.60231270403E+02  0.60231270403E+02  0.00000000000E+00 0. -1.
         24    2    1    2    0    0 -0.98646981057E+02  0.68788948268E+01  0.42392057700E+03  0.44283689362E+03  0.81346866428E+02 0.  0.
         23    2    1    2    0    0 -0.84756824421E+02  0.85460743504E+02  0.10026306731E+03  0.18105201714E+03  0.90773852394E+02 0.  0.
        -13    1    3    3    0    0 -0.25010328772E+01 -0.20311290800E+02  0.29138680801E+02  0.35607111905E+02  0.00000000000E+00 0.  1.
         14    1    3    3    0    0 -0.96145948180E+02  0.27190185626E+02  0.39478189620E+03  0.40722978171E+03  0.00000000000E+00 0. -1.
        -13    1    4    4    0    0 -0.29774577946E+02 -0.59012514108E+01  0.59687731167E+02  0.66962493323E+02  0.00000000000E+00 0.  1.
         13    1    4    4    0    0 -0.54982246474E+02  0.91361994915E+02  0.40575336146E+02  0.11408952382E+03  0.00000000000E+00 0. -1.
          1    1    1    2  501    0  0.18340380548E+03 -0.92339638331E+02  0.10052548207E+04  0.10260120951E+04  0.00000000000E+00 0. -1.
<scales pt_clust_5="13000.00000" pt_clust_6="13000.00000" pt_clust_7="13000.00000" pt_clust_8="13000.00000" pt_clust_9="13000.00000"></scales>
<clustering>
<clus scale="   81.347">  5  6 -1 -1</clus>
<clus scale="   90.774">  7  8 -1 -1</clus>
<clus scale="  128.046">  1  5  2 -1</clus>
<clus scale="  129.650">  7  9 -1 -1</clus>
<clus scale="  484.597">  2  5  1 -1</clus>
</clustering>
</event>
<event>
 9    2  0.3707658E-005  0.3994878E+03  0.7546771E-02  0.1093410E+00
          2   -1    0    0  502    0 -0.00000000000E+00  0.00000000000E+00  0.47237001001E+03  0.47237001001E+03  0.00000000000E+00 0. -1.
         21   -1    0    0  501  502  0.00000000000E+00 -0.00000000000E+00 -0.14929566317E+03  0.14929566317E+03  0.00000000000E+00 0. -1.
         24    2    1    2    0    0  0.12159472473E+01 -0.63499636620E+02 -0.82270038301E+01  0.10267525004E+03  0.80254850318E+02 0.  0.
         23    2    1    2    0    0  0.52812749586E+02 -0.13872219362E+03  0.84247213221E+02  0.19518721818E+03  0.94696481908E+02 0.  0.
        -13    1    3    3    0    0 -0.32356123461E+02 -0.48874826029E+02  0.13426944547E+02  0.60132771304E+02  0.00000000000E+00 0.  1.
         14    1    3    3    0    0  0.33572070708E+02 -0.14624810591E+02 -0.21653948377E+02  0.42542478733E+02  0.00000000000E+00 0. -1.
        -13    1    4    4    0    0  0.76566506437E+02 -0.10599217784E+03  0.43557825535E+02  0.13781892408E+03  0.00000000000E+00 0. -1.
         13    1    4    4    0    0 -0.23753756851E+02 -0.32730015781E+02  0.40689387685E+02  0.57368294098E+02  0.00000000000E+00 0.  1.
          1    1    1    2  501    0 -0.54028696834E+02  0.20222183024E+03  0.24705413745E+03  0.32380320496E+03  0.00000000000E+00 0. -1.
<scales pt_clust_5="13000.00000" pt_clust_6="13000.00000" pt_clust_7="13000.00000" pt_clust_8="13000.00000" pt_clust_9="13000.00000"></scales>
<clustering>
<clus scale="   80.255">  5  6 -1 -1</clus>
<clus scale="   94.696">  7  8 -1 -1</clus>
<clus scale="  102.345">  1  5  2 -1</clus>
<clus scale="  168.228">  7  9 -1 -1</clus>
<clus scale="  399.488">  2  5  1 -1</clus>
</clustering>
</event>
<event>
 9    2  0.3707658E-005  0.6594381E+03  0.7546771E-02  0.1002693E+00
          2   -1    0    0  502    0 -0.00000000000E+00  0.00000000000E+00  0.51768498859E+03  0.51768498859E+03  0.00000000000E+00 0. -1.
         21   -1    0    0  501  502  0.00000000000E+00 -0.00000000000E+00 -0.45355298351E+03  0.45355298351E+03  0.00000000000E+00 0. -1.
         24    2    1    2    0    0  0.11671100530E+03 -0.27282092070E+03  0.52010451623E+02  0.31168851913E+03  0.79949561288E+02 0.  0.
         23    2    1    2    0    0  0.17347072728E+03 -0.62031550858E+02 -0.55323233106E+02  0.21135260463E+03  0.87574293248E+02 0.  0.
        -13    1    3    3    0    0  0.53871423198E+02 -0.14986920208E+03 -0.11563717289E+02  0.15967663426E+03  0.00000000000E+00 0.  1.
         14    1    3    3    0    0  0.62839582103E+02 -0.12295171861E+03  0.63574168912E+02  0.15201188487E+03  0.00000000000E+00 0. -1.
        -11    1    4    4    0    0  0.18397564098E+02 -0.35923476343E+02 -0.33773903216E+02  0.52627398337E+02  0.00000000000E+00 0.  1.
         11    1    4    4    0    0  0.15507316318E+03 -0.26108074515E+02 -0.21549329890E+02  0.15872520629E+03  0.00000000000E+00 0. -1.
          1    1    1    2  501    0 -0.29018173258E+03  0.33485247155E+03  0.67444786562E+02  0.44819684834E+03  0.00000000000E+00 0. -1.
<scales pt_clust_5="13000.00000" pt_clust_6="13000.00000" pt_clust_7="13000.00000" pt_clust_8="13000.00000" pt_clust_9="13000.00000"></scales>
<clustering>
<clus scale="   79.950">  5  6 -1 -1</clus>
<clus scale="   87.574">  7  8 -1 -1</clus>
<clus scale="  307.318">  1  5  2 -1</clus>
<clus scale="  236.560">  7  9 -1 -1</clus>
<clus scale="  659.438">  2  5  1 -1</clus>
</clustering>
</event>
<event>
 9    2  0.3707658E-005  0.4363297E+03  0.7546771E-02  0.1051031E+00
         21   -1    0    0  501  502  0.00000000000E+00  0.00000000000E+00  0.13971782950E+03  0.13971782950E+03  0.00000000000E+00 0. -1.
          2   -1    0    0  502    0 -0.00000000000E+00 -0.00000000000E+00 -0.11965037117E+04  0.11965037117E+04  0.00000000000E+00 0. -1.
         24    2    1    2    0    0  0.23720125264E+03  0.10509923335E+02 -0.78078251847E+03  0.81992564935E+03  0.79258037851E+02 0.  0.
         23    2    1    2    0    0  0.11672563448E+02  0.65426558320E+01 -0.24939583787E+03  0.26542355931E+03  0.89846128480E+02 0.  0.
        -11    1    3    3    0    0  0.91966822321E+02 -0.18527240636E+02 -0.41129774481E+03  0.42186133970E+03  0.00000000000E+00 0.  1.
         12    1    3    3    0    0  0.14523443032E+03  0.29037163972E+02 -0.36948477366E+03  0.39806430964E+03  0.00000000000E+00 0. -1.
        -11    1    4    4    0    0 -0.21650286162E+02  0.38808390937E+02 -0.11970327443E+03  0.12768594287E+03  0.00000000000E+00 0. -1.
         11    1    4    4    0    0  0.33322849610E+02 -0.32265735105E+02 -0.12969256345E+03  0.13773761643E+03  0.00000000000E+00 0.  1.
          1    1    1    2  501    0 -0.24887381609E+03 -0.17052579167E+02 -0.26607525822E+02  0.25087233252E+03  0.00000000000E+00 0. -1.
<scales pt_clust_5="13000.00000" pt_clust_6="13000.00000" pt_clust_7="13000.00000" pt_clust_8="13000.00000" pt_clust_9="13000.00000"></scales>
<clustering>
<clus scale="   79.258">  5  6 -1 -1</clus>
<clus scale="   89.846">  7  8 -1 -1</clus>
<clus scale="  249.457">  7  9 -1 -1</clus>
<clus scale="  250.313">  2  5  1 -1</clus>
<clus scale="  436.330">  1  5  2 -1</clus>
</clustering>
</event>
<event>
 9    2  0.3707658E-005  0.3092563E+03  0.7546771E-02  0.1104953E+00
         21   -1    0    0  501  502  0.00000000000E+00  0.00000000000E+00  0.25141285349E+03  0.25141285349E+03  0.00000000000E+00 0.  1.
         -1   -1    0    0    0  501 -0.00000000000E+00 -0.00000000000E+00 -0.49909761900E+03  0.49909761900E+03  0.00000000000E+00 0.  1.
         24    2    1    2    0    0  0.13316181057E+03  0.51105962481E+02 -0.38036768085E+03  0.41399273776E+03  0.79790520051E+02 0.  0.
         23    2    1    2    0    0 -0.12179624345E+03  0.83010878589E+02  0.61203850927E+02  0.18411773531E+03  0.91805763465E+02 0.  0.
        -13    1    3    3    0    0  0.35782170238E+02  0.36252019625E+02 -0.21973489789E+03  0.22556151707E+03  0.00000000000E+00 0.  1.
         14    1    3    3    0    0  0.97379640328E+02  0.14853942856E+02 -0.16063278297E+03  0.18843122069E+03  0.00000000000E+00 0. -1.
        -11    1    4    4    0    0 -0.82100864849E+02  0.85996606859E+02  0.76603072454E+02  0.14143549452E+03  0.00000000000E+00 0.  1.
         11    1    4    4    0    0 -0.39695378597E+02 -0.29857282705E+01 -0.15399221527E+02  0.42682240791E+02  0.00000000000E+00 0. -1.
         -2    1    1    2    0  502 -0.11365567120E+02 -0.13411684107E+03  0.71479064412E+02  0.15239999942E+03  0.00000000000E+00 0.  1.
<scales pt_clust_5="13000.00000" pt_clust_6="13000.00000" pt_clust_7="13000.00000" pt_clust_8="13000.00000" pt_clust_9="13000.00000"></scales>
<clustering>
<clus scale="   79.791">  5  6 -1 -1</clus>
<clus scale="   91.806">  7  8 -1 -1</clus>
<clus scale="  134.598">  7  9 -1 -1</clus>
<clus scale="  163.433">  2  5  1 -1</clus>
<clus scale="  309.256">  1  5  2 -1</clus>
</clustering>
</event>
<event>
 9    2  0.3707658E-005  0.3373243E+03  0.7546771E-02  0.1087875E+00
          2   -1    0    0  502    0 -0.00000000000E+00  0.00000000000E+00  0.58656455217E+03  0.58656455217E+03  0.00000000000E+00 0. -1.
         21   -1    0    0  501  502  0.00000000000E+00 -0.00000000000E+00 -0.13159027605E+03  0.13159027605E+03  0.00000000000E+00 0. -1.
         24    2    1    2    0    0 -0.48910627824E+02 -0.17132424102E+03  0.26804474164E+03  0.33249906697E+03  0.83446994816E+02 0.  0.
         23    2    1    2    0    0  0.24751012084E+02 -0.52314705487E+02  0.89075412629E+02  0.14035289825E+03  0.91733668324E+02 0.  0.
        -11    1    3    3    0    0 -0.51467681041E+02 -0.44440730252E+02  0.11587481092E+03  0.13435353551E+03  0.00000000000E+00 0.  1.
         12    1    3    3    0    0  0.25570532178E+01 -0.12688351077E+03  0.15216993071E+03  0.19814553147E+03  0.00000000000E+00 0. -1.
        -11    1    4    4    0    0 -0.18182463220E+02 -0.40425226061E+02  0.42357469030E+01  0.44527995943E+02  0.00000000000E+00 0.  1.
         11    1    4    4    0    0  0.42933475304E+02 -0.11889479426E+02  0.84839665726E+02  0.95824902312E+02  0.00000000000E+00 0. -1.
          1    1    1    2  501    0  0.24159615739E+02  0.22363894651E+03  0.97854121854E+02  0.24530286299E+03  0.00000000000E+00 0. -1.
<scales pt_clust_5="13000.00000" pt_clust_6="13000.00000" pt_clust_7="13000.00000" pt_clust_8="13000.00000" pt_clust_9="13000.00000"></scales>
<clustering>
<clus scale="   83.447">  5  6 -1 -1</clus>
<clus scale="   91.734">  7  8 -1 -1</clus>
<clus scale="  196.743">  1  5  2 -1</clus>
<clus scale="  121.072">  7  9 -1 -1</clus>
<clus scale="  337.324">  2  5  1 -1</clus>
</clustering>
</event>
<event>
 9    2  0.3707658E-005  0.2575797E+03  0.7546771E-02  0.1134511E+00
         21   -1    0    0  501  502  0.00000000000E+00  0.00000000000E+00  0.49304969957E+02  0.49304969957E+02  0.00000000000E+00 0.  1.
         -1   -1    0    0    0  501 -0.00000000000E+00 -0.00000000000E+00 -0.87084987658E+03  0.87084987658E+03  0.00000000000E+00 0.  1.
         24    2    1    2    0    0 -0.13248478373E+02 -0.10787864386E+03 -0.15483720959E+03  0.20541959851E+03  0.80058266273E+02 0.  0.
         23    2    1    2    0    0 -0.34315653632E+02 -0.27772984553E+02 -0.39406968974E+03  0.40652234439E+03  0.89557765518E+02 0.  0.
        -13    1    3    3    0    0 -0.42932645234E+02 -0.82547186197E+02 -0.12721228849E+03  0.15760779269E+03  0.00000000000E+00 0.  1.
         14    1    3    3    0    0  0.29684166861E+02 -0.25331457664E+02 -0.27624921104E+02  0.47811805819E+02  0.00000000000E+00 0. -1.
        -13    1    4    4    0    0  0.22718183207E+02 -0.15652973217E+02 -0.46282727911E+02  0.53881558271E+02  0.00000000000E+00 0. -1.
         13    1    4    4    0    0 -0.57033836840E+02 -0.12120011336E+02 -0.34778696183E+03  0.35264078612E+03  0.00000000000E+00 0.  1.
         -2    1    1    2    0  502  0.47564132005E+02  0.13565162841E+03 -0.27263800729E+03  0.30821290363E+03  0.00000000000E+00 0.  1.
<scales pt_clust_5="13000.00000" pt_clust_6="13000.00000" pt_clust_7="13000.00000" pt_clust_8="13000.00000" pt_clust_9="13000.00000"></scales>
<clustering>
<clus scale="   80.058">  5  6 -1 -1</clus>
<clus scale="   89.558">  7  8 -1 -1</clus>
<clus scale="  134.991">  2  5  1 -1</clus>
<clus scale="   99.580">  7  9 -1 -1</clus>
<clus scale="  257.580">  1  5  2 -1</clus>
</clustering>
</event>
<event>
 9    2  0.3707658E-005  0.2646352E+03  0.7546771E-02  0.1132965E+00
         -1   -1    0    0    0  501 -0.00000000000E+00  0.00000000000E+00  0.13996058407E+03  0.13996058407E+03  0.00000000000E+00 0.  1.
         21   -1    0    0  501  502  0.00000000000E+00 -0.00000000000E+00 -0.29077885471E+03  0.29077885471E+03  0.00000000000E+00 0. -1.
         24    2    1    2    0    0  0.23680508345E+02  0.98592844986E+02 -0.94643142411E+02  0.16020763812E+03  0.80173857006E+02 0.  0.
         23    2    1    2    0    0  0.25229353739E+02 -0.10875149994E+03 -0.12138075282E+03  0.18839078559E+03  0.91073552198E+02 0.  0.
        -13    1    3    3    0    0 -0.22524196887E+02  0.66234520271E+02 -0.68938284445E+02  0.98218318980E+02  0.00000000000E+00 0.  1.
         14    1    3    3    0    0  0.46204705232E+02  0.32358324715E+02 -0.25704857966E+02  0.61989319136E+02  0.00000000000E+00 0. -1.
        -13    1    4    4    0    0 -0.46736686229E+01 -0.11350685880E+03 -0.99727697131E+02  0.15116634463E+03  0.00000000000E+00 0. -1.
         13    1    4    4    0    0  0.29903022362E+02  0.47553588570E+01 -0.21653055685E+02  0.37224440959E+02  0.00000000000E+00 0.  1.
         -2    1    1    2    0  502 -0.48909862084E+02  0.10158654957E+02  0.65205624592E+02  0.82141015078E+02  0.00000000000E+00 0.  1.
<scales pt_clust_5="13000.00000" pt_clust_6="13000.00000" pt_clust_7="13000.00000" pt_clust_8="13000.00000" pt_clust_9="13000.00000"></scales>
<clustering>
<clus scale="   80.174">  5  6 -1 -1</clus>
<clus scale="   91.074">  7  8 -1 -1</clus>
<clus scale="   49.954">  7  9 -1 -1</clus>
<clus scale="  129.264">  1  5  2 -1</clus>
<clus scale="  264.635">  2  5  1 -1</clus>
</clustering>
</event>
<event>
 9    2  0.5969797E-005  0.7592206E+03  0.7546771E-02  0.9901327E-01
          2   -1    0    0  502    0 -0.00000000000E+00  0.00000000000E+00  0.98729471488E+03  0.98729471488E+03  0.00000000000E+00 0. -1.
         21   -1    0    0  501  502  0.00000000000E+00 -0.00000000000E+00 -0.32870082184E+03  0.32870082184E+03  0.00000000000E+00 0. -1.
         24    2    1    2    0    0 -0.27373561706E+03  0.80071204822E+02 -0.15851623344E+02  0.30046971308E+03  0.93210453423E+02 0.  0.
         23    2    1    2    0    0 -0.92544676018E+02  0.41674118568E+00  0.62290781546E+03  0.63698164237E+03  0.95743278742E+02 0.  0.
        -11    1    3    3    0    0 -0.16293248485E+03  0.92495170392E+02  0.30521181830E+01  0.18738107319E+03  0.00000000000E+00 0.  1.
         12    1    3    3    0    0 -0.11080313222E+03 -0.12423965570E+02 -0.18903741527E+02  0.11308863989E+03  0.00000000000E+00 0. -1.
        -13    1    4    4    0    0 -0.61260804377E+02  0.44888279539E+02  0.42540480271E+03  0.43213087133E+03  0.00000000000E+00 0. -1.
         13    1    4    4    0    0 -0.31283871641E+02 -0.44471538354E+02  0.19750301275E+03  0.20485077104E+03  0.00000000000E+00 0.  1.
          1    1    1    2  501    0  0.36628029308E+03 -0.80487946007E+02  0.51537700925E+02  0.37854418126E+03  0.00000000000E+00 0. -1.
<scales pt_clust_5="13000.00000" pt_clust_6="13000.00000" pt_clust_7="13000.00000" pt_clust_8="13000.00000" pt_clust_9="13000.00000"></scales>
<clustering>
<clus scale="   93.210">  5  6 -1 -1</clus>
<clus scale="   95.743">  7  8 -1 -1</clus>
<clus scale="  300.051">  1  5  2 -1</clus>
<clus scale="  302.647">  7  9 -1 -1</clus>
<clus scale="  759.221">  2  5  1 -1</clus>
</clustering>
</event>
<event>
 9    2  0.3707658E-005  0.5041378E+03  0.7546771E-02  0.1063659E+00
          2   -1    0    0  502    0 -0.00000000000E+00  0.00000000000E+00  0.13899842327E+04  0.13899842327E+04  0.00000000000E+00 0. -1.
         21   -1    0    0  501  502  0.00000000000E+00 -0.00000000000E+00 -0.69327796749E+02  0.69327796749E+02  0.00000000000E+00 0. -1.
         24    2    1    2    0    0  0.67209756290E+02  0.43929037233E+02  0.30235069861E+03  0.32304557533E+03  0.80595205443E+02 0.  0.
         23    2    1    2    0    0  0.95560393421E+02  0.18122098202E+03  0.39777531861E+03  0.45638068918E+03  0.89918275338E+02 0.  0.
        -13    1    3    3    0    0  0.14813809814E+02  0.34255128585E+02  0.37566659487E+02  0.52953911099E+02  0.00000000000E+00 0.  1.
         14    1    3    3    0    0  0.52395946475E+02  0.96739086475E+01  0.26478403912E+03  0.27009166423E+03  0.00000000000E+00 0. -1.
        -13    1    4    4    0    0  0.46098992843E+02  0.13229733756E+02  0.10054267511E+03  0.11139556775E+03  0.00000000000E+00 0.  1.
         13    1    4    4    0    0  0.49461400578E+02  0.16799124826E+03  0.29723264350E+03  0.34498512142E+03  0.00000000000E+00 0. -1.
          1    1    1    2  501    0 -0.16277014971E+03 -0.22515001925E+03  0.62053041875E+03  0.67988576496E+03  0.00000000000E+00 0. -1.
<scales pt_clust_5="13000.00000" pt_clust_6="13000.00000" pt_clust_7="13000.00000" pt_clust_8="13000.00000" pt_clust_9="13000.00000"></scales>
<clustering>
<clus scale="   80.595">  5  6 -1 -1</clus>
<clus scale="   89.918">  7  8 -1 -1</clus>
<clus scale="  113.765">  1  5  2 -1</clus>
<clus scale="  233.218">  7  9 -1 -1</clus>
<clus scale="  504.138">  2  5  1 -1</clus>
</clustering>
</event>
<event>
 9    2  0.3707658E-005  0.3446155E+03  0.7546771E-02  0.1100710E+00
         21   -1    0    0  501  502  0.00000000000E+00  0.00000000000E+00  0.64844296744E+02  0.64844296744E+02  0.00000000000E+00 0. -1.
          2   -1    0    0  502    0 -0.00000000000E+00 -0.00000000000E+00 -0.12144948888E+04  0.12144948888E+04  0.00000000000E+00 0. -1.
         24    2    1    2    0    0 -0.43756451840E+02 -0.69457863000E+02 -0.70274652879E+03  0.71499614494E+03  0.10309113317E+03 0.  0.
         23    2    1    2    0    0 -0.85205745972E+02  0.24613997412E+02 -0.40113969773E+03  0.42034096460E+03  0.88924695176E+02 0.  0.
        -13    1    3    3    0    0  0.33273926652E+02 -0.30632987301E+02 -0.21952605029E+03  0.22413661205E+03  0.00000000000E+00 0.  1.
         14    1    3    3    0    0 -0.77030378492E+02 -0.38824875699E+02 -0.48322047850E+03  0.49085953289E+03  0.00000000000E+00 0. -1.
        -13    1    4    4    0    0 -0.23280859244E+02 -0.31558463375E+02 -0.17230320651E+03  0.17670973372E+03  0.00000000000E+00 0.  1.
         13    1    4    4    0    0 -0.61924886728E+02  0.56172460787E+02 -0.22883649122E+03  0.24363123088E+03  0.00000000000E+00 0. -1.
          1    1    1    2  501    0  0.12896219781E+03  0.44843865588E+02 -0.45764365560E+02  0.14400207603E+03  0.00000000000E+00 0. -1.
<scales pt_clust_5="13000.00000" pt_clust_6="13000.00000" pt_clust_7="13000.00000" pt_clust_8="13000.00000" pt_clust_9="13000.00000"></scales>
<clustering>
<clus scale="   88.925">  7  8 -1 -1</clus>
<clus scale="  103.091">  5  6 -1 -1</clus>
<clus scale="  131.783">  2  5  1 -1</clus>
<clus scale="  124.871">  7  9 -1 -1</clus>
<clus scale="  344.615">  1  5  2 -1</clus>
</clustering>
</event>
<event>
 9    2  0.3707658E-005  0.4036761E+03  0.7546771E-02  0.1068412E+00
         21   -1    0    0  501  502  0.00000000000E+00  0.00000000000E+00  0.37859036805E+03  0.37859036805E+03  0.00000000000E+00 0. -1.
          2   -1    0    0  502    0 -0.00000000000E+00 -0.00000000000E+00 -0.30278195391E+03  0.30278195391E+03  0.00000000000E+00 0. -1.
         24    2    1    2    0    0 -0.74691937946E+02  0.16164595883E+03 -0.12446800962E+03  0.23074495023E+03  0.77734452048E+02 0.  0.
         23    2    1    2    0    0  0.35256423313E+02  0.88919430651E+02  0.99416234958E+01  0.13350671581E+03  0.92604140067E+02 0.  0.
        -11    1    3    3    0    0 -0.31467968737E+02  0.52585186819E+02 -0.22326453288E+01  0.61322260512E+02  0.00000000000E+00 0.  1.
         12    1    3    3    0    0 -0.43223969209E+02  0.10906077201E+03 -0.12223536429E+03  0.16942268972E+03  0.00000000000E+00 0. -1.
        -13    1    4    4    0    0  0.55095563900E+02  0.96980752631E+02  0.10908954445E+02  0.11207048153E+03  0.00000000000E+00 0. -1.
         13    1    4    4    0    0 -0.19839140587E+02 -0.80613219799E+01 -0.96733094927E+00  0.21436234288E+02  0.00000000000E+00 0.  1.
          1    1    1    2  501    0  0.39435514634E+02 -0.25056538948E+03  0.19033480026E+03  0.31712065592E+03  0.00000000000E+00 0. -1.
<scales pt_clust_5="13000.00000" pt_clust_6="13000.00000" pt_clust_7="13000.00000" pt_clust_8="13000.00000" pt_clust_9="13000.00000"></scales>
<clustering>
<clus scale="   77.734">  5  6 -1 -1</clus>
<clus scale="   92.604">  7  8 -1 -1</clus>
<clus scale="  194.296">  2  5  1 -1</clus>
<clus scale="  168.710">  7  9 -1 -1</clus>
<clus scale="  403.676">  1  5  2 -1</clus>
</clustering>
</event>
<event>
 9    2  0.3707658E-005  0.2836741E+03  0.7546771E-02  0.1120052E+00
          2   -1    0    0  502    0 -0.00000000000E+00  0.00000000000E+00  0.77045304143E+03  0.77045304143E+03  0.00000000000E+00 0. -1.
         21   -1    0    0  501  502  0.00000000000E+00 -0.00000000000E+00 -0.67758489930E+02  0.67758489930E+02  0.00000000000E+00 0.  1.
         24    2    1    2    0    0 -0.86721948724E+02 -0.81745394528E+02  0.11135468318E+03  0.18235037738E+03  0.81540105142E+02 0.  0.
         23    2    1    2    0    0  0.13129600624E+02 -0.66053597456E+02  0.17591523562E+03  0.20882871536E+03  0.90154301531E+02 0.  0.
        -11    1    3    3    0    0 -0.75886925799E+02 -0.91218970414E+02  0.11723342355E+03  0.16680348218E+03  0.00000000000E+00 0.  1.
         12    1    3    3    0    0 -0.10835022925E+02  0.94735758853E+01 -0.58787403719E+01  0.15546895195E+02  0.00000000000E+00 0. -1.
        -11    1    4    4    0    0  0.44565432471E+02 -0.65657482046E+02  0.10828424980E+03  0.13424776153E+03  0.00000000000E+00 0. -1.
         11    1    4    4    0    0 -0.31435831847E+02 -0.39611541019E+00  0.67630985815E+02  0.74580953826E+02  0.00000000000E+00 0.  1.
          1    1    1    2  501    0  0.73592348100E+02  0.14779899198E+03  0.41542463270E+03  0.44703243863E+03  0.00000000000E+00 0. -1.
<scales pt_clust_5="13000.00000" pt_clust_6="13000.00000" pt_clust_7="13000.00000" pt_clust_8="13000.00000" pt_clust_9="13000.00000"></scales>
<clustering>
<clus scale="   81.540">  5  6 -1 -1</clus>
<clus scale="   90.154">  7  8 -1 -1</clus>
<clus scale="  144.402">  1  5  2 -1</clus>
<clus scale="   92.282">  7  9 -1 -1</clus>
<clus scale="  283.674">  2  5  1 -1</clus>
</clustering>
</event>
<event>
 9    2  0.3707658E-005  0.2197274E+03  0.7546771E-02  0.1175159E+00
          2   -1    0    0  502    0 -0.00000000000E+00  0.00000000000E+00  0.17074814198E+03  0.17074814198E+03  0.00000000000E+00 0. -1.
         21   -1    0    0  501  502  0.00000000000E+00 -0.00000000000E+00 -0.39780877060E+03  0.39780877060E+03  0.00000000000E+00 0. -1.
         24    2    1    2    0    0  0.12441496109E+02  0.22053532776E+02  0.12686574239E+03  0.15197076250E+03  0.79743632524E+02 0.  0.
         23    2    1    2    0    0  0.77430605810E+02  0.95802252274E+01 -0.15485681276E+03  0.19589093407E+03  0.91133671947E+02 0.  0.
        -11    1    3    3    0    0 -0.22044988093E+02 -0.16494017141E+02  0.22750529720E+02  0.35715832680E+02  0.00000000000E+00 0.  1.
         12    1    3    3    0    0  0.34486484202E+02  0.38547549918E+02  0.10411521267E+03  0.11625492982E+03  0.00000000000E+00 0. -1.
        -13    1    4    4    0    0  0.80528799644E+02 -0.25333671415E+02 -0.10102924842E+03  0.13165709824E+03  0.00000000000E+00 0. -1.
         13    1    4    4    0    0 -0.30981938340E+01  0.34913896642E+02 -0.53827564335E+02  0.64233835834E+02  0.00000000000E+00 0.  1.
          1    1    1    2  501    0 -0.89872101919E+02 -0.31633758004E+02 -0.19906955825E+03  0.22069521601E+03  0.00000000000E+00 0. -1.
<scales pt_clust_5="13000.00000" pt_clust_6="13000.00000" pt_clust_7="13000.00000" pt_clust_8="13000.00000" pt_clust_9="13000.00000"></scales>
<clustering>
<clus scale="   79.744">  5  6 -1 -1</clus>
<clus scale="   83.667">  1  5  2 -1</clus>
<clus scale="   91.134">  7  8 -1 -1</clus>
<clus scale="   88.886">  7  9 -1 -1</clus>
<clus scale="  219.727">  2  5  1 -1</clus>
</clustering>
</event>
<event>
 9    2  0.3707658E-005  0.4794629E+03  0.7546771E-02  0.1023456E+00
          2   -1    0    0  502    0 -0.00000000000E+00  0.00000000000E+00  0.31583476560E+03  0.31583476560E+03  0.00000000000E+00 0. -1.
         21   -1    0    0  501  502  0.00000000000E+00 -0.00000000000E+00 -0.93293385266E+03  0.93293385266E+03  0.00000000000E+00 0. -1.
         24    2    1    2    0    0 -0.28568411397E+02 -0.41403113773E+03 -0.64199355494E+03  0.76865982715E+03  0.80276199160E+02 0.  0.
         23    2    1    2    0    0 -0.38726817323E+02  0.12271854993E+03 -0.58501926695E+02  0.16971125528E+03  0.93913927960E+02 0.  0.
        -11    1    3    3    0    0  0.79061445014E+01 -0.75082885055E+02 -0.17393000337E+03  0.18960905259E+03  0.00000000000E+00 0.  1.
         12    1    3    3    0    0 -0.36474555899E+02 -0.33894825267E+03 -0.46806355157E+03  0.57905077457E+03  0.00000000000E+00 0. -1.
        -11    1    4    4    0    0 -0.12289004960E+02  0.68812146685E+02 -0.79725851967E+02  0.10602991392E+03  0.00000000000E+00 0.  1.
         11    1    4    4    0    0 -0.26437812363E+02  0.53906403247E+02  0.21223925272E+02  0.63681341360E+02  0.00000000000E+00 0. -1.
          1    1    1    2  501    0  0.67295228721E+02  0.29131258780E+03  0.83396394580E+02  0.31039753582E+03  0.00000000000E+00 0. -1.
<scales pt_clust_5="13000.00000" pt_clust_6="13000.00000" pt_clust_7="13000.00000" pt_clust_8="13000.00000" pt_clust_9="13000.00000"></scales>
<clustering>
<clus scale="   80.276">  5  6 -1 -1</clus>
<clus scale="   93.914">  7  8 -1 -1</clus>
<clus scale="  298.985">  7  9 -1 -1</clus>
<clus scale="  422.708">  1  5  2 -1</clus>
<clus scale="  479.463">  2  5  1 -1</clus>
</clustering>
</event>
<event>
 9    2  0.3707658E-005  0.1733322E+03  0.7546771E-02  0.1209254E+00
         -1   -1    0    0    0  501 -0.00000000000E+00  0.00000000000E+00  0.27064472882E+02  0.27064472882E+02  0.00000000000E+00 0.  1.
         21   -1    0    0  501  502  0.00000000000E+00 -0.00000000000E+00 -0.65437483077E+03  0.65437483077E+03  0.00000000000E+00 0. -1.
         24    2    1    2    0    0 -0.14784806814E+02 -0.86214113296E+01 -0.30550026096E+03  0.31591806571E+03  0.78618671752E+02 0.  0.
         23    2    1    2    0    0  0.47645801279E+02  0.49812162429E+02 -0.17470322898E+03  0.20926198692E+03  0.92292941484E+02 0.  0.
        -11    1    3    3    0    0  0.76663955231E+01  0.30981022866E+02 -0.85626773276E+02  0.91381298414E+02  0.00000000000E+00 0.  1.
         12    1    3    3    0    0 -0.22451202337E+02 -0.39602434195E+02 -0.21987348768E+03  0.22453676729E+03  0.00000000000E+00 0. -1.
        -11    1    4    4    0    0  0.21425196356E+02  0.49699995976E+02 -0.29359463247E+02  0.61571963758E+02  0.00000000000E+00 0.  1.
         11    1    4    4    0    0  0.26220604923E+02  0.11216645293E+00 -0.14534376573E+03  0.14769002316E+03  0.00000000000E+00 0. -1.
         -2    1    1    2    0  502 -0.32860994465E+02 -0.41190751099E+02 -0.14710686795E+03  0.15625925102E+03  0.00000000000E+00 0.  1.
<scales pt_clust_5="13000.00000" pt_clust_6="13000.00000" pt_clust_7="13000.00000" pt_clust_8="13000.00000" pt_clust_9="13000.00000"></scales>
<clustering>
<clus scale="   78.619">  5  6 -1 -1</clus>
<clus scale="   80.460">  1  5  2 -1</clus>
<clus scale="   92.293">  7  8 -1 -1</clus>
<clus scale="   56.049">  7  9 -1 -1</clus>
<clus scale="  173.332">  2  5  1 -1</clus>
</clustering>
</event>
<event>
 9    2  0.3707658E-005  0.2500990E+03  0.7546771E-02  0.1133815E+00
          2   -1    0    0  502    0 -0.00000000000E+00  0.00000000000E+00  0.67536087928E+03  0.67536087928E+03  0.00000000000E+00 0. -1.
         21   -1    0    0  501  502  0.00000000000E+00 -0.00000000000E+00 -0.10233687154E+03  0.10233687154E+03  0.00000000000E+00 0.  1.
         24    2    1    2    0    0  0.12772402074E+03  0.58841646161E+01 -0.26764651044E+01  0.15001905525E+03  0.78425152890E+02 0.  0.
         23    2    1    2    0    0  0.33260295845E+02 -0.12851666190E+02  0.20371565001E+03  0.22229344094E+03  0.81503958313E+02 0.  0.
        -11    1    3    3    0    0  0.11627567226E+03  0.25092488921E+01 -0.30079535859E+02  0.12012954160E+03  0.00000000000E+00 0.  1.
         12    1    3    3    0    0  0.11448348480E+02  0.33749157239E+01  0.27403070755E+02  0.29889513644E+02  0.00000000000E+00 0. -1.
        -13    1    4    4    0    0  0.51535646239E+02  0.27828461898E+01  0.73108246104E+02  0.89490126352E+02  0.00000000000E+00 0. -1.
         13    1    4    4    0    0 -0.18275350394E+02 -0.15634512380E+02  0.13060740391E+03  0.13280331458E+03  0.00000000000E+00 0.  1.
          1    1    1    2  501    0 -0.16098431658E+03  0.69675015742E+01  0.37198482283E+03  0.40538525464E+03  0.00000000000E+00 0. -1.
<scales pt_clust_5="13000.00000" pt_clust_6="13000.00000" pt_clust_7="13000.00000" pt_clust_8="13000.00000" pt_clust_9="13000.00000"></scales>
<clustering>
<clus scale="   78.425">  5  6 -1 -1</clus>
<clus scale="   81.504">  7  8 -1 -1</clus>
<clus scale="  149.995">  1  5  2 -1</clus>
<clus scale="   79.211">  7  9 -1 -1</clus>
<clus scale="  250.099">  2  5  1 -1</clus>
</clustering>
</event>
<event>
 9    2  0.3707658E-005  0.2379563E+03  0.7546771E-02  0.1158357E+00
         -1   -1    0    0    0  501 -0.00000000000E+00  0.00000000000E+00  0.24686663488E+03  0.24686663488E+03  0.00000000000E+00 0.  1.
         21   -1    0    0  501  502  0.00000000000E+00 -0.00000000000E+00 -0.14292992933E+03  0.14292992933E+03  0.00000000000E+00 0.  1.
         24    2    1    2    0    0  0.26770054828E+02  0.49372563112E+02  0.11642776913E+03  0.15151260658E+03  0.79033908573E+02 0.  0.
         23    2    1    2    0    0 -0.79253203824E+02  0.59644444538E+01  0.57993346388E+02  0.13443446373E+03  0.91611963733E+02 0.  0.
        -11    1    3    3    0    0  0.39809919522E+02 -0.58079468347E+01  0.50031736337E+02  0.64200752174E+02  0.00000000000E+00 0.  1.
         12    1    3    3    0    0 -0.13039864694E+02  0.55180509946E+02  0.66396032789E+02  0.87311854403E+02  0.00000000000E+00 0. -1.
        -11    1    4    4    0    0 -0.20723881467E+02  0.42683199571E+02  0.57139725046E+01  0.47791048016E+02  0.00000000000E+00 0.  1.
         11    1    4    4    0    0 -0.58529322356E+02 -0.36718755117E+02  0.52279373883E+02  0.86643415713E+02  0.00000000000E+00 0. -1.
         -2    1    1    2    0  502  0.52483148995E+02 -0.55337007565E+02 -0.70484409973E+02  0.10384949390E+03  0.00000000000E+00 0.  1.
<scales pt_clust_5="13000.00000" pt_clust_6="13000.00000" pt_clust_7="13000.00000" pt_clust_8="13000.00000" pt_clust_9="13000.00000"></scales>
<clustering>
<clus scale="   79.034">  5  6 -1 -1</clus>
<clus scale="   91.612">  7  8 -1 -1</clus>
<clus scale="   76.267">  7  9 -1 -1</clus>
<clus scale="   96.957">  1  5  2 -1</clus>
<clus scale="  237.956">  2  5  1 -1</clus>
</clustering>
</event>
<event>
 9    2  0.3707658E-005  0.1332844E+03  0.7546771E-02  0.1238536E+00
          2   -1    0    0  502    0 -0.00000000000E+00  0.00000000000E+00  0.69934237475E+03  0.69934237475E+03  0.00000000000E+00 0. -1.
         21   -1    0    0  501  502  0.00000000000E+00 -0.00000000000E+00 -0.67972795868E+02  0.67972795868E+02  0.00000000000E+00 0.  1.
         24    2    1    2    0    0 -0.45509807704E+02  0.23796474460E+02  0.62662557445E+03  0.63394639846E+03  0.81185040247E+02 0.  0.
         23    2    1    2    0    0  0.44017422192E+02  0.21918057141E+01  0.24145777754E+02  0.10090268633E+03  0.87498548887E+02 0.  0.
        -13    1    3    3    0    0  0.10689277514E+02  0.18357363709E+02  0.47003704354E+02  0.51581020532E+02  0.00000000000E+00 0.  1.
         14    1    3    3    0    0 -0.56199085218E+02  0.54391107517E+01  0.57962187010E+03  0.58236537792E+03  0.00000000000E+00 0. -1.
        -11    1    4    4    0    0  0.69482968217E+02 -0.83803038349E+01  0.21442393838E+02  0.73197599811E+02  0.00000000000E+00 0.  1.
         11    1    4    4    0    0 -0.25465546025E+02  0.10572109549E+02  0.27033839159E+01  0.27705086523E+02  0.00000000000E+00 0. -1.
          1    1    1    2  501    0  0.14923855119E+01 -0.25988280174E+02 -0.19401773325E+02  0.32466085830E+02  0.00000000000E+00 0. -1.
<scales pt_clust_5="13000.00000" pt_clust_6="13000.00000" pt_clust_7="13000.00000" pt_clust_8="13000.00000" pt_clust_9="13000.00000"></scales>
<clustering>
<clus scale="   81.185">  5  6 -1 -1</clus>
<clus scale="   87.499">  7  8 -1 -1</clus>
<clus scale="   26.031">  7  9 -1 -1</clus>
<clus scale="   96.065">  1  5  2 -1</clus>
<clus scale="  133.284">  2  5  1 -1</clus>
</clustering>
</event>
<event>
 9    2  0.3707658E-005  0.1315060E+04  0.7546771E-02  0.9468953E-01
          2   -1    0    0  502    0 -0.00000000000E+00  0.00000000000E+00  0.93165169741E+03  0.93165169741E+03  0.00000000000E+00 0. -1.
         21   -1    0    0  501  502  0.00000000000E+00 -0.00000000000E+00 -0.91813305701E+03  0.91813305701E+03  0.00000000000E+00 0. -1.
         24    2    1    2    0    0  0.35651713961E+02  0.23179895053E+03  0.40770373411E+03  0.47691767553E+03  0.78907136885E+02 0.  0.
         23    2    1    2    0    0  0.15319631245E+03  0.51440096957E+03 -0.19081236990E+03  0.57672741611E+03  0.90153670710E+02 0.  0.
        -11    1    3    3    0    0  0.39616102103E+02  0.10446059628E+03  0.13016676538E+03  0.17153669733E+03  0.00000000000E+00 0.  1.
         12    1    3    3    0    0 -0.39643881417E+01  0.12733835426E+03  0.27753696873E+03  0.30538097820E+03  0.00000000000E+00 0. -1.
        -13    1    4    4    0    0  0.17828539118E+02  0.17362542205E+02 -0.25692133778E+02  0.35768707231E+02  0.00000000000E+00 0.  1.
         13    1    4    4    0    0  0.13536777333E+03  0.49703842737E+03 -0.16512023612E+03  0.54095870888E+03  0.00000000000E+00 0. -1.
          1    1    1    2  501    0 -0.18884802641E+03 -0.74619992011E+03 -0.20337272382E+03  0.79613966278E+03  0.00000000000E+00 0. -1.
<scales pt_clust_5="13000.00000" pt_clust_6="13000.00000" pt_clust_7="13000.00000" pt_clust_8="13000.00000" pt_clust_9="13000.00000"></scales>
<clustering>
<clus scale="   78.907">  5  6 -1 -1</clus>
<clus scale="   90.154">  7  8 -1 -1</clus>
<clus scale="  247.443">  1  5  2 -1</clus>
<clus scale="  628.469">  7  9 -1 -1</clus>
<clus scale=" 1315.060">  2  5  1 -1</clus>
</clustering>
</event>
<event>
 9    2  0.3707658E-005  0.5256119E+03  0.7546771E-02  0.1034538E+00
         -3   -1    0    0    0  501 -0.00000000000E+00  0.00000000000E+00  0.13886611006E+03  0.13886611006E+03  0.00000000000E+00 0.  1.
         21   -1    0    0  501  502  0.00000000000E+00 -0.00000000000E+00 -0.11696600461E+04  0.11696600461E+04  0.00000000000E+00 0.  1.
         24    2    1    2    0    0 -0.20837629219E+03 -0.56368895507E+02 -0.12809404094E+03  0.26395207463E+03  0.81636283909E+02 0.  0.
         23    2    1    2    0    0  0.37589434055E+02 -0.67943905742E+02 -0.45536525860E+01  0.12192111512E+03  0.93886541531E+02 0.  0.
        -11    1    3    3    0    0 -0.14012055254E+03 -0.48765928065E+01 -0.52137808428E+02  0.14958576626E+03  0.00000000000E+00 0.  1.
         12    1    3    3    0    0 -0.68255739658E+02 -0.51492302700E+02 -0.75956232508E+02  0.11436630837E+03  0.00000000000E+00 0. -1.
        -13    1    4    4    0    0  0.33843233672E+02 -0.88789649625E+02 -0.18169391164E+02  0.96742406013E+02  0.00000000000E+00 0.  1.
         13    1    4    4    0    0  0.37462003828E+01  0.20845743883E+02  0.13615738578E+02  0.25178709109E+02  0.00000000000E+00 0. -1.
         -4    1    1    2    0  502  0.17078685814E+03  0.12431280125E+03 -0.89814624252E+03  0.92265296641E+03  0.00000000000E+00 0.  1.
<scales pt_clust_5="13000.00000" pt_clust_6="13000.00000" pt_clust_7="13000.00000" pt_clust_8="13000.00000" pt_clust_9="13000.00000"></scales>
<clustering>
<clus scale="   81.636">  5  6 -1 -1</clus>
<clus scale="   93.887">  7  8 -1 -1</clus>
<clus scale="  211.239">  7  9 -1 -1</clus>
<clus scale="  230.787">  1  5  2 -1</clus>
<clus scale="  525.612">  2  5  1 -1</clus>
</clustering>
</event>
<event>
 9    2  0.3707658E-005  0.1957994E+03  0.7546771E-02  0.1190121E+00
          2   -1    0    0  502    0 -0.00000000000E+00  0.00000000000E+00  0.16551075796E+03  0.16551075796E+03  0.00000000000E+00 0. -1.
         21   -1    0    0  501  502  0.00000000000E+00 -0.00000000000E+00 -0.13509169186E+03  0.13509169186E+03  0.00000000000E+00 0.  1.
         24    2    1    2    0    0 -0.11690462302E+02  0.24736728936E+02 -0.38606485064E+02  0.92992415859E+02  0.80053457458E+02 0.  0.
         23    2    1    2    0    0 -0.38490629055E+02  0.35600127322E+02  0.31690321469E+02  0.12070435216E+03  0.10400176231E+03 0.  0.
        -13    1    3    3    0    0  0.20432263380E+02  0.38848643185E+02 -0.46062462205E+01  0.44135155697E+02  0.00000000000E+00 0.  1.
         14    1    3    3    0    0 -0.32122725682E+02 -0.14111914249E+02 -0.34000238844E+02  0.48857260161E+02  0.00000000000E+00 0. -1.
        -13    1    4    4    0    0  0.29600491014E+02  0.78188505370E+01 -0.14484653845E+02  0.33869288286E+02  0.00000000000E+00 0.  1.
         13    1    4    4    0    0 -0.68091120069E+02  0.27781276785E+02  0.46174975314E+02  0.86835063870E+02  0.00000000000E+00 0. -1.
          1    1    1    2  501    0  0.50181091358E+02 -0.60336856258E+02  0.37335229704E+02  0.86905681805E+02  0.00000000000E+00 0. -1.
<scales pt_clust_5="13000.00000" pt_clust_6="13000.00000" pt_clust_7="13000.00000" pt_clust_8="13000.00000" pt_clust_9="13000.00000"></scales>
<clustering>
<clus scale="   80.053">  5  6 -1 -1</clus>
<clus scale="   84.600">  1  5  2 -1</clus>
<clus scale="  104.002">  7  8 -1 -1</clus>
<clus scale="   66.649">  7  9 -1 -1</clus>
<clus scale="  195.799">  2  5  1 -1</clus>
</clustering>
</event>
<event>
 9    2  0.3707658E-005  0.1820625E+03  0.7546771E-02  0.1204445E+00
          4   -1    0    0  502    0 -0.00000000000E+00  0.00000000000E+00  0.45231579031E+03  0.45231579031E+03  0.00000000000E+00 0. -1.
         21   -1    0    0  501  502  0.00000000000E+00 -0.00000000000E+00 -0.38559085704E+02  0.38559085704E+02  0.00000000000E+00 0.  1.
         24    2    1    2    0    0 -0.21898464511E+01 -0.11600383981E+02  0.82197431797E+02  0.11261794649E+03  0.76072463755E+02 0.  0.
         23    2    1    2    0    0  0.57352851869E+02  0.37693685679E+02  0.26045416902E+03  0.28455659150E+03  0.91792788661E+02 0.  0.
        -13    1    3    3    0    0 -0.45434704121E+01 -0.27427348589E+02 -0.10752253430E+01  0.27821910135E+02  0.00000000000E+00 0.  1.
         14    1    3    3    0    0  0.23536239610E+01  0.15826964609E+02  0.83272657140E+02  0.84796036355E+02  0.00000000000E+00 0. -1.
        -11    1    4    4    0    0  0.15105595730E+02 -0.27644830031E+02  0.40917753725E+02  0.51639889811E+02  0.00000000000E+00 0. -1.
         11    1    4    4    0    0  0.42247256139E+02  0.65338515710E+02  0.21953641530E+03  0.23291670169E+03  0.00000000000E+00 0.  1.
          3    1    1    2  501    0 -0.55163005418E+02 -0.26093301699E+02  0.71105103786E+02  0.93700338018E+02  0.00000000000E+00 0. -1.
<scales pt_clust_5="13000.00000" pt_clust_6="13000.00000" pt_clust_7="13000.00000" pt_clust_8="13000.00000" pt_clust_9="13000.00000"></scales>
<clustering>
<clus scale="   76.072">  5  6 -1 -1</clus>
<clus scale="   76.983">  1  5  2 -1</clus>
<clus scale="   91.793">  7  8 -1 -1</clus>
<clus scale="   62.674">  7  9 -1 -1</clus>
<clus scale="  182.062">  2  5  1 -1</clus>
</clustering>
</event>
<event>
 9    2  0.3707658E-005  0.2041897E+03  0.7546771E-02  0.1184930E+00
         21   -1    0    0  501  502  0.00000000000E+00  0.00000000000E+00  0.48946723966E+02  0.48946723966E+02  0.00000000000E+00 0.  1.
          2   -1    0    0  502    0 -0.00000000000E+00 -0.00000000000E+00 -0.45076457626E+03  0.45076457626E+03  0.00000000000E+00 0. -1.
         24    2    1    2    0    0  0.23799357996E+02 -0.12053443504E+02 -0.17829630776E+03  0.19696503968E+03  0.79334472664E+02 0.  0.
         23    2    1    2    0    0 -0.23100590488E+02 -0.68872117511E+02 -0.91509384910E+02  0.14790232302E+03  0.90686954830E+02 0.  0.
        -11    1    3    3    0    0  0.44159003070E+02  0.17645445843E+02 -0.95820317790E+02  0.10697155048E+03  0.00000000000E+00 0.  1.
         12    1    3    3    0    0 -0.20359645074E+02 -0.29698889347E+02 -0.82475989969E+02  0.89993489194E+02  0.00000000000E+00 0. -1.
        -11    1    4    4    0    0 -0.38028996415E+02 -0.52567311090E+02 -0.12779280105E+02  0.66127428224E+02  0.00000000000E+00 0.  1.
         11    1    4    4    0    0  0.14928405927E+02 -0.16304806421E+02 -0.78730104805E+02  0.81774894794E+02  0.00000000000E+00 0. -1.
          1    1    1    2  501    0 -0.69876750855E+00  0.80925561015E+02 -0.13201215963E+03  0.15484393754E+03  0.00000000000E+00 0. -1.
<scales pt_clust_5="13000.00000" pt_clust_6="13000.00000" pt_clust_7="13000.00000" pt_clust_8="13000.00000" pt_clust_9="13000.00000"></scales>
<clustering>
<clus scale="   79.334">  5  6 -1 -1</clus>
<clus scale="   83.700">  2  5  1 -1</clus>
<clus scale="   90.687">  7  8 -1 -1</clus>
<clus scale="   75.362">  7  9 -1 -1</clus>
<clus scale="  204.190">  1  5  2 -1</clus>
</clustering>
</event>
<event>
 9    2  0.3707658E-005  0.2565522E+03  0.7546771E-02  0.1120942E+00
          2   -1    0    0  502    0 -0.00000000000E+00  0.00000000000E+00  0.14260109087E+04  0.14260109087E+04  0.00000000000E+00 0. -1.
         21   -1    0    0  501  502  0.00000000000E+00 -0.00000000000E+00 -0.61476873941E+02  0.61476873941E+02  0.00000000000E+00 0. -1.
         24    2    1    2    0    0  0.21999002466E+02 -0.17195355251E+03  0.11092641166E+04  0.11255737319E+04  0.79983530967E+02 0.  0.
         23    2    1    2    0    0  0.34473039602E+02  0.27239385557E+02  0.93823048173E+02  0.13786857886E+03  0.90964861804E+02 0.  0.
        -11    1    3    3    0    0  0.84719724157E+01 -0.47919890649E+02  0.13800516735E+03  0.14633357937E+03  0.00000000000E+00 0.  1.
         12    1    3    3    0    0  0.13527030051E+02 -0.12403366186E+03  0.97125894921E+03  0.97924015249E+03  0.00000000000E+00 0. -1.
        -11    1    4    4    0    0 -0.21965711626E+02 -0.18228520014E+02  0.26647487804E+02  0.39049456276E+02  0.00000000000E+00 0. -1.
         11    1    4    4    0    0  0.56438751228E+02  0.45467905571E+02  0.67175560369E+02  0.98819122583E+02  0.00000000000E+00 0.  1.
          1    1    1    2  501    0 -0.56472042068E+02  0.14471416695E+03  0.16144687004E+03  0.22404547194E+03  0.00000000000E+00 0. -1.
<scales pt_clust_5="13000.00000" pt_clust_6="13000.00000" pt_clust_7="13000.00000" pt_clust_8="13000.00000" pt_clust_9="13000.00000"></scales>
<clustering>
<clus scale="   79.984">  5  6 -1 -1</clus>
<clus scale="   90.965">  7  8 -1 -1</clus>
<clus scale="  155.343">  7  9 -1 -1</clus>
<clus scale="  190.917">  1  5  2 -1</clus>
<clus scale="  256.552">  2  5  1 -1</clus>
</clustering>
</event>
<event>
 9    2  0.3707658E-005  0.1983137E+03  0.7546771E-02  0.1181752E+00
         21   -1    0    0  501  502  0.00000000000E+00  0.00000000000E+00  0.44468402328E+02  0.44468402328E+02  0.00000000000E+00 0.  1.
          2   -1    0    0  502    0 -0.00000000000E+00 -0.00000000000E+00 -0.10544872127E+04  0.10544872127E+04  0.00000000000E+00 0. -1.
         24    2    1    2    0    0 -0.17852969630E+02 -0.40959265232E+02 -0.81478182245E+03  0.82066472847E+03  0.87320034460E+02 0.  0.
         23    2    1    2    0    0  0.78851878245E+02 -0.68668668630E+01 -0.11166150225E+03  0.16430374883E+03  0.90899165187E+02 0.  0.
        -13    1    3    3    0    0  0.22591195137E+02 -0.16961132612E+02 -0.89334843972E+02  0.93695018355E+02  0.00000000000E+00 0.  1.
         14    1    3    3    0    0 -0.40444164766E+02 -0.23998132620E+02 -0.72544697848E+03  0.72696971011E+03  0.00000000000E+00 0. -1.
        -11    1    4    4    0    0 -0.19107578248E+02  0.77348960350E+01 -0.27265433385E+02  0.34180872149E+02  0.00000000000E+00 0. -1.
         11    1    4    4    0    0  0.97959456493E+02 -0.14601762898E+02 -0.84396068867E+02  0.13012287668E+03  0.00000000000E+00 0.  1.
          1    1    1    2  501    0 -0.60998908616E+02  0.47826132095E+02 -0.83575485669E+02  0.11398713773E+03  0.00000000000E+00 0. -1.
<scales pt_clust_5="13000.00000" pt_clust_6="13000.00000" pt_clust_7="13000.00000" pt_clust_8="13000.00000" pt_clust_9="13000.00000"></scales>
<clustering>
<clus scale="   87.320">  5  6 -1 -1</clus>
<clus scale="   90.899">  7  8 -1 -1</clus>
<clus scale="   77.513">  7  9 -1 -1</clus>
<clus scale="   98.088">  2  5  1 -1</clus>
<clus scale="  198.314">  1  5  2 -1</clus>
</clustering>
</event>
<event>
 9    2  0.3707658E-005  0.1481763E+03  0.7546771E-02  0.1223150E+00
          2   -1    0    0  502    0 -0.00000000000E+00  0.00000000000E+00  0.52277236032E+03  0.52277236032E+03  0.00000000000E+00 0. -1.
         21   -1    0    0  501  502  0.00000000000E+00 -0.00000000000E+00 -0.29191764785E+02  0.29191764785E+02  0.00000000000E+00 0. -1.
         24    2    1    2    0    0  0.51534394463E+02  0.19544904677E+02  0.23632389497E+03  0.25508498276E+03  0.78622948226E+02 0.  0.
         23    2    1    2    0    0  0.24793681715E+01 -0.11479857681E+02  0.14285912789E+03  0.17011425694E+03  0.91608927474E+02 0.  0.
        -11    1    3    3    0    0  0.54119087957E+02 -0.15899476844E+02  0.17862688992E+03  0.18732120768E+03  0.00000000000E+00 0.  1.
         12    1    3    3    0    0 -0.25846934946E+01  0.35444381522E+02  0.57697005053E+02  0.67763775086E+02  0.00000000000E+00 0. -1.
        -13    1    4    4    0    0 -0.37487644416E+02  0.17145294261E+02  0.47987113907E+02  0.63261739624E+02  0.00000000000E+00 0.  1.
         13    1    4    4    0    0  0.39967012588E+02 -0.28625151942E+02  0.94872013984E+02  0.10685251731E+03  0.00000000000E+00 0. -1.
          1    1    1    2  501    0 -0.54013762634E+02 -0.80650469959E+01  0.11439757268E+03  0.12676488540E+03  0.00000000000E+00 0. -1.
<scales pt_clust_5="13000.00000" pt_clust_6="13000.00000" pt_clust_7="13000.00000" pt_clust_8="13000.00000" pt_clust_9="13000.00000"></scales>
<clustering>
<clus scale="   78.623">  5  6 -1 -1</clus>
<clus scale="   91.609">  7  8 -1 -1</clus>
<clus scale="   54.613">  7  9 -1 -1</clus>
<clus scale="   96.018">  1  5  2 -1</clus>
<clus scale="  148.176">  2  5  1 -1</clus>
</clustering>
</event>
<event>
 9    2  0.3707658E-005  0.3495850E+03  0.7546771E-02  0.1104977E+00
          2   -1    0    0  502    0 -0.00000000000E+00  0.00000000000E+00  0.66893858090E+03  0.66893858090E+03  0.00000000000E+00 0. -1.
         21   -1    0    0  501  502  0.00000000000E+00 -0.00000000000E+00 -0.12887665617E+03  0.12887665617E+03  0.00000000000E+00 0.  1.
         24    2    1    2    0    0  0.25327156009E+02 -0.75740121327E+02 -0.40514119878E+02  0.12011457899E+03  0.80050530088E+02 0.  0.
         23    2    1    2    0    0 -0.50944133204E+02 -0.11509876091E+03  0.23565234714E+03  0.28267146222E+03  0.92347698257E+02 0.  0.
        -11    1    3    3    0    0  0.39515110778E+02 -0.57539419630E+02  0.40615527759E+01  0.69919417919E+02  0.00000000000E+00 0.  1.
         12    1    3    3    0    0 -0.14187954770E+02 -0.18200701697E+02 -0.44575672654E+02  0.50195161076E+02  0.00000000000E+00 0. -1.
        -13    1    4    4    0    0 -0.11317065055E+01 -0.94736681256E+02  0.10530513723E+03  0.14165271427E+03  0.00000000000E+00 0.  1.
         13    1    4    4    0    0 -0.49812426699E+02 -0.20362079652E+02  0.13034720991E+03  0.14101874795E+03  0.00000000000E+00 0. -1.
          1    1    1    2  501    0  0.25616977195E+02  0.19083888223E+03  0.34492369747E+03  0.39502919585E+03  0.00000000000E+00 0. -1.
<scales pt_clust_5="13000.00000" pt_clust_6="13000.00000" pt_clust_7="13000.00000" pt_clust_8="13000.00000" pt_clust_9="13000.00000"></scales>
<clustering>
<clus scale="   80.051">  5  6 -1 -1</clus>
<clus scale="   92.348">  7  8 -1 -1</clus>
<clus scale="  113.076">  1  5  2 -1</clus>
<clus scale="  151.804">  7  9 -1 -1</clus>
<clus scale="  349.585">  2  5  1 -1</clus>
</clustering>
</event>
<event>
 9    2  0.3707658E-005  0.2301791E+03  0.7546771E-02  0.1131091E+00
         21   -1    0    0  501  502  0.00000000000E+00  0.00000000000E+00  0.57614064033E+02  0.57614064033E+02  0.00000000000E+00 0. -1.
          2   -1    0    0  502    0 -0.00000000000E+00 -0.00000000000E+00 -0.10845703865E+04  0.10845703865E+04  0.00000000000E+00 0. -1.
         24    2    1    2    0    0 -0.17012734753E+03  0.81746589731E+02 -0.77097517198E+03  0.79793343390E+03  0.81665352638E+02 0.  0.
         23    2    1    2    0    0  0.79792026271E+02 -0.57526441712E+02 -0.80165134807E+02  0.14510695519E+03  0.70381252136E+02 0.  0.
        -11    1    3    3    0    0 -0.22174552285E+02  0.47122948410E+02 -0.15597470097E+03  0.16443962533E+03  0.00000000000E+00 0.  1.
         12    1    3    3    0    0 -0.14795279524E+03  0.34623641321E+02 -0.61500047100E+03  0.63349380857E+03  0.00000000000E+00 0. -1.
        -13    1    4    4    0    0  0.50179741713E+02 -0.71796871889E+02 -0.52344801064E+02  0.10204300804E+03  0.00000000000E+00 0. -1.
         13    1    4    4    0    0  0.29612284559E+02  0.14270430177E+02 -0.27820333743E+02  0.43063947146E+02  0.00000000000E+00 0.  1.
          1    1    1    2  501    0  0.90335321257E+02 -0.24220148019E+02 -0.17581601563E+03  0.19914406140E+03  0.00000000000E+00 0. -1.
<scales pt_clust_5="13000.00000" pt_clust_6="13000.00000" pt_clust_7="13000.00000" pt_clust_8="13000.00000" pt_clust_9="13000.00000"></scales>
<clustering>
<clus scale="   70.381">  7  8 -1 -1</clus>
<clus scale="   81.665">  5  6 -1 -1</clus>
<clus scale="   93.526">  7  9 -1 -1</clus>
<clus scale="  205.658">  2  5  1 -1</clus>
<clus scale="  230.179">  1  5  2 -1</clus>
</clustering>
</event>
<event>
 9    2  0.3707658E-005  0.5391398E+03  0.7546771E-02  0.1047821E+00
          2   -1    0    0  502    0 -0.00000000000E+00  0.00000000000E+00  0.39627567628E+03  0.39627567628E+03  0.00000000000E+00 0. -1.
         21   -1    0    0  501  502  0.00000000000E+00 -0.00000000000E+00 -0.30372001739E+03  0.30372001739E+03  0.00000000000E+00 0.  1.
         24    2    1    2    0    0 -0.73883677823E+02  0.94924711550E+02  0.67353109397E+02  0.16026711188E+03  0.81728863286E+02 0.  0.
         23    2    1    2    0    0 -0.23371878374E+02  0.19592878809E+03 -0.52872835290E+02  0.22326346969E+03  0.90092760431E+02 0.  0.
        -13    1    3    3    0    0 -0.84376412304E+02  0.47840396404E+02  0.48837680901E+02  0.10859650803E+03  0.00000000000E+00 0.  1.
         14    1    3    3    0    0  0.10492734481E+02  0.47084315145E+02  0.18515428496E+02  0.51670603848E+02  0.00000000000E+00 0. -1.
        -13    1    4    4    0    0 -0.74963058319E+01  0.17692139826E+03 -0.72815719570E+02  0.19146671977E+03  0.00000000000E+00 0.  1.
         13    1    4    4    0    0 -0.15875572543E+02  0.19007389838E+02  0.19942884280E+02  0.31796749919E+02  0.00000000000E+00 0. -1.
          1    1    1    2  501    0  0.97255556197E+02 -0.29085349964E+03  0.78075384789E+02  0.31646511210E+03  0.00000000000E+00 0. -1.
<scales pt_clust_5="13000.00000" pt_clust_6="13000.00000" pt_clust_7="13000.00000" pt_clust_8="13000.00000" pt_clust_9="13000.00000"></scales>
<clustering>
<clus scale="   81.729">  5  6 -1 -1</clus>
<clus scale="   90.093">  7  8 -1 -1</clus>
<clus scale="  145.427">  1  5  2 -1</clus>
<clus scale="  229.154">  7  9 -1 -1</clus>
<clus scale="  539.140">  2  5  1 -1</clus>
</clustering>
</event>
<event>
 9    2  0.3707658E-005  0.1863856E+03  0.7546771E-02  0.1190289E+00
         21   -1    0    0  501  502  0.00000000000E+00  0.00000000000E+00  0.37665117230E+02  0.37665117230E+02  0.00000000000E+00 0.  1.
          2   -1    0    0  502    0 -0.00000000000E+00 -0.00000000000E+00 -0.59548872451E+03  0.59548872451E+03  0.00000000000E+00 0. -1.
         24    2    1    2    0    0 -0.51090726291E+02 -0.17877191679E+02 -0.10479739625E+03  0.14328411232E+03  0.81351006667E+02 0.  0.
         23    2    1    2    0    0 -0.74042682161E+01 -0.42890398115E+02 -0.21435753070E+03  0.23673517367E+03  0.90553752228E+02 0.  0.
        -11    1    3    3    0    0 -0.55158360984E+02  0.65335329386E+01 -0.10471777486E+03  0.11853667875E+03  0.00000000000E+00 0.  1.
         12    1    3    3    0    0  0.40676346932E+01 -0.24410724617E+02 -0.79621395689E-01  0.24747433562E+02  0.00000000000E+00 0. -1.
        -13    1    4    4    0    0 -0.73811450626E+01  0.27955571576E+02 -0.75540257993E+02  0.80884645405E+02  0.00000000000E+00 0. -1.
         13    1    4    4    0    0 -0.23123153502E-01 -0.70845969691E+02 -0.13881727271E+03  0.15585052826E+03  0.00000000000E+00 0.  1.
          1    1    1    2  501    0  0.58494994507E+02  0.60767589794E+02 -0.23866868032E+03  0.25313455576E+03  0.00000000000E+00 0. -1.
<scales pt_clust_5="13000.00000" pt_clust_6="13000.00000" pt_clust_7="13000.00000" pt_clust_8="13000.00000" pt_clust_9="13000.00000"></scales>
<clustering>
<clus scale="   81.351">  5  6 -1 -1</clus>
<clus scale="   90.554">  7  8 -1 -1</clus>
<clus scale="   84.347">  7  9 -1 -1</clus>
<clus scale="   97.713">  2  5  1 -1</clus>
<clus scale="  186.386">  1  5  2 -1</clus>
</clustering>
</event>
<event>
 9    2  0.3707658E-005  0.3309392E+03  0.7546771E-02  0.1094489E+00
         21   -1    0    0  501  502  0.00000000000E+00  0.00000000000E+00  0.77049778918E+02  0.77049778918E+02  0.00000000000E+00 0. -1.
          2   -1    0    0  502    0 -0.00000000000E+00 -0.00000000000E+00 -0.85804896425E+03  0.85804896425E+03  0.00000000000E+00 0. -1.
         24    2    1    2    0    0 -0.43674641903E+02 -0.14987774685E+03 -0.35376178367E+03  0.39467984839E+03  0.79082044690E+02 0.  0.
         23    2    1    2    0    0 -0.74854753922E+02 -0.19814046011E+01 -0.26500017849E+03  0.28856311038E+03  0.86234644555E+02 0.  0.
        -13    1    3    3    0    0 -0.50078595568E+02 -0.41366241951E+02 -0.15664833546E+03  0.16958105056E+03  0.00000000000E+00 0.  1.
         14    1    3    3    0    0  0.64039536655E+01 -0.10851150490E+03 -0.19711344822E+03  0.22509879783E+03  0.00000000000E+00 0. -1.
        -11    1    4    4    0    0 -0.13221732302E+02 -0.28704256152E+02 -0.27987653572E+02  0.42214420271E+02  0.00000000000E+00 0.  1.
         11    1    4    4    0    0 -0.61633021620E+02  0.26722851551E+02 -0.23701252492E+03  0.24634869011E+03  0.00000000000E+00 0. -1.
          1    1    1    2  501    0  0.11852939582E+03  0.15185915145E+03 -0.16223722316E+03  0.25185578439E+03  0.00000000000E+00 0. -1.
<scales pt_clust_5="13000.00000" pt_clust_6="13000.00000" pt_clust_7="13000.00000" pt_clust_8="13000.00000" pt_clust_9="13000.00000"></scales>
<clustering>
<clus scale="   79.082">  5  6 -1 -1</clus>
<clus scale="   86.235">  7  8 -1 -1</clus>
<clus scale="  174.999">  2  5  1 -1</clus>
<clus scale="  132.902">  7  9 -1 -1</clus>
<clus scale="  330.939">  1  5  2 -1</clus>
</clustering>
</event>
<event>
 9    2  0.3707658E-005  0.2248877E+03  0.7546771E-02  0.1160402E+00
          2   -1    0    0  502    0 -0.00000000000E+00  0.00000000000E+00  0.42344906784E+02  0.42344906784E+02  0.00000000000E+00 0. -1.
         21   -1    0    0  501  502  0.00000000000E+00 -0.00000000000E+00 -0.78102408917E+03  0.78102408917E+03  0.00000000000E+00 0.  1.
         24    2    1    2    0    0  0.56167457503E+02  0.48036734542E+02 -0.10807160324E+03  0.15386140333E+03  0.80817998377E+02 0.  0.
         23    2    1    2    0    0  0.43800432009E+02 -0.77800029521E+01 -0.19020308696E+03  0.21610898200E+03  0.92449291625E+02 0.  0.
        -13    1    3    3    0    0  0.42396504357E+02 -0.14393663405E+02 -0.35446170395E+02  0.57105797635E+02  0.00000000000E+00 0.  1.
         14    1    3    3    0    0  0.13770953146E+02  0.62430397947E+02 -0.72625432845E+02  0.96755605700E+02  0.00000000000E+00 0. -1.
        -13    1    4    4    0    0  0.52280757986E+02 -0.41813404498E+02 -0.13535249799E+03  0.15100310316E+03  0.00000000000E+00 0.  1.
         13    1    4    4    0    0 -0.84803259772E+01  0.34033401546E+02 -0.54850588966E+02  0.65105878838E+02  0.00000000000E+00 0. -1.
          1    1    1    2  501    0 -0.99967889512E+02 -0.40256731590E+02 -0.44040449219E+03  0.45339861062E+03  0.00000000000E+00 0. -1.
<scales pt_clust_5="13000.00000" pt_clust_6="13000.00000" pt_clust_7="13000.00000" pt_clust_8="13000.00000" pt_clust_9="13000.00000"></scales>
<clustering>
<clus scale="   80.818">  5  6 -1 -1</clus>
<clus scale="   92.449">  7  8 -1 -1</clus>
<clus scale="  107.769">  7  9 -1 -1</clus>
<clus scale="  109.516">  1  5  2 -1</clus>
<clus scale="  224.888">  2  5  1 -1</clus>
</clustering>
</event>
<event>
 9    2  0.3707658E-005  0.1852448E+03  0.7546771E-02  0.1192777E+00
          2   -1    0    0  502    0 -0.00000000000E+00  0.00000000000E+00  0.64626697697E+03  0.64626697697E+03  0.00000000000E+00 0. -1.
         21   -1    0    0  501  502  0.00000000000E+00 -0.00000000000E+00 -0.37960321499E+02  0.37960321499E+02  0.00000000000E+00 0.  1.
         24    2    1    2    0    0  0.34109459509E+02 -0.30776208952E+00  0.37320324721E+03  0.38491264909E+03  0.87826725762E+02 0.  0.
         23    2    1    2    0    0  0.80625480336E+01 -0.50074543247E+02  0.85899762959E+02  0.13628525729E+03  0.92857081136E+02 0.  0.
        -11    1    3    3    0    0 -0.18850876201E+01 -0.38938321114E+02  0.11695503062E+03  0.12328108368E+03  0.00000000000E+00 0.  1.
         12    1    3    3    0    0  0.35994547129E+02  0.38630559025E+02  0.25624821659E+03  0.26163156541E+03  0.00000000000E+00 0. -1.
        -13    1    4    4    0    0  0.32397127834E+02  0.15362211268E+02  0.32453907723E+02  0.48361426296E+02  0.00000000000E+00 0. -1.
         13    1    4    4    0    0 -0.24334579800E+02 -0.65436754515E+02  0.53445855236E+02  0.87923830998E+02  0.00000000000E+00 0.  1.
          1    1    1    2  501    0 -0.42172007543E+02  0.50382305337E+02  0.14920364530E+03  0.16302939208E+03  0.00000000000E+00 0. -1.
<scales pt_clust_5="13000.00000" pt_clust_6="13000.00000" pt_clust_7="13000.00000" pt_clust_8="13000.00000" pt_clust_9="13000.00000"></scales>
<clustering>
<clus scale="   87.827">  5  6 -1 -1</clus>
<clus scale="   92.857">  7  8 -1 -1</clus>
<clus scale="   65.703">  7  9 -1 -1</clus>
<clus scale="   94.218">  1  5  2 -1</clus>
<clus scale="  185.245">  2  5  1 -1</clus>
</clustering>
</event>
<event>
 9    2  0.3707658E-005  0.1889323E+03  0.7546771E-02  0.1169095E+00
         21   -1    0    0  501  502  0.00000000000E+00  0.00000000000E+00  0.16481034016E+03  0.16481034016E+03  0.00000000000E+00 0. -1.
          2   -1    0    0  502    0 -0.00000000000E+00 -0.00000000000E+00 -0.46269347405E+03  0.46269347405E+03  0.00000000000E+00 0. -1.
         24    2    1    2    0    0  0.64042049862E+02  0.11040817234E+03 -0.38931223652E+03  0.41761175495E+03  0.80896302147E+02 0.  0.
         23    2    1    2    0    0 -0.16561559316E+02 -0.36270552016E+02  0.53938651866E+02  0.11420340984E+03  0.92429445865E+02 0.  0.
        -13    1    3    3    0    0  0.25793118244E+02  0.34887386558E+02 -0.42934140054E+02  0.61038963554E+02  0.00000000000E+00 0.  1.
         14    1    3    3    0    0  0.38248931618E+02  0.75520785786E+02 -0.34637809646E+03  0.35657279140E+03  0.00000000000E+00 0. -1.
        -13    1    4    4    0    0  0.28482174349E+02 -0.73181284814E+01  0.53043539225E+02  0.60649866559E+02  0.00000000000E+00 0. -1.
         13    1    4    4    0    0 -0.45043733666E+02 -0.28952423535E+02  0.89511264166E+00  0.53553543279E+02  0.00000000000E+00 0.  1.
          1    1    1    2  501    0 -0.47480490545E+02 -0.74137620328E+02  0.37490450758E+02  0.95688649423E+02  0.00000000000E+00 0. -1.
<scales pt_clust_5="13000.00000" pt_clust_6="13000.00000" pt_clust_7="13000.00000" pt_clust_8="13000.00000" pt_clust_9="13000.00000"></scales>
<clustering>
<clus scale="   80.896">  5  6 -1 -1</clus>
<clus scale="   92.429">  7  8 -1 -1</clus>
<clus scale="   88.039">  7  9 -1 -1</clus>
<clus scale="  151.114">  2  5  1 -1</clus>
<clus scale="  188.932">  1  5  2 -1</clus>
</clustering>
</event>
<event>
 9    2  0.3707658E-005  0.2865066E+03  0.7546771E-02  0.1140396E+00
         -1   -1    0    0    0  501 -0.00000000000E+00  0.00000000000E+00  0.56902638820E+03  0.56902638820E+03  0.00000000000E+00 0.  1.
         21   -1    0    0  501  502  0.00000000000E+00 -0.00000000000E+00 -0.80232799600E+02  0.80232799600E+02  0.00000000000E+00 0. -1.
         24    2    1    2    0    0  0.21690627140E+02 -0.13891712655E+02  0.28564466199E+03  0.29803914909E+03  0.81061695505E+02 0.  0.
         23    2    1    2    0    0 -0.75611721351E+02  0.96400066327E+02  0.32492441181E+02  0.15414454850E+03  0.87719313173E+02 0.  0.
        -13    1    3    3    0    0  0.48694167175E+02  0.75002887538E+01  0.14139636586E+03  0.14973412612E+03  0.00000000000E+00 0.  1.
         14    1    3    3    0    0 -0.27003540035E+02 -0.21392001408E+02  0.14424829613E+03  0.14830502296E+03  0.00000000000E+00 0. -1.
        -13    1    4    4    0    0 -0.62324638396E+02  0.99899780270E+01  0.10406819357E+02  0.63972354196E+02  0.00000000000E+00 0.  1.
         13    1    4    4    0    0 -0.13287082955E+02  0.86410088300E+02  0.22085621824E+02  0.90172194300E+02  0.00000000000E+00 0. -1.
         -2    1    1    2    0  502  0.53921094211E+02 -0.82508353672E+02  0.17065648543E+03  0.19707549022E+03  0.00000000000E+00 0.  1.
<scales pt_clust_5="13000.00000" pt_clust_6="13000.00000" pt_clust_7="13000.00000" pt_clust_8="13000.00000" pt_clust_9="13000.00000"></scales>
<clustering>
<clus scale="   81.062">  5  6 -1 -1</clus>
<clus scale="   85.056">  1  5  2 -1</clus>
<clus scale="   87.719">  7  8 -1 -1</clus>
<clus scale="  114.365">  7  9 -1 -1</clus>
<clus scale="  286.507">  2  5  1 -1</clus>
</clustering>
</event>
<event>
 9    2  0.3707658E-005  0.8240901E+03  0.7546771E-02  0.9708889E-01
          2   -1    0    0  502    0 -0.00000000000E+00  0.00000000000E+00  0.17657026822E+04  0.17657026822E+04  0.00000000000E+00 0. -1.
         21   -1    0    0  501  502  0.00000000000E+00 -0.00000000000E+00 -0.26018183183E+03  0.26018183183E+03  0.00000000000E+00 0.  1.
         24    2    1    2    0    0  0.42881004003E+03 -0.62653568450E+02  0.90308229930E+03  0.10050727443E+04  0.82523100061E+02 0.  0.
         23    2    1    2    0    0 -0.20290811199E+03  0.97288363345E+02 -0.11423229041E+03  0.26858285165E+03  0.91929345000E+02 0.  0.
        -13    1    3    3    0    0  0.23612477839E+02 -0.24701296338E+02  0.68393570305E+02  0.76455108459E+02  0.00000000000E+00 0.  1.
         14    1    3    3    0    0  0.40519756219E+03 -0.37952272112E+02  0.83468872899E+03  0.92861763588E+03  0.00000000000E+00 0. -1.
        -11    1    4    4    0    0 -0.18634173127E+03  0.57939096061E+02 -0.11377305321E+03  0.22588600510E+03  0.00000000000E+00 0.  1.
         11    1    4    4    0    0 -0.16566380725E+02  0.39349267285E+02 -0.45923720038E+00  0.42696846546E+02  0.00000000000E+00 0. -1.
          1    1    1    2  501    0 -0.22590192804E+03 -0.34634794895E+02  0.71667084150E+03  0.75222891805E+03  0.00000000000E+00 0. -1.
<scales pt_clust_5="13000.00000" pt_clust_6="13000.00000" pt_clust_7="13000.00000" pt_clust_8="13000.00000" pt_clust_9="13000.00000"></scales>
<clustering>
<clus scale="   82.523">  5  6 -1 -1</clus>
<clus scale="   91.929">  7  8 -1 -1</clus>
<clus scale="  228.542">  7  9 -1 -1</clus>
<clus scale="  441.150">  1  5  2 -1</clus>
<clus scale="  824.090">  2  5  1 -1</clus>
</clustering>
</event>
<event>
 9    2  0.3707658E-005  0.3694997E+03  0.7546771E-02  0.1083228E+00
         21   -1    0    0  501  502  0.00000000000E+00  0.00000000000E+00  0.51908556600E+02  0.51908556600E+02  0.00000000000E+00 0. -1.
          2   -1    0    0  502    0 -0.00000000000E+00 -0.00000000000E+00 -0.16185419771E+04  0.16185419771E+04  0.00000000000E+00 0. -1.
         24    2    1    2    0    0  0.12099039507E+03  0.87210538997E+02 -0.24319971583E+03  0.29640293704E+03  0.80400531717E+02 0.  0.
         23    2    1    2    0    0  0.59810154943E+02  0.45756351833E+02 -0.23437357863E+03  0.26210290780E+03  0.89978117058E+02 0.  0.
        -13    1    3    3    0    0  0.30453983107E+02 -0.59806085778E+00 -0.10488362514E+03  0.10921711215E+03  0.00000000000E+00 0.  1.
         14    1    3    3    0    0  0.90536411960E+02  0.87808599855E+02 -0.13831609069E+03  0.18718582490E+03  0.00000000000E+00 0. -1.
        -11    1    4    4    0    0  0.33028933372E+02  0.18608475247E+02 -0.21684299257E+03  0.22013193593E+03  0.00000000000E+00 0. -1.
         11    1    4    4    0    0  0.26781221570E+02  0.27147876585E+02 -0.17530586064E+02  0.41970971869E+02  0.00000000000E+00 0.  1.
          1    1    1    2  501    0 -0.18080055001E+03 -0.13296689083E+03 -0.10890601260E+04  0.11119446889E+04  0.00000000000E+00 0. -1.
<scales pt_clust_5="13000.00000" pt_clust_6="13000.00000" pt_clust_7="13000.00000" pt_clust_8="13000.00000" pt_clust_9="13000.00000"></scales>
<clustering>
<clus scale="   80.401">  5  6 -1 -1</clus>
<clus scale="   89.978">  7  8 -1 -1</clus>
<clus scale="  169.436">  2  5  1 -1</clus>
<clus scale="  102.748">  7  9 -1 -1</clus>
<clus scale="  369.500">  1  5  2 -1</clus>
</clustering>
</event>
<event>
 9    2  0.3707658E-005  0.4360942E+03  0.7546771E-02  0.1063146E+00
          2   -1    0    0  502    0 -0.00000000000E+00  0.00000000000E+00  0.19428714059E+04  0.19428714059E+04  0.00000000000E+00 0. -1.
         21   -1    0    0  501  502  0.00000000000E+00 -0.00000000000E+00 -0.16412134455E+03  0.16412134455E+03  0.00000000000E+00 0. -1.
         24    2    1    2    0    0  0.28316985002E+02  0.15688191505E+03  0.16395592794E+04  0.16492240289E+04  0.79821548759E+02 0.  0.
         23    2    1    2    0    0 -0.13966086439E+03  0.65945127879E+02  0.16657971194E+02  0.18016533502E+03  0.91258659901E+02 0.  0.
        -11    1    3    3    0    0 -0.19816663508E+02  0.23596438041E+02  0.16353809689E+03  0.16641574798E+03  0.00000000000E+00 0.  1.
         12    1    3    3    0    0  0.48133648510E+02  0.13328547701E+03  0.14760211826E+04  0.14828082809E+04  0.00000000000E+00 0. -1.
        -11    1    4    4    0    0 -0.34109841019E+02 -0.11036305402E+02  0.32723643030E+02  0.48539860985E+02  0.00000000000E+00 0.  1.
         11    1    4    4    0    0 -0.10555102337E+03  0.76981433280E+02 -0.16065671837E+02  0.13162547404E+03  0.00000000000E+00 0. -1.
          1    1    1    2  501    0  0.11134387939E+03 -0.22282704293E+03  0.12253281071E+03  0.27760338657E+03  0.00000000000E+00 0. -1.
<scales pt_clust_5="13000.00000" pt_clust_6="13000.00000" pt_clust_7="13000.00000" pt_clust_8="13000.00000" pt_clust_9="13000.00000"></scales>
<clustering>
<clus scale="   79.822">  5  6 -1 -1</clus>
<clus scale="   91.259">  7  8 -1 -1</clus>
<clus scale="  178.284">  1  5  2 -1</clus>
<clus scale="  175.587">  7  9 -1 -1</clus>
<clus scale="  436.094">  2  5  1 -1</clus>
</clustering>
</event>
<event>
 9    2  0.3707658E-005  0.1764249E+03  0.7546771E-02  0.1199220E+00
          2   -1    0    0  502    0 -0.00000000000E+00  0.00000000000E+00  0.33807564979E+03  0.33807564979E+03  0.00000000000E+00 0. -1.
         21   -1    0    0  501  502  0.00000000000E+00 -0.00000000000E+00 -0.86936879245E+02  0.86936879245E+02  0.00000000000E+00 0.  1.
         24    2    1    2    0    0  0.87165529561E+01 -0.49650720033E+02  0.22822520898E+03  0.24710589968E+03  0.80208524172E+02 0.  0.
         23    2    1    2    0    0 -0.43126205517E+02 -0.84631876370E+01 -0.10511715521E+02  0.10255080939E+03  0.92058009947E+02 0.  0.
        -13    1    3    3    0    0  0.16422963190E+02  0.19287427144E+02  0.64042849478E+02  0.68870930987E+02  0.00000000000E+00 0.  1.
         14    1    3    3    0    0 -0.77064102343E+01 -0.68938147178E+02  0.16418235950E+03  0.17823496870E+03  0.00000000000E+00 0. -1.
        -13    1    4    4    0    0 -0.14339148463E+02 -0.41699165139E+02  0.20617177652E+02  0.48677505752E+02  0.00000000000E+00 0. -1.
         13    1    4    4    0    0 -0.28787057054E+02  0.33235977502E+02 -0.31128893173E+02  0.53873303635E+02  0.00000000000E+00 0.  1.
          1    1    1    2  501    0  0.34409652561E+02  0.58113907670E+02  0.33425277088E+02  0.75355819964E+02  0.00000000000E+00 0. -1.
<scales pt_clust_5="13000.00000" pt_clust_6="13000.00000" pt_clust_7="13000.00000" pt_clust_8="13000.00000" pt_clust_9="13000.00000"></scales>
<clustering>
<clus scale="   80.209">  5  6 -1 -1</clus>
<clus scale="   92.058">  7  8 -1 -1</clus>
<clus scale="   67.537">  7  9 -1 -1</clus>
<clus scale="   94.734">  1  5  2 -1</clus>
<clus scale="  176.425">  2  5  1 -1</clus>
</clustering>
</event>
<event>
 9    2  0.3707658E-005  0.1936570E+03  0.7546771E-02  0.1187622E+00
         21   -1    0    0  501  502  0.00000000000E+00  0.00000000000E+00  0.19534189773E+02  0.19534189773E+02  0.00000000000E+00 0. -1.
          2   -1    0    0  502    0 -0.00000000000E+00 -0.00000000000E+00 -0.10968495264E+04  0.10968495264E+04  0.00000000000E+00 0. -1.
         24    2    1    2    0    0 -0.44613843599E+02  0.78035440366E+01 -0.46789857980E+03  0.47693721425E+03  0.80552684729E+02 0.  0.
         23    2    1    2    0    0 -0.15291846409E+01 -0.69314768360E+02 -0.41494713285E+03  0.43032633450E+03  0.90513841966E+02 0.  0.
        -11    1    3    3    0    0  0.19660762769E+02  0.18799445364E+02 -0.13646867045E+03  0.13915337852E+03  0.00000000000E+00 0.  1.
         12    1    3    3    0    0 -0.64274606367E+02 -0.10995901327E+02 -0.33142990934E+03  0.33778383573E+03  0.00000000000E+00 0. -1.
        -11    1    4    4    0    0  0.11438433677E+02  0.20374724719E+02 -0.88960751305E+02  0.91978162871E+02  0.00000000000E+00 0.  1.
         11    1    4    4    0    0 -0.12967618318E+02 -0.89689493079E+02 -0.32598638154E+03  0.33834817163E+03  0.00000000000E+00 0. -1.
          1    1    1    2  501    0  0.46143028240E+02  0.61511224323E+02 -0.19446962400E+03  0.20912016745E+03  0.00000000000E+00 0. -1.
<scales pt_clust_5="13000.00000" pt_clust_6="13000.00000" pt_clust_7="13000.00000" pt_clust_8="13000.00000" pt_clust_9="13000.00000"></scales>
<clustering>
<clus scale="   80.553">  5  6 -1 -1</clus>
<clus scale="   90.514">  7  8 -1 -1</clus>
<clus scale="   76.895">  7  9 -1 -1</clus>
<clus scale="   92.412">  2  5  1 -1</clus>
<clus scale="  193.657">  1  5  2 -1</clus>
</clustering>
</event>
<event>
 9    2  0.3707658E-005  0.2536055E+03  0.7546771E-02  0.1155050E+00
         21   -1    0    0  501  502  0.00000000000E+00  0.00000000000E+00  0.25052845111E+03  0.25052845111E+03  0.00000000000E+00 0. -1.
          2   -1    0    0  502    0 -0.00000000000E+00 -0.00000000000E+00 -0.11872079372E+03  0.11872079372E+03  0.00000000000E+00 0. -1.
         24    2    1    2    0    0 -0.27689639664E+02 -0.13115120582E+02  0.61212618996E+02  0.10600143779E+03  0.80935761912E+02 0.  0.
         23    2    1    2    0    0  0.60579867325E+02  0.94931171009E+02  0.93999192501E+02  0.17201520534E+03  0.89841722620E+02 0.  0.
        -13    1    3    3    0    0 -0.42729234371E+02  0.17755369490E+02  0.53635097644E+02  0.70836179421E+02  0.00000000000E+00 0.  1.
         14    1    3    3    0    0  0.15039594707E+02 -0.30870490072E+02  0.75775213523E+01  0.35165258368E+02  0.00000000000E+00 0. -1.
        -11    1    4    4    0    0  0.18137944705E+02  0.58327439972E+02 -0.17067131017E+01  0.61106367601E+02  0.00000000000E+00 0.  1.
         11    1    4    4    0    0  0.42441922620E+02  0.36603731037E+02  0.95705905602E+02  0.11090883774E+03  0.00000000000E+00 0. -1.
          1    1    1    2  501    0 -0.32890227661E+02 -0.81816050427E+02 -0.23404154110E+02  0.91232601699E+02  0.00000000000E+00 0. -1.
<scales pt_clust_5="13000.00000" pt_clust_6="13000.00000" pt_clust_7="13000.00000" pt_clust_8="13000.00000" pt_clust_9="13000.00000"></scales>
<clustering>
<clus scale="   80.936">  5  6 -1 -1</clus>
<clus scale="   86.541">  2  5  1 -1</clus>
<clus scale="   89.842">  7  8 -1 -1</clus>
<clus scale="  102.317">  7  9 -1 -1</clus>
<clus scale="  253.605">  1  5  2 -1</clus>
</clustering>
</event>
<event>
 9    2  0.3707658E-005  0.4011773E+03  0.7546771E-02  0.1084829E+00
          2   -1    0    0  502    0 -0.00000000000E+00  0.00000000000E+00  0.10572603135E+04  0.10572603135E+04  0.00000000000E+00 0. -1.
         21   -1    0    0  501  502  0.00000000000E+00 -0.00000000000E+00 -0.68123324633E+02  0.68123324633E+02  0.00000000000E+00 0. -1.
         24    2    1    2    0    0  0.85712243280E+02  0.46180915263E+02  0.15901032874E+03  0.20340017350E+03  0.81290099942E+02 0.  0.
         23    2    1    2    0    0  0.95017130445E+02  0.10124883756E+03  0.29925745938E+03  0.34213801381E+03  0.90685232067E+02 0.  0.
        -11    1    3    3    0    0  0.48186052840E+02  0.16954396341E+02  0.17318253663E+02  0.53937641342E+02  0.00000000000E+00 0.  1.
         12    1    3    3    0    0  0.37526190440E+02  0.29226518921E+02  0.14169207508E+03  0.14946253215E+03  0.00000000000E+00 0. -1.
        -11    1    4    4    0    0  0.59992687243E+02  0.95322595683E+02  0.14371634676E+03  0.18259219068E+03  0.00000000000E+00 0.  1.
         11    1    4    4    0    0  0.35024443203E+02  0.59262418795E+01  0.15554111262E+03  0.15954582314E+03  0.00000000000E+00 0. -1.
          1    1    1    2  501    0 -0.18072937373E+03 -0.14742975283E+03  0.53086920076E+03  0.57984545084E+03  0.00000000000E+00 0. -1.
<scales pt_clust_5="13000.00000" pt_clust_6="13000.00000" pt_clust_7="13000.00000" pt_clust_8="13000.00000" pt_clust_9="13000.00000"></scales>
<clustering>
<clus scale="   81.290">  5  6 -1 -1</clus>
<clus scale="   90.685">  7  8 -1 -1</clus>
<clus scale="  126.836">  1  5  2 -1</clus>
<clus scale="  173.020">  7  9 -1 -1</clus>
<clus scale="  401.177">  2  5  1 -1</clus>
</clustering>
</event>
<event>
 9    2  0.3707658E-005  0.2204655E+03  0.7546771E-02  0.1167804E+00
          2   -1    0    0  502    0 -0.00000000000E+00  0.00000000000E+00  0.12236588011E+04  0.12236588011E+04  0.00000000000E+00 0. -1.
         21   -1    0    0  501  502  0.00000000000E+00 -0.00000000000E+00 -0.68000444175E+02  0.68000444175E+02  0.00000000000E+00 0. -1.
         24    2    1    2    0    0  0.51546046193E+02  0.16513696351E+02  0.10363721524E+04  0.10409916980E+04  0.81650351697E+02 0.  0.
         23    2    1    2    0    0  0.12663463873E+02 -0.72327983021E+02  0.23477664876E+02  0.12253725406E+03  0.95249553486E+02 0.  0.
        -11    1    3    3    0    0  0.17136401924E+02  0.37040698055E+02  0.22777833431E+03  0.23140578896E+03  0.00000000000E+00 0.  1.
         12    1    3    3    0    0  0.34409644268E+02 -0.20527001704E+02  0.80859381810E+03  0.80958590902E+03  0.00000000000E+00 0. -1.
        -13    1    4    4    0    0  0.41341054541E+02 -0.25799176627E+02  0.42505082736E+02  0.64663454621E+02  0.00000000000E+00 0.  1.
         13    1    4    4    0    0 -0.28677590668E+02 -0.46528806393E+02 -0.19027417860E+02  0.57873799438E+02  0.00000000000E+00 0. -1.
          1    1    1    2  501    0 -0.64209510065E+02  0.55814286669E+02  0.95808539683E+02  0.12813029328E+03  0.00000000000E+00 0. -1.
<scales pt_clust_5="13000.00000" pt_clust_6="13000.00000" pt_clust_7="13000.00000" pt_clust_8="13000.00000" pt_clust_9="13000.00000"></scales>
<clustering>
<clus scale="   81.650">  5  6 -1 -1</clus>
<clus scale="   95.250">  7  8 -1 -1</clus>
<clus scale="   85.077">  7  9 -1 -1</clus>
<clus scale="   97.962">  1  5  2 -1</clus>
<clus scale="  220.465">  2  5  1 -1</clus>
</clustering>
</event>
<event>
 9    2  0.3707658E-005  0.1303439E+03  0.7546771E-02  0.1249220E+00
         21   -1    0    0  501  502  0.00000000000E+00  0.00000000000E+00  0.48351600144E+02  0.48351600144E+02  0.00000000000E+00 0. -1.
          2   -1    0    0  502    0 -0.00000000000E+00 -0.00000000000E+00 -0.25257890178E+03  0.25257890178E+03  0.00000000000E+00 0. -1.
         24    2    1    2    0    0  0.37115861686E+01  0.17496938939E+02 -0.42030028136E+02  0.92850043103E+02  0.80837420140E+02 0.  0.
         23    2    1    2    0    0 -0.75823025271E+01  0.15321239448E+02 -0.98635539765E+02  0.13644171739E+03  0.92709982477E+02 0.  0.
        -11    1    3    3    0    0 -0.36039991753E+02  0.50666362198E+01 -0.35222631994E+02  0.50647661474E+02  0.00000000000E+00 0.  1.
         12    1    3    3    0    0  0.39751577921E+02  0.12430302719E+02 -0.68073961418E+01  0.42202381629E+02  0.00000000000E+00 0. -1.
        -13    1    4    4    0    0 -0.32325744762E+01 -0.39013049397E+02 -0.49028748979E+02  0.62739826167E+02  0.00000000000E+00 0.  1.
         13    1    4    4    0    0 -0.43497280509E+01  0.54334288845E+02 -0.49606790786E+02  0.73701891227E+02  0.00000000000E+00 0. -1.
          1    1    1    2  501    0  0.38707163584E+01 -0.32818178386E+02 -0.63561733731E+02  0.71638741422E+02  0.00000000000E+00 0. -1.
<scales pt_clust_5="13000.00000" pt_clust_6="13000.00000" pt_clust_7="13000.00000" pt_clust_8="13000.00000" pt_clust_9="13000.00000"></scales>
<clustering>
<clus scale="   80.837">  5  6 -1 -1</clus>
<clus scale="   82.793">  2  5  1 -1</clus>
<clus scale="   92.710">  7  8 -1 -1</clus>
<clus scale="   26.941">  7  9 -1 -1</clus>
<clus scale="  130.344">  1  5  2 -1</clus>
</clustering>
</event>
<event>
 9    2  0.3707658E-005  0.2498551E+03  0.7546771E-02  0.1158759E+00
         21   -1    0    0  501  502  0.00000000000E+00  0.00000000000E+00  0.33011297274E+02  0.33011297274E+02  0.00000000000E+00 0.  1.
          2   -1    0    0  502    0 -0.00000000000E+00 -0.00000000000E+00 -0.84727733829E+03  0.84727733829E+03  0.00000000000E+00 0. -1.
         24    2    1    2    0    0  0.23135890896E+02  0.11264818924E+01 -0.16709751566E+03  0.18656340872E+03  0.79673002472E+02 0.  0.
         23    2    1    2    0    0  0.91290637101E+02 -0.11048569057E+02 -0.27548165029E+03  0.30469693582E+03  0.92163071517E+02 0.  0.
        -11    1    3    3    0    0  0.99467825269E+01  0.39118322850E+02 -0.10593234031E+03  0.11336155604E+03  0.00000000000E+00 0.  1.
         12    1    3    3    0    0  0.13189108369E+02 -0.37991840958E+02 -0.61165175351E+02  0.73201852673E+02  0.00000000000E+00 0. -1.
        -13    1    4    4    0    0  0.19203160711E+02 -0.38116086764E+02 -0.46513107760E+02  0.63127384272E+02  0.00000000000E+00 0.  1.
         13    1    4    4    0    0  0.72087476391E+02  0.27067517707E+02 -0.22896854253E+03  0.24156955155E+03  0.00000000000E+00 0. -1.
          1    1    1    2  501    0 -0.11442652800E+03  0.99220871651E+01 -0.37168687507E+03  0.38902829103E+03  0.00000000000E+00 0. -1.
<scales pt_clust_5="13000.00000" pt_clust_6="13000.00000" pt_clust_7="13000.00000" pt_clust_8="13000.00000" pt_clust_9="13000.00000"></scales>
<clustering>
<clus scale="   79.673">  5  6 -1 -1</clus>
<clus scale="   82.972">  2  5  1 -1</clus>
<clus scale="   92.163">  7  8 -1 -1</clus>
<clus scale="  101.850">  7  9 -1 -1</clus>
<clus scale="  249.855">  1  5  2 -1</clus>
</clustering>
</event>
<event>
 9    2  0.3707658E-005  0.1489180E+03  0.7546771E-02  0.1229068E+00
          2   -1    0    0  502    0 -0.00000000000E+00  0.00000000000E+00  0.38449338976E+03  0.38449338976E+03  0.00000000000E+00 0. -1.
         21   -1    0    0  501  502  0.00000000000E+00 -0.00000000000E+00 -0.39560083085E+02  0.39560083085E+02  0.00000000000E+00 0.  1.
         24    2    1    2    0    0  0.84648295347E+01 -0.22418869982E+02  0.61291769581E+02  0.10369569720E+03  0.80136493115E+02 0.  0.
         23    2    1    2    0    0 -0.23939141309E+02 -0.55825643123E+01  0.11435978759E+03  0.14807938071E+03  0.90802502512E+02 0.  0.
        -13    1    3    3    0    0  0.91936896872E+01  0.23735031107E+02 -0.18045802931E+01  0.25517291035E+02  0.00000000000E+00 0.  1.
         14    1    3    3    0    0 -0.72886015246E+00 -0.46153901089E+02  0.63096349874E+02  0.78178406163E+02  0.00000000000E+00 0. -1.
        -13    1    4    4    0    0 -0.58605749345E+02 -0.58423103866E+01  0.64409051605E+02  0.87277101096E+02  0.00000000000E+00 0.  1.
         13    1    4    4    0    0  0.34666608035E+02  0.25974607431E+00  0.49950735988E+02  0.60802279615E+02  0.00000000000E+00 0. -1.
          1    1    1    2  501    0  0.15474311775E+02  0.28001434294E+02  0.16928174950E+03  0.17227839494E+03  0.00000000000E+00 0. -1.
<scales pt_clust_5="13000.00000" pt_clust_6="13000.00000" pt_clust_7="13000.00000" pt_clust_8="13000.00000" pt_clust_9="13000.00000"></scales>
<clustering>
<clus scale="   80.136">  5  6 -1 -1</clus>
<clus scale="   83.643">  1  5  2 -1</clus>
<clus scale="   90.803">  7  8 -1 -1</clus>
<clus scale="   25.403">  7  9 -1 -1</clus>
<clus scale="  148.918">  2  5  1 -1</clus>
</clustering>
</event>
<event>
 9    2  0.3707658E-005  0.2288611E+03  0.7546771E-02  0.1168082E+00
          2   -1    0    0  502    0 -0.00000000000E+00  0.00000000000E+00  0.15375990384E+03  0.15375990384E+03  0.00000000000E+00 0. -1.
         21   -1    0    0  501  502  0.00000000000E+00 -0.00000000000E+00 -0.22790875567E+03  0.22790875567E+03  0.00000000000E+00 0. -1.
         24    2    1    2    0    0  0.60760244112E+01  0.25817488319E+02 -0.12003120228E+03  0.14825360826E+03  0.82874495870E+02 0.  0.
         23    2    1    2    0    0  0.38990051491E+02 -0.64009949378E+02 -0.45757525536E+02  0.12438532067E+03  0.88093468091E+02 0.  0.
        -13    1    3    3    0    0  0.17603293631E+02 -0.26264698570E+02 -0.29880398974E+02  0.43503431824E+02  0.00000000000E+00 0.  1.
         14    1    3    3    0    0 -0.11527269220E+02  0.52082186889E+02 -0.90150803304E+02  0.10475017644E+03  0.00000000000E+00 0. -1.
        -11    1    4    4    0    0 -0.16468852164E+02 -0.55863923783E+02 -0.13770039972E+02  0.59846596168E+02  0.00000000000E+00 0. -1.
         11    1    4    4    0    0  0.55458903656E+02 -0.81460255955E+01 -0.31987485565E+02  0.64538724503E+02  0.00000000000E+00 0.  1.
          1    1    1    2  501    0 -0.45066075903E+02  0.38192461060E+02  0.91639875982E+02  0.10902973057E+03  0.00000000000E+00 0. -1.
<scales pt_clust_5="13000.00000" pt_clust_6="13000.00000" pt_clust_7="13000.00000" pt_clust_8="13000.00000" pt_clust_9="13000.00000"></scales>
<clustering>
<clus scale="   82.874">  5  6 -1 -1</clus>
<clus scale="   87.015">  1  5  2 -1</clus>
<clus scale="   88.093">  7  8 -1 -1</clus>
<clus scale="   69.830">  7  9 -1 -1</clus>
<clus scale="  228.861">  2  5  1 -1</clus>
</clustering>
</event>
<event>
 9    2  0.3707658E-005  0.2271055E+03  0.7546771E-02  0.1142799E+00
          2   -1    0    0  502    0 -0.00000000000E+00  0.00000000000E+00  0.61780594743E+03  0.61780594743E+03  0.00000000000E+00 0. -1.
         21   -1    0    0  501  502  0.00000000000E+00 -0.00000000000E+00 -0.61526162014E+02  0.61526162014E+02  0.00000000000E+00 0. -1.
         24    2    1    2    0    0 -0.13548285720E+03  0.33229242435E+02  0.20064951933E+03  0.25737266221E+03  0.80750668718E+02 0.  0.
         23    2    1    2    0    0  0.22468041831E+02  0.19242663411E+02  0.10230608412E+03  0.13964970499E+03  0.90335000181E+02 0.  0.
        -11    1    3    3    0    0 -0.81354875297E+02  0.41754974541E+02  0.68322808542E+02  0.11414946255E+03  0.00000000000E+00 0.  1.
         12    1    3    3    0    0 -0.54127981901E+02 -0.85257321058E+01  0.13232671079E+03  0.14322319966E+03  0.00000000000E+00 0. -1.
        -13    1    4    4    0    0 -0.23100924645E+01  0.28678041573E+02 -0.49249480879E+01  0.29189410911E+02  0.00000000000E+00 0. -1.
         13    1    4    4    0    0  0.24778134295E+02 -0.94353781619E+01  0.10723103221E+03  0.11046029408E+03  0.00000000000E+00 0.  1.
          1    1    1    2  501    0  0.11301481537E+03 -0.52471905847E+02  0.25332418196E+03  0.28230974224E+03  0.00000000000E+00 0. -1.
<scales pt_clust_5="13000.00000" pt_clust_6="13000.00000" pt_clust_7="13000.00000" pt_clust_8="13000.00000" pt_clust_9="13000.00000"></scales>
<clustering>
<clus scale="   80.751">  5  6 -1 -1</clus>
<clus scale="   90.335">  7  8 -1 -1</clus>
<clus scale="  124.602">  7  9 -1 -1</clus>
<clus scale="  161.185">  1  5  2 -1</clus>
<clus scale="  227.105">  2  5  1 -1</clus>
</clustering>
</event>
<event>
 9    2  0.3707658E-005  0.1869161E+03  0.7546771E-02  0.1191899E+00
         21   -1    0    0  501  502  0.00000000000E+00  0.00000000000E+00  0.23811879176E+02  0.23811879176E+02  0.00000000000E+00 0. -1.
          2   -1    0    0  502    0 -0.00000000000E+00 -0.00000000000E+00 -0.83399999240E+03  0.83399999240E+03  0.00000000000E+00 0. -1.
         24    2    1    2    0    0  0.16193806113E+01 -0.50879017956E+02 -0.31216079510E+03  0.32586372746E+03  0.78431562622E+02 0.  0.
         23    2    1    2    0    0 -0.43703293797E+02 -0.17555281677E+02 -0.33530440745E+03  0.35047347709E+03  0.90467931786E+02 0.  0.
        -11    1    3    3    0    0 -0.34045298005E+02 -0.95579467884E+01 -0.81649155883E+02  0.88977645055E+02  0.00000000000E+00 0.  1.
         12    1    3    3    0    0  0.35664678616E+02 -0.41321071168E+02 -0.23051163922E+03  0.23688608241E+03  0.00000000000E+00 0. -1.
        -13    1    4    4    0    0  0.16876006611E+02  0.22952671620E+02 -0.11264209815E+03  0.11618892808E+03  0.00000000000E+00 0.  1.
         13    1    4    4    0    0 -0.60579300407E+02 -0.40507953297E+02 -0.22266230930E+03  0.23428454901E+03  0.00000000000E+00 0. -1.
          1    1    1    2  501    0  0.42083913185E+02  0.68434299633E+02 -0.16272291066E+03  0.18147466702E+03  0.00000000000E+00 0. -1.
<scales pt_clust_5="13000.00000" pt_clust_6="13000.00000" pt_clust_7="13000.00000" pt_clust_8="13000.00000" pt_clust_9="13000.00000"></scales>
<clustering>
<clus scale="   78.432">  5  6 -1 -1</clus>
<clus scale="   90.468">  7  8 -1 -1</clus>
<clus scale="   80.339">  7  9 -1 -1</clus>
<clus scale="   93.503">  2  5  1 -1</clus>
<clus scale="  186.916">  1  5  2 -1</clus>
</clustering>
</event>
<event>
 9    2  0.3707658E-005  0.1842470E+03  0.7546771E-02  0.1197722E+00
         21   -1    0    0  501  502  0.00000000000E+00  0.00000000000E+00  0.38448134048E+02  0.38448134048E+02  0.00000000000E+00 0.  1.
          2   -1    0    0  502    0 -0.00000000000E+00 -0.00000000000E+00 -0.61279269384E+03  0.61279269384E+03  0.00000000000E+00 0. -1.
         24    2    1    2    0    0  0.13958797408E+01  0.18811230625E+02 -0.35269607486E+03  0.36301347099E+03  0.83835839736E+02 0.  0.
         23    2    1    2    0    0 -0.43308157382E+02 -0.30920242000E+02 -0.47339978198E+02  0.10854229159E+03  0.81906639939E+02 0.  0.
        -11    1    3    3    0    0 -0.40012624581E+02 -0.69790861953E+00 -0.15426421929E+03  0.15937046952E+03  0.00000000000E+00 0.  1.
         12    1    3    3    0    0  0.41408504322E+02  0.19509139245E+02 -0.19843185557E+03  0.20364300147E+03  0.00000000000E+00 0. -1.
        -13    1    4    4    0    0  0.24047160174E+02 -0.50262430725E+01 -0.18830453606E+02  0.30953433006E+02  0.00000000000E+00 0. -1.
         13    1    4    4    0    0 -0.67355317556E+02 -0.25893998927E+02 -0.28509524592E+02  0.77588858581E+02  0.00000000000E+00 0.  1.
          1    1    1    2  501    0  0.41912277642E+02  0.12109011374E+02 -0.17430850673E+03  0.17968506530E+03  0.00000000000E+00 0. -1.
<scales pt_clust_5="13000.00000" pt_clust_6="13000.00000" pt_clust_7="13000.00000" pt_clust_8="13000.00000" pt_clust_9="13000.00000"></scales>
<clustering>
<clus scale="   81.907">  7  8 -1 -1</clus>
<clus scale="   43.626">  7  9 -1 -1</clus>
<clus scale="   83.836">  5  6 -1 -1</clus>
<clus scale="   85.932">  2  5  1 -1</clus>
<clus scale="  184.247">  1  5  2 -1</clus>
</clustering>
</event>
<event>
 9    2  0.3707658E-005  0.1580861E+03  0.7546771E-02  0.1219782E+00
         21   -1    0    0  501  502  0.00000000000E+00  0.00000000000E+00  0.51428918262E+02  0.51428918262E+02  0.00000000000E+00 0. -1.
          2   -1    0    0  502    0 -0.00000000000E+00 -0.00000000000E+00 -0.29369730525E+03  0.29369730525E+03  0.00000000000E+00 0. -1.
         24    2    1    2    0    0 -0.17006685309E+02 -0.12413443913E+02 -0.11054715134E+03  0.13935520004E+03  0.82194149266E+02 0.  0.
         23    2    1    2    0    0 -0.46441662930E+02  0.23358419303E+02 -0.40391299100E+02  0.94027376269E+02  0.67136030840E+02 0.  0.
        -13    1    3    3    0    0 -0.44142056090E+02  0.14408723410E+02 -0.55231153244E+02  0.72156861870E+02  0.00000000000E+00 0.  1.
         14    1    3    3    0    0  0.27135370781E+02 -0.26822167323E+02 -0.55315998095E+02  0.67198338169E+02  0.00000000000E+00 0. -1.
        -13    1    4    4    0    0 -0.20667329106E+02 -0.23467653867E+02 -0.17950953996E+02  0.36056982955E+02  0.00000000000E+00 0.  1.
         13    1    4    4    0    0 -0.25774333824E+02  0.46826073170E+02 -0.22440345104E+02  0.57970393314E+02  0.00000000000E+00 0. -1.
          1    1    1    2  501    0  0.63448348239E+02 -0.10944975390E+02 -0.91329936547E+02  0.11174364720E+03  0.00000000000E+00 0. -1.
<scales pt_clust_5="13000.00000" pt_clust_6="13000.00000" pt_clust_7="13000.00000" pt_clust_8="13000.00000" pt_clust_9="13000.00000"></scales>
<clustering>
<clus scale="   67.136">  7  8 -1 -1</clus>
<clus scale="   64.385">  7  9 -1 -1</clus>
<clus scale="   82.194">  5  6 -1 -1</clus>
<clus scale="   84.848">  2  5  1 -1</clus>
<clus scale="  158.086">  1  5  2 -1</clus>
</clustering>
</event>
<event>
 9    2  0.3707658E-005  0.2597403E+03  0.7546771E-02  0.1119575E+00
         21   -1    0    0  501  502  0.00000000000E+00  0.00000000000E+00  0.54166428063E+03  0.54166428063E+03  0.00000000000E+00 0. -1.
          4   -1    0    0  502    0 -0.00000000000E+00 -0.00000000000E+00 -0.10713613516E+03  0.10713613516E+03  0.00000000000E+00 0. -1.
         24    2    1    2    0    0  0.17143323591E+03 -0.26684157571E+02  0.73536067218E+02  0.20407543406E+03  0.78344310369E+02 0.  0.
         23    2    1    2    0    0 -0.44844680070E+02  0.49777887936E+02  0.25081078754E+03  0.27532043730E+03  0.91686468953E+02 0.  0.
        -11    1    3    3    0    0  0.12174774156E+03  0.17688511935E+02  0.56118411168E+02  0.13522082717E+03  0.00000000000E+00 0.  1.
         12    1    3    3    0    0  0.49685494348E+02 -0.44372669506E+02  0.17417656050E+02  0.68854606890E+02  0.00000000000E+00 0. -1.
        -11    1    4    4    0    0  0.68936762998E+01  0.22735431733E+02  0.72182074563E+01  0.24829924444E+02  0.00000000000E+00 0.  1.
         11    1    4    4    0    0 -0.51738356370E+02  0.27042456203E+02  0.24359258009E+03  0.25049051285E+03  0.00000000000E+00 0. -1.
          3    1    1    2  501    0 -0.12658855584E+03 -0.23093730365E+02  0.11018129071E+03  0.16940454443E+03  0.00000000000E+00 0. -1.
<scales pt_clust_5="13000.00000" pt_clust_6="13000.00000" pt_clust_7="13000.00000" pt_clust_8="13000.00000" pt_clust_9="13000.00000"></scales>
<clustering>
<clus scale="   78.344">  5  6 -1 -1</clus>
<clus scale="   91.686">  7  8 -1 -1</clus>
<clus scale="  128.678">  7  9 -1 -1</clus>
<clus scale="  190.366">  2  5  1 -1</clus>
<clus scale="  259.740">  1  5  2 -1</clus>
</clustering>
</event>
<event>
 9    2  0.3707658E-005  0.2482440E+03  0.7546771E-02  0.1155895E+00
          2   -1    0    0  502    0 -0.00000000000E+00  0.00000000000E+00  0.88157419330E+03  0.88157419330E+03  0.00000000000E+00 0. -1.
         21   -1    0    0  501  502  0.00000000000E+00 -0.00000000000E+00 -0.34186239062E+02  0.34186239062E+02  0.00000000000E+00 0. -1.
         24    2    1    2    0    0  0.17677845783E+02 -0.35223258249E+02  0.32556509070E+03  0.33789868069E+03  0.81423006451E+02 0.  0.
         23    2    1    2    0    0  0.47748650473E+02 -0.69159669172E+02  0.30852892898E+03  0.33154747180E+03  0.87582147584E+02 0.  0.
        -11    1    3    3    0    0 -0.30819590050E+02 -0.52605221365E+00  0.10945795301E+03  0.11371529070E+03  0.00000000000E+00 0.  1.
         12    1    3    3    0    0  0.48497435833E+02 -0.34697206035E+02  0.21610713769E+03  0.22418338999E+03  0.00000000000E+00 0. -1.
        -13    1    4    4    0    0  0.18587174619E+02  0.18826633894E+02  0.98156840372E+02  0.10165967989E+03  0.00000000000E+00 0.  1.
         13    1    4    4    0    0  0.29161475854E+02 -0.87986303067E+02  0.21037208861E+03  0.22988779191E+03  0.00000000000E+00 0. -1.
          1    1    1    2  501    0 -0.65426496257E+02  0.10438292742E+03  0.21329393456E+03  0.24631427987E+03  0.00000000000E+00 0. -1.
<scales pt_clust_5="13000.00000" pt_clust_6="13000.00000" pt_clust_7="13000.00000" pt_clust_8="13000.00000" pt_clust_9="13000.00000"></scales>
<clustering>
<clus scale="   81.423">  5  6 -1 -1</clus>
<clus scale="   87.582">  7  8 -1 -1</clus>
<clus scale="   90.459">  1  5  2 -1</clus>
<clus scale="  106.806">  7  9 -1 -1</clus>
<clus scale="  248.244">  2  5  1 -1</clus>
</clustering>
</event>
<event>
 9    2  0.3707658E-005  0.2160168E+03  0.7546771E-02  0.1150810E+00
         21   -1    0    0  501  502  0.00000000000E+00  0.00000000000E+00  0.23942355481E+02  0.23942355481E+02  0.00000000000E+00 0. -1.
          2   -1    0    0  502    0 -0.00000000000E+00 -0.00000000000E+00 -0.31070213901E+04  0.31070213901E+04  0.00000000000E+00 0. -1.
         24    2    1    2    0    0  0.11455121101E+03  0.64891501262E+02 -0.25648593539E+04  0.25695237194E+04  0.81337276586E+02 0.  0.
         23    2    1    2    0    0 -0.29707334342E+02  0.44926713793E+01 -0.16866106853E+03  0.19510156219E+03  0.93356058830E+02 0.  0.
        -13    1    3    3    0    0  0.15720840264E+02  0.12799870846E+02 -0.94999136704E+02  0.97138136109E+02  0.00000000000E+00 0.  1.
         14    1    3    3    0    0  0.98830370745E+02  0.52091630416E+02 -0.24698602172E+04  0.24723855833E+04  0.00000000000E+00 0. -1.
        -11    1    4    4    0    0  0.25919334449E+02 -0.16908487690E+02 -0.25745781998E+02  0.40256106927E+02  0.00000000000E+00 0.  1.
         11    1    4    4    0    0 -0.55626668791E+02  0.21401159069E+02 -0.14291528654E+03  0.15484545526E+03  0.00000000000E+00 0. -1.
          1    1    1    2  501    0 -0.84843876667E+02 -0.69384172641E+02 -0.34955861218E+03  0.36633846395E+03  0.00000000000E+00 0. -1.
<scales pt_clust_5="13000.00000" pt_clust_6="13000.00000" pt_clust_7="13000.00000" pt_clust_8="13000.00000" pt_clust_9="13000.00000"></scales>
<clustering>
<clus scale="   81.337">  5  6 -1 -1</clus>
<clus scale="   93.356">  7  8 -1 -1</clus>
<clus scale="  109.602">  7  9 -1 -1</clus>
<clus scale="  154.753">  2  5  1 -1</clus>
<clus scale="  216.017">  1  5  2 -1</clus>
</clustering>
</event>
<event>
 9    2  0.3707658E-005  0.1543095E+03  0.7546771E-02  0.1211575E+00
         21   -1    0    0  501  502  0.00000000000E+00  0.00000000000E+00  0.22057267578E+02  0.22057267578E+02  0.00000000000E+00 0.  1.
          2   -1    0    0  502    0 -0.00000000000E+00 -0.00000000000E+00 -0.83275352155E+03  0.83275352155E+03  0.00000000000E+00 0. -1.
         24    2    1    2    0    0 -0.60440423722E+02 -0.42497647365E+02 -0.23598348073E+03  0.25974257364E+03  0.79491550084E+02 0.  0.
         23    2    1    2    0    0  0.45497489038E+02 -0.22717186150E+01 -0.30755643725E+03  0.32377484054E+03  0.90354872912E+02 0.  0.
        -13    1    3    3    0    0 -0.67302039076E+01 -0.48586687573E+02 -0.72331366924E+02  0.87394442015E+02  0.00000000000E+00 0.  1.
         14    1    3    3    0    0 -0.53710219814E+02  0.60890402078E+01 -0.16365211381E+03  0.17234813163E+03  0.00000000000E+00 0. -1.
        -11    1    4    4    0    0  0.56939757610E+02 -0.34752038843E+02 -0.20736767185E+03  0.21783294408E+03  0.00000000000E+00 0. -1.
         11    1    4    4    0    0 -0.11442268572E+02  0.32480320228E+02 -0.10018876540E+03  0.10594189645E+03  0.00000000000E+00 0.  1.
          1    1    1    2  501    0  0.14942934684E+02  0.44769365980E+02 -0.26715633600E+03  0.27129337495E+03  0.00000000000E+00 0. -1.
<scales pt_clust_5="13000.00000" pt_clust_6="13000.00000" pt_clust_7="13000.00000" pt_clust_8="13000.00000" pt_clust_9="13000.00000"></scales>
<clustering>
<clus scale="   79.492">  5  6 -1 -1</clus>
<clus scale="   90.355">  7  8 -1 -1</clus>
<clus scale="   47.197">  7  9 -1 -1</clus>
<clus scale="  108.527">  2  5  1 -1</clus>
<clus scale="  154.309">  1  5  2 -1</clus>
</clustering>
</event>
<event>
 9    2  0.3707658E-005  0.2653174E+03  0.7546771E-02  0.1121934E+00
         21   -1    0    0  501  502  0.00000000000E+00  0.00000000000E+00  0.18346989073E+03  0.18346989073E+03  0.00000000000E+00 0. -1.
          4   -1    0    0  502    0 -0.00000000000E+00 -0.00000000000E+00 -0.27707070799E+03  0.27707070799E+03  0.00000000000E+00 0. -1.
         24    2    1    2    0    0 -0.36361498476E+02  0.14329050015E+03  0.24421915885E+02  0.17015687900E+03  0.80638746823E+02 0.  0.
         23    2    1    2    0    0  0.10142147765E+03 -0.38383137557E+02 -0.62741181134E+02  0.15512690618E+03  0.91478521158E+02 0.  0.
        -11    1    3    3    0    0 -0.34369125060E+02  0.21324362021E+02  0.26146507796E+02  0.48162278215E+02  0.00000000000E+00 0.  1.
         12    1    3    3    0    0 -0.19923734159E+01  0.12196613813E+03 -0.17245919102E+01  0.12199460078E+03  0.00000000000E+00 0. -1.
        -13    1    4    4    0    0  0.30845844010E+02  0.11780463681E+02 -0.60013225429E+02  0.68496953536E+02  0.00000000000E+00 0.  1.
         13    1    4    4    0    0  0.70575633638E+02 -0.50163601238E+02 -0.27279557045E+01  0.86629952643E+02  0.00000000000E+00 0. -1.
          3    1    1    2  501    0 -0.65059979173E+02 -0.10490736260E+03 -0.55281552008E+02  0.13525681354E+03  0.00000000000E+00 0. -1.
<scales pt_clust_5="13000.00000" pt_clust_6="13000.00000" pt_clust_7="13000.00000" pt_clust_8="13000.00000" pt_clust_9="13000.00000"></scales>
<clustering>
<clus scale="   80.639">  5  6 -1 -1</clus>
<clus scale="   91.479">  7  8 -1 -1</clus>
<clus scale="  123.444">  7  9 -1 -1</clus>
<clus scale="  168.395">  2  5  1 -1</clus>
<clus scale="  265.317">  1  5  2 -1</clus>
</clustering>
</event>
<event>
 9    2  0.3707658E-005  0.3288621E+03  0.7546771E-02  0.1104791E+00
          2   -1    0    0  502    0 -0.00000000000E+00  0.00000000000E+00  0.31365206552E+03  0.31365206552E+03  0.00000000000E+00 0. -1.
         21   -1    0    0  501  502  0.00000000000E+00 -0.00000000000E+00 -0.17465550835E+03  0.17465550835E+03  0.00000000000E+00 0. -1.
         24    2    1    2    0    0 -0.10914915258E+03  0.11781001460E+02  0.65269566397E+02  0.15128239067E+03  0.81079688720E+02 0.  0.
         23    2    1    2    0    0 -0.87563736151E+02 -0.11893658135E+02  0.58081361306E+02  0.13969105284E+03  0.91275838649E+02 0.  0.
        -13    1    3    3    0    0 -0.58083636111E+02 -0.83408338577E+01  0.75323230983E+02  0.95482288510E+02  0.00000000000E+00 0.  1.
         14    1    3    3    0    0 -0.51065516471E+02  0.20121835318E+02 -0.10053664586E+02  0.55800102155E+02  0.00000000000E+00 0. -1.
        -13    1    4    4    0    0 -0.23621675013E+02 -0.42059845240E+02  0.48393562109E+02  0.68329722418E+02  0.00000000000E+00 0. -1.
         13    1    4    4    0    0 -0.63942061137E+02  0.30166187105E+02  0.96877991967E+01  0.71361330427E+02  0.00000000000E+00 0.  1.
          1    1    1    2  501    0  0.19671288873E+03  0.11265667462E+00  0.15645629465E+02  0.19733413036E+03  0.00000000000E+00 0. -1.
<scales pt_clust_5="13000.00000" pt_clust_6="13000.00000" pt_clust_7="13000.00000" pt_clust_8="13000.00000" pt_clust_9="13000.00000"></scales>
<clustering>
<clus scale="   81.080">  5  6 -1 -1</clus>
<clus scale="   91.276">  7  8 -1 -1</clus>
<clus scale="  136.478">  1  5  2 -1</clus>
<clus scale="  140.256">  7  9 -1 -1</clus>
<clus scale="  328.862">  2  5  1 -1</clus>
</clustering>
</event>
<event>
 9    2  0.3707658E-005  0.5861444E+03  0.7546771E-02  0.1034281E+00
          2   -1    0    0  502    0 -0.00000000000E+00  0.00000000000E+00  0.19858584152E+04  0.19858584152E+04  0.00000000000E+00 0. -1.
         21   -1    0    0  501  502  0.00000000000E+00 -0.00000000000E+00 -0.80630441238E+02  0.80630441238E+02  0.00000000000E+00 0.  1.
         24    2    1    2    0    0 -0.87386760144E+01 -0.14661735071E+03  0.18765616990E+03  0.25165604225E+03  0.80888277958E+02 0.  0.
         23    2    1    2    0    0  0.18248059977E+03 -0.13945477462E+03  0.84544771124E+03  0.88068938289E+03  0.89917480148E+02 0.  0.
        -13    1    3    3    0    0 -0.10897033014E+02 -0.15678226651E+03  0.17353587660E+03  0.23412416553E+03  0.00000000000E+00 0.  1.
         14    1    3    3    0    0  0.21583570000E+01  0.10164915801E+02  0.14120293309E+02  0.17531876719E+02  0.00000000000E+00 0. -1.
        -11    1    4    4    0    0  0.18171494445E+03 -0.10625657357E+03  0.77004801100E+03  0.79830114600E+03  0.00000000000E+00 0.  1.
         11    1    4    4    0    0  0.76565532697E+00 -0.33198201057E+02  0.75399700241E+02  0.82388236891E+02  0.00000000000E+00 0. -1.
          1    1    1    2  501    0 -0.17374192376E+03  0.28607212533E+03  0.87212409280E+03  0.93414343128E+03  0.00000000000E+00 0. -1.
<scales pt_clust_5="13000.00000" pt_clust_6="13000.00000" pt_clust_7="13000.00000" pt_clust_8="13000.00000" pt_clust_9="13000.00000"></scales>
<clustering>
<clus scale="   80.888">  5  6 -1 -1</clus>
<clus scale="   89.917">  7  8 -1 -1</clus>
<clus scale="  167.678">  1  5  2 -1</clus>
<clus scale="  276.265">  7  9 -1 -1</clus>
<clus scale="  586.144">  2  5  1 -1</clus>
</clustering>
</event>
<event>
 9    2  0.3707658E-005  0.6330588E+03  0.7546771E-02  0.1042335E+00
         -1   -1    0    0    0  501 -0.00000000000E+00  0.00000000000E+00  0.22493668925E+03  0.22493668925E+03  0.00000000000E+00 0.  1.
         21   -1    0    0  501  502  0.00000000000E+00 -0.00000000000E+00 -0.70995204867E+03  0.70995204867E+03  0.00000000000E+00 0.  1.
         24    2    1    2    0    0 -0.45997096348E+02  0.49270605657E+02 -0.22901968598E+03  0.25202913792E+03  0.80779603508E+02 0.  0.
         23    2    1    2    0    0  0.36856148224E+02  0.32403741658E+02  0.19732518252E+03  0.22214921982E+03  0.89468821802E+02 0.  0.
        -11    1    3    3    0    0  0.22145133544E+02  0.58485745007E+01 -0.70110010366E+02  0.73756534062E+02  0.00000000000E+00 0.  1.
         12    1    3    3    0    0 -0.68142229892E+02  0.43422031156E+02 -0.15890967561E+03  0.17827260386E+03  0.00000000000E+00 0. -1.
        -11    1    4    4    0    0 -0.24660417093E+01 -0.21871933671E+02  0.11983290274E+02  0.25061166973E+02  0.00000000000E+00 0. -1.
         11    1    4    4    0    0  0.39322189933E+02  0.54275675330E+02  0.18534189225E+03  0.19708805285E+03  0.00000000000E+00 0.  1.
         -2    1    1    2    0  502  0.91409481245E+01 -0.81674347315E+02 -0.45332085597E+03  0.46071038018E+03  0.00000000000E+00 0.  1.
<scales pt_clust_5="13000.00000" pt_clust_6="13000.00000" pt_clust_7="13000.00000" pt_clust_8="13000.00000" pt_clust_9="13000.00000"></scales>
<clustering>
<clus scale="   80.780">  5  6 -1 -1</clus>
<clus scale="   89.469">  7  8 -1 -1</clus>
<clus scale="   82.184">  7  9 -1 -1</clus>
<clus scale="  105.208">  1  5  2 -1</clus>
<clus scale="  633.059">  2  5  1 -1</clus>
</clustering>
</event>
<event>
 9    2  0.3707658E-005  0.6233378E+03  0.7546771E-02  0.1036478E+00
         21   -1    0    0  501  502  0.00000000000E+00  0.00000000000E+00  0.25705407477E+04  0.25705407477E+04  0.00000000000E+00 0.  1.
         -1   -1    0    0    0  501 -0.00000000000E+00 -0.00000000000E+00 -0.56033861963E+02  0.56033861963E+02  0.00000000000E+00 0.  1.
         24    2    1    2    0    0 -0.10095696331E+03 -0.22887701906E+02  0.56110139273E+03  0.57612514565E+03  0.79807613624E+02 0.  0.
         23    2    1    2    0    0  0.22500037623E+03 -0.21561222708E+03  0.74857146425E+03  0.81598843941E+03  0.91455422916E+02 0.  0.
        -11    1    3    3    0    0 -0.10026076044E+03 -0.42203146614E+02  0.51042673408E+03  0.52188962102E+03  0.00000000000E+00 0.  1.
         12    1    3    3    0    0 -0.69620286933E+00  0.19315444708E+02  0.50674658651E+02  0.54235524632E+02  0.00000000000E+00 0. -1.
        -11    1    4    4    0    0  0.21645130172E+03 -0.16235858403E+03  0.61154709242E+03  0.66873112838E+03  0.00000000000E+00 0.  1.
         11    1    4    4    0    0  0.85490745131E+01 -0.53253643049E+02  0.13702437184E+03  0.14725731103E+03  0.00000000000E+00 0. -1.
         -2    1    1    2    0  502 -0.12404341292E+03  0.23849992899E+03  0.12048340287E+04  0.12344610246E+04  0.00000000000E+00 0.  1.
<scales pt_clust_5="13000.00000" pt_clust_6="13000.00000" pt_clust_7="13000.00000" pt_clust_8="13000.00000" pt_clust_9="13000.00000"></scales>
<clustering>
<clus scale="   79.808">  5  6 -1 -1</clus>
<clus scale="   91.455">  7  8 -1 -1</clus>
<clus scale="  130.711">  2  5  1 -1</clus>
<clus scale="  278.534">  7  9 -1 -1</clus>
<clus scale="  623.338">  1  5  2 -1</clus>
</clustering>
</event>
<event>
 9    2  0.3707658E-005  0.6096870E+03  0.7546771E-02  0.1033876E+00
          2   -1    0    0  502    0 -0.00000000000E+00  0.00000000000E+00  0.12132008560E+04  0.12132008560E+04  0.00000000000E+00 0. -1.
         21   -1    0    0  501  502  0.00000000000E+00 -0.00000000000E+00 -0.12011960516E+03  0.12011960516E+03  0.00000000000E+00 0. -1.
         24    2    1    2    0    0  0.12180305363E+03 -0.39025923803E+02  0.17197833375E+03  0.22871697777E+03  0.79849245711E+02 0.  0.
         23    2    1    2    0    0  0.16704568003E+03 -0.14717993924E+03  0.23030349830E+03  0.33304010207E+03  0.91158184111E+02 0.  0.
        -11    1    3    3    0    0  0.91634270722E+02 -0.41491995569E+02  0.17104776390E+03  0.19843327040E+03  0.00000000000E+00 0.  1.
         12    1    3    3    0    0  0.30168782907E+02  0.24660717659E+01  0.93056985067E+00  0.30283707374E+02  0.00000000000E+00 0. -1.
        -13    1    4    4    0    0 -0.10008024251E+02 -0.20666839222E+02  0.21495791857E+02  0.31453900559E+02  0.00000000000E+00 0.  1.
         13    1    4    4    0    0  0.17705370428E+03 -0.12651310002E+03  0.20880770644E+03  0.30158620152E+03  0.00000000000E+00 0. -1.
          1    1    1    2  501    0 -0.28884873366E+03  0.18620586304E+03  0.69079941877E+03  0.77156338129E+03  0.00000000000E+00 0. -1.
<scales pt_clust_5="13000.00000" pt_clust_6="13000.00000" pt_clust_7="13000.00000" pt_clust_8="13000.00000" pt_clust_9="13000.00000"></scales>
<clustering>
<clus scale="   79.849">  5  6 -1 -1</clus>
<clus scale="   91.158">  7  8 -1 -1</clus>
<clus scale="  150.781">  1  5  2 -1</clus>
<clus scale="  255.622">  7  9 -1 -1</clus>
<clus scale="  609.687">  2  5  1 -1</clus>
</clustering>
</event>
<event>
 9    2  0.3707658E-005  0.2868199E+03  0.7546771E-02  0.1117474E+00
         21   -1    0    0  501  502  0.00000000000E+00  0.00000000000E+00  0.50579496559E+02  0.50579496559E+02  0.00000000000E+00 0. -1.
          2   -1    0    0  502    0 -0.00000000000E+00 -0.00000000000E+00 -0.99751522801E+03  0.99751522801E+03  0.00000000000E+00 0. -1.
         24    2    1    2    0    0  0.12070009672E+03 -0.31830985320E+02 -0.45344782140E+03  0.47730932743E+03  0.81409718972E+02 0.  0.
         23    2    1    2    0    0  0.58274913280E+02  0.41175852704E+01 -0.19395148527E+03  0.22075374641E+03  0.87761710827E+02 0.  0.
        -13    1    3    3    0    0  0.66493345350E+02 -0.53758164379E+02 -0.20589048522E+03  0.22293989576E+03  0.00000000000E+00 0.  1.
         14    1    3    3    0    0  0.54206751368E+02  0.21927179060E+02 -0.24755733617E+03  0.25436943167E+03  0.00000000000E+00 0. -1.
        -11    1    4    4    0    0  0.41197216524E+02  0.29938922631E+02 -0.17950809881E+03  0.18659235589E+03  0.00000000000E+00 0.  1.
         11    1    4    4    0    0  0.17077696757E+02 -0.25821337361E+02 -0.14443386461E+02  0.34161390517E+02  0.00000000000E+00 0. -1.
          1    1    1    2  501    0 -0.17897501000E+03  0.27713400049E+02 -0.29953642478E+03  0.35003165074E+03  0.00000000000E+00 0. -1.
<scales pt_clust_5="13000.00000" pt_clust_6="13000.00000" pt_clust_7="13000.00000" pt_clust_8="13000.00000" pt_clust_9="13000.00000"></scales>
<clustering>
<clus scale="   81.410">  5  6 -1 -1</clus>
<clus scale="   87.762">  7  8 -1 -1</clus>
<clus scale="  149.028">  2  5  1 -1</clus>
<clus scale="  105.632">  7  9 -1 -1</clus>
<clus scale="  286.820">  1  5  2 -1</clus>
</clustering>
</event>
<event>
 9    2  0.3707658E-005  0.1190314E+04  0.7546771E-02  0.9516691E-01
         21   -1    0    0  501  502  0.00000000000E+00  0.00000000000E+00  0.69364531397E+03  0.69364531397E+03  0.00000000000E+00 0. -1.
          2   -1    0    0  502    0 -0.00000000000E+00 -0.00000000000E+00 -0.79588166534E+03  0.79588166534E+03  0.00000000000E+00 0. -1.
         24    2    1    2    0    0 -0.17739521967E+03  0.20445316756E+03  0.58900170510E+02  0.28835614017E+03  0.80061674981E+02 0.  0.
         23    2    1    2    0    0  0.46344850835E+03  0.81775349785E+02 -0.48591860319E+03  0.68229065216E+03  0.89061312425E+02 0.  0.
        -11    1    3    3    0    0 -0.12425852412E+03  0.17364948002E+03  0.72403318620E+02  0.22546965045E+03  0.00000000000E+00 0.  1.
         12    1    3    3    0    0 -0.53136695559E+02  0.30803687542E+02 -0.13503148110E+02  0.62886489725E+02  0.00000000000E+00 0. -1.
        -13    1    4    4    0    0  0.37802726796E+03  0.67305019920E+02 -0.34143199456E+03  0.51381941179E+03  0.00000000000E+00 0. -1.
         13    1    4    4    0    0  0.85421240393E+02  0.14470329864E+02 -0.14448660863E+03  0.16847124037E+03  0.00000000000E+00 0.  1.
          1    1    1    2  501    0 -0.28605328867E+03 -0.28622851734E+03  0.32478208131E+03  0.51888018698E+03  0.00000000000E+00 0. -1.
<scales pt_clust_5="13000.00000" pt_clust_6="13000.00000" pt_clust_7="13000.00000" pt_clust_8="13000.00000" pt_clust_9="13000.00000"></scales>
<clustering>
<clus scale="   80.062">  5  6 -1 -1</clus>
<clus scale="   89.061">  7  8 -1 -1</clus>
<clus scale="  282.277">  2  5  1 -1</clus>
<clus scale="  403.764">  7  9 -1 -1</clus>
<clus scale=" 1190.314">  1  5  2 -1</clus>
</clustering>
</event>
<event>
 9    2  0.3707658E-005  0.2718943E+03  0.7546771E-02  0.1142679E+00
         21   -1    0    0  501  502  0.00000000000E+00  0.00000000000E+00  0.23139529256E+02  0.23139529256E+02  0.00000000000E+00 0. -1.
          2   -1    0    0  502    0 -0.00000000000E+00 -0.00000000000E+00 -0.14530254485E+04  0.14530254485E+04  0.00000000000E+00 0. -1.
         24    2    1    2    0    0 -0.47511740192E+02  0.14669819250E+02 -0.33127988318E+03  0.34441335393E+03  0.80010176298E+02 0.  0.
         23    2    1    2    0    0 -0.64884916245E+02 -0.77666443240E+02 -0.43689210697E+03  0.45761001632E+03  0.91049904689E+02 0.  0.
        -11    1    3    3    0    0 -0.38305443621E+02  0.39117688321E+02 -0.12471712573E+03  0.13620522017E+03  0.00000000000E+00 0.  1.
         12    1    3    3    0    0 -0.92062965712E+01 -0.24447869071E+02 -0.20656275745E+03  0.20820813376E+03  0.00000000000E+00 0. -1.
        -13    1    4    4    0    0  0.18124600462E+02 -0.30065324453E+02 -0.68228723664E+02  0.76730591091E+02  0.00000000000E+00 0.  1.
         13    1    4    4    0    0 -0.83009516707E+02 -0.47601118787E+02 -0.36866338330E+03  0.38087942523E+03  0.00000000000E+00 0. -1.
          1    1    1    2  501    0  0.11239665644E+03  0.62996623990E+02 -0.66171392907E+03  0.67414160749E+03  0.00000000000E+00 0. -1.
<scales pt_clust_5="13000.00000" pt_clust_6="13000.00000" pt_clust_7="13000.00000" pt_clust_8="13000.00000" pt_clust_9="13000.00000"></scales>
<clustering>
<clus scale="   80.010">  5  6 -1 -1</clus>
<clus scale="   91.050">  7  8 -1 -1</clus>
<clus scale="   94.203">  2  5  1 -1</clus>
<clus scale="  110.448">  7  9 -1 -1</clus>
<clus scale="  271.894">  1  5  2 -1</clus>
</clustering>
</event>
<event>
 9    2  0.3707658E-005  0.4025838E+03  0.7546771E-02  0.1097671E+00
         21   -1    0    0  501  502  0.00000000000E+00  0.00000000000E+00  0.94641793435E+02  0.94641793435E+02  0.00000000000E+00 0. -1.
         -1   -1    0    0    0  501 -0.00000000000E+00 -0.00000000000E+00 -0.64373682943E+03  0.64373682943E+03  0.00000000000E+00 0.  1.
         24    2    1    2    0    0  0.16303705106E+02  0.31766587332E+02 -0.77857658856E+02  0.11858965909E+03  0.82016860027E+02 0.  0.
         23    2    1    2    0    0  0.15736298721E+03  0.36126898525E+02 -0.11830857725E+03  0.22062936758E+03  0.92801594001E+02 0.  0.
        -13    1    3    3    0    0  0.10992672725E+02 -0.26948698675E+02 -0.35965341471E+02  0.46266370087E+02  0.00000000000E+00 0.  1.
         14    1    3    3    0    0  0.53110323813E+01  0.58715286006E+02 -0.41892317385E+02  0.72323288999E+02  0.00000000000E+00 0. -1.
        -11    1    4    4    0    0  0.86556707856E+02  0.52327513438E+02 -0.28420207860E+02  0.10506160361E+03  0.00000000000E+00 0. -1.
         11    1    4    4    0    0  0.70806279355E+02 -0.16200614913E+02 -0.89888369388E+02  0.11556776398E+03  0.00000000000E+00 0.  1.
         -2    1    1    2    0  502 -0.17366669232E+03 -0.67893485857E+02 -0.35292879989E+03  0.39915959619E+03  0.00000000000E+00 0.  1.
<scales pt_clust_5="13000.00000" pt_clust_6="13000.00000" pt_clust_7="13000.00000" pt_clust_8="13000.00000" pt_clust_9="13000.00000"></scales>
<clustering>
<clus scale="   82.017">  5  6 -1 -1</clus>
<clus scale="   89.452">  2  5  1 -1</clus>
<clus scale="   92.802">  7  8 -1 -1</clus>
<clus scale="  168.815">  7  9 -1 -1</clus>
<clus scale="  402.584">  1  5  2 -1</clus>
</clustering>
</event>
<event>
 9    2  0.3707658E-005  0.5338668E+03  0.7546771E-02  0.1055224E+00
          2   -1    0    0  502    0 -0.00000000000E+00  0.00000000000E+00  0.42714414606E+03  0.42714414606E+03  0.00000000000E+00 0. -1.
         21   -1    0    0  501  502  0.00000000000E+00 -0.00000000000E+00 -0.25867447780E+03  0.25867447780E+03  0.00000000000E+00 0.  1.
         24    2    1    2    0    0 -0.41571826015E+02  0.79600060914E+02  0.78253516928E+02  0.14438284322E+03  0.81599056917E+02 0.  0.
         23    2    1    2    0    0  0.61878412227E+02  0.18943511400E+03 -0.73060646427E+02  0.22607631039E+03  0.77833410232E+02 0.  0.
        -13    1    3    3    0    0 -0.62891979034E+02  0.73394328580E+02  0.74105205964E+02  0.12179371924E+03  0.00000000000E+00 0.  1.
         14    1    3    3    0    0  0.21320153020E+02  0.62057323340E+01  0.41483109643E+01  0.22589123986E+02  0.00000000000E+00 0. -1.
        -11    1    4    4    0    0 -0.24900549558E+01  0.10369422496E+03 -0.54827172335E+02  0.11732310723E+03  0.00000000000E+00 0.  1.
         11    1    4    4    0    0  0.64368467183E+02  0.85740889046E+02 -0.18233474093E+02  0.10875320317E+03  0.00000000000E+00 0. -1.
          1    1    1    2  501    0 -0.20306586213E+02 -0.26903517492E+03  0.16327679776E+03  0.31535947024E+03  0.00000000000E+00 0. -1.
<scales pt_clust_5="13000.00000" pt_clust_6="13000.00000" pt_clust_7="13000.00000" pt_clust_8="13000.00000" pt_clust_9="13000.00000"></scales>
<clustering>
<clus scale="   77.833">  7  8 -1 -1</clus>
<clus scale="   81.599">  5  6 -1 -1</clus>
<clus scale="  121.338">  1  5  2 -1</clus>
<clus scale="  215.052">  7  9 -1 -1</clus>
<clus scale="  533.867">  2  5  1 -1</clus>
</clustering>
</event>
<event>
 9    2  0.3707658E-005  0.6302685E+03  0.7546771E-02  0.1023737E+00
         -3   -1    0    0    0  501 -0.00000000000E+00  0.00000000000E+00  0.55221490245E+03  0.55221490245E+03  0.00000000000E+00 0.  1.
         21   -1    0    0  501  502  0.00000000000E+00 -0.00000000000E+00 -0.30633991403E+03  0.30633991403E+03  0.00000000000E+00 0.  1.
         24    2    1    2    0    0  0.11721151368E+03 -0.12107279255E+03  0.10650801216E+03  0.21306152509E+03  0.75193728356E+02 0.  0.
         23    2    1    2    0    0 -0.75388262615E+02 -0.10911382588E+02  0.36319667060E+03  0.38230374204E+03  0.91879710672E+02 0.  0.
        -11    1    3    3    0    0  0.10796891258E+03 -0.10262275014E+03  0.11746097457E+03  0.18969922372E+03  0.00000000000E+00 0.  1.
         12    1    3    3    0    0  0.92426010986E+01 -0.18450042408E+02 -0.10952962412E+02  0.23362301375E+02  0.00000000000E+00 0. -1.
        -13    1    4    4    0    0 -0.37073623099E+02 -0.46399889630E+02  0.25936055795E+03  0.26607386626E+03  0.00000000000E+00 0. -1.
         13    1    4    4    0    0 -0.38314639516E+02  0.35488507042E+02  0.10383611266E+03  0.11622987578E+03  0.00000000000E+00 0.  1.
         -4    1    1    2    0  502 -0.41823251068E+02  0.13198417514E+03 -0.22382969434E+03  0.26318954934E+03  0.00000000000E+00 0.  1.
<scales pt_clust_5="13000.00000" pt_clust_6="13000.00000" pt_clust_7="13000.00000" pt_clust_8="13000.00000" pt_clust_9="13000.00000"></scales>
<clustering>
<clus scale="   75.194">  5  6 -1 -1</clus>
<clus scale="   91.880">  7  8 -1 -1</clus>
<clus scale="  138.452">  7  9 -1 -1</clus>
<clus scale="  184.530">  1  5  2 -1</clus>
<clus scale="  630.269">  2  5  1 -1</clus>
</clustering>
</event>
<event>
 9    2  0.3707658E-005  0.2316091E+03  0.7546771E-02  0.1136345E+00
         -1   -1    0    0    0  501 -0.00000000000E+00  0.00000000000E+00  0.26785861251E+03  0.26785861251E+03  0.00000000000E+00 0.  1.
         21   -1    0    0  501  502  0.00000000000E+00 -0.00000000000E+00 -0.29654138566E+03  0.29654138566E+03  0.00000000000E+00 0. -1.
         24    2    1    2    0    0  0.93822300993E+02  0.12667308217E+03  0.17984626522E+03  0.25274772542E+03  0.81780435805E+02 0.  0.
         23    2    1    2    0    0 -0.72891038420E+02 -0.93663390714E+02 -0.65762796490E+02  0.16363214809E+03  0.91459281895E+02 0.  0.
        -11    1    3    3    0    0  0.13343279912E+02  0.83054763484E+02  0.67657522465E+02  0.10795219869E+03  0.00000000000E+00 0.  1.
         12    1    3    3    0    0  0.80479021081E+02  0.43618318685E+02  0.11218874276E+03  0.14479552673E+03  0.00000000000E+00 0. -1.
        -11    1    4    4    0    0 -0.86744302712E+02 -0.42603978014E+02 -0.47313372912E+02  0.10760217587E+03  0.00000000000E+00 0.  1.
         11    1    4    4    0    0  0.13853264292E+02 -0.51059412700E+02 -0.18449423578E+02  0.56029972222E+02  0.00000000000E+00 0. -1.
         -2    1    1    2    0  502 -0.20931262573E+02 -0.33009691455E+02 -0.14276624188E+03  0.14802012466E+03  0.00000000000E+00 0.  1.
<scales pt_clust_5="13000.00000" pt_clust_6="13000.00000" pt_clust_7="13000.00000" pt_clust_8="13000.00000" pt_clust_9="13000.00000"></scales>
<clustering>
<clus scale="   81.780">  5  6 -1 -1</clus>
<clus scale="   91.459">  7  8 -1 -1</clus>
<clus scale="   39.087">  7  9 -1 -1</clus>
<clus scale="  177.586">  1  5  2 -1</clus>
<clus scale="  231.609">  2  5  1 -1</clus>
</clustering>
</event>
<event>
 9    2  0.3707658E-005  0.4375111E+03  0.7546771E-02  0.1052380E+00
         21   -1    0    0  501  502  0.00000000000E+00  0.00000000000E+00  0.71646372758E+03  0.71646372758E+03  0.00000000000E+00 0.  1.
         -1   -1    0    0    0  501 -0.00000000000E+00 -0.00000000000E+00 -0.33288214958E+03  0.33288214958E+03  0.00000000000E+00 0.  1.
         24    2    1    2    0    0  0.19589022551E+03  0.10760725971E+03 -0.20577757291E+03  0.31534302812E+03  0.84525221540E+02 0.  0.
         23    2    1    2    0    0  0.26670279690E+02  0.95392215770E+02  0.15250590349E+03  0.20335915945E+03  0.91027020627E+02 0.  0.
        -13    1    3    3    0    0  0.19123960067E+03  0.94573379064E+02 -0.21145684900E+03  0.30038426703E+03  0.00000000000E+00 0.  1.
         14    1    3    3    0    0  0.46506248380E+01  0.13033880651E+02  0.56792760917E+01  0.14958761083E+02  0.00000000000E+00 0. -1.
        -13    1    4    4    0    0  0.23860755514E+02  0.29521697770E+02  0.82359252416E+00  0.37967678327E+02  0.00000000000E+00 0. -1.
         13    1    4    4    0    0  0.28095241757E+01  0.65870518000E+02  0.15168231097E+03  0.16539148112E+03  0.00000000000E+00 0.  1.
         -2    1    1    2    0  502 -0.22256050520E+03 -0.20299947548E+03  0.43685324743E+03  0.53064368959E+03  0.00000000000E+00 0.  1.
<scales pt_clust_5="13000.00000" pt_clust_6="13000.00000" pt_clust_7="13000.00000" pt_clust_8="13000.00000" pt_clust_9="13000.00000"></scales>
<clustering>
<clus scale="   84.525">  5  6 -1 -1</clus>
<clus scale="   91.027">  7  8 -1 -1</clus>
<clus scale="  238.949">  2  5  1 -1</clus>
<clus scale="  163.941">  7  9 -1 -1</clus>
<clus scale="  437.511">  1  5  2 -1</clus>
</clustering>
</event>
<event>
 9    2  0.3707658E-005  0.4081017E+03  0.7546771E-02  0.1090626E+00
         -1   -1    0    0    0  501 -0.00000000000E+00  0.00000000000E+00  0.97925737864E+03  0.97925737864E+03  0.00000000000E+00 0.  1.
         21   -1    0    0  501  502  0.00000000000E+00 -0.00000000000E+00 -0.67533671190E+02  0.67533671190E+02  0.00000000000E+00 0. -1.
         24    2    1    2    0    0  0.94368660011E+01 -0.67051388656E+02  0.23212318428E+03  0.25407177610E+03  0.78015072736E+02 0.  0.
         23    2    1    2    0    0 -0.17320740406E+03  0.11908395007E+03  0.31493840046E+03  0.38959815008E+03  0.91753640139E+02 0.  0.
        -11    1    3    3    0    0 -0.15234721245E+02 -0.66796183360E+02  0.21013934236E+03  0.22102572259E+03  0.00000000000E+00 0.  1.
         12    1    3    3    0    0  0.24671587247E+02 -0.25520529645E+00  0.21983841920E+02  0.33046053510E+02  0.00000000000E+00 0. -1.
        -11    1    4    4    0    0 -0.38775595339E+02 -0.12909824196E+02  0.60164685914E+02  0.72732384711E+02  0.00000000000E+00 0.  1.
         11    1    4    4    0    0 -0.13443180872E+03  0.13199377427E+03  0.25477371454E+03  0.31686576537E+03  0.00000000000E+00 0. -1.
         -2    1    1    2    0  502  0.16377053806E+03 -0.52032561418E+02  0.36466212272E+03  0.40312112365E+03  0.00000000000E+00 0.  1.
<scales pt_clust_5="13000.00000" pt_clust_6="13000.00000" pt_clust_7="13000.00000" pt_clust_8="13000.00000" pt_clust_9="13000.00000"></scales>
<clustering>
<clus scale="   78.015">  5  6 -1 -1</clus>
<clus scale="   91.754">  7  8 -1 -1</clus>
<clus scale="  103.302">  1  5  2 -1</clus>
<clus scale="  189.804">  7  9 -1 -1</clus>
<clus scale="  408.102">  2  5  1 -1</clus>
</clustering>
</event>
<event>
 9    2  0.3707658E-005  0.2746445E+03  0.7546771E-02  0.1140309E+00
          2   -1    0    0  502    0 -0.00000000000E+00  0.00000000000E+00  0.52303012631E+02  0.52303012631E+02  0.00000000000E+00 0. -1.
         21   -1    0    0  501  502  0.00000000000E+00 -0.00000000000E+00 -0.75159898414E+03  0.75159898414E+03  0.00000000000E+00 0.  1.
         24    2    1    2    0    0 -0.48467100956E+02 -0.23127721658E+02 -0.76883634553E+02  0.12358829452E+03  0.80492371665E+02 0.  0.
         23    2    1    2    0    0  0.11604312445E+03 -0.18362537303E+02 -0.55772423909E+03  0.57797841730E+03  0.95914203819E+02 0.  0.
        -11    1    3    3    0    0 -0.28529223240E+02  0.27142807959E+02 -0.48625084743E+02  0.62570340170E+02  0.00000000000E+00 0.  1.
         12    1    3    3    0    0 -0.19937877715E+02 -0.50270529618E+02 -0.28258549809E+02  0.61017954351E+02  0.00000000000E+00 0. -1.
        -11    1    4    4    0    0  0.11231619807E+03  0.15960877274E+02 -0.47458502537E+03  0.48795555562E+03  0.00000000000E+00 0.  1.
         11    1    4    4    0    0  0.37269263757E+01 -0.34323414576E+02 -0.83139213717E+02  0.90022861684E+02  0.00000000000E+00 0. -1.
          1    1    1    2  501    0 -0.67576023493E+02  0.41490258961E+02 -0.64688097872E+02  0.10233528495E+03  0.00000000000E+00 0. -1.
<scales pt_clust_5="13000.00000" pt_clust_6="13000.00000" pt_clust_7="13000.00000" pt_clust_8="13000.00000" pt_clust_9="13000.00000"></scales>
<clustering>
<clus scale="   80.492">  5  6 -1 -1</clus>
<clus scale="   95.914">  7  8 -1 -1</clus>
<clus scale="   79.297">  7  9 -1 -1</clus>
<clus scale="   96.762">  1  5  2 -1</clus>
<clus scale="  274.645">  2  5  1 -1</clus>
</clustering>
</event>
<event>
 9    2  0.3707658E-005  0.3248165E+03  0.7546771E-02  0.1083579E+00
         21   -1    0    0  501  502  0.00000000000E+00  0.00000000000E+00  0.47360619335E+03  0.47360619335E+03  0.00000000000E+00 0.  1.
         -3   -1    0    0    0  501 -0.00000000000E+00 -0.00000000000E+00 -0.21041109723E+03  0.21041109723E+03  0.00000000000E+00 0.  1.
         24    2    1    2    0    0 -0.21644504961E+03  0.88141209779E+02 -0.26860325095E+02  0.24854295981E+03  0.80217164283E+02 0.  0.
         23    2    1    2    0    0  0.15686920362E+01 -0.29388681081E+02  0.13201419829E+03  0.16234297626E+03  0.89784954309E+02 0.  0.
        -13    1    3    3    0    0 -0.17124294531E+03  0.99795240947E+02 -0.34683235941E+02  0.20121173745E+03  0.00000000000E+00 0.  1.
         14    1    3    3    0    0 -0.45202104304E+02 -0.11654031169E+02  0.78229108459E+01  0.47331222360E+02  0.00000000000E+00 0. -1.
        -13    1    4    4    0    0  0.23472262854E+02 -0.54018840127E+02  0.10189905852E+03  0.11769622058E+03  0.00000000000E+00 0.  1.
         13    1    4    4    0    0 -0.21903570817E+02  0.24630159045E+02  0.30115139770E+02  0.44646755677E+02  0.00000000000E+00 0. -1.
         -4    1    1    2    0  502  0.21487635757E+03 -0.58752528697E+02  0.15804122293E+03  0.27313135451E+03  0.00000000000E+00 0.  1.
<scales pt_clust_5="13000.00000" pt_clust_6="13000.00000" pt_clust_7="13000.00000" pt_clust_8="13000.00000" pt_clust_9="13000.00000"></scales>
<clustering>
<clus scale="   80.217">  5  6 -1 -1</clus>
<clus scale="   89.785">  7  8 -1 -1</clus>
<clus scale="  222.764">  7  9 -1 -1</clus>
<clus scale="  247.087">  2  5  1 -1</clus>
<clus scale="  324.816">  1  5  2 -1</clus>
</clustering>
</event>
<event>
 9    2  0.3707658E-005  0.1716006E+03  0.7546771E-02  0.1201019E+00
          2   -1    0    0  502    0 -0.00000000000E+00  0.00000000000E+00  0.17146953762E+03  0.17146953762E+03  0.00000000000E+00 0. -1.
         21   -1    0    0  501  502  0.00000000000E+00 -0.00000000000E+00 -0.13261041541E+03  0.13261041541E+03  0.00000000000E+00 0.  1.
         24    2    1    2    0    0  0.45473349939E+02  0.35980471983E+02  0.80380183601E+02  0.12752754754E+03  0.80248872563E+02 0.  0.
         23    2    1    2    0    0  0.28729429160E+02 -0.94079253692E+01 -0.20935239182E+02  0.95091195475E+02  0.87693569079E+02 0.  0.
        -13    1    3    3    0    0  0.19403510225E+02  0.56969301387E+02  0.70366181937E+02  0.92592640474E+02  0.00000000000E+00 0.  1.
         14    1    3    3    0    0  0.26069839714E+02 -0.20988829405E+02  0.10014001664E+02  0.34934907068E+02  0.00000000000E+00 0. -1.
        -11    1    4    4    0    0  0.45316487372E+02  0.68756346145E+01 -0.43141365778E+02  0.62944704465E+02  0.00000000000E+00 0.  1.
         11    1    4    4    0    0 -0.16587058212E+02 -0.16283559984E+02  0.22206126596E+02  0.32146491010E+02  0.00000000000E+00 0. -1.
          1    1    1    2  501    0 -0.74202779099E+02 -0.26572546613E+02 -0.20585822208E+02  0.81461210005E+02  0.00000000000E+00 0. -1.
<scales pt_clust_5="13000.00000" pt_clust_6="13000.00000" pt_clust_7="13000.00000" pt_clust_8="13000.00000" pt_clust_9="13000.00000"></scales>
<clustering>
<clus scale="   80.249">  5  6 -1 -1</clus>
<clus scale="   87.694">  7  8 -1 -1</clus>
<clus scale="   78.817">  7  9 -1 -1</clus>
<clus scale="   99.007">  1  5  2 -1</clus>
<clus scale="  171.601">  2  5  1 -1</clus>
</clustering>
</event>
<event>
 9    2  0.3707658E-005  0.1584807E+03  0.7546771E-02  0.1213531E+00
         21   -1    0    0  501  502  0.00000000000E+00  0.00000000000E+00  0.68023537425E+02  0.68023537425E+02  0.00000000000E+00 0.  1.
          2   -1    0    0  502    0 -0.00000000000E+00 -0.00000000000E+00 -0.46336438705E+03  0.46336438705E+03  0.00000000000E+00 0. -1.
         24    2    1    2    0    0  0.29322761244E+02 -0.44656900495E+02 -0.35510593487E+03  0.36787955029E+03  0.79881634041E+02 0.  0.
         23    2    1    2    0    0  0.12718344071E+02  0.18181700383E+02  0.94388220852E+01  0.93252620758E+02  0.90081237842E+02 0.  0.
        -13    1    3    3    0    0  0.11780251704E+02 -0.54343882316E+02 -0.33466898784E+03  0.33925707553E+03  0.00000000000E+00 0.  1.
         14    1    3    3    0    0  0.17542509540E+02  0.96869818209E+01 -0.20436947026E+02  0.28622474762E+02  0.00000000000E+00 0. -1.
        -13    1    4    4    0    0  0.44336693161E+02  0.35310254337E+02  0.82181325958E+01  0.57272105995E+02  0.00000000000E+00 0.  1.
         13    1    4    4    0    0 -0.31618349090E+02 -0.17128553954E+02  0.12206894894E+01  0.35980514762E+02  0.00000000000E+00 0. -1.
          1    1    1    2  501    0 -0.42041105315E+02  0.26475200112E+02 -0.49673736842E+02  0.70255753422E+02  0.00000000000E+00 0. -1.
<scales pt_clust_5="13000.00000" pt_clust_6="13000.00000" pt_clust_7="13000.00000" pt_clust_8="13000.00000" pt_clust_9="13000.00000"></scales>
<clustering>
<clus scale="   79.882">  5  6 -1 -1</clus>
<clus scale="   90.081">  7  8 -1 -1</clus>
<clus scale="   49.683">  7  9 -1 -1</clus>
<clus scale="   96.100">  2  5  1 -1</clus>
<clus scale="  158.481">  1  5  2 -1</clus>
</clustering>
</event>
<event>
 9    2  0.3707658E-005  0.3555321E+03  0.7546771E-02  0.1091481E+00
          2   -1    0    0  502    0 -0.00000000000E+00  0.00000000000E+00  0.66137216398E+03  0.66137216398E+03  0.00000000000E+00 0. -1.
         21   -1    0    0  501  502  0.00000000000E+00 -0.00000000000E+00 -0.10152615616E+03  0.10152615616E+03  0.00000000000E+00 0.  1.
         24    2    1    2    0    0  0.41387428398E+02  0.12405881238E+03  0.24103145142E+03  0.28535692508E+03  0.78923418325E+02 0.  0.
         23    2    1    2    0    0  0.15056815970E+01  0.58316918019E+02  0.25902296909E+03  0.28087985883E+03  0.91637691887E+02 0.  0.
        -13    1    3    3    0    0  0.20975365884E+02  0.51516102744E+02  0.34371733040E+02  0.65385708286E+02  0.00000000000E+00 0.  1.
         14    1    3    3    0    0  0.20412062514E+02  0.72542709634E+02  0.20665971838E+03  0.21997121680E+03  0.00000000000E+00 0. -1.
        -13    1    4    4    0    0  0.15801827586E+02  0.41087735726E+02  0.25419303603E+03  0.25797674188E+03  0.00000000000E+00 0.  1.
         13    1    4    4    0    0 -0.14296145989E+02  0.17229182293E+02  0.48299330556E+01  0.22903116948E+02  0.00000000000E+00 0. -1.
          1    1    1    2  501    0 -0.42893109995E+02 -0.18237573040E+03  0.59791587306E+02  0.19666153624E+03  0.00000000000E+00 0. -1.
<scales pt_clust_5="13000.00000" pt_clust_6="13000.00000" pt_clust_7="13000.00000" pt_clust_8="13000.00000" pt_clust_9="13000.00000"></scales>
<clustering>
<clus scale="   78.923">  5  6 -1 -1</clus>
<clus scale="   91.638">  7  8 -1 -1</clus>
<clus scale="  152.750">  1  5  2 -1</clus>
<clus scale="  145.461">  7  9 -1 -1</clus>
<clus scale="  355.532">  2  5  1 -1</clus>
</clustering>
</event>
<event>
 9    2  0.3707658E-005  0.2768274E+03  0.7546771E-02  0.1117942E+00
          2   -1    0    0  502    0 -0.00000000000E+00  0.00000000000E+00  0.23561672466E+03  0.23561672466E+03  0.00000000000E+00 0. -1.
         21   -1    0    0  501  502  0.00000000000E+00 -0.00000000000E+00 -0.29043418349E+03  0.29043418349E+03  0.00000000000E+00 0. -1.
         24    2    1    2    0    0 -0.50857285419E+02  0.13367398341E+03 -0.16087447684E+03  0.22960275634E+03  0.79885111887E+02 0.  0.
         23    2    1    2    0    0  0.83725181063E+02 -0.78484578494E+02  0.15717663856E+03  0.21435439696E+03  0.89853084420E+02 0.  0.
        -11    1    3    3    0    0 -0.52189008350E+02  0.30159223039E+02 -0.60915758618E+02  0.85697146830E+02  0.00000000000E+00 0.  1.
         12    1    3    3    0    0  0.13317229308E+01  0.10351476037E+03 -0.99958718218E+02  0.14390560951E+03  0.00000000000E+00 0. -1.
        -13    1    4    4    0    0  0.95763249081E+02 -0.47062153096E+02  0.14152724770E+03  0.17724392224E+03  0.00000000000E+00 0. -1.
         13    1    4    4    0    0 -0.12038068018E+02 -0.31422425397E+02  0.15649390858E+02  0.37110474717E+02  0.00000000000E+00 0.  1.
          1    1    1    2  501    0 -0.32867895644E+02 -0.55189404920E+02 -0.51119620557E+02  0.82093754850E+02  0.00000000000E+00 0. -1.
<scales pt_clust_5="13000.00000" pt_clust_6="13000.00000" pt_clust_7="13000.00000" pt_clust_8="13000.00000" pt_clust_9="13000.00000"></scales>
<clustering>
<clus scale="   79.885">  5  6 -1 -1</clus>
<clus scale="   89.853">  7  8 -1 -1</clus>
<clus scale="   64.235">  7  9 -1 -1</clus>
<clus scale="  163.820">  1  5  2 -1</clus>
<clus scale="  276.827">  2  5  1 -1</clus>
</clustering>
</event>
<event>
 9    2  0.3707658E-005  0.2782531E+03  0.7546771E-02  0.1132416E+00
          4   -1    0    0  502    0 -0.00000000000E+00  0.00000000000E+00  0.30958489872E+03  0.30958489872E+03  0.00000000000E+00 0. -1.
         21   -1    0    0  501  502  0.00000000000E+00 -0.00000000000E+00 -0.12401573966E+03  0.12401573966E+03  0.00000000000E+00 0. -1.
         24    2    1    2    0    0 -0.36124977385E+02  0.71181453189E+02  0.67206073446E+02  0.13121909954E+03  0.79561187195E+02 0.  0.
         23    2    1    2    0    0 -0.15787633990E+02 -0.15443565579E+03  0.73605754081E+02  0.19454184208E+03  0.91263903702E+02 0.  0.
        -13    1    3    3    0    0  0.22002601806E+02  0.42407299571E+02  0.30751432444E+02  0.56816759327E+02  0.00000000000E+00 0.  1.
         14    1    3    3    0    0 -0.58127579191E+02  0.28774153618E+02  0.36454641002E+02  0.74402340216E+02  0.00000000000E+00 0. -1.
        -11    1    4    4    0    0 -0.26641949469E+02 -0.81684325275E+02  0.84113975804E+02  0.12023844390E+03  0.00000000000E+00 0.  1.
         11    1    4    4    0    0  0.10854315479E+02 -0.72751330519E+02 -0.10508221723E+02  0.74303398177E+02  0.00000000000E+00 0. -1.
          3    1    1    2  501    0  0.51912611375E+02  0.83254202606E+02  0.44757331532E+02  0.10783969676E+03  0.00000000000E+00 0. -1.
<scales pt_clust_5="13000.00000" pt_clust_6="13000.00000" pt_clust_7="13000.00000" pt_clust_8="13000.00000" pt_clust_9="13000.00000"></scales>
<clustering>
<clus scale="   79.561">  5  6 -1 -1</clus>
<clus scale="   91.264">  7  8 -1 -1</clus>
<clus scale="   98.113">  7  9 -1 -1</clus>
<clus scale="  112.702">  1  5  2 -1</clus>
<clus scale="  278.253">  2  5  1 -1</clus>
</clustering>
</event>
<event>
 9    2  0.3707658E-005  0.4132089E+03  0.7546771E-02  0.1072356E+00
         21   -1    0    0  501  502  0.00000000000E+00  0.00000000000E+00  0.18329182839E+03  0.18329182839E+03  0.00000000000E+00 0.  1.
         -1   -1    0    0    0  501 -0.00000000000E+00 -0.00000000000E+00 -0.45671679016E+03  0.45671679016E+03  0.00000000000E+00 0.  1.
         24    2    1    2    0    0 -0.35247744403E+02  0.13709296281E+03 -0.49080801618E+02  0.16982575559E+03  0.79968607819E+02 0.  0.
         23    2    1    2    0    0  0.20051845462E+03 -0.10266477384E+03 -0.11318018839E+03  0.26805137983E+03  0.91071843915E+02 0.  0.
        -11    1    3    3    0    0 -0.35115845266E+02  0.14656147197E+03 -0.52743920309E+02  0.15967250479E+03  0.00000000000E+00 0.  1.
         12    1    3    3    0    0 -0.13189913629E+00 -0.94685091668E+01  0.36631186913E+01  0.10153250798E+02  0.00000000000E+00 0. -1.
        -13    1    4    4    0    0  0.19986700045E+02  0.14508969413E+01 -0.44197501209E+02  0.48528263865E+02  0.00000000000E+00 0. -1.
         13    1    4    4    0    0  0.18053175458E+03 -0.10411567078E+03 -0.68982687178E+02  0.21952311597E+03  0.00000000000E+00 0.  1.
         -2    1    1    2    0  502 -0.16527071022E+03 -0.34428188969E+02 -0.11116397177E+03  0.20213148313E+03  0.00000000000E+00 0.  1.
<scales pt_clust_5="13000.00000" pt_clust_6="13000.00000" pt_clust_7="13000.00000" pt_clust_8="13000.00000" pt_clust_9="13000.00000"></scales>
<clustering>
<clus scale="   79.969">  5  6 -1 -1</clus>
<clus scale="   91.072">  7  8 -1 -1</clus>
<clus scale="  162.579">  2  5  1 -1</clus>
<clus scale="  183.233">  7  9 -1 -1</clus>
<clus scale="  413.209">  1  5  2 -1</clus>
</clustering>
</event>
<event>
 9    2  0.3707658E-005  0.3365391E+03  0.7546771E-02  0.1100931E+00
         21   -1    0    0  501  502  0.00000000000E+00  0.00000000000E+00  0.61338839674E+02  0.61338839674E+02  0.00000000000E+00 0. -1.
          2   -1    0    0  502    0 -0.00000000000E+00 -0.00000000000E+00 -0.95584075679E+03  0.95584075679E+03  0.00000000000E+00 0. -1.
         24    2    1    2    0    0  0.11318052799E+03 -0.14307447937E+02 -0.18997578773E+03  0.23640071275E+03  0.82340525153E+02 0.  0.
         23    2    1    2    0    0 -0.12470239408E+03  0.86645385997E+02 -0.68286459155E+03  0.70439332943E+03  0.82509406465E+02 0.  0.
        -11    1    3    3    0    0  0.11381362103E+03 -0.18886928125E+02 -0.19682018798E+03  0.22814127812E+03  0.00000000000E+00 0.  1.
         12    1    3    3    0    0 -0.63309304712E+00  0.45794801880E+01  0.68444002487E+01  0.82594346273E+01  0.00000000000E+00 0. -1.
        -11    1    4    4    0    0 -0.61600935517E+02  0.20946819669E+01 -0.17100136299E+03  0.18177053968E+03  0.00000000000E+00 0.  1.
         11    1    4    4    0    0 -0.63101458564E+02  0.84550704030E+02 -0.51186322856E+03  0.52262278976E+03  0.00000000000E+00 0. -1.
          1    1    1    2  501    0  0.11521866094E+02 -0.72337938060E+02 -0.21661537836E+02  0.76385554279E+02  0.00000000000E+00 0. -1.
<scales pt_clust_5="13000.00000" pt_clust_6="13000.00000" pt_clust_7="13000.00000" pt_clust_8="13000.00000" pt_clust_9="13000.00000"></scales>
<clustering>
<clus scale="   82.341">  5  6 -1 -1</clus>
<clus scale="   82.509">  7  8 -1 -1</clus>
<clus scale="   73.250">  7  9 -1 -1</clus>
<clus scale="  140.693">  2  5  1 -1</clus>
<clus scale="  336.539">  1  5  2 -1</clus>
</clustering>
</event>
<event>
 9    2  0.3707658E-005  0.4335208E+03  0.7546771E-02  0.1048530E+00
         21   -1    0    0  501  502  0.00000000000E+00  0.00000000000E+00  0.22059868253E+03  0.22059868253E+03  0.00000000000E+00 0. -1.
          2   -1    0    0  502    0 -0.00000000000E+00 -0.00000000000E+00 -0.75250189907E+03  0.75250189907E+03  0.00000000000E+00 0. -1.
         24    2    1    2    0    0  0.10921520189E+03  0.23797567490E+03 -0.45737633480E+03  0.53322044295E+03  0.81058910552E+02 0.  0.
         23    2    1    2    0    0  0.96298614236E+02 -0.27309424988E+02  0.12193505307E+01  0.13598264084E+03  0.92035666983E+02 0.  0.
        -11    1    3    3    0    0  0.81195908820E+02  0.10409782020E+03 -0.17261581402E+03  0.21731394578E+03  0.00000000000E+00 0.  1.
         12    1    3    3    0    0  0.28019293069E+02  0.13387785470E+03 -0.28476052078E+03  0.31590649717E+03  0.00000000000E+00 0. -1.
        -13    1    4    4    0    0  0.76547371407E+02 -0.32868163685E+02 -0.38120562751E+02  0.91613282649E+02  0.00000000000E+00 0.  1.
         13    1    4    4    0    0  0.19751242828E+02  0.55587386973E+01  0.39339913282E+02  0.44369358190E+02  0.00000000000E+00 0. -1.
          1    1    1    2  501    0 -0.20551381612E+03 -0.21066624991E+03 -0.75746232272E+02  0.30389749781E+03  0.00000000000E+00 0. -1.
<scales pt_clust_5="13000.00000" pt_clust_6="13000.00000" pt_clust_7="13000.00000" pt_clust_8="13000.00000" pt_clust_9="13000.00000"></scales>
<clustering>
<clus scale="   81.059">  5  6 -1 -1</clus>
<clus scale="   92.036">  7  8 -1 -1</clus>
<clus scale="  274.100">  2  5  1 -1</clus>
<clus scale="  129.731">  7  9 -1 -1</clus>
<clus scale="  433.521">  1  5  2 -1</clus>
</clustering>
</event>
<event>
 9    2  0.3707658E-005  0.9866058E+03  0.7546771E-02  0.9616193E-01
         21   -1    0    0  501  502  0.00000000000E+00  0.00000000000E+00  0.13536190849E+04  0.13536190849E+04  0.00000000000E+00 0. -1.
         -1   -1    0    0    0  501 -0.00000000000E+00 -0.00000000000E+00 -0.38679780300E+03  0.38679780300E+03  0.00000000000E+00 0.  1.
         24    2    1    2    0    0 -0.29942560864E+02 -0.34147391218E+03  0.58485849591E+03  0.68245344471E+03  0.78627312770E+02 0.  0.
         23    2    1    2    0    0 -0.87080456816E+02 -0.30235778046E+03  0.18706815615E+03  0.37517683538E+03  0.82218789780E+02 0.  0.
        -11    1    3    3    0    0 -0.14702581543E+02 -0.16980902377E+03  0.21460597535E+03  0.27405655459E+03  0.00000000000E+00 0.  1.
         12    1    3    3    0    0 -0.15239979322E+02 -0.17166488841E+03  0.37025252055E+03  0.40839689012E+03  0.00000000000E+00 0. -1.
        -13    1    4    4    0    0  0.59458178262E+01 -0.12213018182E+03  0.75269329762E+02  0.14358483926E+03  0.00000000000E+00 0.  1.
         13    1    4    4    0    0 -0.93026274642E+02 -0.18022759864E+03  0.11179882639E+03  0.23159199612E+03  0.00000000000E+00 0. -1.
         -2    1    1    2    0  502  0.11702301768E+03  0.64383169264E+03  0.19489462988E+03  0.68278660786E+03  0.00000000000E+00 0.  1.
<scales pt_clust_5="13000.00000" pt_clust_6="13000.00000" pt_clust_7="13000.00000" pt_clust_8="13000.00000" pt_clust_9="13000.00000"></scales>
<clustering>
<clus scale="   78.627">  5  6 -1 -1</clus>
<clus scale="   82.219">  7  8 -1 -1</clus>
<clus scale="  351.686">  2  5  1 -1</clus>
<clus scale="  408.673">  7  9 -1 -1</clus>
<clus scale="  986.606">  1  5  2 -1</clus>
</clustering>
</event>
<event>
 9    2  0.3707658E-005  0.2185206E+03  0.7546771E-02  0.1163269E+00
          2   -1    0    0  502    0 -0.00000000000E+00  0.00000000000E+00  0.25536095551E+03  0.25536095551E+03  0.00000000000E+00 0. -1.
         21   -1    0    0  501  502  0.00000000000E+00 -0.00000000000E+00 -0.27850793570E+03  0.27850793570E+03  0.00000000000E+00 0.  1.
         24    2    1    2    0    0 -0.73958972383E+02 -0.17027003607E+02  0.19524000742E+03  0.22492858777E+03  0.81941202393E+02 0.  0.
         23    2    1    2    0    0  0.73059613591E+02 -0.43143624512E+01 -0.24704372288E+03  0.27319857395E+03  0.90832477311E+02 0.  0.
        -13    1    3    3    0    0 -0.12062784808E+02 -0.42851930869E+02  0.73199245991E+02  0.85673381924E+02  0.00000000000E+00 0.  1.
         14    1    3    3    0    0 -0.61896187574E+02  0.25824927262E+02  0.12204076143E+03  0.13925520585E+03  0.00000000000E+00 0. -1.
        -13    1    4    4    0    0  0.71198374494E+02 -0.35667576124E+02 -0.21023226711E+03  0.22480878686E+03  0.00000000000E+00 0.  1.
         13    1    4    4    0    0  0.18612390977E+01  0.31353213673E+02 -0.36811455767E+02  0.48389787087E+02  0.00000000000E+00 0. -1.
          1    1    1    2  501    0  0.89935879130E+00  0.21341366058E+02  0.28656735258E+02  0.35741729492E+02  0.00000000000E+00 0. -1.
<scales pt_clust_5="13000.00000" pt_clust_6="13000.00000" pt_clust_7="13000.00000" pt_clust_8="13000.00000" pt_clust_9="13000.00000"></scales>
<clustering>
<clus scale="   81.941">  5  6 -1 -1</clus>
<clus scale="   90.832">  7  8 -1 -1</clus>
<clus scale="   21.360">  7  9 -1 -1</clus>
<clus scale="  111.688">  1  5  2 -1</clus>
<clus scale="  218.521">  2  5  1 -1</clus>
</clustering>
</event>
<event>
 9    2  0.3707658E-005  0.1189909E+03  0.7546771E-02  0.1259731E+00
         21   -1    0    0  501  502  0.00000000000E+00  0.00000000000E+00  0.24102293043E+02  0.24102293043E+02  0.00000000000E+00 0. -1.
          2   -1    0    0  502    0 -0.00000000000E+00 -0.00000000000E+00 -0.48893160363E+03  0.48893160363E+03  0.00000000000E+00 0. -1.
         24    2    1    2    0    0 -0.19075034650E+02  0.88705195767E+01 -0.12574894549E+03  0.15368124692E+03  0.85805508562E+02 0.  0.
         23    2    1    2    0    0  0.63411853396E+01  0.90558659528E+01 -0.22213573483E+03  0.24035873073E+03  0.91136246401E+02 0.  0.
        -13    1    3    3    0    0 -0.52183071932E+02  0.14835289964E+02 -0.69895457786E+02  0.88479002275E+02  0.00000000000E+00 0.  1.
         14    1    3    3    0    0  0.33108037282E+02 -0.59647703870E+01 -0.55853487705E+02  0.65202244648E+02  0.00000000000E+00 0. -1.
        -13    1    4    4    0    0 -0.22893440568E+02  0.24986370488E+02 -0.29691051068E+02  0.45055375314E+02  0.00000000000E+00 0. -1.
         13    1    4    4    0    0  0.29234625907E+02 -0.15930504536E+02 -0.19244468376E+03  0.19530335541E+03  0.00000000000E+00 0.  1.
          1    1    1    2  501    0  0.12733849311E+02 -0.17926385529E+02 -0.11694463027E+03  0.11899391903E+03  0.00000000000E+00 0. -1.
<scales pt_clust_5="13000.00000" pt_clust_6="13000.00000" pt_clust_7="13000.00000" pt_clust_8="13000.00000" pt_clust_9="13000.00000"></scales>
<clustering>
<clus scale="   85.806">  5  6 -1 -1</clus>
<clus scale="   88.347">  2  5  1 -1</clus>
<clus scale="   91.136">  7  8 -1 -1</clus>
<clus scale="   16.201">  7  9 -1 -1</clus>
<clus scale="  118.991">  1  5  2 -1</clus>
</clustering>
</event>
<event>
 9    2  0.3707658E-005  0.1514251E+03  0.7546771E-02  0.1222807E+00
         21   -1    0    0  501  502  0.00000000000E+00  0.00000000000E+00  0.90164858141E+02  0.90164858141E+02  0.00000000000E+00 0.  1.
         -1   -1    0    0    0  501 -0.00000000000E+00 -0.00000000000E+00 -0.34412377591E+03  0.34412377591E+03  0.00000000000E+00 0.  1.
         24    2    1    2    0    0 -0.28861965203E+02  0.31777113260E+02  0.43491514209E+02  0.10051279119E+03  0.79802953718E+02 0.  0.
         23    2    1    2    0    0  0.16307950082E+02  0.65397884647E+01 -0.25702404239E+03  0.27667872184E+03  0.10090113322E+03 0.  0.
        -13    1    3    3    0    0  0.65403354358E+00  0.33599028832E+02  0.58412546461E+02  0.67389525019E+02  0.00000000000E+00 0.  1.
         14    1    3    3    0    0 -0.29515998747E+02 -0.18219155717E+01 -0.14921032252E+02  0.33123266171E+02  0.00000000000E+00 0. -1.
        -13    1    4    4    0    0 -0.21908163744E+02 -0.37898010033E+02 -0.11344502258E+03  0.12159769715E+03  0.00000000000E+00 0. -1.
         13    1    4    4    0    0  0.38216113826E+02  0.44437798498E+02 -0.14357901981E+03  0.15508102469E+03  0.00000000000E+00 0.  1.
         -2    1    1    2    0  502  0.12554015122E+02 -0.38316901725E+02 -0.40426389591E+02  0.57097121021E+02  0.00000000000E+00 0.  1.
<scales pt_clust_5="13000.00000" pt_clust_6="13000.00000" pt_clust_7="13000.00000" pt_clust_8="13000.00000" pt_clust_9="13000.00000"></scales>
<clustering>
<clus scale="   79.803">  5  6 -1 -1</clus>
<clus scale="   90.616">  2  5  1 -1</clus>
<clus scale="  100.901">  7  8 -1 -1</clus>
<clus scale="   34.374">  7  9 -1 -1</clus>
<clus scale="  151.425">  1  5  2 -1</clus>
</clustering>
</event>
<event>
 9    2  0.3707658E-005  0.1904702E+03  0.7546771E-02  0.1186266E+00
         21   -1    0    0  501  502  0.00000000000E+00  0.00000000000E+00  0.30307662161E+02  0.30307662161E+02  0.00000000000E+00 0.  1.
          2   -1    0    0  502    0 -0.00000000000E+00 -0.00000000000E+00 -0.76277738509E+03  0.76277738509E+03  0.00000000000E+00 0. -1.
         24    2    1    2    0    0  0.40477687547E+02  0.29522242682E+02 -0.15057646241E+03  0.18081170518E+03  0.86657923445E+02 0.  0.
         23    2    1    2    0    0  0.21038815583E+02 -0.61736114306E+02 -0.25798701454E+03  0.28100718040E+03  0.90298151676E+02 0.  0.
        -13    1    3    3    0    0 -0.14751827374E+02  0.33721586733E+02 -0.27820885764E+02  0.46138525197E+02  0.00000000000E+00 0.  1.
         14    1    3    3    0    0  0.55229514920E+02 -0.41993440511E+01 -0.12275557665E+03  0.13467317998E+03  0.00000000000E+00 0. -1.
        -11    1    4    4    0    0  0.28586014991E+02 -0.81297958895E+02 -0.17048189446E+03  0.19102511539E+03  0.00000000000E+00 0.  1.
         11    1    4    4    0    0 -0.75471994080E+01  0.19561844589E+02 -0.87505120078E+02  0.89982065004E+02  0.00000000000E+00 0. -1.
          1    1    1    2  501    0 -0.61516503130E+02  0.32213871624E+02 -0.32390624599E+03  0.33126616168E+03  0.00000000000E+00 0. -1.
<scales pt_clust_5="13000.00000" pt_clust_6="13000.00000" pt_clust_7="13000.00000" pt_clust_8="13000.00000" pt_clust_9="13000.00000"></scales>
<clustering>
<clus scale="   86.658">  5  6 -1 -1</clus>
<clus scale="   90.298">  7  8 -1 -1</clus>
<clus scale="   69.441">  7  9 -1 -1</clus>
<clus scale="  100.098">  2  5  1 -1</clus>
<clus scale="  190.470">  1  5  2 -1</clus>
</clustering>
</event>
<event>
 9    2  0.3707658E-005  0.1679780E+03  0.7546771E-02  0.1201094E+00
         21   -1    0    0  501  502  0.00000000000E+00  0.00000000000E+00  0.50125075771E+02  0.50125075771E+02  0.00000000000E+00 0.  1.
          2   -1    0    0  502    0 -0.00000000000E+00 -0.00000000000E+00 -0.39409146481E+03  0.39409146481E+03  0.00000000000E+00 0. -1.
         24    2    1    2    0    0  0.16203975865E+02  0.58243154276E+02 -0.84276481379E+02  0.13493439334E+03  0.86312984767E+02 0.  0.
         23    2    1    2    0    0 -0.54629619024E+02 -0.46094391357E+02 -0.23447988541E+03  0.26174618491E+03  0.91766881076E+02 0.  0.
        -11    1    3    3    0    0  0.22816531041E+02  0.67939104698E+02 -0.27187658306E+02  0.76651711006E+02  0.00000000000E+00 0.  1.
         12    1    3    3    0    0 -0.66125551769E+01 -0.96959504217E+01 -0.57088823074E+02  0.58282682338E+02  0.00000000000E+00 0. -1.
        -13    1    4    4    0    0 -0.31154042440E+01 -0.46506771386E+02 -0.18328277944E+03  0.18911679663E+03  0.00000000000E+00 0. -1.
         13    1    4    4    0    0 -0.51514214780E+02  0.41238002884E+00 -0.51197105966E+02  0.72629388274E+02  0.00000000000E+00 0.  1.
          1    1    1    2  501    0  0.38425643160E+02 -0.12148762919E+02 -0.25210022249E+02  0.47535962329E+02  0.00000000000E+00 0. -1.
<scales pt_clust_5="13000.00000" pt_clust_6="13000.00000" pt_clust_7="13000.00000" pt_clust_8="13000.00000" pt_clust_9="13000.00000"></scales>
<clustering>
<clus scale="   86.313">  5  6 -1 -1</clus>
<clus scale="   91.767">  7  8 -1 -1</clus>
<clus scale="   40.300">  7  9 -1 -1</clus>
<clus scale="  105.379">  2  5  1 -1</clus>
<clus scale="  167.978">  1  5  2 -1</clus>
</clustering>
</event>
<event>
 9    2  0.3707658E-005  0.3439104E+03  0.7546771E-02  0.1114292E+00
         21   -1    0    0  501  502  0.00000000000E+00  0.00000000000E+00  0.11958316857E+03  0.11958316857E+03  0.00000000000E+00 0. -1.
          2   -1    0    0  502    0 -0.00000000000E+00 -0.00000000000E+00 -0.49561611384E+03  0.49561611384E+03  0.00000000000E+00 0. -1.
         24    2    1    2    0    0 -0.25680075583E+02  0.37659457880E+02 -0.21689261608E+03  0.23625336998E+03  0.81826321355E+02 0.  0.
         23    2    1    2    0    0 -0.31062642529E+02 -0.12613989791E+03 -0.20913387282E+03  0.26255055715E+03  0.91212152112E+02 0.  0.
        -13    1    3    3    0    0  0.14112691658E+02 -0.19304730925E+02 -0.63601213198E+02  0.67948178946E+02  0.00000000000E+00 0.  1.
         14    1    3    3    0    0 -0.39792767241E+02  0.56964188804E+02 -0.15329140288E+03  0.16830519103E+03  0.00000000000E+00 0. -1.
        -11    1    4    4    0    0 -0.31574615915E+01 -0.12974561448E+03 -0.18136381334E+03  0.22301732406E+03  0.00000000000E+00 0. -1.
         11    1    4    4    0    0 -0.27905180937E+02  0.36057165699E+01 -0.27770059480E+02  0.39533233091E+02  0.00000000000E+00 0.  1.
          1    1    1    2  501    0  0.56742718112E+02  0.88480440035E+02  0.49993543623E+02  0.11639535528E+03  0.00000000000E+00 0. -1.
<scales pt_clust_5="13000.00000" pt_clust_6="13000.00000" pt_clust_7="13000.00000" pt_clust_8="13000.00000" pt_clust_9="13000.00000"></scales>
<clustering>
<clus scale="   81.826">  5  6 -1 -1</clus>
<clus scale="   91.212">  7  8 -1 -1</clus>
<clus scale="   93.666">  2  5  1 -1</clus>
<clus scale="  107.438">  7  9 -1 -1</clus>
<clus scale="  343.910">  1  5  2 -1</clus>
</clustering>
</event>
<event>
 9    2  0.3707658E-005  0.3796845E+03  0.7546771E-02  0.1057463E+00
          2   -1    0    0  502    0 -0.00000000000E+00  0.00000000000E+00  0.20907015828E+04  0.20907015828E+04  0.00000000000E+00 0. -1.
         21   -1    0    0  501  502  0.00000000000E+00 -0.00000000000E+00 -0.58504062183E+02  0.58504062183E+02  0.00000000000E+00 0.  1.
         24    2    1    2    0    0 -0.25865016841E+03  0.16446386332E+03  0.10257291382E+04  0.10735017280E+04  0.79607933895E+02 0.  0.
         23    2    1    2    0    0  0.16591945140E+02 -0.34956119692E+02  0.19040868963E+03  0.21470573968E+03  0.91355692841E+02 0.  0.
        -11    1    3    3    0    0 -0.97337690348E+02  0.62429796402E+02  0.26387397818E+03  0.28809995106E+03  0.00000000000E+00 0.  1.
         12    1    3    3    0    0 -0.16131247806E+03  0.10203406692E+03  0.76185516004E+03  0.78540177698E+03  0.00000000000E+00 0. -1.
        -11    1    4    4    0    0 -0.28463710841E+02 -0.32646897619E+01  0.12929105538E+03  0.13242740666E+03  0.00000000000E+00 0.  1.
         11    1    4    4    0    0  0.45055655980E+02 -0.31691429930E+02  0.61117634255E+02  0.82278333016E+02  0.00000000000E+00 0. -1.
          1    1    1    2  501    0  0.24205822327E+03 -0.12950774363E+03  0.81605969277E+03  0.86099817728E+03  0.00000000000E+00 0. -1.
<scales pt_clust_5="13000.00000" pt_clust_6="13000.00000" pt_clust_7="13000.00000" pt_clust_8="13000.00000" pt_clust_9="13000.00000"></scales>
<clustering>
<clus scale="   79.608">  5  6 -1 -1</clus>
<clus scale="   91.356">  7  8 -1 -1</clus>
<clus scale="  274.526">  7  9 -1 -1</clus>
<clus scale="  316.679">  1  5  2 -1</clus>
<clus scale="  379.684">  2  5  1 -1</clus>
</clustering>
</event>
<event>
 9    2  0.3707658E-005  0.4004494E+03  0.7546771E-02  0.1096612E+00
         -1   -1    0    0    0  501 -0.00000000000E+00  0.00000000000E+00  0.55381723170E+03  0.55381723170E+03  0.00000000000E+00 0.  1.
         21   -1    0    0  501  502  0.00000000000E+00 -0.00000000000E+00 -0.12246986924E+03  0.12246986924E+03  0.00000000000E+00 0.  1.
         24    2    1    2    0    0 -0.28188708822E+02  0.32638207087E+02  0.18191376815E+03  0.20450664282E+03  0.82888431333E+02 0.  0.
         23    2    1    2    0    0  0.83906351595E+02  0.88259897802E+02  0.29411972245E+03  0.33136088139E+03  0.91997484661E+02 0.  0.
        -13    1    3    3    0    0 -0.46024752582E+02  0.11435865541E+02  0.46968966961E+02  0.66746840586E+02  0.00000000000E+00 0.  1.
         14    1    3    3    0    0  0.17836043760E+02  0.21202341546E+02  0.13494480119E+03  0.13775980223E+03  0.00000000000E+00 0. -1.
        -13    1    4    4    0    0  0.33439044353E+02  0.95822335732E+02  0.18992113368E+03  0.21533723954E+03  0.00000000000E+00 0.  1.
         13    1    4    4    0    0  0.50467307242E+02 -0.75624379304E+01  0.10419858877E+03  0.11602364186E+03  0.00000000000E+00 0. -1.
         -2    1    1    2    0  502 -0.55717642773E+02 -0.12089810489E+03 -0.44686128139E+02  0.14041957673E+03  0.00000000000E+00 0.  1.
<scales pt_clust_5="13000.00000" pt_clust_6="13000.00000" pt_clust_7="13000.00000" pt_clust_8="13000.00000" pt_clust_9="13000.00000"></scales>
<clustering>
<clus scale="   82.888">  5  6 -1 -1</clus>
<clus scale="   91.997">  7  8 -1 -1</clus>
<clus scale="   93.436">  1  5  2 -1</clus>
<clus scale="  130.855">  7  9 -1 -1</clus>
<clus scale="  400.449">  2  5  1 -1</clus>
</clustering>
</event>
<event>
 9    2  0.3707658E-005  0.3588737E+03  0.7546771E-02  0.1089471E+00
         21   -1    0    0  501  502  0.00000000000E+00  0.00000000000E+00  0.40399915951E+03  0.40399915951E+03  0.00000000000E+00 0. -1.
          2   -1    0    0  502    0 -0.00000000000E+00 -0.00000000000E+00 -0.16775093883E+03  0.16775093883E+03  0.00000000000E+00 0. -1.
         24    2    1    2    0    0 -0.59689612666E+02  0.12048070767E+03  0.35690654877E+02  0.16063739132E+03  0.80324951698E+02 0.  0.
         23    2    1    2    0    0  0.37846580640E+02  0.33429069297E+02 -0.50351353148E+02  0.11595067846E+03  0.91429944391E+02 0.  0.
        -11    1    3    3    0    0 -0.32345539231E+02  0.27987181633E+02 -0.22155077886E+02  0.48170153831E+02  0.00000000000E+00 0.  1.
         12    1    3    3    0    0 -0.27344073434E+02  0.92493526034E+02  0.57845732763E+02  0.11246723749E+03  0.00000000000E+00 0. -1.
        -13    1    4    4    0    0 -0.25248336153E+02 -0.77776159599E+01 -0.21752034201E+01  0.26508513697E+02  0.00000000000E+00 0.  1.
         13    1    4    4    0    0  0.63094916793E+02  0.41206685257E+02 -0.48176149728E+02  0.89442164763E+02  0.00000000000E+00 0. -1.
          1    1    1    2  501    0  0.21843032026E+02 -0.15390977696E+03  0.25090891895E+03  0.29516202855E+03  0.00000000000E+00 0. -1.
<scales pt_clust_5="13000.00000" pt_clust_6="13000.00000" pt_clust_7="13000.00000" pt_clust_8="13000.00000" pt_clust_9="13000.00000"></scales>
<clustering>
<clus scale="   80.325">  5  6 -1 -1</clus>
<clus scale="   91.430">  7  8 -1 -1</clus>
<clus scale="  155.452">  7  9 -1 -1</clus>
<clus scale="  156.622">  2  5  1 -1</clus>
<clus scale="  358.874">  1  5  2 -1</clus>
</clustering>
</event>
<event>
 9    2  0.3707658E-005  0.2559223E+03  0.7546771E-02  0.1143948E+00
         21   -1    0    0  501  502  0.00000000000E+00  0.00000000000E+00  0.36355658653E+02  0.36355658653E+02  0.00000000000E+00 0.  1.
          2   -1    0    0  502    0 -0.00000000000E+00 -0.00000000000E+00 -0.10813770406E+04  0.10813770406E+04  0.00000000000E+00 0. -1.
         24    2    1    2    0    0  0.37341377431E+02 -0.64767618339E+02 -0.54628389145E+03  0.55716575511E+03  0.80114703734E+02 0.  0.
         23    2    1    2    0    0 -0.71332008107E+02 -0.29067254651E+02 -0.12311539541E+03  0.17191246433E+03  0.91996381077E+02 0.  0.
        -11    1    3    3    0    0 -0.25304884549E+02 -0.21995303102E+02 -0.18317785259E+03  0.18622098760E+03  0.00000000000E+00 0.  1.
         12    1    3    3    0    0  0.62646261980E+02 -0.42772315238E+02 -0.36310603886E+03  0.37094476751E+03  0.00000000000E+00 0. -1.
        -13    1    4    4    0    0  0.22205143393E+02 -0.48750624289E+01 -0.16888233792E+02  0.28320435509E+02  0.00000000000E+00 0. -1.
         13    1    4    4    0    0 -0.93537151501E+02 -0.24192192222E+02 -0.10622716162E+03  0.14359202882E+03  0.00000000000E+00 0.  1.
          1    1    1    2  501    0  0.33990630676E+02  0.93834872990E+02 -0.37562209511E+03  0.38865447984E+03  0.00000000000E+00 0. -1.
<scales pt_clust_5="13000.00000" pt_clust_6="13000.00000" pt_clust_7="13000.00000" pt_clust_8="13000.00000" pt_clust_9="13000.00000"></scales>
<clustering>
<clus scale="   80.115">  5  6 -1 -1</clus>
<clus scale="   91.996">  7  8 -1 -1</clus>
<clus scale="   99.802">  7  9 -1 -1</clus>
<clus scale="  109.579">  2  5  1 -1</clus>
<clus scale="  255.922">  1  5  2 -1</clus>
</clustering>
</event>
<event>
 9    2  0.3707658E-005  0.1483211E+03  0.7546771E-02  0.1231384E+00
         -1   -1    0    0    0  501 -0.00000000000E+00  0.00000000000E+00  0.38707651812E+03  0.38707651812E+03  0.00000000000E+00 0.  1.
         21   -1    0    0  501  502  0.00000000000E+00 -0.00000000000E+00 -0.39913223126E+02  0.39913223126E+02  0.00000000000E+00 0.  1.
         24    2    1    2    0    0 -0.84883097806E+01  0.14844127182E+02  0.20997448945E+03  0.22495037329E+03  0.78873219211E+02 0.  0.
         23    2    1    2    0    0 -0.87760924591E+01  0.57953770138E+00  0.59252516099E+02  0.12073737391E+03  0.10482984848E+03 0.  0.
        -11    1    3    3    0    0 -0.10172809000E+02  0.47197760272E+02  0.12281970344E+03  0.13196891365E+03  0.00000000000E+00 0.  1.
         12    1    3    3    0    0  0.16844992193E+01 -0.32353633090E+02  0.87154786007E+02  0.92981459634E+02  0.00000000000E+00 0. -1.
        -13    1    4    4    0    0  0.84035455497E+01 -0.38310101271E+02 -0.90800367839E+01  0.40258297346E+02  0.00000000000E+00 0.  1.
         13    1    4    4    0    0 -0.17179638009E+02  0.38889638972E+02  0.68332552883E+02  0.80479076566E+02  0.00000000000E+00 0. -1.
         -2    1    1    2    0  502  0.17264402240E+02 -0.15423664883E+02  0.77936289452E+02  0.81301994051E+02  0.00000000000E+00 0.  1.
<scales pt_clust_5="13000.00000" pt_clust_6="13000.00000" pt_clust_7="13000.00000" pt_clust_8="13000.00000" pt_clust_9="13000.00000"></scales>
<clustering>
<clus scale="   78.873">  5  6 -1 -1</clus>
<clus scale="   80.706">  1  5  2 -1</clus>
<clus scale="  104.830">  7  8 -1 -1</clus>
<clus scale="   15.743">  7  9 -1 -1</clus>
<clus scale="  148.321">  2  5  1 -1</clus>
</clustering>
</event>
<event>
 9    2  0.3707658E-005  0.2657650E+03  0.7546771E-02  0.1116281E+00
          2   -1    0    0  502    0 -0.00000000000E+00  0.00000000000E+00  0.19630747209E+04  0.19630747209E+04  0.00000000000E+00 0. -1.
         21   -1    0    0  501  502  0.00000000000E+00 -0.00000000000E+00 -0.29130348443E+02  0.29130348443E+02  0.00000000000E+00 0. -1.
         24    2    1    2    0    0 -0.92388109201E+01 -0.17535702292E+03  0.11039573311E+04  0.11207066284E+04  0.80163064158E+02 0.  0.
         23    2    1    2    0    0  0.44112222806E+02  0.90877067181E+02  0.25399037770E+03  0.28829592527E+03  0.91645507395E+02 0.  0.
        -11    1    3    3    0    0 -0.40115091183E+02 -0.64634266172E+02  0.36288847296E+03  0.37077601421E+03  0.00000000000E+00 0.  1.
         12    1    3    3    0    0  0.30876280263E+02 -0.11072275675E+03  0.74106885814E+03  0.74993061416E+03  0.00000000000E+00 0. -1.
        -11    1    4    4    0    0 -0.22284382476E+02  0.48031857211E+02  0.67762742375E+02  0.85996757286E+02  0.00000000000E+00 0. -1.
         11    1    4    4    0    0  0.66396605282E+02  0.42845209970E+02  0.18622763532E+03  0.20229916799E+03  0.00000000000E+00 0.  1.
          1    1    1    2  501    0 -0.34873411886E+02  0.84479955741E+02  0.57599666366E+03  0.58320251571E+03  0.00000000000E+00 0. -1.
<scales pt_clust_5="13000.00000" pt_clust_6="13000.00000" pt_clust_7="13000.00000" pt_clust_8="13000.00000" pt_clust_9="13000.00000"></scales>
<clustering>
<clus scale="   80.163">  5  6 -1 -1</clus>
<clus scale="   91.646">  7  8 -1 -1</clus>
<clus scale="   91.395">  7  9 -1 -1</clus>
<clus scale="  193.033">  1  5  2 -1</clus>
<clus scale="  265.765">  2  5  1 -1</clus>
</clustering>
</event>
<event>
 9    2  0.3707658E-005  0.2745909E+03  0.7546771E-02  0.1124311E+00
         21   -1    0    0  501  502  0.00000000000E+00  0.00000000000E+00  0.78415942043E+02  0.78415942043E+02  0.00000000000E+00 0.  1.
         -1   -1    0    0    0  501 -0.00000000000E+00 -0.00000000000E+00 -0.66308859834E+03  0.66308859834E+03  0.00000000000E+00 0.  1.
         24    2    1    2    0    0  0.11056906011E+03  0.41817208427E+02 -0.35755114645E+03  0.38515588765E+03  0.80796283862E+02 0.  0.
         23    2    1    2    0    0  0.39247007905E+01 -0.43168717548E+01 -0.21815035281E+03  0.23553649194E+03  0.88621802897E+02 0.  0.
        -13    1    3    3    0    0  0.11663965509E+03  0.29406132298E+02 -0.25815828387E+03  0.28480735469E+03  0.00000000000E+00 0.  1.
         14    1    3    3    0    0 -0.60705949764E+01  0.12411076130E+02 -0.99392862586E+02  0.10034853296E+03  0.00000000000E+00 0. -1.
        -11    1    4    4    0    0 -0.10502076053E+02 -0.40903505544E+02 -0.15894297563E+03  0.16445747130E+03  0.00000000000E+00 0.  1.
         11    1    4    4    0    0  0.14426776844E+02  0.36586633789E+02 -0.59207377180E+02  0.71079020637E+02  0.00000000000E+00 0. -1.
         -2    1    1    2    0  502 -0.11449376090E+03 -0.37500336673E+02 -0.89711570384E+01  0.12081216079E+03  0.00000000000E+00 0.  1.
<scales pt_clust_5="13000.00000" pt_clust_6="13000.00000" pt_clust_7="13000.00000" pt_clust_8="13000.00000" pt_clust_9="13000.00000"></scales>
<clustering>
<clus scale="   80.796">  5  6 -1 -1</clus>
<clus scale="   88.622">  7  8 -1 -1</clus>
<clus scale="  120.479">  7  9 -1 -1</clus>
<clus scale="  143.186">  2  5  1 -1</clus>
<clus scale="  274.591">  1  5  2 -1</clus>
</clustering>
</event>
<event>
 9    2  0.3707658E-005  0.2571397E+03  0.7546771E-02  0.1148193E+00
         -1   -1    0    0    0  501 -0.00000000000E+00  0.00000000000E+00  0.22328381513E+03  0.22328381513E+03  0.00000000000E+00 0.  1.
         21   -1    0    0  501  502  0.00000000000E+00 -0.00000000000E+00 -0.22973465404E+03  0.22973465404E+03  0.00000000000E+00 0. -1.
         24    2    1    2    0    0 -0.51452477777E+02 -0.22661837076E+02 -0.13415421042E+03  0.16591401305E+03  0.79807212853E+02 0.  0.
         23    2    1    2    0    0  0.33414173629E+01  0.89101592084E+02  0.15431191774E+03  0.20086681984E+03  0.92655558786E+02 0.  0.
        -13    1    3    3    0    0 -0.44559779092E+02  0.20393439523E+02 -0.44393543321E+02  0.66123013973E+02  0.00000000000E+00 0.  1.
         14    1    3    3    0    0 -0.68926986848E+01 -0.43055276600E+02 -0.89760667104E+02  0.99790999079E+02  0.00000000000E+00 0. -1.
        -11    1    4    4    0    0  0.40141807284E+02  0.59741502685E+02  0.12822594811E+03  0.14704525019E+03  0.00000000000E+00 0. -1.
         11    1    4    4    0    0 -0.36800389921E+02  0.29360089399E+02  0.26085969629E+02  0.53821569648E+02  0.00000000000E+00 0.  1.
         -2    1    1    2    0  502  0.48111060414E+02 -0.66439755008E+02 -0.26608546222E+02  0.86237636283E+02  0.00000000000E+00 0.  1.
<scales pt_clust_5="13000.00000" pt_clust_6="13000.00000" pt_clust_7="13000.00000" pt_clust_8="13000.00000" pt_clust_9="13000.00000"></scales>
<clustering>
<clus scale="   79.807">  5  6 -1 -1</clus>
<clus scale="   92.656">  7  8 -1 -1</clus>
<clus scale="   82.030">  7  9 -1 -1</clus>
<clus scale="   97.622">  1  5  2 -1</clus>
<clus scale="  257.140">  2  5  1 -1</clus>
</clustering>
</event>
<event>
 9    2  0.3707658E-005  0.1677025E+03  0.7546771E-02  0.1198483E+00
          2   -1    0    0  502    0 -0.00000000000E+00  0.00000000000E+00  0.78956845395E+03  0.78956845395E+03  0.00000000000E+00 0. -1.
         21   -1    0    0  501  502  0.00000000000E+00 -0.00000000000E+00 -0.52854071978E+02  0.52854071978E+02  0.00000000000E+00 0. -1.
         24    2    1    2    0    0 -0.72797423276E+02  0.14930022917E+02  0.63811240986E+03  0.64788080125E+03  0.83903007057E+02 0.  0.
         23    2    1    2    0    0  0.10814799930E+02 -0.40271207275E+02  0.69221599037E+02  0.12141698506E+03  0.90618565734E+02 0.  0.
        -11    1    3    3    0    0 -0.31200585331E+02 -0.92782199886E+01  0.64455790858E+02  0.72208800477E+02  0.00000000000E+00 0.  1.
         12    1    3    3    0    0 -0.41596837946E+02  0.24208242906E+02  0.57365661900E+03  0.57567200077E+03  0.00000000000E+00 0. -1.
        -13    1    4    4    0    0 -0.35868467719E+02 -0.28454008167E+02  0.13421691137E+02  0.47710788615E+02  0.00000000000E+00 0. -1.
         13    1    4    4    0    0  0.46683267649E+02 -0.11817199108E+02  0.55799907900E+02  0.73706196448E+02  0.00000000000E+00 0.  1.
          1    1    1    2  501    0  0.61982623346E+02  0.25341184358E+02  0.29380373075E+02  0.73124739614E+02  0.00000000000E+00 0. -1.
<scales pt_clust_5="13000.00000" pt_clust_6="13000.00000" pt_clust_7="13000.00000" pt_clust_8="13000.00000" pt_clust_9="13000.00000"></scales>
<clustering>
<clus scale="   83.903">  5  6 -1 -1</clus>
<clus scale="   90.619">  7  8 -1 -1</clus>
<clus scale="   66.963">  7  9 -1 -1</clus>
<clus scale="  112.081">  1  5  2 -1</clus>
<clus scale="  167.703">  2  5  1 -1</clus>
</clustering>
</event>
<event>
 9    2  0.3707658E-005  0.2600411E+03  0.7546771E-02  0.1141225E+00
         -3   -1    0    0    0  501 -0.00000000000E+00  0.00000000000E+00  0.10145731115E+04  0.10145731115E+04  0.00000000000E+00 0.  1.
         21   -1    0    0  501  502  0.00000000000E+00 -0.00000000000E+00 -0.34889535122E+02  0.34889535122E+02  0.00000000000E+00 0.  1.
         24    2    1    2    0    0 -0.36225381946E+02  0.64159737180E+02  0.37516244394E+03  0.39138425335E+03  0.83701996695E+02 0.  0.
         23    2    1    2    0    0  0.36002885003E+02  0.71246195446E+02  0.30625754949E+03  0.33051774087E+03  0.95268369962E+02 0.  0.
        -13    1    3    3    0    0 -0.60636963917E+02  0.45587975516E+02  0.31305109293E+03  0.32211192417E+03  0.00000000000E+00 0.  1.
         14    1    3    3    0    0  0.24411581970E+02  0.18571761664E+02  0.62111351009E+02  0.69272329178E+02  0.00000000000E+00 0. -1.
        -13    1    4    4    0    0  0.20648446235E+02  0.56543194951E+02  0.30310735572E+03  0.30902679547E+03  0.00000000000E+00 0. -1.
         13    1    4    4    0    0  0.15354438768E+02  0.14703000495E+02  0.31501937731E+01  0.21490945401E+02  0.00000000000E+00 0.  1.
         -4    1    1    2    0  502  0.22249694318E+00 -0.13540593263E+03  0.29826358298E+03  0.32756065244E+03  0.00000000000E+00 0.  1.
<scales pt_clust_5="13000.00000" pt_clust_6="13000.00000" pt_clust_7="13000.00000" pt_clust_8="13000.00000" pt_clust_9="13000.00000"></scales>
<clustering>
<clus scale="   83.702">  5  6 -1 -1</clus>
<clus scale="   95.268">  7  8 -1 -1</clus>
<clus scale="  111.511">  1  5  2 -1</clus>
<clus scale="  105.111">  7  9 -1 -1</clus>
<clus scale="  260.041">  2  5  1 -1</clus>
</clustering>
</event>
<event>
 9    2  0.3707658E-005  0.3691699E+03  0.7546771E-02  0.1111441E+00
         21   -1    0    0  501  502  0.00000000000E+00  0.00000000000E+00  0.73294782910E+03  0.73294782910E+03  0.00000000000E+00 0. -1.
          2   -1    0    0  502    0 -0.00000000000E+00 -0.00000000000E+00 -0.69769391295E+02  0.69769391295E+02  0.00000000000E+00 0. -1.
         24    2    1    2    0    0 -0.12048847338E+02 -0.14046269876E+02  0.94540387998E+02  0.12475288087E+03  0.79264897046E+02 0.  0.
         23    2    1    2    0    0 -0.12753697774E+02 -0.15862428059E+03  0.37257999847E+03  0.41553521626E+03  0.92354434053E+02 0.  0.
        -11    1    3    3    0    0 -0.16552232375E+01 -0.34284032605E+02  0.79621420446E+01  0.35235356697E+02  0.00000000000E+00 0.  1.
         12    1    3    3    0    0 -0.10393624100E+02  0.20237762729E+02  0.86578245953E+02  0.89517524176E+02  0.00000000000E+00 0. -1.
        -13    1    4    4    0    0 -0.49437022973E+01 -0.11534710040E+03  0.15342764380E+03  0.19201415481E+03  0.00000000000E+00 0. -1.
         13    1    4    4    0    0 -0.78099954766E+01 -0.43277180189E+02  0.21915235467E+03  0.22352106145E+03  0.00000000000E+00 0.  1.
          1    1    1    2  501    0  0.24802545112E+02  0.17267055047E+03  0.19605805134E+03  0.26242912327E+03  0.00000000000E+00 0. -1.
<scales pt_clust_5="13000.00000" pt_clust_6="13000.00000" pt_clust_7="13000.00000" pt_clust_8="13000.00000" pt_clust_9="13000.00000"></scales>
<clustering>
<clus scale="   79.265">  5  6 -1 -1</clus>
<clus scale="   81.397">  2  5  1 -1</clus>
<clus scale="   92.354">  7  8 -1 -1</clus>
<clus scale="  165.072">  7  9 -1 -1</clus>
<clus scale="  369.170">  1  5  2 -1</clus>
</clustering>
</event>
<event>
 9    2  0.3707658E-005  0.4505191E+03  0.7546771E-02  0.1075646E+00
          2   -1    0    0  502    0 -0.00000000000E+00  0.00000000000E+00  0.10849223131E+03  0.10849223131E+03  0.00000000000E+00 0. -1.
         21   -1    0    0  501  502  0.00000000000E+00 -0.00000000000E+00 -0.73628459340E+03  0.73628459340E+03  0.00000000000E+00 0.  1.
         24    2    1    2    0    0 -0.67132843170E+02  0.46161374752E+02 -0.13253048864E+03  0.17526073156E+03  0.80711228800E+02 0.  0.
         23    2    1    2    0    0  0.23054997519E+03 -0.11475918456E+03 -0.29112888360E+03  0.39918093804E+03  0.90919925926E+02 0.  0.
        -13    1    3    3    0    0 -0.16437182834E+02 -0.20391693968E+02 -0.12683680564E+02  0.29101166903E+02  0.00000000000E+00 0.  1.
         14    1    3    3    0    0 -0.50695660336E+02  0.66553068721E+02 -0.11984680808E+03  0.14615956465E+03  0.00000000000E+00 0. -1.
        -11    1    4    4    0    0  0.60214550719E+02 -0.28330926409E+02 -0.23902910406E+02  0.70709141103E+02  0.00000000000E+00 0. -1.
         11    1    4    4    0    0  0.17033542447E+03 -0.86428258152E+02 -0.26722597319E+03  0.32847179694E+03  0.00000000000E+00 0.  1.
          1    1    1    2  501    0 -0.16341713202E+03  0.68597809809E+02 -0.20413298985E+03  0.27033515511E+03  0.00000000000E+00 0. -1.
<scales pt_clust_5="13000.00000" pt_clust_6="13000.00000" pt_clust_7="13000.00000" pt_clust_8="13000.00000" pt_clust_9="13000.00000"></scales>
<clustering>
<clus scale="   80.711">  5  6 -1 -1</clus>
<clus scale="   90.920">  7  8 -1 -1</clus>
<clus scale="  114.682">  1  5  2 -1</clus>
<clus scale="  207.632">  7  9 -1 -1</clus>
<clus scale="  450.519">  2  5  1 -1</clus>
</clustering>
</event>
<event>
 9    2  0.3707658E-005  0.3019211E+03  0.7546771E-02  0.1108505E+00
          2   -1    0    0  502    0 -0.00000000000E+00  0.00000000000E+00  0.76986093531E+03  0.76986093531E+03  0.00000000000E+00 0. -1.
         21   -1    0    0  501  502  0.00000000000E+00 -0.00000000000E+00 -0.73463963768E+02  0.73463963768E+02  0.00000000000E+00 0. -1.
         24    2    1    2    0    0 -0.11747271303E+02 -0.13863637471E+03  0.34220339984E+03  0.37791171646E+03  0.79724875696E+02 0.  0.
         23    2    1    2    0    0  0.38696467263E+02 -0.51560931863E+02  0.13439973511E+03  0.17350462639E+03  0.88795384501E+02 0.  0.
        -13    1    3    3    0    0  0.28886690917E+02 -0.67202555099E+02  0.11490182010E+03  0.13620959066E+03  0.00000000000E+00 0.  1.
         14    1    3    3    0    0 -0.40633962220E+02 -0.71433819611E+02  0.22730157974E+03  0.24170212581E+03  0.00000000000E+00 0. -1.
        -13    1    4    4    0    0  0.62101939861E+02 -0.12740240761E+02  0.89708458151E+02  0.10984795006E+03  0.00000000000E+00 0. -1.
         13    1    4    4    0    0 -0.23405472597E+02 -0.38820691102E+02  0.44691276960E+02  0.63656676330E+02  0.00000000000E+00 0.  1.
          1    1    1    2  501    0 -0.26949195960E+02  0.19019730657E+03  0.21979383659E+03  0.29190855622E+03  0.00000000000E+00 0. -1.
<scales pt_clust_5="13000.00000" pt_clust_6="13000.00000" pt_clust_7="13000.00000" pt_clust_8="13000.00000" pt_clust_9="13000.00000"></scales>
<clustering>
<clus scale="   79.725">  5  6 -1 -1</clus>
<clus scale="   88.795">  7  8 -1 -1</clus>
<clus scale="  160.356">  1  5  2 -1</clus>
<clus scale="  109.166">  7  9 -1 -1</clus>
<clus scale="  301.921">  2  5  1 -1</clus>
</clustering>
</event>
<event>
 9    2  0.3707658E-005  0.3315164E+03  0.7546771E-02  0.1110501E+00
          2   -1    0    0  502    0 -0.00000000000E+00  0.00000000000E+00  0.83605496268E+03  0.83605496268E+03  0.00000000000E+00 0. -1.
         21   -1    0    0  501  502  0.00000000000E+00 -0.00000000000E+00 -0.66003816958E+02  0.66003816958E+02  0.00000000000E+00 0. -1.
         24    2    1    2    0    0 -0.33917398392E+02  0.80929883314E+02  0.34064413069E+03  0.35957049953E+03  0.74514994692E+02 0.  0.
         23    2    1    2    0    0 -0.80811272858E+02 -0.14543745143E+03  0.19311732331E+03  0.27201330388E+03  0.94944314331E+02 0.  0.
        -13    1    3    3    0    0  0.13928088910E+02  0.27520973968E+02  0.40098914871E+02  0.50589708861E+02  0.00000000000E+00 0.  1.
         14    1    3    3    0    0 -0.47845487302E+02  0.53408909347E+02  0.30054521582E+03  0.30898079067E+03  0.00000000000E+00 0. -1.
        -13    1    4    4    0    0 -0.48430842432E+01 -0.30966601886E+02  0.10311211106E+03  0.10777055880E+03  0.00000000000E+00 0.  1.
         13    1    4    4    0    0 -0.75968188615E+02 -0.11447084955E+03  0.90005212247E+02  0.16424274507E+03  0.00000000000E+00 0. -1.
          1    1    1    2  501    0  0.11472867125E+03  0.64507568119E+02  0.23628969173E+03  0.27047497623E+03  0.00000000000E+00 0. -1.
<scales pt_clust_5="13000.00000" pt_clust_6="13000.00000" pt_clust_7="13000.00000" pt_clust_8="13000.00000" pt_clust_9="13000.00000"></scales>
<clustering>
<clus scale="   74.515">  5  6 -1 -1</clus>
<clus scale="   94.944">  7  8 -1 -1</clus>
<clus scale="  115.120">  1  5  2 -1</clus>
<clus scale="  144.235">  7  9 -1 -1</clus>
<clus scale="  331.516">  2  5  1 -1</clus>
</clustering>
</event>
<event>
 9    2  0.3707658E-005  0.1650954E+03  0.7546771E-02  0.1210098E+00
         21   -1    0    0  501  502  0.00000000000E+00  0.00000000000E+00  0.23836041800E+03  0.23836041800E+03  0.00000000000E+00 0. -1.
          4   -1    0    0  502    0 -0.00000000000E+00 -0.00000000000E+00 -0.71004995905E+02  0.71004995905E+02  0.00000000000E+00 0. -1.
         24    2    1    2    0    0 -0.20287467446E+02  0.28298601720E+02  0.35575222518E+02  0.98124994473E+02  0.84560782213E+02 0.  0.
         23    2    1    2    0    0 -0.14189848864E+02 -0.48195814736E+02  0.13585087623E+03  0.17122598661E+03  0.91316425406E+02 0.  0.
        -11    1    3    3    0    0  0.11231618745E+02  0.20925673478E+02  0.55324121198E+02  0.60206241009E+02  0.00000000000E+00 0.  1.
         12    1    3    3    0    0 -0.31519086191E+02  0.73729282426E+01 -0.19748898680E+02  0.37918753464E+02  0.00000000000E+00 0. -1.
        -13    1    4    4    0    0  0.37500076943E+02 -0.16792487582E+02  0.36741864968E+02  0.55119942410E+02  0.00000000000E+00 0.  1.
         13    1    4    4    0    0 -0.51689925807E+02 -0.31403327154E+02  0.99109011264E+02  0.11610604420E+03  0.00000000000E+00 0. -1.
          3    1    1    2  501    0  0.34477316310E+02  0.19897213016E+02 -0.40706766523E+01  0.40014432823E+02  0.00000000000E+00 0. -1.
<scales pt_clust_5="13000.00000" pt_clust_6="13000.00000" pt_clust_7="13000.00000" pt_clust_8="13000.00000" pt_clust_9="13000.00000"></scales>
<clustering>
<clus scale="   84.561">  5  6 -1 -1</clus>
<clus scale="   91.316">  7  8 -1 -1</clus>
<clus scale="   39.807">  7  9 -1 -1</clus>
<clus scale="   91.449">  2  5  1 -1</clus>
<clus scale="  165.095">  1  5  2 -1</clus>
</clustering>
</event>
<event>
 9    2  0.3707658E-005  0.2162946E+03  0.7546771E-02  0.1170639E+00
         21   -1    0    0  501  502  0.00000000000E+00  0.00000000000E+00  0.20024547973E+03  0.20024547973E+03  0.00000000000E+00 0. -1.
          4   -1    0    0  502    0 -0.00000000000E+00 -0.00000000000E+00 -0.12297316603E+03  0.12297316603E+03  0.00000000000E+00 0. -1.
         24    2    1    2    0    0 -0.36085010852E+02  0.42206790657E+02  0.17102690601E+02  0.98710895431E+02  0.79798481597E+02 0.  0.
         23    2    1    2    0    0 -0.20310029505E+02  0.50780828720E+02  0.14839959896E+02  0.10668637579E+03  0.90391197053E+02 0.  0.
        -13    1    3    3    0    0 -0.21796197739E+02  0.80011700917E+01  0.46119751004E+02  0.51634527125E+02  0.00000000000E+00 0.  1.
         14    1    3    3    0    0 -0.14288813113E+02  0.34205620566E+02 -0.29017060403E+02  0.47076368306E+02  0.00000000000E+00 0. -1.
        -11    1    4    4    0    0  0.26163498205E+02  0.16362977970E+01 -0.17696939883E+02  0.31628907506E+02  0.00000000000E+00 0.  1.
         11    1    4    4    0    0 -0.46473527710E+02  0.49144530923E+02  0.32536899779E+02  0.75057468280E+02  0.00000000000E+00 0. -1.
          3    1    1    2  501    0  0.56395040356E+02 -0.92987619378E+02  0.45329663199E+02  0.11782137455E+03  0.00000000000E+00 0. -1.
<scales pt_clust_5="13000.00000" pt_clust_6="13000.00000" pt_clust_7="13000.00000" pt_clust_8="13000.00000" pt_clust_9="13000.00000"></scales>
<clustering>
<clus scale="   79.798">  5  6 -1 -1</clus>
<clus scale="   90.391">  7  8 -1 -1</clus>
<clus scale="   97.218">  2  5  1 -1</clus>
<clus scale="   84.672">  7  9 -1 -1</clus>
<clus scale="  216.295">  1  5  2 -1</clus>
</clustering>
</event>
<event>
 9    2  0.3707658E-005  0.2520922E+03  0.7546771E-02  0.1154200E+00
         -1   -1    0    0    0  501 -0.00000000000E+00  0.00000000000E+00  0.19701764918E+03  0.19701764918E+03  0.00000000000E+00 0.  1.
         21   -1    0    0  501  502  0.00000000000E+00 -0.00000000000E+00 -0.15201287194E+03  0.15201287194E+03  0.00000000000E+00 0. -1.
         24    2    1    2    0    0 -0.24040104562E+02 -0.30734971573E+02 -0.11683438441E+02  0.90643164311E+02  0.80976017422E+02 0.  0.
         23    2    1    2    0    0  0.82609986379E+02 -0.31094987110E+02 -0.36423572124E+02  0.13220027397E+03  0.91427171885E+02 0.  0.
        -13    1    3    3    0    0  0.11989813177E+02 -0.47922682735E+02 -0.11511113864E+02  0.50723218381E+02  0.00000000000E+00 0.  1.
         14    1    3    3    0    0 -0.36029917739E+02  0.17187711162E+02 -0.17232457683E+00  0.39919945929E+02  0.00000000000E+00 0. -1.
        -13    1    4    4    0    0  0.67544957157E+02 -0.46269250707E+02 -0.59143646622E+02  0.10100067195E+03  0.00000000000E+00 0. -1.
         13    1    4    4    0    0  0.15065029222E+02  0.15174263597E+02  0.22720074498E+02  0.31199602022E+02  0.00000000000E+00 0.  1.
         -2    1    1    2    0  502 -0.58569881817E+02  0.61829958683E+02  0.93111787806E+02  0.12618708284E+03  0.00000000000E+00 0.  1.
<scales pt_clust_5="13000.00000" pt_clust_6="13000.00000" pt_clust_7="13000.00000" pt_clust_8="13000.00000" pt_clust_9="13000.00000"></scales>
<clustering>
<clus scale="   80.976">  5  6 -1 -1</clus>
<clus scale="   89.887">  1  5  2 -1</clus>
<clus scale="   91.427">  7  8 -1 -1</clus>
<clus scale="   85.473">  7  9 -1 -1</clus>
<clus scale="  252.092">  2  5  1 -1</clus>
</clustering>
</event>
<event>
 9    2  0.3707658E-005  0.3403055E+03  0.7546771E-02  0.1104914E+00
          4   -1    0    0  502    0 -0.00000000000E+00  0.00000000000E+00  0.52219603620E+02  0.52219603620E+02  0.00000000000E+00 0. -1.
         21   -1    0    0  501  502  0.00000000000E+00 -0.00000000000E+00 -0.12441476129E+04  0.12441476129E+04  0.00000000000E+00 0. -1.
         24    2    1    2    0    0 -0.89827958644E+02  0.21274423228E+02 -0.61005106878E+03  0.62228370351E+03  0.80950836315E+02 0.  0.
         23    2    1    2    0    0  0.44432704962E+02  0.82472278304E+02 -0.53703653401E+03  0.55228544574E+03  0.88515720410E+02 0.  0.
        -13    1    3    3    0    0 -0.25049405353E+02 -0.30465300800E+02 -0.17301618271E+03  0.17745480197E+03  0.00000000000E+00 0.  1.
         14    1    3    3    0    0 -0.64778553291E+02  0.51739724027E+02 -0.43703488607E+03  0.44482890154E+03  0.00000000000E+00 0. -1.
        -11    1    4    4    0    0  0.69922086188E+02  0.44920158738E+02 -0.36739488525E+03  0.37667747544E+03  0.00000000000E+00 0. -1.
         11    1    4    4    0    0 -0.25489381226E+02  0.37552119566E+02 -0.16964164876E+03  0.17560797030E+03  0.00000000000E+00 0.  1.
          3    1    1    2  501    0  0.45395253681E+02 -0.10374670153E+03 -0.44840406492E+02  0.12179806727E+03  0.00000000000E+00 0. -1.
<scales pt_clust_5="13000.00000" pt_clust_6="13000.00000" pt_clust_7="13000.00000" pt_clust_8="13000.00000" pt_clust_9="13000.00000"></scales>
<clustering>
<clus scale="   80.951">  5  6 -1 -1</clus>
<clus scale="   88.516">  7  8 -1 -1</clus>
<clus scale="  113.244">  7  9 -1 -1</clus>
<clus scale="  122.779">  1  5  2 -1</clus>
<clus scale="  340.305">  2  5  1 -1</clus>
</clustering>
</event>
<event>
 9    2  0.3707658E-005  0.2882665E+03  0.7546771E-02  0.1120100E+00
          2   -1    0    0  502    0 -0.00000000000E+00  0.00000000000E+00  0.77421312964E+03  0.77421312964E+03  0.00000000000E+00 0. -1.
         21   -1    0    0  501  502  0.00000000000E+00 -0.00000000000E+00 -0.10093786140E+03  0.10093786140E+03  0.00000000000E+00 0.  1.
         24    2    1    2    0    0  0.10932874222E+03 -0.18317076126E+02 -0.56514819820E+01  0.13756091380E+03  0.81257471066E+02 0.  0.
         23    2    1    2    0    0 -0.45932972617E+01 -0.32802996705E+02  0.56421535110E+03  0.57406185226E+03  0.10055303492E+03 0.  0.
        -11    1    3    3    0    0  0.39046220388E+02 -0.46656117843E+02 -0.99996428898E+01  0.61655441906E+02  0.00000000000E+00 0.  1.
         12    1    3    3    0    0  0.70282521828E+02  0.28339041716E+02  0.43481609078E+01  0.75905471892E+02  0.00000000000E+00 0. -1.
        -11    1    4    4    0    0  0.10779088795E+02 -0.66747803404E+02  0.39977953360E+03  0.40545669744E+03  0.00000000000E+00 0.  1.
         11    1    4    4    0    0 -0.15372386057E+02  0.33944806699E+02  0.16443581750E+03  0.16860515482E+03  0.00000000000E+00 0. -1.
          1    1    1    2  501    0 -0.10473544495E+03  0.51120072832E+02  0.11471139912E+03  0.16352822498E+03  0.00000000000E+00 0. -1.
<scales pt_clust_5="13000.00000" pt_clust_6="13000.00000" pt_clust_7="13000.00000" pt_clust_8="13000.00000" pt_clust_9="13000.00000"></scales>
<clustering>
<clus scale="   81.257">  5  6 -1 -1</clus>
<clus scale="  100.553">  7  8 -1 -1</clus>
<clus scale="  116.545">  7  9 -1 -1</clus>
<clus scale="  137.445">  1  5  2 -1</clus>
<clus scale="  288.267">  2  5  1 -1</clus>
</clustering>
</event>
<event>
 9    2  0.3707658E-005  0.3858327E+03  0.7546771E-02  0.1060359E+00
         21   -1    0    0  501  502  0.00000000000E+00  0.00000000000E+00  0.23415890225E+03  0.23415890225E+03  0.00000000000E+00 0. -1.
          4   -1    0    0  502    0 -0.00000000000E+00 -0.00000000000E+00 -0.63397342603E+03  0.63397342603E+03  0.00000000000E+00 0. -1.
         24    2    1    2    0    0 -0.19958017123E+03 -0.17810867384E+03 -0.39389705503E+03  0.48225425569E+03  0.76546278323E+02 0.  0.
         23    2    1    2    0    0 -0.42759550110E+02  0.50019101681E+02  0.28145780618E+02  0.10966115784E+03  0.83084865736E+02 0.  0.
        -11    1    3    3    0    0 -0.21696913358E+02 -0.42680853302E+02 -0.11666175571E+03  0.12610462534E+03  0.00000000000E+00 0.  1.
         12    1    3    3    0    0 -0.17788325788E+03 -0.13542782054E+03 -0.27723529932E+03  0.35614963035E+03  0.00000000000E+00 0. -1.
        -11    1    4    4    0    0 -0.18877149863E+02 -0.20860952417E+02  0.19796965253E+02  0.34401249337E+02  0.00000000000E+00 0. -1.
         11    1    4    4    0    0 -0.23882400247E+02  0.70880054098E+02  0.83488153659E+01  0.75259908507E+02  0.00000000000E+00 0.  1.
          3    1    1    2  501    0  0.24233972134E+03  0.12808957216E+03 -0.34063249370E+02  0.27621691475E+03  0.00000000000E+00 0. -1.
<scales pt_clust_5="13000.00000" pt_clust_6="13000.00000" pt_clust_7="13000.00000" pt_clust_8="13000.00000" pt_clust_9="13000.00000"></scales>
<clustering>
<clus scale="   76.546">  5  6 -1 -1</clus>
<clus scale="   83.085">  7  8 -1 -1</clus>
<clus scale="  274.109">  7  9 -1 -1</clus>
<clus scale="  278.234">  2  5  1 -1</clus>
<clus scale="  385.833">  1  5  2 -1</clus>
</clustering>
</event>
<event>
 9    2  0.3707658E-005  0.2883524E+03  0.7546771E-02  0.1138674E+00
         21   -1    0    0  501  502  0.00000000000E+00  0.00000000000E+00  0.14491362299E+03  0.14491362299E+03  0.00000000000E+00 0.  1.
          2   -1    0    0  502    0 -0.00000000000E+00 -0.00000000000E+00 -0.24321522230E+03  0.24321522230E+03  0.00000000000E+00 0. -1.
         24    2    1    2    0    0  0.16190570413E+02  0.29236261979E+02 -0.18219875912E+02  0.88862803442E+02  0.80297822962E+02 0.  0.
         23    2    1    2    0    0 -0.12394785863E+03 -0.21914424694E+02  0.13535444594E+02  0.15633453164E+03  0.91727661348E+02 0.  0.
        -11    1    3    3    0    0  0.39940585105E+02  0.33072032717E+02  0.88958030230E+01  0.52613163732E+02  0.00000000000E+00 0.  1.
         12    1    3    3    0    0 -0.23750014691E+02 -0.38357707374E+01 -0.27115678935E+02  0.36249639709E+02  0.00000000000E+00 0. -1.
        -11    1    4    4    0    0 -0.40876317894E+02 -0.35321279699E+02 -0.29787071868E+02  0.61690646087E+02  0.00000000000E+00 0. -1.
         11    1    4    4    0    0 -0.83071540732E+02  0.13406855005E+02  0.43322516463E+02  0.94643885557E+02  0.00000000000E+00 0.  1.
          1    1    1    2  501    0  0.10775728821E+03 -0.73218372855E+01 -0.93617167994E+02  0.14293151020E+03  0.00000000000E+00 0. -1.
<scales pt_clust_5="13000.00000" pt_clust_6="13000.00000" pt_clust_7="13000.00000" pt_clust_8="13000.00000" pt_clust_9="13000.00000"></scales>
<clustering>
<clus scale="   80.298">  5  6 -1 -1</clus>
<clus scale="   86.975">  2  5  1 -1</clus>
<clus scale="   91.728">  7  8 -1 -1</clus>
<clus scale="  118.357">  7  9 -1 -1</clus>
<clus scale="  288.352">  1  5  2 -1</clus>
</clustering>
</event>
<event>
 9    2  0.3707658E-005  0.3508863E+03  0.7546771E-02  0.1089483E+00
         21   -1    0    0  501  502  0.00000000000E+00  0.00000000000E+00  0.17081672645E+03  0.17081672645E+03  0.00000000000E+00 0.  1.
          2   -1    0    0  502    0 -0.00000000000E+00 -0.00000000000E+00 -0.48951848134E+03  0.48951848134E+03  0.00000000000E+00 0. -1.
         24    2    1    2    0    0  0.13089883941E+03  0.66895671760E+02  0.24758163593E+02  0.16933021028E+03  0.80313239205E+02 0.  0.
         23    2    1    2    0    0 -0.13610808122E+03  0.10662155345E+02 -0.37390102015E+03  0.40752438050E+03  0.87378810342E+02 0.  0.
        -11    1    3    3    0    0  0.50016192639E+02  0.63695445194E+02  0.34049634489E+02  0.87852756778E+02  0.00000000000E+00 0.  1.
         12    1    3    3    0    0  0.80882646768E+02  0.32002265653E+01 -0.92914708961E+01  0.81477453505E+02  0.00000000000E+00 0. -1.
        -11    1    4    4    0    0 -0.65754419878E+02  0.30007144369E+02 -0.95778157654E+02  0.11998969927E+03  0.00000000000E+00 0.  1.
         11    1    4    4    0    0 -0.70353661347E+02 -0.19344989024E+02 -0.27812286250E+03  0.28753468123E+03  0.00000000000E+00 0. -1.
          1    1    1    2  501    0  0.52092418175E+01 -0.77557827105E+02  0.30441101671E+02  0.83480617011E+02  0.00000000000E+00 0. -1.
<scales pt_clust_5="13000.00000" pt_clust_6="13000.00000" pt_clust_7="13000.00000" pt_clust_8="13000.00000" pt_clust_9="13000.00000"></scales>
<clustering>
<clus scale="   80.313">  5  6 -1 -1</clus>
<clus scale="   87.379">  7  8 -1 -1</clus>
<clus scale="   77.733">  7  9 -1 -1</clus>
<clus scale="  167.511">  2  5  1 -1</clus>
<clus scale="  350.886">  1  5  2 -1</clus>
</clustering>
</event>
<event>
 9    2  0.3707658E-005  0.3381014E+03  0.7546771E-02  0.1095277E+00
         21   -1    0    0  501  502  0.00000000000E+00  0.00000000000E+00  0.54328642789E+02  0.54328642789E+02  0.00000000000E+00 0. -1.
          2   -1    0    0  502    0 -0.00000000000E+00 -0.00000000000E+00 -0.11625194768E+04  0.11625194768E+04  0.00000000000E+00 0. -1.
         24    2    1    2    0    0 -0.12610288269E+03 -0.60189476038E+02 -0.29048405550E+03  0.33199956752E+03  0.79485950226E+02 0.  0.
         23    2    1    2    0    0 -0.51915554957E+02 -0.26937357149E+02 -0.12858458417E+03  0.16779133821E+03  0.90548836758E+02 0.  0.
        -11    1    3    3    0    0 -0.21678860435E+02  0.19361897524E+02 -0.43919942739E+02  0.52667043165E+02  0.00000000000E+00 0.  1.
         12    1    3    3    0    0 -0.10442402225E+03 -0.79551373562E+02 -0.24656411276E+03  0.27933252435E+03  0.00000000000E+00 0. -1.
        -13    1    4    4    0    0 -0.67139071385E+02  0.21759148020E+01 -0.53643213120E+02  0.85965015125E+02  0.00000000000E+00 0. -1.
         13    1    4    4    0    0  0.15223516428E+02 -0.29113271951E+02 -0.74941371045E+02  0.81826323089E+02  0.00000000000E+00 0.  1.
          1    1    1    2  501    0  0.17801843765E+03  0.87126833187E+02 -0.68912219430E+03  0.71705721382E+03  0.00000000000E+00 0. -1.
<scales pt_clust_5="13000.00000" pt_clust_6="13000.00000" pt_clust_7="13000.00000" pt_clust_8="13000.00000" pt_clust_9="13000.00000"></scales>
<clustering>
<clus scale="   79.486">  5  6 -1 -1</clus>
<clus scale="   90.549">  7  8 -1 -1</clus>
<clus scale="  160.757">  2  5  1 -1</clus>
<clus scale="   82.802">  7  9 -1 -1</clus>
<clus scale="  338.101">  1  5  2 -1</clus>
</clustering>
</event>
<event>
 9    2  0.3707658E-005  0.1634535E+03  0.7546771E-02  0.1210025E+00
         21   -1    0    0  501  502  0.00000000000E+00  0.00000000000E+00  0.38008891209E+02  0.38008891209E+02  0.00000000000E+00 0. -1.
          2   -1    0    0  502    0 -0.00000000000E+00 -0.00000000000E+00 -0.43727258897E+03  0.43727258897E+03  0.00000000000E+00 0. -1.
         24    2    1    2    0    0  0.46789698038E+02 -0.26121696372E+02 -0.14765811757E+03  0.17524410415E+03  0.77691424837E+02 0.  0.
         23    2    1    2    0    0 -0.66081355392E+02 -0.13093236928E+02 -0.21611888270E+03  0.24374097528E+03  0.90355482349E+02 0.  0.
        -11    1    3    3    0    0  0.56770031368E+02 -0.39618565377E+02 -0.14120204987E+03  0.15725929566E+03  0.00000000000E+00 0.  1.
         12    1    3    3    0    0 -0.99803333303E+01  0.13496869005E+02 -0.64560676918E+01  0.17984808488E+02  0.00000000000E+00 0. -1.
        -11    1    4    4    0    0 -0.48092299485E+02 -0.51238265797E+02 -0.12695900065E+03  0.14510967231E+03  0.00000000000E+00 0. -1.
         11    1    4    4    0    0 -0.17989055907E+02  0.38145028869E+02 -0.89159882048E+02  0.98631302975E+02  0.00000000000E+00 0.  1.
          1    1    1    2  501    0  0.19291657354E+02  0.39214933300E+02 -0.35486697497E+02  0.56296400742E+02  0.00000000000E+00 0. -1.
<scales pt_clust_5="13000.00000" pt_clust_6="13000.00000" pt_clust_7="13000.00000" pt_clust_8="13000.00000" pt_clust_9="13000.00000"></scales>
<clustering>
<clus scale="   77.691">  5  6 -1 -1</clus>
<clus scale="   90.355">  7  8 -1 -1</clus>
<clus scale="   43.703">  7  9 -1 -1</clus>
<clus scale="   94.380">  2  5  1 -1</clus>
<clus scale="  163.454">  1  5  2 -1</clus>
</clustering>
</event>
<event>
 9    2  0.3707658E-005  0.3513095E+03  0.7546771E-02  0.1085927E+00
         21   -1    0    0  501  502  0.00000000000E+00  0.00000000000E+00  0.92696041434E+02  0.92696041434E+02  0.00000000000E+00 0. -1.
          2   -1    0    0  502    0 -0.00000000000E+00 -0.00000000000E+00 -0.10395801194E+04  0.10395801194E+04  0.00000000000E+00 0. -1.
         24    2    1    2    0    0  0.32062668110E+02 -0.16221224855E+03 -0.64011898953E+03  0.66588235988E+03  0.79411385630E+02 0.  0.
         23    2    1    2    0    0 -0.29979346211E+02  0.13545870913E+03 -0.36571869587E+03  0.40162019576E+03  0.91108693651E+02 0.  0.
        -13    1    3    3    0    0  0.58101201665E+02 -0.97801277344E+02 -0.41226372778E+03  0.42767069193E+03  0.00000000000E+00 0.  1.
         14    1    3    3    0    0 -0.26038533556E+02 -0.64410971210E+02 -0.22785526175E+03  0.23821166795E+03  0.00000000000E+00 0. -1.
        -11    1    4    4    0    0  0.23707737023E+02  0.96647176925E+02 -0.22955140708E+03  0.25019308962E+03  0.00000000000E+00 0. -1.
         11    1    4    4    0    0 -0.53687083234E+02  0.38811532203E+02 -0.13616728879E+03  0.15142710614E+03  0.00000000000E+00 0.  1.
          1    1    1    2  501    0 -0.20833218987E+01  0.26753539427E+02  0.58953607428E+02  0.64773605202E+02  0.00000000000E+00 0. -1.
<scales pt_clust_5="13000.00000" pt_clust_6="13000.00000" pt_clust_7="13000.00000" pt_clust_8="13000.00000" pt_clust_9="13000.00000"></scales>
<clustering>
<clus scale="   79.411">  5  6 -1 -1</clus>
<clus scale="   91.109">  7  8 -1 -1</clus>
<clus scale="   26.835">  7  9 -1 -1</clus>
<clus scale="  183.431">  2  5  1 -1</clus>
<clus scale="  351.309">  1  5  2 -1</clus>
</clustering>
</event>
<event>
 9    2  0.3707658E-005  0.4995157E+03  0.7546771E-02  0.1075687E+00
         21   -1    0    0  501  502  0.00000000000E+00  0.00000000000E+00  0.47069823115E+03  0.47069823115E+03  0.00000000000E+00 0.  1.
         -3   -1    0    0    0  501 -0.00000000000E+00 -0.00000000000E+00 -0.18836355502E+03  0.18836355502E+03  0.00000000000E+00 0.  1.
         24    2    1    2    0    0 -0.21601444953E+02  0.82971987916E+01  0.91746382702E+02  0.12442184283E+03  0.80795608186E+02 0.  0.
         23    2    1    2    0    0  0.20712346597E+03  0.13663505782E+03  0.95187362775E+02  0.28062199741E+03  0.90104396219E+02 0.  0.
        -13    1    3    3    0    0 -0.29905461455E+01  0.42117242785E+02  0.64808250871E+02  0.77349304373E+02  0.00000000000E+00 0.  1.
         14    1    3    3    0    0 -0.18610898807E+02 -0.33820043993E+02  0.26938131831E+02  0.47072538456E+02  0.00000000000E+00 0. -1.
        -11    1    4    4    0    0  0.18384999634E+03  0.14981338705E+03  0.83439063021E+02  0.25140992290E+03  0.00000000000E+00 0.  1.
         11    1    4    4    0    0  0.23273469628E+02 -0.13178329236E+02  0.11748299755E+02  0.29212074509E+02  0.00000000000E+00 0. -1.
         -4    1    1    2    0  502 -0.18552202101E+03 -0.14493225661E+03  0.95400930662E+02  0.25401794594E+03  0.00000000000E+00 0.  1.
<scales pt_clust_5="13000.00000" pt_clust_6="13000.00000" pt_clust_7="13000.00000" pt_clust_8="13000.00000" pt_clust_9="13000.00000"></scales>
<clustering>
<clus scale="   80.796">  5  6 -1 -1</clus>
<clus scale="   84.044">  2  5  1 -1</clus>
<clus scale="   90.104">  7  8 -1 -1</clus>
<clus scale="  241.089">  7  9 -1 -1</clus>
<clus scale="  499.516">  1  5  2 -1</clus>
</clustering>
</event>
<event>
 9    2  0.3707658E-005  0.2625694E+03  0.7546771E-02  0.1137284E+00
          2   -1    0    0  502    0 -0.00000000000E+00  0.00000000000E+00  0.65682091001E+03  0.65682091001E+03  0.00000000000E+00 0. -1.
         21   -1    0    0  501  502  0.00000000000E+00 -0.00000000000E+00 -0.19941069490E+03  0.19941069490E+03  0.00000000000E+00 0.  1.
         24    2    1    2    0    0  0.86295043985E+02 -0.11649118245E+02  0.56133859842E+03  0.57384219439E+03  0.81309934257E+02 0.  0.
         23    2    1    2    0    0 -0.10386466982E+03  0.80442511109E+02 -0.10081718503E+02  0.16471010415E+03  0.98837797081E+02 0.  0.
        -11    1    3    3    0    0  0.39980191527E+02 -0.42124835995E+02  0.19952904346E+03  0.20780942401E+03  0.00000000000E+00 0.  1.
         12    1    3    3    0    0  0.46314852458E+02  0.30475717750E+02  0.36180955496E+03  0.36603277037E+03  0.00000000000E+00 0. -1.
        -11    1    4    4    0    0  0.11113448396E+02  0.24202215791E+02 -0.24140239864E+02  0.35944501181E+02  0.00000000000E+00 0. -1.
         11    1    4    4    0    0 -0.11497811822E+03  0.56240295318E+02  0.14058521361E+02  0.12876560297E+03  0.00000000000E+00 0.  1.
          1    1    1    2  501    0  0.17569625836E+02 -0.68793392863E+02 -0.93846664807E+02  0.11767930638E+03  0.00000000000E+00 0. -1.
<scales pt_clust_5="13000.00000" pt_clust_6="13000.00000" pt_clust_7="13000.00000" pt_clust_8="13000.00000" pt_clust_9="13000.00000"></scales>
<clustering>
<clus scale="   81.310">  5  6 -1 -1</clus>
<clus scale="   98.838">  7  8 -1 -1</clus>
<clus scale="   71.002">  7  9 -1 -1</clus>
<clus scale="  119.138">  1  5  2 -1</clus>
<clus scale="  262.569">  2  5  1 -1</clus>
</clustering>
</event>
<event>
 9    2  0.3707658E-005  0.2941369E+03  0.7546771E-02  0.1136945E+00
         21   -1    0    0  501  502  0.00000000000E+00  0.00000000000E+00  0.19807548543E+03  0.19807548543E+03  0.00000000000E+00 0.  1.
          2   -1    0    0  502    0 -0.00000000000E+00 -0.00000000000E+00 -0.90610676345E+03  0.90610676345E+03  0.00000000000E+00 0. -1.
         24    2    1    2    0    0 -0.85685210128E+01  0.24689127883E+02 -0.79333655860E+03  0.79792503892E+03  0.81354163636E+02 0.  0.
         23    2    1    2    0    0  0.13164295751E+03  0.12958673843E+02  0.18757398881E+02  0.16136658069E+03  0.90496065439E+02 0.  0.
        -13    1    3    3    0    0  0.31391172029E+02  0.74254493679E+01 -0.16758558549E+03  0.17066186288E+03  0.00000000000E+00 0.  1.
         14    1    3    3    0    0 -0.39959693042E+02  0.17263678515E+02 -0.62575097311E+03  0.62726317603E+03  0.00000000000E+00 0. -1.
        -13    1    4    4    0    0  0.10287190593E+02  0.35250731677E+02  0.12303516953E+01  0.36741722053E+02  0.00000000000E+00 0. -1.
         13    1    4    4    0    0  0.12135576692E+03 -0.22292057835E+02  0.17527047186E+02  0.12462485863E+03  0.00000000000E+00 0.  1.
          1    1    1    2  501    0 -0.12307443650E+03 -0.37647801726E+02  0.66547881699E+02  0.14489062928E+03  0.00000000000E+00 0. -1.
<scales pt_clust_5="13000.00000" pt_clust_6="13000.00000" pt_clust_7="13000.00000" pt_clust_8="13000.00000" pt_clust_9="13000.00000"></scales>
<clustering>
<clus scale="   81.354">  5  6 -1 -1</clus>
<clus scale="   85.449">  2  5  1 -1</clus>
<clus scale="   90.496">  7  8 -1 -1</clus>
<clus scale="  129.380">  7  9 -1 -1</clus>
<clus scale="  294.137">  1  5  2 -1</clus>
</clustering>
</event>
<event>
 9    2  0.3707658E-005  0.3337842E+03  0.7546771E-02  0.1130844E+00
          2   -1    0    0  502    0 -0.00000000000E+00  0.00000000000E+00  0.41113052994E+03  0.41113052994E+03  0.00000000000E+00 0. -1.
         21   -1    0    0  501  502  0.00000000000E+00 -0.00000000000E+00 -0.11194864378E+03  0.11194864378E+03  0.00000000000E+00 0. -1.
         24    2    1    2    0    0  0.29426524203E+02 -0.16824477091E+02  0.13501863624E+03  0.15110949211E+03  0.58779784930E+02 0.  0.
         23    2    1    2    0    0  0.29654224803E+02  0.12265395530E+03 -0.15009902753E+02  0.15565178591E+03  0.89882231164E+02 0.  0.
        -13    1    3    3    0    0 -0.67810814174E+01 -0.20885410152E+02  0.17519894166E+02  0.28091459806E+02  0.00000000000E+00 0.  1.
         14    1    3    3    0    0  0.36207605621E+02  0.40609330614E+01  0.11749874208E+03  0.12301803230E+03  0.00000000000E+00 0. -1.
        -11    1    4    4    0    0  0.22357768475E+02  0.98610243722E+02  0.28811597498E+02  0.10513780542E+03  0.00000000000E+00 0.  1.
         11    1    4    4    0    0  0.72964563279E+01  0.24043711576E+02 -0.43821500250E+02  0.50513980495E+02  0.00000000000E+00 0. -1.
          1    1    1    2  501    0 -0.59080749006E+02 -0.10582947821E+03  0.17917315267E+03  0.21631789569E+03  0.00000000000E+00 0. -1.
<scales pt_clust_5="13000.00000" pt_clust_6="13000.00000" pt_clust_7="13000.00000" pt_clust_8="13000.00000" pt_clust_9="13000.00000"></scales>
<clustering>
<clus scale="   58.780">  5  6 -1 -1</clus>
<clus scale="   67.853">  1  5  2 -1</clus>
<clus scale="   89.882">  7  8 -1 -1</clus>
<clus scale="  124.006">  7  9 -1 -1</clus>
<clus scale="  333.784">  2  5  1 -1</clus>
</clustering>
</event>
<event>
 9    2  0.3707658E-005  0.2060032E+03  0.7546771E-02  0.1174516E+00
         21   -1    0    0  501  502  0.00000000000E+00  0.00000000000E+00  0.85959996263E+02  0.85959996263E+02  0.00000000000E+00 0.  1.
          2   -1    0    0  502    0 -0.00000000000E+00 -0.00000000000E+00 -0.35710042309E+03  0.35710042309E+03  0.00000000000E+00 0. -1.
         24    2    1    2    0    0  0.62438525819E+02 -0.24397677871E+02 -0.60478773417E+00  0.10302095253E+03  0.78224898213E+02 0.  0.
         23    2    1    2    0    0 -0.57915026976E+02 -0.56737796700E+02 -0.17802011158E+03  0.21690315980E+03  0.93714954414E+02 0.  0.
        -11    1    3    3    0    0  0.79072322038E+02 -0.91455363398E+01 -0.59733629128E+01  0.79823267359E+02  0.00000000000E+00 0.  1.
         12    1    3    3    0    0 -0.16633796219E+02 -0.15252141531E+02  0.53685751786E+01  0.23197685173E+02  0.00000000000E+00 0. -1.
        -11    1    4    4    0    0 -0.72636974287E+02 -0.26308637075E+02 -0.71925509024E+02  0.10555355639E+03  0.00000000000E+00 0. -1.
         11    1    4    4    0    0  0.14721947311E+02 -0.30429159625E+02 -0.10609460256E+03  0.11134960341E+03  0.00000000000E+00 0.  1.
          1    1    1    2  501    0 -0.45234988433E+01  0.81135474571E+02 -0.92515527512E+02  0.12313630702E+03  0.00000000000E+00 0. -1.
<scales pt_clust_5="13000.00000" pt_clust_6="13000.00000" pt_clust_7="13000.00000" pt_clust_8="13000.00000" pt_clust_9="13000.00000"></scales>
<clustering>
<clus scale="   78.225">  5  6 -1 -1</clus>
<clus scale="   93.715">  7  8 -1 -1</clus>
<clus scale="   81.262">  7  9 -1 -1</clus>
<clus scale="  103.019">  2  5  1 -1</clus>
<clus scale="  206.003">  1  5  2 -1</clus>
</clustering>
</event>
<event>
 9    2  0.3707658E-005  0.2693033E+03  0.7546771E-02  0.1144682E+00
         21   -1    0    0  501  502  0.00000000000E+00  0.00000000000E+00  0.41070313242E+02  0.41070313242E+02  0.00000000000E+00 0. -1.
          2   -1    0    0  502    0 -0.00000000000E+00 -0.00000000000E+00 -0.92808001437E+03  0.92808001437E+03  0.00000000000E+00 0. -1.
         24    2    1    2    0    0 -0.46212008661E+02  0.34489913213E+01 -0.42010649779E+03  0.43014861679E+03  0.79943215853E+02 0.  0.
         23    2    1    2    0    0  0.27865281360E+01 -0.11108119154E+03 -0.33147893493E+03  0.36064758175E+03  0.88552798161E+02 0.  0.
        -13    1    3    3    0    0 -0.36897955007E+02  0.35608056713E+02 -0.16310710013E+03  0.17097753916E+03  0.00000000000E+00 0.  1.
         14    1    3    3    0    0 -0.93140536545E+01 -0.32159065391E+02 -0.25699939766E+03  0.25917107763E+03  0.00000000000E+00 0. -1.
        -11    1    4    4    0    0 -0.27029986475E+02 -0.32748885685E+02 -0.20195226312E+03  0.20636818133E+03  0.00000000000E+00 0. -1.
         11    1    4    4    0    0  0.29816514611E+02 -0.78332305859E+02 -0.12952667181E+03  0.15427940042E+03  0.00000000000E+00 0.  1.
          1    1    1    2  501    0  0.43425480525E+02  0.10763220022E+03 -0.13542426841E+03  0.17835412908E+03  0.00000000000E+00 0. -1.
<scales pt_clust_5="13000.00000" pt_clust_6="13000.00000" pt_clust_7="13000.00000" pt_clust_8="13000.00000" pt_clust_9="13000.00000"></scales>
<clustering>
<clus scale="   79.943">  5  6 -1 -1</clus>
<clus scale="   88.553">  7  8 -1 -1</clus>
<clus scale="   92.403">  2  5  1 -1</clus>
<clus scale="  112.512">  7  9 -1 -1</clus>
<clus scale="  269.303">  1  5  2 -1</clus>
</clustering>
</event>
<event>
 9    2  0.3707658E-005  0.3830973E+03  0.7546771E-02  0.1091307E+00
         21   -1    0    0  501  502  0.00000000000E+00  0.00000000000E+00  0.51959369552E+03  0.51959369552E+03  0.00000000000E+00 0.  1.
          2   -1    0    0  502    0 -0.00000000000E+00 -0.00000000000E+00 -0.13415605128E+03  0.13415605128E+03  0.00000000000E+00 0. -1.
         24    2    1    2    0    0  0.65730569000E+02  0.67309682795E+02  0.18341696396E+03  0.22064937821E+03  0.78697295610E+02 0.  0.
         23    2    1    2    0    0 -0.97487746917E+02 -0.42871873149E+02  0.29766488882E+03  0.32940109416E+03  0.92513979968E+02 0.  0.
        -13    1    3    3    0    0  0.75887492450E+02  0.63561608356E+02  0.18489123425E+03  0.20972305088E+03  0.00000000000E+00 0.  1.
         14    1    3    3    0    0 -0.10156923450E+02  0.37480744394E+01 -0.14742702933E+01  0.10926327327E+02  0.00000000000E+00 0. -1.
        -13    1    4    4    0    0 -0.17395363779E+01 -0.35913683779E+02  0.36877329631E+02  0.51504913456E+02  0.00000000000E+00 0. -1.
         13    1    4    4    0    0 -0.95748210539E+02 -0.69581893701E+01  0.26078755919E+03  0.27789618070E+03  0.00000000000E+00 0.  1.
          1    1    1    2  501    0  0.31757177917E+02 -0.24437809647E+02 -0.95644208548E+02  0.10369927444E+03  0.00000000000E+00 0. -1.
<scales pt_clust_5="13000.00000" pt_clust_6="13000.00000" pt_clust_7="13000.00000" pt_clust_8="13000.00000" pt_clust_9="13000.00000"></scales>
<clustering>
<clus scale="   78.697">  5  6 -1 -1</clus>
<clus scale="   92.514">  7  8 -1 -1</clus>
<clus scale="   40.072">  7  9 -1 -1</clus>
<clus scale="  122.656">  2  5  1 -1</clus>
<clus scale="  383.097">  1  5  2 -1</clus>
</clustering>
</event>
<event>
 9    2  0.3707658E-005  0.2632588E+03  0.7546771E-02  0.1135085E+00
          2   -1    0    0  502    0 -0.00000000000E+00  0.00000000000E+00  0.48861297319E+03  0.48861297319E+03  0.00000000000E+00 0. -1.
         21   -1    0    0  501  502  0.00000000000E+00 -0.00000000000E+00 -0.17660097796E+03  0.17660097796E+03  0.00000000000E+00 0. -1.
         24    2    1    2    0    0  0.90208103839E+02 -0.37719664936E+02  0.37443924120E+03  0.39465460663E+03  0.77377245082E+02 0.  0.
         23    2    1    2    0    0 -0.71851803074E+02  0.61142653459E+01  0.68952768175E+02  0.13419012813E+03  0.89735391022E+02 0.  0.
        -13    1    3    3    0    0  0.56445545031E+02  0.27622163291E+01  0.97083424577E+02  0.11233396958E+03  0.00000000000E+00 0.  1.
         14    1    3    3    0    0  0.33762558808E+02 -0.40481881265E+02  0.27735581663E+03  0.28232063705E+03  0.00000000000E+00 0. -1.
        -11    1    4    4    0    0 -0.69525494680E+02  0.36158146454E+02  0.27729118914E+02  0.83127071410E+02  0.00000000000E+00 0.  1.
         11    1    4    4    0    0 -0.23263083942E+01 -0.30043881108E+02  0.41223649261E+02  0.51063056716E+02  0.00000000000E+00 0. -1.
          1    1    1    2  501    0 -0.18356300765E+02  0.31605399590E+02 -0.13138001415E+03  0.13636921639E+03  0.00000000000E+00 0. -1.
<scales pt_clust_5="13000.00000" pt_clust_6="13000.00000" pt_clust_7="13000.00000" pt_clust_8="13000.00000" pt_clust_9="13000.00000"></scales>
<clustering>
<clus scale="   77.377">  5  6 -1 -1</clus>
<clus scale="   89.735">  7  8 -1 -1</clus>
<clus scale="   36.549">  7  9 -1 -1</clus>
<clus scale="  124.690">  1  5  2 -1</clus>
<clus scale="  263.259">  2  5  1 -1</clus>
</clustering>
</event>
<event>
 9    2  0.3707658E-005  0.3656681E+03  0.7546771E-02  0.1099518E+00
          2   -1    0    0  502    0 -0.00000000000E+00  0.00000000000E+00  0.14352046361E+04  0.14352046361E+04  0.00000000000E+00 0. -1.
         21   -1    0    0  501  502  0.00000000000E+00 -0.00000000000E+00 -0.43247469338E+02  0.43247469338E+02  0.00000000000E+00 0.  1.
         24    2    1    2    0    0 -0.80168134930E+02  0.22666644897E+01  0.53113043364E+03  0.54317896836E+03  0.80695641206E+02 0.  0.
         23    2    1    2    0    0  0.37900484664E+02 -0.93155419534E+02  0.10565638228E+03  0.17347947810E+03  0.93901433859E+02 0.  0.
        -11    1    3    3    0    0 -0.23576336545E+02  0.19544825360E+02  0.51537125244E+02  0.59949304597E+02  0.00000000000E+00 0.  1.
         12    1    3    3    0    0 -0.56591798385E+02 -0.17278160871E+02  0.47959330840E+03  0.48322966377E+03  0.00000000000E+00 0. -1.
        -11    1    4    4    0    0  0.47702475328E+02 -0.59597298855E+02  0.11431754214E+03  0.13746222981E+03  0.00000000000E+00 0.  1.
         11    1    4    4    0    0 -0.98019906634E+01 -0.33558120679E+02 -0.86611598630E+01  0.36017248293E+02  0.00000000000E+00 0. -1.
          1    1    1    2  501    0  0.42267650266E+02  0.90888755044E+02  0.75517035087E+03  0.76179365900E+03  0.00000000000E+00 0. -1.
<scales pt_clust_5="13000.00000" pt_clust_6="13000.00000" pt_clust_7="13000.00000" pt_clust_8="13000.00000" pt_clust_9="13000.00000"></scales>
<clustering>
<clus scale="   80.696">  5  6 -1 -1</clus>
<clus scale="   93.901">  7  8 -1 -1</clus>
<clus scale="  100.236">  7  9 -1 -1</clus>
<clus scale="  113.771">  1  5  2 -1</clus>
<clus scale="  365.668">  2  5  1 -1</clus>
</clustering>
</event>
<event>
 9    2  0.3707658E-005  0.2470705E+03  0.7546771E-02  0.1151610E+00
          2   -1    0    0  502    0 -0.00000000000E+00  0.00000000000E+00  0.61570063729E+03  0.61570063729E+03  0.00000000000E+00 0. -1.
         21   -1    0    0  501  502  0.00000000000E+00 -0.00000000000E+00 -0.78051373782E+02  0.78051373782E+02  0.00000000000E+00 0.  1.
         24    2    1    2    0    0  0.49428912670E+02 -0.31859424342E+02 -0.61413732716E+00  0.10149249966E+03  0.82717047795E+02 0.  0.
         23    2    1    2    0    0  0.38856321316E+02 -0.61981113188E+02  0.21334776953E+03  0.24273054768E+03  0.89718314254E+02 0.  0.
        -11    1    3    3    0    0  0.72750082867E+02 -0.22623833226E+02 -0.33506926443E+01  0.76260340468E+02  0.00000000000E+00 0.  1.
         12    1    3    3    0    0 -0.23321170197E+02 -0.92355911156E+01  0.27365553171E+01  0.25232159194E+02  0.00000000000E+00 0. -1.
        -11    1    4    4    0    0 -0.84826232010E+00 -0.61393941443E+02  0.18218623721E+03  0.19225441640E+03  0.00000000000E+00 0.  1.
         11    1    4    4    0    0  0.39704583636E+02 -0.58717174508E+00  0.31161532322E+02  0.50476131281E+02  0.00000000000E+00 0. -1.
          1    1    1    2  501    0 -0.88285233987E+02  0.93840537530E+02  0.32491563130E+03  0.34952896373E+03  0.00000000000E+00 0. -1.
<scales pt_clust_5="13000.00000" pt_clust_6="13000.00000" pt_clust_7="13000.00000" pt_clust_8="13000.00000" pt_clust_9="13000.00000"></scales>
<clustering>
<clus scale="   82.717">  5  6 -1 -1</clus>
<clus scale="   89.718">  7  8 -1 -1</clus>
<clus scale="  101.491">  1  5  2 -1</clus>
<clus scale="   95.169">  7  9 -1 -1</clus>
<clus scale="  247.071">  2  5  1 -1</clus>
</clustering>
</event>
<event>
 9    2  0.3707658E-005  0.3696939E+03  0.7546771E-02  0.1064958E+00
          2   -1    0    0  502    0 -0.00000000000E+00  0.00000000000E+00  0.50564544350E+03  0.50564544350E+03  0.00000000000E+00 0. -1.
         21   -1    0    0  501  502  0.00000000000E+00 -0.00000000000E+00 -0.23814955046E+03  0.23814955046E+03  0.00000000000E+00 0. -1.
         24    2    1    2    0    0 -0.26566483260E+03 -0.18609707758E+02  0.24935804418E+03  0.37365643293E+03  0.80719088006E+02 0.  0.
         23    2    1    2    0    0  0.23775761213E+02 -0.15846067887E+02  0.72494240747E+02  0.11983446463E+03  0.91041195531E+02 0.  0.
        -11    1    3    3    0    0 -0.41560939059E+02 -0.32908205941E+02  0.58505302174E+02  0.78950187183E+02  0.00000000000E+00 0.  1.
         12    1    3    3    0    0 -0.22410389354E+03  0.14298498183E+02  0.19085274201E+03  0.29470624575E+03  0.00000000000E+00 0. -1.
        -11    1    4    4    0    0  0.46850216592E+01 -0.41166106508E+02  0.79903785544E+00  0.41439548917E+02  0.00000000000E+00 0. -1.
         11    1    4    4    0    0  0.19090739553E+02  0.25320038621E+02  0.71695202892E+02  0.78394915716E+02  0.00000000000E+00 0.  1.
          1    1    1    2  501    0  0.24188907139E+03  0.34455775645E+02 -0.54356391887E+02  0.25030409639E+03  0.00000000000E+00 0. -1.
<scales pt_clust_5="13000.00000" pt_clust_6="13000.00000" pt_clust_7="13000.00000" pt_clust_8="13000.00000" pt_clust_9="13000.00000"></scales>
<clustering>
<clus scale="   80.719">  5  6 -1 -1</clus>
<clus scale="   91.041">  7  8 -1 -1</clus>
<clus scale="  244.331">  7  9 -1 -1</clus>
<clus scale="  278.280">  1  5  2 -1</clus>
<clus scale="  369.694">  2  5  1 -1</clus>
</clustering>
</event>
<event>
 9    2  0.3707658E-005  0.3415431E+03  0.7546771E-02  0.1113545E+00
          2   -1    0    0  502    0 -0.00000000000E+00  0.00000000000E+00  0.12148345492E+04  0.12148345492E+04  0.00000000000E+00 0. -1.
         21   -1    0    0  501  502  0.00000000000E+00 -0.00000000000E+00 -0.41709741492E+02  0.41709741492E+02  0.00000000000E+00 0. -1.
         24    2    1    2    0    0  0.54513285379E+02  0.12065095364E+02  0.15938976230E+03  0.18681983242E+03  0.79870449163E+02 0.  0.
         23    2    1    2    0    0 -0.10313519855E+03  0.12493960148E+03  0.71800463485E+03  0.74019319553E+03  0.78157135666E+02 0.  0.
        -13    1    3    3    0    0  0.63895975273E+02 -0.64056489951E+01  0.15168175706E+03  0.16471515844E+03  0.00000000000E+00 0.  1.
         14    1    3    3    0    0 -0.93826898944E+01  0.18470744359E+02  0.77080052390E+01  0.22104673976E+02  0.00000000000E+00 0. -1.
        -13    1    4    4    0    0 -0.33601038679E+02  0.92027313907E+02  0.48568954535E+03  0.49547188696E+03  0.00000000000E+00 0. -1.
         13    1    4    4    0    0 -0.69534159871E+02  0.32912287569E+02  0.23231508950E+03  0.24472130857E+03  0.00000000000E+00 0.  1.
          1    1    1    2  501    0  0.48621913171E+02 -0.13700469684E+03  0.29573041061E+03  0.32953126279E+03  0.00000000000E+00 0. -1.
<scales pt_clust_5="13000.00000" pt_clust_6="13000.00000" pt_clust_7="13000.00000" pt_clust_8="13000.00000" pt_clust_9="13000.00000"></scales>
<clustering>
<clus scale="   78.157">  7  8 -1 -1</clus>
<clus scale="   79.870">  5  6 -1 -1</clus>
<clus scale="   97.450">  1  5  2 -1</clus>
<clus scale="  148.371">  7  9 -1 -1</clus>
<clus scale="  341.543">  2  5  1 -1</clus>
</clustering>
</event>
<event>
 9    2  0.3707658E-005  0.3378487E+03  0.7546771E-02  0.1086591E+00
          2   -1    0    0  502    0 -0.00000000000E+00  0.00000000000E+00  0.41376621351E+03  0.41376621351E+03  0.00000000000E+00 0. -1.
         21   -1    0    0  501  502  0.00000000000E+00 -0.00000000000E+00 -0.17661184320E+03  0.17661184320E+03  0.00000000000E+00 0. -1.
         24    2    1    2    0    0  0.18480064428E+03 -0.15902593458E+02  0.81589584896E+02  0.21843431218E+03  0.81562968117E+02 0.  0.
         23    2    1    2    0    0  0.15930678869E+02 -0.15585693832E+02 -0.28627904503E+02  0.97696550652E+02  0.90710301023E+02 0.  0.
        -11    1    3    3    0    0  0.40774132372E+02 -0.41499705933E+01 -0.16070805738E+02  0.44022981767E+02  0.00000000000E+00 0.  1.
         12    1    3    3    0    0  0.14402651191E+03 -0.11752622865E+02  0.97660390635E+02  0.17441133041E+03  0.00000000000E+00 0. -1.
        -11    1    4    4    0    0 -0.68839873648E+01  0.21738344618E+02  0.21378563818E+02  0.31256805654E+02  0.00000000000E+00 0.  1.
         11    1    4    4    0    0  0.22814666234E+02 -0.37324038449E+02 -0.50006468321E+02  0.66439744998E+02  0.00000000000E+00 0. -1.
          1    1    1    2  501    0 -0.20073132315E+03  0.31488287290E+02  0.18419268992E+03  0.27424719387E+03  0.00000000000E+00 0. -1.
<scales pt_clust_5="13000.00000" pt_clust_6="13000.00000" pt_clust_7="13000.00000" pt_clust_8="13000.00000" pt_clust_9="13000.00000"></scales>
<clustering>
<clus scale="   81.563">  5  6 -1 -1</clus>
<clus scale="   90.710">  7  8 -1 -1</clus>
<clus scale="  202.625">  1  5  2 -1</clus>
<clus scale="   43.845">  7  9 -1 -1</clus>
<clus scale="  337.849">  2  5  1 -1</clus>
</clustering>
</event>
<event>
 9    2  0.3707658E-005  0.1430911E+03  0.7546771E-02  0.1233054E+00
          2   -1    0    0  502    0 -0.00000000000E+00  0.00000000000E+00  0.69112481822E+02  0.69112481822E+02  0.00000000000E+00 0. -1.
         21   -1    0    0  501  502  0.00000000000E+00 -0.00000000000E+00 -0.22140701519E+03  0.22140701519E+03  0.00000000000E+00 0.  1.
         24    2    1    2    0    0 -0.26506518558E+02  0.21100666390E+02 -0.78540036431E+01  0.87201718710E+02  0.79966372461E+02 0.  0.
         23    2    1    2    0    0  0.60205955882E+02 -0.64806618740E+01 -0.90570850479E+02  0.13811548578E+03  0.84888470089E+02 0.  0.
        -13    1    3    3    0    0 -0.10372998406E+02 -0.30768317861E+02 -0.14067963950E+01  0.32500270091E+02  0.00000000000E+00 0.  1.
         14    1    3    3    0    0 -0.16133520152E+02  0.51868984250E+02 -0.64472072481E+01  0.54701448619E+02  0.00000000000E+00 0. -1.
        -13    1    4    4    0    0  0.45486727724E+02  0.31037365178E+02 -0.78791395315E+02  0.96127230335E+02  0.00000000000E+00 0.  1.
         13    1    4    4    0    0  0.14719228158E+02 -0.37518027052E+02 -0.11779455164E+02  0.41988255446E+02  0.00000000000E+00 0. -1.
          1    1    1    2  501    0 -0.33699437324E+02 -0.14620004516E+02 -0.53869679247E+02  0.65202292522E+02  0.00000000000E+00 0. -1.
<scales pt_clust_5="13000.00000" pt_clust_6="13000.00000" pt_clust_7="13000.00000" pt_clust_8="13000.00000" pt_clust_9="13000.00000"></scales>
<clustering>
<clus scale="   79.966">  5  6 -1 -1</clus>
<clus scale="   84.888">  7  8 -1 -1</clus>
<clus scale="   36.734">  7  9 -1 -1</clus>
<clus scale="   86.847">  1  5  2 -1</clus>
<clus scale="  143.091">  2  5  1 -1</clus>
</clustering>
</event>
<event>
 9    2  0.3707658E-005  0.1738470E+03  0.7546771E-02  0.1197928E+00
          2   -1    0    0  502    0 -0.00000000000E+00  0.00000000000E+00  0.44229847388E+03  0.44229847388E+03  0.00000000000E+00 0. -1.
         21   -1    0    0  501  502  0.00000000000E+00 -0.00000000000E+00 -0.49979437984E+02  0.49979437984E+02  0.00000000000E+00 0. -1.
         24    2    1    2    0    0  0.29492900340E+02  0.53184897716E+02  0.24162953518E+03  0.26221248753E+03  0.81682873522E+02 0.  0.
         23    2    1    2    0    0 -0.71381725555E+01 -0.14913138538E+02  0.15928109872E+03  0.18491814356E+03  0.92471056010E+02 0.  0.
        -11    1    3    3    0    0  0.24935652194E+02  0.55223484837E+02  0.24732474715E+03  0.25463886306E+03  0.00000000000E+00 0.  1.
         12    1    3    3    0    0  0.45572481456E+01 -0.20385871216E+01 -0.56952119707E+01  0.75736244628E+01  0.00000000000E+00 0. -1.
        -11    1    4    4    0    0  0.13145790408E+02 -0.50053233415E+02  0.72016438126E+02  0.88682046329E+02  0.00000000000E+00 0.  1.
         11    1    4    4    0    0 -0.20283962964E+02  0.35140094877E+02  0.87264660595E+02  0.96236097231E+02  0.00000000000E+00 0. -1.
          1    1    1    2  501    0 -0.22354727784E+02 -0.38271759178E+02 -0.85915980107E+01  0.45147280774E+02  0.00000000000E+00 0. -1.
<scales pt_clust_5="13000.00000" pt_clust_6="13000.00000" pt_clust_7="13000.00000" pt_clust_8="13000.00000" pt_clust_9="13000.00000"></scales>
<clustering>
<clus scale="   81.683">  5  6 -1 -1</clus>
<clus scale="   92.471">  7  8 -1 -1</clus>
<clus scale="   44.322">  7  9 -1 -1</clus>
<clus scale="  101.836">  1  5  2 -1</clus>
<clus scale="  173.847">  2  5  1 -1</clus>
</clustering>
</event>
<event>
 9    2  0.3707658E-005  0.2020432E+03  0.7546771E-02  0.1176288E+00
         21   -1    0    0  501  502  0.00000000000E+00  0.00000000000E+00  0.53926758562E+02  0.53926758562E+02  0.00000000000E+00 0. -1.
          2   -1    0    0  502    0 -0.00000000000E+00 -0.00000000000E+00 -0.69638608816E+03  0.69638608816E+03  0.00000000000E+00 0. -1.
         24    2    1    2    0    0  0.66588929606E+02  0.14818032186E+02 -0.47921818891E+03  0.49056462427E+03  0.79686375109E+02 0.  0.
         23    2    1    2    0    0 -0.26840557405E+02  0.56846118811E+02 -0.13042198323E+03  0.17147149434E+03  0.91873189311E+02 0.  0.
        -13    1    3    3    0    0  0.12756377355E+02  0.40602089054E+02 -0.25552079421E+03  0.25904079037E+03  0.00000000000E+00 0.  1.
         14    1    3    3    0    0  0.53832552250E+02 -0.25784056868E+02 -0.22369739470E+03  0.23152383390E+03  0.00000000000E+00 0. -1.
        -13    1    4    4    0    0 -0.59432372413E+02  0.49487939646E+02 -0.98780963023E+02  0.12545493899E+03  0.00000000000E+00 0.  1.
         13    1    4    4    0    0  0.32591815008E+02  0.73581791647E+01 -0.31641020210E+02  0.46016555348E+02  0.00000000000E+00 0. -1.
          1    1    1    2  501    0 -0.39748372200E+02 -0.71664150997E+02 -0.32819157454E+02  0.88276728115E+02  0.00000000000E+00 0. -1.
<scales pt_clust_5="13000.00000" pt_clust_6="13000.00000" pt_clust_7="13000.00000" pt_clust_8="13000.00000" pt_clust_9="13000.00000"></scales>
<clustering>
<clus scale="   79.686">  5  6 -1 -1</clus>
<clus scale="   91.873">  7  8 -1 -1</clus>
<clus scale="   81.949">  7  9 -1 -1</clus>
<clus scale="  104.898">  2  5  1 -1</clus>
<clus scale="  202.043">  1  5  2 -1</clus>
</clustering>
</event>
<event>
 9    2  0.3707658E-005  0.6972037E+03  0.7546771E-02  0.1018654E+00
          2   -1    0    0  502    0 -0.00000000000E+00  0.00000000000E+00  0.34434557404E+03  0.34434557404E+03  0.00000000000E+00 0. -1.
         21   -1    0    0  501  502  0.00000000000E+00 -0.00000000000E+00 -0.59452732783E+03  0.59452732783E+03  0.00000000000E+00 0.  1.
         24    2    1    2    0    0  0.48110516753E+02  0.12826560975E+03  0.67534999775E+02  0.17268954167E+03  0.80585439988E+02 0.  0.
         23    2    1    2    0    0  0.25595334668E+02 -0.40206693937E+03 -0.21770488348E+03  0.46551394908E+03  0.83635372905E+02 0.  0.
        -11    1    3    3    0    0 -0.95377722055E+00  0.21551449615E+02 -0.17423796725E+02  0.27730188673E+02  0.00000000000E+00 0.  1.
         12    1    3    3    0    0  0.49064293974E+02  0.10671416014E+03  0.84958796500E+02  0.14495935299E+03  0.00000000000E+00 0. -1.
        -13    1    4    4    0    0 -0.26337384892E+02 -0.11934686302E+03 -0.45406241222E+02  0.13038043679E+03  0.00000000000E+00 0. -1.
         13    1    4    4    0    0  0.51932719561E+02 -0.28272007635E+03 -0.17229864226E+03  0.33513351229E+03  0.00000000000E+00 0.  1.
          1    1    1    2  501    0 -0.73705851422E+02  0.27380132961E+03 -0.10001187007E+03  0.30066941113E+03  0.00000000000E+00 0. -1.
<scales pt_clust_5="13000.00000" pt_clust_6="13000.00000" pt_clust_7="13000.00000" pt_clust_8="13000.00000" pt_clust_9="13000.00000"></scales>
<clustering>
<clus scale="   80.585">  5  6 -1 -1</clus>
<clus scale="   83.635">  7  8 -1 -1</clus>
<clus scale="  158.936">  1  5  2 -1</clus>
<clus scale="  335.277">  7  9 -1 -1</clus>
<clus scale="  697.204">  2  5  1 -1</clus>
</clustering>
</event>
<event>
 9    2  0.3707658E-005  0.4300835E+03  0.7546771E-02  0.1071446E+00
         21   -1    0    0  501  502  0.00000000000E+00  0.00000000000E+00  0.75816221923E+02  0.75816221923E+02  0.00000000000E+00 0. -1.
          2   -1    0    0  502    0 -0.00000000000E+00 -0.00000000000E+00 -0.11402294164E+04  0.11402294164E+04  0.00000000000E+00 0. -1.
         24    2    1    2    0    0  0.65678244934E+02 -0.10388598294E+03 -0.37977272669E+03  0.40752575344E+03  0.82121778256E+02 0.  0.
         23    2    1    2    0    0  0.88764789632E+02 -0.10749655301E+03 -0.30569208416E+03  0.34793644523E+03  0.90429103798E+02 0.  0.
        -13    1    3    3    0    0 -0.16707522803E+02 -0.15266022215E+02 -0.10303936071E+03  0.10549550989E+03  0.00000000000E+00 0.  1.
         14    1    3    3    0    0  0.82385767737E+02 -0.88619960726E+02 -0.27673336599E+03  0.30203024354E+03  0.00000000000E+00 0. -1.
        -13    1    4    4    0    0  0.63850030194E+02 -0.92686919681E+02 -0.13953290115E+03  0.17926829596E+03  0.00000000000E+00 0. -1.
         13    1    4    4    0    0  0.24914759438E+02 -0.14809633332E+02 -0.16615918301E+03  0.16866814926E+03  0.00000000000E+00 0.  1.
          1    1    1    2  501    0 -0.15444303457E+03  0.21138253595E+03 -0.37894838360E+03  0.46058343964E+03  0.00000000000E+00 0. -1.
<scales pt_clust_5="13000.00000" pt_clust_6="13000.00000" pt_clust_7="13000.00000" pt_clust_8="13000.00000" pt_clust_9="13000.00000"></scales>
<clustering>
<clus scale="   82.122">  5  6 -1 -1</clus>
<clus scale="   90.429">  7  8 -1 -1</clus>
<clus scale="  147.817">  2  5  1 -1</clus>
<clus scale="  192.900">  7  9 -1 -1</clus>
<clus scale="  430.084">  1  5  2 -1</clus>
</clustering>
</event>
<event>
 9    2  0.3707658E-005  0.2560451E+03  0.7546771E-02  0.1147975E+00
         21   -1    0    0  501  502  0.00000000000E+00  0.00000000000E+00  0.17618801821E+03  0.17618801821E+03  0.00000000000E+00 0. -1.
          2   -1    0    0  502    0 -0.00000000000E+00 -0.00000000000E+00 -0.20328672052E+03  0.20328672052E+03  0.00000000000E+00 0. -1.
         24    2    1    2    0    0 -0.16260458242E+02  0.51965410070E+02 -0.67658199861E+02  0.12023710809E+03  0.83153615722E+02 0.  0.
         23    2    1    2    0    0 -0.33352568089E+02  0.40149986125E+02 -0.54547661225E+02  0.11784431309E+03  0.90484361069E+02 0.  0.
        -13    1    3    3    0    0 -0.41346339611E+02  0.10609294960E+02 -0.79916861120E+01  0.43427456588E+02  0.00000000000E+00 0.  1.
         14    1    3    3    0    0  0.25085881369E+02  0.41356115111E+02 -0.59666513749E+02  0.76809651504E+02  0.00000000000E+00 0. -1.
        -11    1    4    4    0    0 -0.54098702473E+02  0.47497531798E+00 -0.48515438911E+02  0.72668033023E+02  0.00000000000E+00 0.  1.
         11    1    4    4    0    0  0.20746134384E+02  0.39675010807E+02 -0.60322223142E+01  0.45176280064E+02  0.00000000000E+00 0. -1.
          1    1    1    2  501    0  0.49613026331E+02 -0.92115396195E+02  0.95107158774E+02  0.14139331755E+03  0.00000000000E+00 0. -1.
<scales pt_clust_5="13000.00000" pt_clust_6="13000.00000" pt_clust_7="13000.00000" pt_clust_8="13000.00000" pt_clust_9="13000.00000"></scales>
<clustering>
<clus scale="   83.154">  5  6 -1 -1</clus>
<clus scale="   90.484">  7  8 -1 -1</clus>
<clus scale="   99.395">  2  5  1 -1</clus>
<clus scale="   93.336">  7  9 -1 -1</clus>
<clus scale="  256.045">  1  5  2 -1</clus>
</clustering>
</event>
<event>
 9    2  0.3707658E-005  0.4243788E+03  0.7546771E-02  0.1041454E+00
          2   -1    0    0  502    0 -0.00000000000E+00  0.00000000000E+00  0.56089612803E+03  0.56089612803E+03  0.00000000000E+00 0. -1.
         21   -1    0    0  501  502  0.00000000000E+00 -0.00000000000E+00 -0.43813019527E+03  0.43813019527E+03  0.00000000000E+00 0. -1.
         24    2    1    2    0    0  0.32679430001E+03  0.11932084195E+03  0.36411401809E+03  0.51081916992E+03  0.85587547846E+02 0.  0.
         23    2    1    2    0    0 -0.68781874880E+02 -0.30739239609E+02 -0.42889811877E+01  0.12680138329E+03  0.10190362251E+03 0.  0.
        -13    1    3    3    0    0  0.37595004549E+02  0.54471143826E+01  0.92718755283E+01  0.39102724943E+02  0.00000000000E+00 0.  1.
         14    1    3    3    0    0  0.28919929547E+03  0.11387372757E+03  0.35484214256E+03  0.47171644498E+03  0.00000000000E+00 0. -1.
        -13    1    4    4    0    0  0.39180458960E+01  0.24040907193E+02  0.21178528905E+02  0.32277645343E+02  0.00000000000E+00 0.  1.
         13    1    4    4    0    0 -0.72699920776E+02 -0.54780146802E+02 -0.25467510093E+02  0.94523737943E+02  0.00000000000E+00 0. -1.
          1    1    1    2  501    0 -0.25801242513E+03 -0.88581602346E+02 -0.23705910414E+03  0.36140577009E+03  0.00000000000E+00 0. -1.
<scales pt_clust_5="13000.00000" pt_clust_6="13000.00000" pt_clust_7="13000.00000" pt_clust_8="13000.00000" pt_clust_9="13000.00000"></scales>
<clustering>
<clus scale="   85.588">  5  6 -1 -1</clus>
<clus scale="  101.904">  7  8 -1 -1</clus>
<clus scale="  272.795">  7  9 -1 -1</clus>
<clus scale="  358.270">  1  5  2 -1</clus>
<clus scale="  424.379">  2  5  1 -1</clus>
</clustering>
</event>
<event>
 9    2  0.3707658E-005  0.9491496E+03  0.7546771E-02  0.1009161E+00
          2   -1    0    0  502    0 -0.00000000000E+00  0.00000000000E+00  0.75330264118E+03  0.75330264118E+03  0.00000000000E+00 0. -1.
         21   -1    0    0  501  502  0.00000000000E+00 -0.00000000000E+00 -0.35496366194E+03  0.35496366194E+03  0.00000000000E+00 0. -1.
         24    2    1    2    0    0  0.24424922182E+02  0.82529062835E+01  0.44626168299E+02  0.95350848310E+02  0.80222204474E+02 0.  0.
         23    2    1    2    0    0 -0.20470973094E+03  0.11983842022E+03 -0.25834871603E+03  0.36212415723E+03  0.90125053534E+02 0.  0.
        -13    1    3    3    0    0  0.25795954127E+02 -0.30911524490E+02  0.38462824248E+02  0.55680718788E+02  0.00000000000E+00 0.  1.
         14    1    3    3    0    0 -0.13710319458E+01  0.39164430773E+02  0.61633440506E+01  0.39670129522E+02  0.00000000000E+00 0. -1.
        -13    1    4    4    0    0 -0.19418579442E+02  0.50307272893E+02 -0.38131718543E+02  0.66044915721E+02  0.00000000000E+00 0.  1.
         13    1    4    4    0    0 -0.18529115150E+03  0.69531147328E+02 -0.22021699749E+03  0.29607924151E+03  0.00000000000E+00 0. -1.
          1    1    1    2  501    0  0.18028480876E+03 -0.12809132650E+03  0.61206152697E+03  0.65079129757E+03  0.00000000000E+00 0. -1.
<scales pt_clust_5="13000.00000" pt_clust_6="13000.00000" pt_clust_7="13000.00000" pt_clust_8="13000.00000" pt_clust_9="13000.00000"></scales>
<clustering>
<clus scale="   80.222">  5  6 -1 -1</clus>
<clus scale="   84.263">  1  5  2 -1</clus>
<clus scale="   90.125">  7  8 -1 -1</clus>
<clus scale="  235.928">  7  9 -1 -1</clus>
<clus scale="  949.150">  2  5  1 -1</clus>
</clustering>
</event>
<event>
 9    2  0.3707658E-005  0.2426597E+03  0.7546771E-02  0.1132215E+00
          2   -1    0    0  502    0 -0.00000000000E+00  0.00000000000E+00  0.47366403801E+03  0.47366403801E+03  0.00000000000E+00 0. -1.
         21   -1    0    0  501  502  0.00000000000E+00 -0.00000000000E+00 -0.92565169525E+02  0.92565169525E+02  0.00000000000E+00 0. -1.
         24    2    1    2    0    0  0.14862878371E+03  0.25250788890E+02  0.11376579582E+03  0.20518805445E+03  0.80195783582E+02 0.  0.
         23    2    1    2    0    0 -0.44907618293E+02  0.11966615269E+02  0.21627210319E+03  0.23958977215E+03  0.92031202534E+02 0.  0.
        -11    1    3    3    0    0  0.37565384481E+02 -0.28551462313E+02  0.35592721023E+02  0.59103180128E+02  0.00000000000E+00 0.  1.
         12    1    3    3    0    0  0.11106339923E+03  0.53802251203E+02  0.78173074792E+02  0.14608487432E+03  0.00000000000E+00 0. -1.
        -11    1    4    4    0    0 -0.50206458670E+02  0.46165862517E+02  0.13482610796E+03  0.15109617712E+03  0.00000000000E+00 0.  1.
         11    1    4    4    0    0  0.52988403774E+01 -0.34199247249E+02  0.81445995236E+02  0.88493595032E+02  0.00000000000E+00 0. -1.
          1    1    1    2  501    0 -0.10372116541E+03 -0.37217404159E+02  0.51060969480E+02  0.12145138094E+03  0.00000000000E+00 0. -1.
<scales pt_clust_5="13000.00000" pt_clust_6="13000.00000" pt_clust_7="13000.00000" pt_clust_8="13000.00000" pt_clust_9="13000.00000"></scales>
<clustering>
<clus scale="   80.196">  5  6 -1 -1</clus>
<clus scale="   92.031">  7  8 -1 -1</clus>
<clus scale="  110.196">  7  9 -1 -1</clus>
<clus scale="  170.762">  1  5  2 -1</clus>
<clus scale="  242.660">  2  5  1 -1</clus>
</clustering>
</event>
<event>
 9    2  0.3707658E-005  0.2675868E+03  0.7546771E-02  0.1129470E+00
          2   -1    0    0  502    0 -0.00000000000E+00  0.00000000000E+00  0.13739929016E+04  0.13739929016E+04  0.00000000000E+00 0. -1.
         21   -1    0    0  501  502  0.00000000000E+00 -0.00000000000E+00 -0.31026012764E+02  0.31026012764E+02  0.00000000000E+00 0. -1.
         24    2    1    2    0    0  0.10759752738E+03  0.31274246624E+02  0.32326708052E+03  0.35079388920E+03  0.77456058208E+02 0.  0.
         23    2    1    2    0    0  0.49212548416E+02 -0.24006863625E+02  0.32377145873E+03  0.34081176310E+03  0.91249635375E+02 0.  0.
        -13    1    3    3    0    0  0.32411452234E+02 -0.18315484621E+02  0.45500912035E+02  0.58790239061E+02  0.00000000000E+00 0.  1.
         14    1    3    3    0    0  0.75186075147E+02  0.49589731245E+02  0.27776616848E+03  0.29200365014E+03  0.00000000000E+00 0. -1.
        -11    1    4    4    0    0  0.13976025463E+01 -0.42599392370E+02  0.70388274432E+02  0.82287123542E+02  0.00000000000E+00 0. -1.
         11    1    4    4    0    0  0.47814945869E+02  0.18592528745E+02  0.25338318430E+03  0.25852463956E+03  0.00000000000E+00 0.  1.
          1    1    1    2  501    0 -0.15681007580E+03 -0.72673829986E+01  0.69592834955E+03  0.71341326203E+03  0.00000000000E+00 0. -1.
<scales pt_clust_5="13000.00000" pt_clust_6="13000.00000" pt_clust_7="13000.00000" pt_clust_8="13000.00000" pt_clust_9="13000.00000"></scales>
<clustering>
<clus scale="   77.456">  5  6 -1 -1</clus>
<clus scale="   91.250">  7  8 -1 -1</clus>
<clus scale="  136.216">  1  5  2 -1</clus>
<clus scale="   84.852">  7  9 -1 -1</clus>
<clus scale="  267.587">  2  5  1 -1</clus>
</clustering>
</event>
<event>
 9    2  0.3707658E-005  0.1785475E+03  0.7546771E-02  0.1188152E+00
          2   -1    0    0  502    0 -0.00000000000E+00  0.00000000000E+00  0.31016224147E+03  0.31016224147E+03  0.00000000000E+00 0. -1.
         21   -1    0    0  501  502  0.00000000000E+00 -0.00000000000E+00 -0.76291001057E+02  0.76291001057E+02  0.00000000000E+00 0.  1.
         24    2    1    2    0    0 -0.16514940200E+02 -0.84228725145E+02  0.40784891257E+02  0.12346744083E+03  0.78826265940E+02 0.  0.
         23    2    1    2    0    0  0.81830631393E+01  0.53072861544E+00  0.12121847675E+03  0.15235232628E+03  0.91924251539E+02 0.  0.
        -11    1    3    3    0    0 -0.16233008027E+02 -0.52736221342E+02 -0.16931708836E+02  0.57717435452E+02  0.00000000000E+00 0.  1.
         12    1    3    3    0    0 -0.28193217294E+00 -0.31492503802E+02  0.57716600093E+02  0.65750005382E+02  0.00000000000E+00 0. -1.
        -11    1    4    4    0    0 -0.14960816610E+02  0.36962214947E+02  0.91891636783E+02  0.10017037625E+03  0.00000000000E+00 0.  1.
         11    1    4    4    0    0  0.23143879749E+02 -0.36431486331E+02  0.29326839969E+02  0.52181950028E+02  0.00000000000E+00 0. -1.
          1    1    1    2  501    0  0.83318770605E+01  0.83697996529E+02  0.71867872404E+02  0.11063347541E+03  0.00000000000E+00 0. -1.
<scales pt_clust_5="13000.00000" pt_clust_6="13000.00000" pt_clust_7="13000.00000" pt_clust_8="13000.00000" pt_clust_9="13000.00000"></scales>
<clustering>
<clus scale="   78.826">  5  6 -1 -1</clus>
<clus scale="   91.924">  7  8 -1 -1</clus>
<clus scale="   84.112">  7  9 -1 -1</clus>
<clus scale="  116.537">  1  5  2 -1</clus>
<clus scale="  178.547">  2  5  1 -1</clus>
</clustering>
</event>
<event>
 9    2  0.3707658E-005  0.2688396E+03  0.7546771E-02  0.1150042E+00
          2   -1    0    0  502    0 -0.00000000000E+00  0.00000000000E+00  0.93708886010E+03  0.93708886010E+03  0.00000000000E+00 0. -1.
         21   -1    0    0  501  502  0.00000000000E+00 -0.00000000000E+00 -0.38342109975E+02  0.38342109975E+02  0.00000000000E+00 0. -1.
         24    2    1    2    0    0  0.41401241192E+01  0.20799784099E+02  0.40567099742E+03  0.41382753485E+03  0.78958842467E+02 0.  0.
         23    2    1    2    0    0  0.44419816451E+02  0.92653128648E+02  0.22313258782E+03  0.26478877335E+03  0.98829248717E+02 0.  0.
        -11    1    3    3    0    0 -0.48121560393E+01 -0.27680127160E+02  0.88631368635E+02  0.92977770415E+02  0.00000000000E+00 0.  1.
         12    1    3    3    0    0  0.89522801585E+01  0.48479911259E+02  0.31703962878E+03  0.32084976443E+03  0.00000000000E+00 0. -1.
        -11    1    4    4    0    0  0.48599328103E+02  0.48853613925E+01  0.11839770241E+03  0.12807723211E+03  0.00000000000E+00 0.  1.
         11    1    4    4    0    0 -0.41795116523E+01  0.87767767256E+02  0.10473488541E+03  0.13671154124E+03  0.00000000000E+00 0. -1.
          1    1    1    2  501    0 -0.48559940570E+02 -0.11345291275E+03  0.26994316489E+03  0.29681466188E+03  0.00000000000E+00 0. -1.
<scales pt_clust_5="13000.00000" pt_clust_6="13000.00000" pt_clust_7="13000.00000" pt_clust_8="13000.00000" pt_clust_9="13000.00000"></scales>
<clustering>
<clus scale="   78.959">  5  6 -1 -1</clus>
<clus scale="   81.757">  1  5  2 -1</clus>
<clus scale="   98.829">  7  8 -1 -1</clus>
<clus scale="  112.282">  7  9 -1 -1</clus>
<clus scale="  268.840">  2  5  1 -1</clus>
</clustering>
</event>
<event>
 9    2  0.3707658E-005  0.2951316E+03  0.7546771E-02  0.1090719E+00
         21   -1    0    0  501  502  0.00000000000E+00  0.00000000000E+00  0.21645695956E+03  0.21645695956E+03  0.00000000000E+00 0. -1.
          2   -1    0    0  502    0 -0.00000000000E+00 -0.00000000000E+00 -0.40156028406E+03  0.40156028406E+03  0.00000000000E+00 0. -1.
         24    2    1    2    0    0 -0.49746967860E+02 -0.25530825759E+03 -0.17278443670E+03  0.32262863772E+03  0.81103077036E+02 0.  0.
         23    2    1    2    0    0  0.14766439233E+02  0.11759116465E+03  0.12864245371E+02  0.15108397927E+03  0.92817833690E+02 0.  0.
        -11    1    3    3    0    0  0.17497353292E+02 -0.10398410238E+03 -0.51364919162E+02  0.11729111577E+03  0.00000000000E+00 0.  1.
         12    1    3    3    0    0 -0.67244321152E+02 -0.15132415521E+03 -0.12141951754E+03  0.20533752194E+03  0.00000000000E+00 0. -1.
        -13    1    4    4    0    0 -0.33902797106E+02  0.54844143974E+02  0.27915412441E+02  0.70260586615E+02  0.00000000000E+00 0.  1.
         13    1    4    4    0    0  0.48669236339E+02  0.62747020678E+02 -0.15051167070E+02  0.80823392653E+02  0.00000000000E+00 0. -1.
          1    1    1    2  501    0  0.34980528626E+02  0.13771709294E+03 -0.25183133174E+02  0.14430462663E+03  0.00000000000E+00 0. -1.
<scales pt_clust_5="13000.00000" pt_clust_6="13000.00000" pt_clust_7="13000.00000" pt_clust_8="13000.00000" pt_clust_9="13000.00000"></scales>
<clustering>
<clus scale="   81.103">  5  6 -1 -1</clus>
<clus scale="   92.818">  7  8 -1 -1</clus>
<clus scale="  142.090">  7  9 -1 -1</clus>
<clus scale="  272.461">  2  5  1 -1</clus>
<clus scale="  295.132">  1  5  2 -1</clus>
</clustering>
</event>
<event>
 9    2  0.3707658E-005  0.4355219E+03  0.7546771E-02  0.1081789E+00
          2   -1    0    0  502    0 -0.00000000000E+00  0.00000000000E+00  0.41170906073E+03  0.41170906073E+03  0.00000000000E+00 0. -1.
         21   -1    0    0  501  502  0.00000000000E+00 -0.00000000000E+00 -0.21260929143E+03  0.21260929143E+03  0.00000000000E+00 0.  1.
         24    2    1    2    0    0  0.48479406764E+02  0.51347854958E+02 -0.54269994963E+02  0.12045765284E+03  0.81104615687E+02 0.  0.
         23    2    1    2    0    0  0.16137085999E+03  0.28914438276E+02  0.39738908367E+02  0.19383277677E+03  0.95474422309E+02 0.  0.
        -11    1    3    3    0    0 -0.55552545291E+01  0.42090672250E+02 -0.49818851882E+02  0.65455355366E+02  0.00000000000E+00 0.  1.
         12    1    3    3    0    0  0.54034661293E+02  0.92571827083E+01 -0.44511430810E+01  0.55002297475E+02  0.00000000000E+00 0. -1.
        -11    1    4    4    0    0  0.10082537328E+03 -0.27703709572E+02  0.36927610867E+02  0.11089138770E+03  0.00000000000E+00 0.  1.
         11    1    4    4    0    0  0.60545486710E+02  0.56618147848E+02  0.28112974998E+01  0.82941389067E+02  0.00000000000E+00 0. -1.
          1    1    1    2  501    0 -0.20985026676E+03 -0.80262293234E+02  0.21363085589E+03  0.31002792255E+03  0.00000000000E+00 0. -1.
<scales pt_clust_5="13000.00000" pt_clust_6="13000.00000" pt_clust_7="13000.00000" pt_clust_8="13000.00000" pt_clust_9="13000.00000"></scales>
<clustering>
<clus scale="   81.105">  5  6 -1 -1</clus>
<clus scale="   95.474">  7  8 -1 -1</clus>
<clus scale="  107.540">  1  5  2 -1</clus>
<clus scale="  181.915">  7  9 -1 -1</clus>
<clus scale="  435.522">  2  5  1 -1</clus>
</clustering>
</event>
<event>
 9    2  0.3707658E-005  0.3273412E+03  0.7546771E-02  0.1123037E+00
         21   -1    0    0  501  502  0.00000000000E+00  0.00000000000E+00  0.74669771478E+02  0.74669771478E+02  0.00000000000E+00 0. -1.
          2   -1    0    0  502    0 -0.00000000000E+00 -0.00000000000E+00 -0.66285156402E+03  0.66285156402E+03  0.00000000000E+00 0. -1.
         24    2    1    2    0    0  0.26967033326E+02  0.11402101637E+02 -0.25896233687E+03  0.27326091262E+03  0.82175456421E+02 0.  0.
         23    2    1    2    0    0  0.11640549886E+03  0.26044212025E+02 -0.64069795064E+02  0.16051340329E+03  0.86203670740E+02 0.  0.
        -13    1    3    3    0    0 -0.55101804673E+01  0.30962560226E+02 -0.39219091288E+02  0.50271058732E+02  0.00000000000E+00 0.  1.
         14    1    3    3    0    0  0.32477213794E+02 -0.19560458590E+02 -0.21974324559E+03  0.22298985389E+03  0.00000000000E+00 0. -1.
        -13    1    4    4    0    0  0.74848880661E+01 -0.21043780951E+02 -0.29336370864E+02  0.36871220776E+02  0.00000000000E+00 0.  1.
         13    1    4    4    0    0  0.10892061080E+03  0.47087992975E+02 -0.34733424200E+02  0.12364218251E+03  0.00000000000E+00 0. -1.
          1    1    1    2  501    0 -0.14337253219E+03 -0.37446313661E+02 -0.26514966060E+03  0.30374701959E+03  0.00000000000E+00 0. -1.
<scales pt_clust_5="13000.00000" pt_clust_6="13000.00000" pt_clust_7="13000.00000" pt_clust_8="13000.00000" pt_clust_9="13000.00000"></scales>
<clustering>
<clus scale="   82.175">  5  6 -1 -1</clus>
<clus scale="   86.204">  7  8 -1 -1</clus>
<clus scale="   87.236">  2  5  1 -1</clus>
<clus scale="  127.445">  7  9 -1 -1</clus>
<clus scale="  327.341">  1  5  2 -1</clus>
</clustering>
</event>
<event>
 9    2  0.3707658E-005  0.1609851E+03  0.7546771E-02  0.1215667E+00
         21   -1    0    0  501  502  0.00000000000E+00  0.00000000000E+00  0.13845186089E+02  0.13845186089E+02  0.00000000000E+00 0. -1.
          2   -1    0    0  502    0 -0.00000000000E+00 -0.00000000000E+00 -0.11340541116E+04  0.11340541116E+04  0.00000000000E+00 0. -1.
         24    2    1    2    0    0  0.93953934685E+01  0.21862211242E+02 -0.46659172591E+03  0.47474877098E+03  0.84334614284E+02 0.  0.
         23    2    1    2    0    0  0.36650948775E+02  0.71368364303E+01 -0.31851148176E+03  0.33365523582E+03  0.92097914735E+02 0.  0.
        -11    1    3    3    0    0  0.16417513697E+02 -0.21390230269E+02 -0.59731425940E+02  0.65535638791E+02  0.00000000000E+00 0.  1.
         12    1    3    3    0    0 -0.70221202283E+01  0.43252441511E+02 -0.40686029997E+03  0.40921313219E+03  0.00000000000E+00 0. -1.
        -13    1    4    4    0    0 -0.27971039888E+02  0.18465606390E+00 -0.49041160951E+02  0.56457494079E+02  0.00000000000E+00 0.  1.
         13    1    4    4    0    0  0.64621988664E+02  0.69521803664E+01 -0.26947032081E+03  0.27719774175E+03  0.00000000000E+00 0. -1.
          1    1    1    2  501    0 -0.46046342244E+02 -0.28999047673E+02 -0.33510571781E+03  0.33949529085E+03  0.00000000000E+00 0. -1.
<scales pt_clust_5="13000.00000" pt_clust_6="13000.00000" pt_clust_7="13000.00000" pt_clust_8="13000.00000" pt_clust_9="13000.00000"></scales>
<clustering>
<clus scale="   84.335">  5  6 -1 -1</clus>
<clus scale="   87.627">  2  5  1 -1</clus>
<clus scale="   92.098">  7  8 -1 -1</clus>
<clus scale="   44.977">  7  9 -1 -1</clus>
<clus scale="  160.985">  1  5  2 -1</clus>
</clustering>
</event>
<event>
 9    2  0.3707658E-005  0.2321571E+03  0.7546771E-02  0.1158317E+00
          2   -1    0    0  502    0 -0.00000000000E+00  0.00000000000E+00  0.29846455968E+03  0.29846455968E+03  0.00000000000E+00 0. -1.
         21   -1    0    0  501  502  0.00000000000E+00 -0.00000000000E+00 -0.17493238719E+03  0.17493238719E+03  0.00000000000E+00 0.  1.
         24    2    1    2    0    0 -0.49202196067E+02 -0.40689316824E+02  0.20274908199E+03  0.22809668926E+03  0.82731087256E+02 0.  0.
         23    2    1    2    0    0 -0.12855455470E+02  0.22304306339E+02  0.41932157164E+02  0.10794576341E+03  0.96079327733E+02 0.  0.
        -11    1    3    3    0    0  0.19976963995E+02 -0.18991281268E+02  0.29946609523E+02  0.40700703637E+02  0.00000000000E+00 0.  1.
         12    1    3    3    0    0 -0.69179160061E+02 -0.21698035556E+02  0.17280247247E+03  0.18739598562E+03  0.00000000000E+00 0. -1.
        -11    1    4    4    0    0 -0.13805450612E+02  0.58282859276E+02  0.11890540174E+02  0.61064450359E+02  0.00000000000E+00 0.  1.
         11    1    4    4    0    0  0.94999514286E+00 -0.35978552937E+02  0.30041616990E+02  0.46881313053E+02  0.00000000000E+00 0. -1.
          1    1    1    2  501    0  0.62057651536E+02  0.18385010485E+02 -0.12114906667E+03  0.13735449421E+03  0.00000000000E+00 0. -1.
<scales pt_clust_5="13000.00000" pt_clust_6="13000.00000" pt_clust_7="13000.00000" pt_clust_8="13000.00000" pt_clust_9="13000.00000"></scales>
<clustering>
<clus scale="   82.731">  5  6 -1 -1</clus>
<clus scale="   96.079">  7  8 -1 -1</clus>
<clus scale="   64.724">  7  9 -1 -1</clus>
<clus scale="  104.503">  1  5  2 -1</clus>
<clus scale="  232.157">  2  5  1 -1</clus>
</clustering>
</event>
<event>
 9    2  0.3707658E-005  0.1344273E+03  0.7546771E-02  0.1241782E+00
         21   -1    0    0  501  502  0.00000000000E+00  0.00000000000E+00  0.48437681723E+02  0.48437681723E+02  0.00000000000E+00 0.  1.
         -3   -1    0    0    0  501 -0.00000000000E+00 -0.00000000000E+00 -0.26506041703E+03  0.26506041703E+03  0.00000000000E+00 0.  1.
         24    2    1    2    0    0  0.72634245263E+01  0.32383852690E+02 -0.55897677083E+02  0.10396710061E+03  0.81136529721E+02 0.  0.
         23    2    1    2    0    0 -0.13714257646E+02 -0.36751600869E-01 -0.90562646008E+02  0.13200221455E+03  0.95052141383E+02 0.  0.
        -13    1    3    3    0    0 -0.16236512288E+02  0.37187202068E+02 -0.66372786546E+02  0.77793695906E+02  0.00000000000E+00 0.  1.
         14    1    3    3    0    0  0.23499936815E+02 -0.48033493779E+01  0.10475109463E+02  0.26173404704E+02  0.00000000000E+00 0. -1.
        -13    1    4    4    0    0 -0.40244526538E+02  0.11603081778E+02 -0.56253476165E+01  0.42259885930E+02  0.00000000000E+00 0. -1.
         13    1    4    4    0    0  0.26530268893E+02 -0.11639833379E+02 -0.84937298392E+02  0.89742328623E+02  0.00000000000E+00 0.  1.
         -4    1    1    2    0  502  0.64508331193E+01 -0.32347101089E+02 -0.70162412217E+02  0.77528783589E+02  0.00000000000E+00 0.  1.
<scales pt_clust_5="13000.00000" pt_clust_6="13000.00000" pt_clust_7="13000.00000" pt_clust_8="13000.00000" pt_clust_9="13000.00000"></scales>
<clustering>
<clus scale="   81.137">  5  6 -1 -1</clus>
<clus scale="   87.662">  2  5  1 -1</clus>
<clus scale="   95.052">  7  8 -1 -1</clus>
<clus scale="   21.561">  7  9 -1 -1</clus>
<clus scale="  134.427">  1  5  2 -1</clus>
</clustering>
</event>
<event>
 9    2  0.3707658E-005  0.4730904E+03  0.7546771E-02  0.1067272E+00
          2   -1    0    0  502    0 -0.00000000000E+00  0.00000000000E+00  0.48324856883E+03  0.48324856883E+03  0.00000000000E+00 0. -1.
         21   -1    0    0  501  502  0.00000000000E+00 -0.00000000000E+00 -0.18514060507E+03  0.18514060507E+03  0.00000000000E+00 0. -1.
         24    2    1    2    0    0  0.77883769971E+02  0.54950601712E+02  0.74223774759E+02  0.14499766048E+03  0.80185426057E+02 0.  0.
         23    2    1    2    0    0 -0.21419822580E+03  0.65017030187E+02  0.24016654695E+03  0.34107591137E+03  0.92437616216E+02 0.  0.
        -11    1    3    3    0    0  0.35879568105E+02 -0.98733202260E+01  0.53237799308E+02  0.64954515893E+02  0.00000000000E+00 0.  1.
         12    1    3    3    0    0  0.42004201866E+02  0.64823921938E+02  0.20985975450E+02  0.80043144587E+02  0.00000000000E+00 0. -1.
        -13    1    4    4    0    0 -0.87683699379E+02  0.54613679444E+02  0.56303281483E+02  0.11764839406E+03  0.00000000000E+00 0.  1.
         13    1    4    4    0    0 -0.12651452642E+03  0.10403350743E+02  0.18386326547E+03  0.22342751731E+03  0.00000000000E+00 0. -1.
          1    1    1    2  501    0  0.13631445583E+03 -0.11996763190E+03 -0.16282357954E+02  0.18231560205E+03  0.00000000000E+00 0. -1.
<scales pt_clust_5="13000.00000" pt_clust_6="13000.00000" pt_clust_7="13000.00000" pt_clust_8="13000.00000" pt_clust_9="13000.00000"></scales>
<clustering>
<clus scale="   80.185">  5  6 -1 -1</clus>
<clus scale="   92.438">  7  8 -1 -1</clus>
<clus scale="  124.560">  1  5  2 -1</clus>
<clus scale="  187.645">  7  9 -1 -1</clus>
<clus scale="  473.090">  2  5  1 -1</clus>
</clustering>
</event>
<event>
 9    2  0.3707658E-005  0.2030013E+03  0.7546771E-02  0.1176252E+00
          2   -1    0    0  502    0 -0.00000000000E+00  0.00000000000E+00  0.36399397948E+03  0.36399397948E+03  0.00000000000E+00 0. -1.
         21   -1    0    0  501  502  0.00000000000E+00 -0.00000000000E+00 -0.10832396470E+03  0.10832396470E+03  0.00000000000E+00 0. -1.
         24    2    1    2    0    0  0.26150965236E+02  0.59273884270E+02 -0.42261542100E+02  0.11180064826E+03  0.80722243968E+02 0.  0.
         23    2    1    2    0    0 -0.53974284788E+02 -0.99965178526E+02  0.26126308530E+03  0.29908037422E+03  0.91018735263E+02 0.  0.
        -11    1    3    3    0    0  0.41936441082E+02  0.58944233816E+02 -0.64065387293E+01  0.72623216186E+02  0.00000000000E+00 0.  1.
         12    1    3    3    0    0 -0.15785475846E+02  0.32965045438E+00 -0.35855003371E+02  0.39177432073E+02  0.00000000000E+00 0. -1.
        -13    1    4    4    0    0 -0.41564264215E+02 -0.81274127136E+01  0.36308798114E+02  0.55785049230E+02  0.00000000000E+00 0.  1.
         13    1    4    4    0    0 -0.12410020573E+02 -0.91837765812E+02  0.22495428719E+03  0.24329532499E+03  0.00000000000E+00 0. -1.
          1    1    1    2  501    0  0.27823319551E+02  0.40691294256E+02  0.36668471584E+02  0.61436921695E+02  0.00000000000E+00 0. -1.
<scales pt_clust_5="13000.00000" pt_clust_6="13000.00000" pt_clust_7="13000.00000" pt_clust_8="13000.00000" pt_clust_9="13000.00000"></scales>
<clustering>
<clus scale="   80.722">  5  6 -1 -1</clus>
<clus scale="   91.019">  7  8 -1 -1</clus>
<clus scale="   49.294">  7  9 -1 -1</clus>
<clus scale="  103.505">  1  5  2 -1</clus>
<clus scale="  203.001">  2  5  1 -1</clus>
</clustering>
</event>
<event>
 9    2  0.3707658E-005  0.4917840E+03  0.7546771E-02  0.1068416E+00
         21   -1    0    0  501  502  0.00000000000E+00  0.00000000000E+00  0.18678834435E+03  0.18678834435E+03  0.00000000000E+00 0.  1.
         -3   -1    0    0    0  501 -0.00000000000E+00 -0.00000000000E+00 -0.48941528547E+03  0.48941528547E+03  0.00000000000E+00 0.  1.
         24    2    1    2    0    0  0.69313672855E+02  0.83507444052E+01 -0.91056284443E+02  0.14084056234E+03  0.81674334316E+02 0.  0.
         23    2    1    2    0    0  0.16253419215E+03 -0.83010157673E+02  0.11727246231E+02  0.20492485247E+03  0.92458731117E+02 0.  0.
        -11    1    3    3    0    0  0.78430900973E+02  0.29252298725E+02 -0.78747036145E+02  0.11492692857E+03  0.00000000000E+00 0.  1.
         12    1    3    3    0    0 -0.91172281173E+01 -0.20901554319E+02 -0.12309248297E+02  0.25913633770E+02  0.00000000000E+00 0. -1.
        -13    1    4    4    0    0  0.11659545640E+03 -0.72667042191E+02 -0.31558039215E+02  0.14096421288E+03  0.00000000000E+00 0.  1.
         13    1    4    4    0    0  0.45938735750E+02 -0.10343115481E+02  0.43285285446E+02  0.63960639586E+02  0.00000000000E+00 0. -1.
         -4    1    1    2    0  502 -0.23184786501E+03  0.74659413267E+02 -0.22329790291E+03  0.33043821501E+03  0.00000000000E+00 0.  1.
<scales pt_clust_5="13000.00000" pt_clust_6="13000.00000" pt_clust_7="13000.00000" pt_clust_8="13000.00000" pt_clust_9="13000.00000"></scales>
<clustering>
<clus scale="   81.674">  5  6 -1 -1</clus>
<clus scale="   92.459">  7  8 -1 -1</clus>
<clus scale="  107.447">  2  5  1 -1</clus>
<clus scale="  197.746">  7  9 -1 -1</clus>
<clus scale="  491.784">  1  5  2 -1</clus>
</clustering>
</event>
<event>
 9    2  0.3707658E-005  0.8534046E+03  0.7546771E-02  0.9900472E-01
          2   -1    0    0  502    0 -0.00000000000E+00  0.00000000000E+00  0.32711131141E+03  0.32711131141E+03  0.00000000000E+00 0. -1.
         21   -1    0    0  501  502  0.00000000000E+00 -0.00000000000E+00 -0.86752732145E+03  0.86752732145E+03  0.00000000000E+00 0.  1.
         24    2    1    2    0    0 -0.16261837793E+03  0.10752738350E+03 -0.11582088938E+03  0.24144375796E+03  0.82907989963E+02 0.  0.
         23    2    1    2    0    0 -0.30095978528E+03 -0.59294996849E+01  0.19544272189E+01  0.31509507064E+03  0.93108175989E+02 0.  0.
        -13    1    3    3    0    0 -0.16079753632E+03  0.10325314458E+03 -0.83076971622E+02  0.20837188574E+03  0.00000000000E+00 0.  1.
         14    1    3    3    0    0 -0.18208416130E+01  0.42742389231E+01 -0.32743917758E+02  0.33071872229E+02  0.00000000000E+00 0. -1.
        -13    1    4    4    0    0 -0.25622781517E+03 -0.13655884866E+02 -0.31761059908E+02  0.25854968843E+03  0.00000000000E+00 0.  1.
         13    1    4    4    0    0 -0.44731970104E+02  0.77263851815E+01  0.33715487127E+02  0.56545382213E+02  0.00000000000E+00 0. -1.
          1    1    1    2  501    0  0.46357816321E+03 -0.10159788382E+03 -0.42654954788E+03  0.63809980426E+03  0.00000000000E+00 0. -1.
<scales pt_clust_5="13000.00000" pt_clust_6="13000.00000" pt_clust_7="13000.00000" pt_clust_8="13000.00000" pt_clust_9="13000.00000"></scales>
<clustering>
<clus scale="   82.908">  5  6 -1 -1</clus>
<clus scale="   93.108">  7  8 -1 -1</clus>
<clus scale="  211.851">  1  5  2 -1</clus>
<clus scale="  402.777">  7  9 -1 -1</clus>
<clus scale="  853.405">  2  5  1 -1</clus>
</clustering>
</event>
<event>
 9    2  0.3707658E-005  0.2165452E+03  0.7546771E-02  0.1171974E+00
         21   -1    0    0  501  502  0.00000000000E+00  0.00000000000E+00  0.58770014404E+02  0.58770014404E+02  0.00000000000E+00 0. -1.
          4   -1    0    0  502    0 -0.00000000000E+00 -0.00000000000E+00 -0.66826643942E+03  0.66826643942E+03  0.00000000000E+00 0. -1.
         24    2    1    2    0    0  0.39123201127E+02  0.29778955917E+02 -0.16072366945E+02  0.95337214196E+02  0.80084033049E+02 0.  0.
         23    2    1    2    0    0  0.52171081062E+02 -0.90694708441E+01 -0.42841645724E+03  0.44198620089E+03  0.94905552789E+02 0.  0.
        -13    1    3    3    0    0  0.26672024283E+02  0.17310665557E+02 -0.48754808530E+02  0.58207279409E+02  0.00000000000E+00 0.  1.
         14    1    3    3    0    0  0.12451176843E+02  0.12468290360E+02  0.32682441585E+02  0.37129934786E+02  0.00000000000E+00 0. -1.
        -13    1    4    4    0    0  0.93437890725E+01  0.40259024938E+02 -0.12638682982E+03  0.13297265221E+03  0.00000000000E+00 0.  1.
         13    1    4    4    0    0  0.42827291989E+02 -0.49328495782E+02 -0.30202962741E+03  0.30901354868E+03  0.00000000000E+00 0. -1.
          3    1    1    2  501    0 -0.91294282188E+02 -0.20709485073E+02 -0.16500760083E+03  0.18971303873E+03  0.00000000000E+00 0. -1.
<scales pt_clust_5="13000.00000" pt_clust_6="13000.00000" pt_clust_7="13000.00000" pt_clust_8="13000.00000" pt_clust_9="13000.00000"></scales>
<clustering>
<clus scale="   80.084">  5  6 -1 -1</clus>
<clus scale="   93.973">  2  5  1 -1</clus>
<clus scale="   94.906">  7  8 -1 -1</clus>
<clus scale="   80.875">  7  9 -1 -1</clus>
<clus scale="  216.545">  1  5  2 -1</clus>
</clustering>
</event>
<event>
 9    2  0.3707658E-005  0.1474518E+03  0.7546771E-02  0.1231588E+00
          2   -1    0    0  502    0 -0.00000000000E+00  0.00000000000E+00  0.14570739192E+03  0.14570739192E+03  0.00000000000E+00 0. -1.
         21   -1    0    0  501  502  0.00000000000E+00 -0.00000000000E+00 -0.11578190998E+03  0.11578190998E+03  0.00000000000E+00 0.  1.
         24    2    1    2    0    0  0.97801555937E+01 -0.12635030497E+02  0.71118904946E+02  0.10839150611E+03  0.80221720986E+02 0.  0.
         23    2    1    2    0    0  0.22154074069E+02  0.40076884554E+02 -0.44591537340E+02  0.11085566564E+03  0.90573802659E+02 0.  0.
        -13    1    3    3    0    0 -0.16726250907E+02 -0.38654782974E+02  0.51020396630E+02  0.66159206377E+02  0.00000000000E+00 0.  1.
         14    1    3    3    0    0  0.26506406500E+02  0.26019752478E+02  0.20098508317E+02  0.42232299737E+02  0.00000000000E+00 0. -1.
        -11    1    4    4    0    0  0.86506564335E+01 -0.28030539028E+02 -0.20066076463E+01  0.29403595855E+02  0.00000000000E+00 0. -1.
         11    1    4    4    0    0  0.13503417635E+02  0.68107423582E+02 -0.42584929694E+02  0.81452069783E+02  0.00000000000E+00 0.  1.
          1    1    1    2  501    0 -0.31934229662E+02 -0.27441854057E+02  0.33981143314E+01  0.42242130146E+02  0.00000000000E+00 0. -1.
<scales pt_clust_5="13000.00000" pt_clust_6="13000.00000" pt_clust_7="13000.00000" pt_clust_8="13000.00000" pt_clust_9="13000.00000"></scales>
<clustering>
<clus scale="   80.222">  5  6 -1 -1</clus>
<clus scale="   81.797">  1  5  2 -1</clus>
<clus scale="   90.574">  7  8 -1 -1</clus>
<clus scale="   42.935">  7  9 -1 -1</clus>
<clus scale="  147.452">  2  5  1 -1</clus>
</clustering>
</event>
<event>
 9    2  0.3707658E-005  0.2736032E+03  0.7546771E-02  0.1132298E+00
          2   -1    0    0  502    0 -0.00000000000E+00  0.00000000000E+00  0.14431473097E+03  0.14431473097E+03  0.00000000000E+00 0. -1.
         21   -1    0    0  501  502  0.00000000000E+00 -0.00000000000E+00 -0.27318775462E+03  0.27318775462E+03  0.00000000000E+00 0.  1.
         24    2    1    2    0    0  0.86362195867E+02  0.35997898134E+01 -0.10377579873E+02  0.11934168905E+03  0.81629389436E+02 0.  0.
         23    2    1    2    0    0 -0.93272977638E+02  0.57882376731E+02  0.21877656850E+02  0.14475798337E+03  0.91793376600E+02 0.  0.
        -11    1    3    3    0    0  0.90438366440E+02  0.65534832477E+01  0.16355548167E+02  0.92138755271E+02  0.00000000000E+00 0.  1.
         12    1    3    3    0    0 -0.40761705725E+01 -0.29536934343E+01 -0.26733128040E+02  0.27202933780E+02  0.00000000000E+00 0. -1.
        -11    1    4    4    0    0 -0.42258027431E+02 -0.19209847943E+02 -0.90206989627E+01  0.47287758988E+02  0.00000000000E+00 0.  1.
         11    1    4    4    0    0 -0.51014950207E+02  0.77092224674E+02  0.30898355812E+02  0.97470224385E+02  0.00000000000E+00 0. -1.
          1    1    1    2  501    0  0.69107817702E+01 -0.61482166544E+02 -0.14037310063E+03  0.15340281317E+03  0.00000000000E+00 0. -1.
<scales pt_clust_5="13000.00000" pt_clust_6="13000.00000" pt_clust_7="13000.00000" pt_clust_8="13000.00000" pt_clust_9="13000.00000"></scales>
<clustering>
<clus scale="   81.629">  5  6 -1 -1</clus>
<clus scale="   91.793">  7  8 -1 -1</clus>
<clus scale="   61.869">  7  9 -1 -1</clus>
<clus scale="  118.890">  1  5  2 -1</clus>
<clus scale="  273.603">  2  5  1 -1</clus>
</clustering>
</event>
<event>
 9    2  0.3707658E-005  0.5405096E+03  0.7546771E-02  0.1050022E+00
         21   -1    0    0  501  502  0.00000000000E+00  0.00000000000E+00  0.31100150239E+03  0.31100150239E+03  0.00000000000E+00 0. -1.
          2   -1    0    0  502    0 -0.00000000000E+00 -0.00000000000E+00 -0.58654861963E+03  0.58654861963E+03  0.00000000000E+00 0. -1.
         24    2    1    2    0    0  0.66808581334E+02  0.83710581485E+02  0.15545782926E+03  0.20623551946E+03  0.83036767861E+02 0.  0.
         23    2    1    2    0    0 -0.16779900291E+02  0.19245164039E+03 -0.59572657639E+02  0.22577149294E+03  0.10052197045E+03 0.  0.
        -13    1    3    3    0    0  0.19001554734E+02 -0.15748781192E+02  0.21987249520E+02  0.33053325594E+02  0.00000000000E+00 0.  1.
         14    1    3    3    0    0  0.47807026600E+02  0.99459362677E+02  0.13347057974E+03  0.17318219386E+03  0.00000000000E+00 0. -1.
        -11    1    4    4    0    0 -0.50713670129E+02  0.52622714386E+02 -0.10993450186E+02  0.73904548942E+02  0.00000000000E+00 0.  1.
         11    1    4    4    0    0  0.33933769838E+02  0.13982892600E+03 -0.48579207453E+02  0.15186694400E+03  0.00000000000E+00 0. -1.
          1    1    1    2  501    0 -0.50028681043E+02 -0.27616222187E+03 -0.37143228886E+03  0.46554310963E+03  0.00000000000E+00 0. -1.
<scales pt_clust_5="13000.00000" pt_clust_6="13000.00000" pt_clust_7="13000.00000" pt_clust_8="13000.00000" pt_clust_9="13000.00000"></scales>
<clustering>
<clus scale="   83.037">  5  6 -1 -1</clus>
<clus scale="  100.522">  7  8 -1 -1</clus>
<clus scale="  135.521">  2  5  1 -1</clus>
<clus scale="  213.735">  7  9 -1 -1</clus>
<clus scale="  540.510">  1  5  2 -1</clus>
</clustering>
</event>
<event>
 9    2  0.3707658E-005  0.1810774E+03  0.7546771E-02  0.1199073E+00
          4   -1    0    0  502    0 -0.00000000000E+00  0.00000000000E+00  0.27260036432E+02  0.27260036432E+02  0.00000000000E+00 0. -1.
         21   -1    0    0  501  502  0.00000000000E+00 -0.00000000000E+00 -0.66352848480E+03  0.66352848480E+03  0.00000000000E+00 0.  1.
         24    2    1    2    0    0 -0.14860914203E+02  0.32088927303E+02 -0.20577562873E+03  0.22376273443E+03  0.80471149573E+02 0.  0.
         23    2    1    2    0    0  0.26577330344E+01  0.45449606883E+02 -0.25768113771E+03  0.27722320694E+03  0.91544565215E+02 0.  0.
        -13    1    3    3    0    0 -0.93903114332E+01 -0.26743033421E+02 -0.77908964606E+02  0.82904611158E+02  0.00000000000E+00 0.  1.
         14    1    3    3    0    0 -0.54706027702E+01  0.58831960723E+02 -0.12786666412E+03  0.14085812327E+03  0.00000000000E+00 0. -1.
        -13    1    4    4    0    0  0.37557961319E+02  0.33349838102E+02 -0.71289375945E+02  0.87206578207E+02  0.00000000000E+00 0. -1.
         13    1    4    4    0    0 -0.34900228285E+02  0.12099768781E+02 -0.18639176177E+03  0.19001662873E+03  0.00000000000E+00 0.  1.
          3    1    1    2  501    0  0.12203181169E+02 -0.77538534185E+02 -0.17281168192E+03  0.18980257986E+03  0.00000000000E+00 0. -1.
<scales pt_clust_5="13000.00000" pt_clust_6="13000.00000" pt_clust_7="13000.00000" pt_clust_8="13000.00000" pt_clust_9="13000.00000"></scales>
<clustering>
<clus scale="   80.471">  5  6 -1 -1</clus>
<clus scale="   87.899">  1  5  2 -1</clus>
<clus scale="   91.545">  7  8 -1 -1</clus>
<clus scale="   62.838">  7  9 -1 -1</clus>
<clus scale="  181.077">  2  5  1 -1</clus>
</clustering>
</event>
<event>
 9    2  0.3707658E-005  0.5582897E+03  0.7546771E-02  0.1054487E+00
          2   -1    0    0  502    0 -0.00000000000E+00  0.00000000000E+00  0.20443822950E+03  0.20443822950E+03  0.00000000000E+00 0. -1.
         21   -1    0    0  501  502  0.00000000000E+00 -0.00000000000E+00 -0.54665697490E+03  0.54665697490E+03  0.00000000000E+00 0. -1.
         24    2    1    2    0    0 -0.14636119678E+02  0.71929679922E+02 -0.77668415570E+02  0.13329724991E+03  0.79672323949E+02 0.  0.
         23    2    1    2    0    0  0.74843943612E+02  0.20269150166E+03 -0.24010917568E+03  0.33559386974E+03  0.91023999132E+02 0.  0.
        -13    1    3    3    0    0 -0.17189980881E+02  0.30460698065E+02 -0.84259129677E+02  0.91230206090E+02  0.00000000000E+00 0.  1.
         14    1    3    3    0    0  0.25538612034E+01  0.41468981857E+02  0.65907141065E+01  0.42067043820E+02  0.00000000000E+00 0. -1.
        -13    1    4    4    0    0  0.94195135487E+02  0.18155841820E+03 -0.19811908852E+03  0.28475841692E+03  0.00000000000E+00 0.  1.
         13    1    4    4    0    0 -0.19351191875E+02  0.21133083457E+02 -0.41990087163E+02  0.50835452819E+02  0.00000000000E+00 0. -1.
          1    1    1    2  501    0 -0.60207823934E+02 -0.27462118158E+03 -0.24441154149E+02  0.28220408476E+03  0.00000000000E+00 0. -1.
<scales pt_clust_5="13000.00000" pt_clust_6="13000.00000" pt_clust_7="13000.00000" pt_clust_8="13000.00000" pt_clust_9="13000.00000"></scales>
<clustering>
<clus scale="   79.672">  5  6 -1 -1</clus>
<clus scale="   91.024">  7  8 -1 -1</clus>
<clus scale="  108.332">  1  5  2 -1</clus>
<clus scale="  233.171">  7  9 -1 -1</clus>
<clus scale="  558.290">  2  5  1 -1</clus>
</clustering>
</event>
<event>
 9    2  0.3707658E-005  0.2433207E+03  0.7546771E-02  0.1148756E+00
          2   -1    0    0  502    0 -0.00000000000E+00  0.00000000000E+00  0.12799720512E+03  0.12799720512E+03  0.00000000000E+00 0. -1.
         21   -1    0    0  501  502  0.00000000000E+00 -0.00000000000E+00 -0.31934335654E+03  0.31934335654E+03  0.00000000000E+00 0. -1.
         24    2    1    2    0    0 -0.37224135394E+02 -0.73751561965E+02 -0.16806916165E+03  0.20290903451E+03  0.78101882442E+02 0.  0.
         23    2    1    2    0    0 -0.26139716930E+02  0.36073230580E+02 -0.94096176630E+02  0.14220632642E+03  0.96870976317E+02 0.  0.
        -13    1    3    3    0    0 -0.20636442484E+02  0.13197955203E+02 -0.46107087079E+02  0.52210269668E+02  0.00000000000E+00 0.  1.
         14    1    3    3    0    0 -0.16587692910E+02 -0.86949517168E+02 -0.12196207457E+03  0.15069876484E+03  0.00000000000E+00 0. -1.
        -13    1    4    4    0    0 -0.25604114548E+02  0.56800169516E+02 -0.10240536289E+03  0.11986946353E+03  0.00000000000E+00 0.  1.
         13    1    4    4    0    0 -0.53560238171E+00 -0.20726938936E+02  0.83091862590E+01  0.22336862892E+02  0.00000000000E+00 0. -1.
          1    1    1    2  501    0  0.63363852324E+02  0.37678331385E+02  0.70819186858E+02  0.10222520073E+03  0.00000000000E+00 0. -1.
<scales pt_clust_5="13000.00000" pt_clust_6="13000.00000" pt_clust_7="13000.00000" pt_clust_8="13000.00000" pt_clust_9="13000.00000"></scales>
<clustering>
<clus scale="   78.102">  5  6 -1 -1</clus>
<clus scale="   96.871">  7  8 -1 -1</clus>
<clus scale="   73.720">  7  9 -1 -1</clus>
<clus scale="  113.687">  1  5  2 -1</clus>
<clus scale="  243.321">  2  5  1 -1</clus>
</clustering>
</event>
<event>
 9    2  0.3707658E-005  0.2758077E+03  0.7546771E-02  0.1135057E+00
         -1   -1    0    0    0  501 -0.00000000000E+00  0.00000000000E+00  0.12643963848E+03  0.12643963848E+03  0.00000000000E+00 0.  1.
         21   -1    0    0  501  502  0.00000000000E+00 -0.00000000000E+00 -0.29304819144E+03  0.29304819144E+03  0.00000000000E+00 0.  1.
         24    2    1    2    0    0  0.73434561779E+02 -0.15128825712E+02 -0.36035394841E+02  0.11433336951E+03  0.78435027064E+02 0.  0.
         23    2    1    2    0    0  0.37940113786E+02 -0.80409948809E+02 -0.48186987109E+02  0.13687060210E+03  0.92229951156E+02 0.  0.
        -13    1    3    3    0    0  0.52518617922E+02  0.23497395136E+02 -0.40233886603E+02  0.70207538325E+02  0.00000000000E+00 0.  1.
         14    1    3    3    0    0  0.20915943857E+02 -0.38626220848E+02  0.41984917617E+01  0.44125831182E+02  0.00000000000E+00 0. -1.
        -13    1    4    4    0    0  0.12594449919E+01 -0.74062829497E+02 -0.62569492523E+02  0.96963035789E+02  0.00000000000E+00 0. -1.
         13    1    4    4    0    0  0.36680668794E+02 -0.63471193125E+01  0.14382505413E+02  0.39907566309E+02  0.00000000000E+00 0.  1.
         -2    1    1    2    0  502 -0.11137467556E+03  0.95538774521E+02 -0.82386171018E+02  0.16828385831E+03  0.00000000000E+00 0.  1.
<scales pt_clust_5="13000.00000" pt_clust_6="13000.00000" pt_clust_7="13000.00000" pt_clust_8="13000.00000" pt_clust_9="13000.00000"></scales>
<clustering>
<clus scale="   78.435">  5  6 -1 -1</clus>
<clus scale="   92.230">  7  8 -1 -1</clus>
<clus scale="  108.506">  1  5  2 -1</clus>
<clus scale="  115.855">  7  9 -1 -1</clus>
<clus scale="  275.808">  2  5  1 -1</clus>
</clustering>
</event>
<event>
 9    2  0.3707658E-005  0.1489429E+03  0.7546771E-02  0.1232211E+00
         21   -1    0    0  501  502  0.00000000000E+00  0.00000000000E+00  0.10796123789E+03  0.10796123789E+03  0.00000000000E+00 0. -1.
         -1   -1    0    0    0  501 -0.00000000000E+00 -0.00000000000E+00 -0.16994183363E+03  0.16994183363E+03  0.00000000000E+00 0.  1.
         24    2    1    2    0    0 -0.59240734578E+01  0.30915705022E+01 -0.97204852464E+02  0.12485165948E+03  0.78067285573E+02 0.  0.
         23    2    1    2    0    0  0.13300593640E+01 -0.53958726163E+02  0.18961388745E+02  0.99450541109E+02  0.81348403037E+02 0.  0.
        -13    1    3    3    0    0 -0.95535703097E+01  0.39603135599E+02 -0.60619785601E+02  0.73037233390E+02  0.00000000000E+00 0.  1.
         14    1    3    3    0    0  0.36294968518E+01 -0.36511565097E+02 -0.36585066863E+02  0.51814426086E+02  0.00000000000E+00 0. -1.
        -13    1    4    4    0    0 -0.33720145614E+02 -0.67976037554E+01  0.21623955655E+02  0.40630666931E+02  0.00000000000E+00 0.  1.
         13    1    4    4    0    0  0.35050204978E+02 -0.47161122408E+02 -0.26625669092E+01  0.58819874178E+02  0.00000000000E+00 0. -1.
         -2    1    1    2    0  502  0.45940140938E+01  0.50867155661E+02  0.16262867983E+02  0.53600870940E+02  0.00000000000E+00 0.  1.
<scales pt_clust_5="13000.00000" pt_clust_6="13000.00000" pt_clust_7="13000.00000" pt_clust_8="13000.00000" pt_clust_9="13000.00000"></scales>
<clustering>
<clus scale="   78.067">  5  6 -1 -1</clus>
<clus scale="   78.353">  2  5  1 -1</clus>
<clus scale="   81.348">  7  8 -1 -1</clus>
<clus scale="   51.918">  7  9 -1 -1</clus>
<clus scale="  148.943">  1  5  2 -1</clus>
</clustering>
</event>
<event>
 9    2  0.3707658E-005  0.2003629E+03  0.7546771E-02  0.1173228E+00
          2   -1    0    0  502    0 -0.00000000000E+00  0.00000000000E+00  0.15198909654E+03  0.15198909654E+03  0.00000000000E+00 0. -1.
         21   -1    0    0  501  502  0.00000000000E+00 -0.00000000000E+00 -0.16410436642E+03  0.16410436642E+03  0.00000000000E+00 0. -1.
         24    2    1    2    0    0 -0.74281131745E+02 -0.39079773151E+02 -0.99237596692E+01  0.11571862117E+03  0.79040515413E+02 0.  0.
         23    2    1    2    0    0  0.11453736519E+02  0.69560491506E+02 -0.38513348408E+02  0.12166250659E+03  0.91370878538E+02 0.  0.
        -13    1    3    3    0    0 -0.74548045574E+02 -0.58705751290E+02 -0.13256920794E+02  0.95809823517E+02  0.00000000000E+00 0.  1.
         14    1    3    3    0    0  0.26691382860E+00  0.19625978139E+02  0.33331611251E+01  0.19908797653E+02  0.00000000000E+00 0. -1.
        -13    1    4    4    0    0 -0.21807537100E+02  0.42767904389E+02  0.17611013157E+02  0.51135213940E+02  0.00000000000E+00 0.  1.
         13    1    4    4    0    0  0.33261273619E+02  0.26792587117E+02 -0.56124361565E+02  0.70527292648E+02  0.00000000000E+00 0. -1.
          1    1    1    2  501    0  0.62827395226E+02 -0.30480718355E+02  0.36321838194E+02  0.78712335197E+02  0.00000000000E+00 0. -1.
<scales pt_clust_5="13000.00000" pt_clust_6="13000.00000" pt_clust_7="13000.00000" pt_clust_8="13000.00000" pt_clust_9="13000.00000"></scales>
<clustering>
<clus scale="   79.041">  5  6 -1 -1</clus>
<clus scale="   91.371">  7  8 -1 -1</clus>
<clus scale="   69.831">  7  9 -1 -1</clus>
<clus scale="  115.292">  1  5  2 -1</clus>
<clus scale="  200.363">  2  5  1 -1</clus>
</clustering>
</event>
<event>
 9    2  0.3707658E-005  0.4650043E+03  0.7546771E-02  0.1041433E+00
          2   -1    0    0  502    0 -0.00000000000E+00  0.00000000000E+00  0.54001706934E+03  0.54001706934E+03  0.00000000000E+00 0. -1.
         21   -1    0    0  501  502  0.00000000000E+00 -0.00000000000E+00 -0.36926719577E+03  0.36926719577E+03  0.00000000000E+00 0.  1.
         24    2    1    2    0    0 -0.25995648879E+03  0.15161283464E+02  0.32057015870E+03  0.42074034654E+03  0.80311717537E+02 0.  0.
         23    2    1    2    0    0 -0.49650887355E+01 -0.83652832603E+02 -0.17358857972E+03  0.21388145959E+03  0.92681364034E+02 0.  0.
        -13    1    3    3    0    0 -0.20018383884E+03 -0.12506102542E+02  0.19939978671E+03  0.28282547070E+03  0.00000000000E+00 0.  1.
         14    1    3    3    0    0 -0.59772649953E+02  0.27667386005E+02  0.12117037199E+03  0.13791487584E+03  0.00000000000E+00 0. -1.
        -13    1    4    4    0    0  0.28708247854E+00  0.20231226868E+02 -0.37301654030E+02  0.42435814477E+02  0.00000000000E+00 0. -1.
         13    1    4    4    0    0 -0.52521712140E+01 -0.10388405947E+03 -0.13628692569E+03  0.17144564511E+03  0.00000000000E+00 0.  1.
          1    1    1    2  501    0  0.26492157753E+03  0.68491549139E+02  0.23768294588E+02  0.27466245898E+03  0.00000000000E+00 0. -1.
<scales pt_clust_5="13000.00000" pt_clust_6="13000.00000" pt_clust_7="13000.00000" pt_clust_8="13000.00000" pt_clust_9="13000.00000"></scales>
<clustering>
<clus scale="   80.312">  5  6 -1 -1</clus>
<clus scale="   92.681">  7  8 -1 -1</clus>
<clus scale="  272.502">  1  5  2 -1</clus>
<clus scale="   89.372">  7  9 -1 -1</clus>
<clus scale="  465.004">  2  5  1 -1</clus>
</clustering>
</event>
<event>
 9    2  0.3707658E-005  0.4402917E+03  0.7546771E-02  0.1080058E+00
          2   -1    0    0  502    0 -0.00000000000E+00  0.00000000000E+00  0.10269938296E+04  0.10269938296E+04  0.00000000000E+00 0. -1.
         21   -1    0    0  501  502  0.00000000000E+00 -0.00000000000E+00 -0.83700913624E+02  0.83700913624E+02  0.00000000000E+00 0.  1.
         24    2    1    2    0    0 -0.72474948954E+02  0.18115904794E+02  0.38233968741E+03  0.39758511443E+03  0.79432250454E+02 0.  0.
         23    2    1    2    0    0  0.23919060267E+03  0.48569225089E+02  0.32289918891E+03  0.41493058605E+03  0.91281931441E+02 0.  0.
        -11    1    3    3    0    0 -0.28834011218E+02  0.48047915910E+02  0.20458907906E+03  0.21212424118E+03  0.00000000000E+00 0.  1.
         12    1    3    3    0    0 -0.43640937736E+02 -0.29932011116E+02  0.17775060835E+03  0.18546087324E+03  0.00000000000E+00 0. -1.
        -13    1    4    4    0    0  0.10265961440E+03  0.43918070477E+02  0.20945290026E+03  0.23735692694E+03  0.00000000000E+00 0. -1.
         13    1    4    4    0    0  0.13653098827E+03  0.46511546125E+01  0.11344628865E+03  0.17757365910E+03  0.00000000000E+00 0.  1.
          1    1    1    2  501    0 -0.16671565372E+03 -0.66685129883E+02  0.23805403969E+03  0.29817904278E+03  0.00000000000E+00 0. -1.
<scales pt_clust_5="13000.00000" pt_clust_6="13000.00000" pt_clust_7="13000.00000" pt_clust_8="13000.00000" pt_clust_9="13000.00000"></scales>
<clustering>
<clus scale="   79.432">  5  6 -1 -1</clus>
<clus scale="   91.282">  7  8 -1 -1</clus>
<clus scale="  109.043">  1  5  2 -1</clus>
<clus scale="  205.873">  7  9 -1 -1</clus>
<clus scale="  440.292">  2  5  1 -1</clus>
</clustering>
</event>
<event>
 9    2  0.3707658E-005  0.1623288E+03  0.7546771E-02  0.1214258E+00
         21   -1    0    0  501  502  0.00000000000E+00  0.00000000000E+00  0.12433836008E+03  0.12433836008E+03  0.00000000000E+00 0. -1.
         -1   -1    0    0    0  501 -0.00000000000E+00 -0.00000000000E+00 -0.13285420640E+03  0.13285420640E+03  0.00000000000E+00 0.  1.
         24    2    1    2    0    0  0.39193884478E+01  0.16373134320E+02 -0.30912154379E+02  0.93326055493E+02  0.86433501678E+02 0.  0.
         23    2    1    2    0    0  0.58488493961E+01  0.50463283389E+01  0.65571610691E+02  0.11469010803E+03  0.93779050337E+02 0.  0.
        -11    1    3    3    0    0 -0.29415012040E+02 -0.20217881411E+02 -0.24774596572E+02  0.43448662780E+02  0.00000000000E+00 0.  1.
         12    1    3    3    0    0  0.33334400487E+02  0.36591015731E+02 -0.61375578072E+01  0.49877392713E+02  0.00000000000E+00 0. -1.
        -13    1    4    4    0    0  0.10921811221E+02  0.39464694602E+02  0.55649655344E+00  0.40951895790E+02  0.00000000000E+00 0.  1.
         13    1    4    4    0    0 -0.50729618254E+01 -0.34418366263E+02  0.65015114137E+02  0.73738212239E+02  0.00000000000E+00 0. -1.
         -2    1    1    2    0  502 -0.97682378440E+01 -0.21419462659E+02 -0.43175302629E+02  0.49176402962E+02  0.00000000000E+00 0.  1.
<scales pt_clust_5="13000.00000" pt_clust_6="13000.00000" pt_clust_7="13000.00000" pt_clust_8="13000.00000" pt_clust_9="13000.00000"></scales>
<clustering>
<clus scale="   86.434">  5  6 -1 -1</clus>
<clus scale="   88.058">  2  5  1 -1</clus>
<clus scale="   93.779">  7  8 -1 -1</clus>
<clus scale="   12.928">  7  9 -1 -1</clus>
<clus scale="  162.329">  1  5  2 -1</clus>
</clustering>
</event>
<event>
 9    2  0.3707658E-005  0.4200400E+03  0.7546771E-02  0.1092670E+00
         -1   -1    0    0    0  501 -0.00000000000E+00  0.00000000000E+00  0.12186365685E+03  0.12186365685E+03  0.00000000000E+00 0.  1.
         21   -1    0    0  501  502  0.00000000000E+00 -0.00000000000E+00 -0.55282999373E+03  0.55282999373E+03  0.00000000000E+00 0.  1.
         24    2    1    2    0    0 -0.13102801216E+02 -0.27862819883E+02 -0.31800249154E+02  0.95239462748E+02  0.84328401424E+02 0.  0.
         23    2    1    2    0    0  0.50754759937E+02  0.18150564222E+03 -0.35416240314E+03  0.41498802573E+03  0.10613062655E+03 0.  0.
        -11    1    3    3    0    0 -0.46696761224E+02 -0.30963599780E+02 -0.20428272502E+02  0.59637625184E+02  0.00000000000E+00 0.  1.
         12    1    3    3    0    0  0.33593960008E+02  0.31007798974E+01 -0.11371976652E+02  0.35601837564E+02  0.00000000000E+00 0. -1.
        -11    1    4    4    0    0  0.26563387737E+01  0.97483352034E+02 -0.26869745898E+03  0.28584678505E+03  0.00000000000E+00 0.  1.
         11    1    4    4    0    0  0.48098421164E+02  0.84022290181E+02 -0.85464944157E+02  0.12914124068E+03  0.00000000000E+00 0. -1.
         -2    1    1    2    0  502 -0.37651958721E+02 -0.15364282233E+03 -0.45003684586E+02  0.16446616210E+03  0.00000000000E+00 0.  1.
<scales pt_clust_5="13000.00000" pt_clust_6="13000.00000" pt_clust_7="13000.00000" pt_clust_8="13000.00000" pt_clust_9="13000.00000"></scales>
<clustering>
<clus scale="   84.328">  5  6 -1 -1</clus>
<clus scale="   89.774">  1  5  2 -1</clus>
<clus scale="  106.131">  7  8 -1 -1</clus>
<clus scale="  178.233">  7  9 -1 -1</clus>
<clus scale="  420.040">  2  5  1 -1</clus>
</clustering>
</event>
<event>
 9    2  0.3707658E-005  0.1583485E+03  0.7546771E-02  0.1215698E+00
          2   -1    0    0  502    0 -0.00000000000E+00  0.00000000000E+00  0.26453207886E+03  0.26453207886E+03  0.00000000000E+00 0. -1.
         21   -1    0    0  501  502  0.00000000000E+00 -0.00000000000E+00 -0.18485407481E+03  0.18485407481E+03  0.00000000000E+00 0. -1.
         24    2    1    2    0    0 -0.45232450886E+02  0.17329295331E+00  0.21958450490E+03  0.23808526280E+03  0.80132595915E+02 0.  0.
         23    2    1    2    0    0 -0.98699725718E+00 -0.32789845377E+02 -0.67895993342E+02  0.11972802334E+03  0.92998846967E+02 0.  0.
        -11    1    3    3    0    0 -0.34762632063E+02  0.22282027547E+02  0.42267024755E+02  0.59088329822E+02  0.00000000000E+00 0.  1.
         12    1    3    3    0    0 -0.10469818824E+02 -0.22108734594E+02  0.17731748014E+03  0.17899693298E+03  0.00000000000E+00 0. -1.
        -13    1    4    4    0    0 -0.41868116597E+02 -0.20164671535E+02 -0.96606872748E+01  0.47464534593E+02  0.00000000000E+00 0. -1.
         13    1    4    4    0    0  0.40881119340E+02 -0.12625173842E+02 -0.58235306067E+02  0.72263488746E+02  0.00000000000E+00 0.  1.
          1    1    1    2  501    0  0.46219448144E+02  0.32616552424E+02 -0.72010507503E+02  0.91572867540E+02  0.00000000000E+00 0. -1.
<scales pt_clust_5="13000.00000" pt_clust_6="13000.00000" pt_clust_7="13000.00000" pt_clust_8="13000.00000" pt_clust_9="13000.00000"></scales>
<clustering>
<clus scale="   80.133">  5  6 -1 -1</clus>
<clus scale="   92.018">  1  5  2 -1</clus>
<clus scale="   92.999">  7  8 -1 -1</clus>
<clus scale="   47.022">  7  9 -1 -1</clus>
<clus scale="  158.348">  2  5  1 -1</clus>
</clustering>
</event>
<event>
 9    2  0.3707658E-005  0.2844153E+03  0.7546771E-02  0.1131902E+00
          2   -1    0    0  502    0 -0.00000000000E+00  0.00000000000E+00  0.21637214543E+03  0.21637214543E+03  0.00000000000E+00 0. -1.
         21   -1    0    0  501  502  0.00000000000E+00 -0.00000000000E+00 -0.17842878709E+03  0.17842878709E+03  0.00000000000E+00 0.  1.
         24    2    1    2    0    0  0.28955469280E+02 -0.63792073489E+02  0.26749346788E+02  0.11016540956E+03  0.80703420430E+02 0.  0.
         23    2    1    2    0    0 -0.31366172888E+02  0.98334225617E+02 -0.98414824178E+02  0.16968741017E+03  0.91950436768E+02 0.  0.
        -11    1    3    3    0    0 -0.19555892315E+02  0.55544170186E+01 -0.28073133242E+01  0.20522316652E+02  0.00000000000E+00 0.  1.
         12    1    3    3    0    0  0.48511361595E+02 -0.69346490507E+02  0.29556660112E+02  0.89643092910E+02  0.00000000000E+00 0. -1.
        -13    1    4    4    0    0 -0.38829139254E+02  0.38342112844E+02 -0.94477734089E+02  0.10910482075E+03  0.00000000000E+00 0.  1.
         13    1    4    4    0    0  0.74629663659E+01  0.59992112773E+02 -0.39370900893E+01  0.60582589416E+02  0.00000000000E+00 0. -1.
          1    1    1    2  501    0  0.24107036084E+01 -0.34542152128E+02  0.10960883573E+03  0.11494811279E+03  0.00000000000E+00 0. -1.
<scales pt_clust_5="13000.00000" pt_clust_6="13000.00000" pt_clust_7="13000.00000" pt_clust_8="13000.00000" pt_clust_9="13000.00000"></scales>
<clustering>
<clus scale="   80.703">  5  6 -1 -1</clus>
<clus scale="   91.950">  7  8 -1 -1</clus>
<clus scale="   34.626">  7  9 -1 -1</clus>
<clus scale="  106.869">  1  5  2 -1</clus>
<clus scale="  284.415">  2  5  1 -1</clus>
</clustering>
</event>
<event>
 9    2  0.4338551E-005  0.4939558E+03  0.7546771E-02  0.1042192E+00
          2   -1    0    0  502    0 -0.00000000000E+00  0.00000000000E+00  0.60885610801E+03  0.60885610801E+03  0.00000000000E+00 0. -1.
         21   -1    0    0  501  502  0.00000000000E+00 -0.00000000000E+00 -0.22612360757E+03  0.22612360757E+03  0.00000000000E+00 0. -1.
         24    2    1    2    0    0  0.17122416319E+02 -0.20588406198E+03  0.22522226957E+03  0.31651869543E+03  0.82326118144E+02 0.  0.
         23    2    1    2    0    0 -0.53562219603E+02 -0.10182415405E+03  0.14770660889E+03  0.20844760676E+03  0.91630195556E+02 0.  0.
        -11    1    3    3    0    0 -0.31193032312E+02 -0.49711750420E+02  0.65962357073E+02  0.88290973181E+02  0.00000000000E+00 0.  1.
         12    1    3    3    0    0  0.48315448631E+02 -0.15617231156E+03  0.15925991250E+03  0.22822772225E+03  0.00000000000E+00 0. -1.
        -13    1    4    4    0    0 -0.28280009887E+02 -0.88391392464E+02  0.47545889442E+02  0.10427563869E+03  0.00000000000E+00 0. -1.
         13    1    4    4    0    0 -0.25282209716E+02 -0.13432761587E+02  0.10016071945E+03  0.10417196807E+03  0.00000000000E+00 0.  1.
          1    1    1    2  501    0  0.36439803285E+02  0.30770821603E+03  0.98036219798E+01  0.31001341339E+03  0.00000000000E+00 0. -1.
<scales pt_clust_5="13000.00000" pt_clust_6="13000.00000" pt_clust_7="13000.00000" pt_clust_8="13000.00000" pt_clust_9="13000.00000"></scales>
<clustering>
<clus scale="   82.326">  5  6 -1 -1</clus>
<clus scale="   91.630">  7  8 -1 -1</clus>
<clus scale="  222.394">  1  5  2 -1</clus>
<clus scale="  214.965">  7  9 -1 -1</clus>
<clus scale="  493.956">  2  5  1 -1</clus>
</clustering>
</event>
<event>
 9    2  0.3707658E-005  0.2206343E+03  0.7546771E-02  0.1160361E+00
          2   -1    0    0  502    0 -0.00000000000E+00  0.00000000000E+00  0.17358913588E+03  0.17358913588E+03  0.00000000000E+00 0. -1.
         21   -1    0    0  501  502  0.00000000000E+00 -0.00000000000E+00 -0.26612091872E+03  0.26612091872E+03  0.00000000000E+00 0. -1.
         24    2    1    2    0    0 -0.54826213111E+02 -0.63004393851E+02  0.95112827494E+02  0.15007233256E+03  0.80621261206E+02 0.  0.
         23    2    1    2    0    0 -0.37295708133E+02  0.16195317887E+02 -0.39447769278E+02  0.10897272359E+03  0.93089579546E+02 0.  0.
        -13    1    3    3    0    0  0.11009673939E+02 -0.46610642870E+02  0.45087963720E+02  0.65777575369E+02  0.00000000000E+00 0.  1.
         14    1    3    3    0    0 -0.65835887050E+02 -0.16393750980E+02  0.50024863773E+02  0.84294757194E+02  0.00000000000E+00 0. -1.
        -11    1    4    4    0    0  0.15632996533E+02 -0.16351641101E+02  0.14345365244E+02  0.26787240456E+02  0.00000000000E+00 0.  1.
         11    1    4    4    0    0 -0.52928704666E+02  0.32546958988E+02 -0.53793134521E+02  0.82185483138E+02  0.00000000000E+00 0. -1.
          1    1    1    2  501    0  0.92121921244E+02  0.46809075963E+02 -0.14819684105E+03  0.18066499845E+03  0.00000000000E+00 0. -1.
<scales pt_clust_5="13000.00000" pt_clust_6="13000.00000" pt_clust_7="13000.00000" pt_clust_8="13000.00000" pt_clust_9="13000.00000"></scales>
<clustering>
<clus scale="   80.621">  5  6 -1 -1</clus>
<clus scale="   93.090">  7  8 -1 -1</clus>
<clus scale="  103.332">  7  9 -1 -1</clus>
<clus scale="  116.083">  1  5  2 -1</clus>
<clus scale="  220.634">  2  5  1 -1</clus>
</clustering>
</event>
<event>
 9    2  0.3707658E-005  0.3596938E+03  0.7546771E-02  0.1098598E+00
         21   -1    0    0  501  502  0.00000000000E+00  0.00000000000E+00  0.86895682841E+02  0.86895682841E+02  0.00000000000E+00 0.  1.
         -1   -1    0    0    0  501 -0.00000000000E+00 -0.00000000000E+00 -0.68526483609E+03  0.68526483609E+03  0.00000000000E+00 0.  1.
         24    2    1    2    0    0 -0.91838496037E+02  0.14917474179E+02 -0.20790503633E+03  0.24127271282E+03  0.79568696293E+02 0.  0.
         23    2    1    2    0    0 -0.10905080768E+03 -0.11944606026E+02 -0.23696629974E+03  0.27805005147E+03  0.95519901798E+02 0.  0.
        -11    1    3    3    0    0 -0.28085929119E+02 -0.28562378036E+01 -0.15211246795E+03  0.15470998809E+03  0.00000000000E+00 0.  1.
         12    1    3    3    0    0 -0.63752566918E+02  0.17773711983E+02 -0.55792568382E+02  0.86562724732E+02  0.00000000000E+00 0. -1.
        -11    1    4    4    0    0 -0.65574280035E+02  0.27050897783E+02 -0.64177846479E+02  0.95658419659E+02  0.00000000000E+00 0.  1.
         11    1    4    4    0    0 -0.43476527648E+02 -0.38995503810E+02 -0.17278845326E+03  0.18239163181E+03  0.00000000000E+00 0. -1.
         -2    1    1    2    0  502  0.20088930372E+03 -0.29728681528E+01 -0.15349781718E+03  0.25283775464E+03  0.00000000000E+00 0.  1.
<scales pt_clust_5="13000.00000" pt_clust_6="13000.00000" pt_clust_7="13000.00000" pt_clust_8="13000.00000" pt_clust_9="13000.00000"></scales>
<clustering>
<clus scale="   79.569">  5  6 -1 -1</clus>
<clus scale="   95.520">  7  8 -1 -1</clus>
<clus scale="  122.426">  2  5  1 -1</clus>
<clus scale="  160.427">  7  9 -1 -1</clus>
<clus scale="  359.694">  1  5  2 -1</clus>
</clustering>
</event>
<event>
 9    2  0.3707658E-005  0.2082504E+03  0.7546771E-02  0.1184898E+00
         21   -1    0    0  501  502  0.00000000000E+00  0.00000000000E+00  0.14651523831E+03  0.14651523831E+03  0.00000000000E+00 0. -1.
          2   -1    0    0  502    0 -0.00000000000E+00 -0.00000000000E+00 -0.60520361174E+03  0.60520361174E+03  0.00000000000E+00 0. -1.
         24    2    1    2    0    0 -0.29478681561E+01  0.26642649608E+02 -0.52674558276E+03  0.53262982649E+03  0.74263735518E+02 0.  0.
         23    2    1    2    0    0 -0.46526996947E+02  0.68614155488E+01 -0.27548800429E+02  0.10634686747E+03  0.91317464636E+02 0.  0.
        -13    1    3    3    0    0  0.15000281307E+01  0.25245474205E+02 -0.51628577308E+02  0.57489947357E+02  0.00000000000E+00 0.  1.
         14    1    3    3    0    0 -0.44478962868E+01  0.13971754026E+01 -0.47511700545E+03  0.47513987914E+03  0.00000000000E+00 0. -1.
        -13    1    4    4    0    0 -0.22178941884E+02 -0.14432808504E+02 -0.56847310554E+02  0.62704291254E+02  0.00000000000E+00 0. -1.
         13    1    4    4    0    0 -0.24348055064E+02  0.21294224053E+02  0.29298510125E+02  0.43642576218E+02  0.00000000000E+00 0.  1.
          1    1    1    2  501    0  0.49474865104E+02 -0.33504065157E+02  0.95606009754E+02  0.11274215609E+03  0.00000000000E+00 0. -1.
<scales pt_clust_5="13000.00000" pt_clust_6="13000.00000" pt_clust_7="13000.00000" pt_clust_8="13000.00000" pt_clust_9="13000.00000"></scales>
<clustering>
<clus scale="   74.264">  5  6 -1 -1</clus>
<clus scale="   78.953">  2  5  1 -1</clus>
<clus scale="   91.317">  7  8 -1 -1</clus>
<clus scale="   57.826">  7  9 -1 -1</clus>
<clus scale="  208.250">  1  5  2 -1</clus>
</clustering>
</event>
<event>
 9    2  0.3707658E-005  0.2924356E+03  0.7546771E-02  0.1132920E+00
          2   -1    0    0  502    0 -0.00000000000E+00  0.00000000000E+00  0.20599408312E+04  0.20599408312E+04  0.00000000000E+00 0. -1.
         21   -1    0    0  501  502  0.00000000000E+00 -0.00000000000E+00 -0.40417272879E+02  0.40417272879E+02  0.00000000000E+00 0. -1.
         24    2    1    2    0    0  0.15961353806E+02 -0.76881307952E+01  0.15087419795E+04  0.15117865934E+04  0.94246862935E+02 0.  0.
         23    2    1    2    0    0  0.57713199358E+02 -0.97882776673E+02  0.37210255057E+03  0.39934934186E+03  0.90042975036E+02 0.  0.
        -13    1    3    3    0    0  0.11358716063E+02  0.24110468687E+02  0.13169520208E+03  0.13436503035E+03  0.00000000000E+00 0.  1.
         14    1    3    3    0    0  0.46026377433E+01 -0.31798599482E+02  0.13770467774E+04  0.13774215630E+04  0.00000000000E+00 0. -1.
        -11    1    4    4    0    0 -0.21496493501E+02 -0.38330167377E+02  0.14629201507E+03  0.15275030159E+03  0.00000000000E+00 0.  1.
         11    1    4    4    0    0  0.79209692859E+02 -0.59552609297E+02  0.22581053550E+03  0.24659904027E+03  0.00000000000E+00 0. -1.
          1    1    1    2  501    0 -0.73674553164E+02  0.10557090747E+03  0.13867902825E+03  0.18922216880E+03  0.00000000000E+00 0. -1.
<scales pt_clust_5="13000.00000" pt_clust_6="13000.00000" pt_clust_7="13000.00000" pt_clust_8="13000.00000" pt_clust_9="13000.00000"></scales>
<clustering>
<clus scale="   90.043">  7  8 -1 -1</clus>
<clus scale="   94.247">  5  6 -1 -1</clus>
<clus scale="   95.898">  1  5  2 -1</clus>
<clus scale="  124.159">  7  9 -1 -1</clus>
<clus scale="  292.436">  2  5  1 -1</clus>
</clustering>
</event>
<event>
 9    2  0.3707658E-005  0.4908176E+03  0.7546771E-02  0.1040946E+00
         21   -1    0    0  501  502  0.00000000000E+00  0.00000000000E+00  0.16575019388E+03  0.16575019388E+03  0.00000000000E+00 0. -1.
          4   -1    0    0  502    0 -0.00000000000E+00 -0.00000000000E+00 -0.10116344110E+04  0.10116344110E+04  0.00000000000E+00 0. -1.
         24    2    1    2    0    0 -0.20871010726E+03  0.72485410166E+02 -0.56486732581E+03  0.61181192344E+03  0.80154166035E+02 0.  0.
         23    2    1    2    0    0 -0.86241432257E+02  0.87469188575E+02 -0.11432984440E+03  0.19091756548E+03  0.91048118588E+02 0.  0.
        -11    1    3    3    0    0 -0.20413377919E+03  0.80750706491E+02 -0.55931583920E+03  0.60085396261E+03  0.00000000000E+00 0.  1.
         12    1    3    3    0    0 -0.45763280696E+01 -0.82652963253E+01 -0.55514866164E+01  0.10957960832E+02  0.00000000000E+00 0. -1.
        -11    1    4    4    0    0 -0.10454411641E+03  0.62068633314E+02 -0.91810193876E+02  0.15235189273E+03  0.00000000000E+00 0. -1.
         11    1    4    4    0    0  0.18302684154E+02  0.25400555261E+02 -0.22519650525E+02  0.38565672749E+02  0.00000000000E+00 0.  1.
          3    1    1    2  501    0  0.29495153951E+03 -0.15995459874E+03 -0.16668704693E+03  0.37465511599E+03  0.00000000000E+00 0. -1.
<scales pt_clust_5="13000.00000" pt_clust_6="13000.00000" pt_clust_7="13000.00000" pt_clust_8="13000.00000" pt_clust_9="13000.00000"></scales>
<clustering>
<clus scale="   80.154">  5  6 -1 -1</clus>
<clus scale="   91.048">  7  8 -1 -1</clus>
<clus scale="  235.029">  2  5  1 -1</clus>
<clus scale="  197.450">  7  9 -1 -1</clus>
<clus scale="  490.818">  1  5  2 -1</clus>
</clustering>
</event>
<event>
 9    2  0.3707658E-005  0.1657064E+03  0.7546771E-02  0.1215679E+00
          2   -1    0    0  502    0 -0.00000000000E+00  0.00000000000E+00  0.41514341695E+03  0.41514341695E+03  0.00000000000E+00 0. -1.
         21   -1    0    0  501  502  0.00000000000E+00 -0.00000000000E+00 -0.67876084001E+02  0.67876084001E+02  0.00000000000E+00 0. -1.
         24    2    1    2    0    0  0.99352688313E+01  0.97103258268E+01 -0.17648010144E+02  0.82242985724E+02  0.79116726704E+02 0.  0.
         23    2    1    2    0    0  0.20644721940E+02  0.42299323559E+02  0.19464217033E+03  0.22013019551E+03  0.91412751777E+02 0.  0.
        -13    1    3    3    0    0  0.19267586971E+02  0.39642331207E+02 -0.24096791346E+02  0.50233551381E+02  0.00000000000E+00 0.  1.
         14    1    3    3    0    0 -0.93323181397E+01 -0.29932005380E+02  0.64487812026E+01  0.32009434342E+02  0.00000000000E+00 0. -1.
        -13    1    4    4    0    0 -0.19973488419E+02  0.33039521040E+02  0.16381906232E+03  0.16830696768E+03  0.00000000000E+00 0. -1.
         13    1    4    4    0    0  0.40618210359E+02  0.92598025188E+01  0.30823108011E+02  0.51823227832E+02  0.00000000000E+00 0.  1.
          1    1    1    2  501    0 -0.30579990772E+02 -0.52009649385E+02  0.17027317277E+03  0.18064631972E+03  0.00000000000E+00 0. -1.
<scales pt_clust_5="13000.00000" pt_clust_6="13000.00000" pt_clust_7="13000.00000" pt_clust_8="13000.00000" pt_clust_9="13000.00000"></scales>
<clustering>
<clus scale="   79.117">  5  6 -1 -1</clus>
<clus scale="   80.327">  1  5  2 -1</clus>
<clus scale="   91.413">  7  8 -1 -1</clus>
<clus scale="   54.215">  7  9 -1 -1</clus>
<clus scale="  165.706">  2  5  1 -1</clus>
</clustering>
</event>
<event>
 9    2  0.3707658E-005  0.2854517E+03  0.7546771E-02  0.1142643E+00
          2   -1    0    0  502    0 -0.00000000000E+00  0.00000000000E+00  0.42648666987E+03  0.42648666987E+03  0.00000000000E+00 0. -1.
         21   -1    0    0  501  502  0.00000000000E+00 -0.00000000000E+00 -0.79050271197E+02  0.79050271197E+02  0.00000000000E+00 0. -1.
         24    2    1    2    0    0 -0.15875116052E+02 -0.82712893608E+01  0.68845101708E+02  0.10666883070E+03  0.79486840901E+02 0.  0.
         23    2    1    2    0    0 -0.89404978884E+01  0.32254290004E+02  0.32579830015E+03  0.34039161795E+03  0.92745077842E+02 0.  0.
        -11    1    3    3    0    0  0.12817915694E+02 -0.30293999185E+02  0.49753156991E+01  0.33268289942E+02  0.00000000000E+00 0.  1.
         12    1    3    3    0    0 -0.28693031746E+02  0.22022709824E+02  0.63869786009E+02  0.73400540758E+02  0.00000000000E+00 0. -1.
        -13    1    4    4    0    0 -0.34145891159E+02 -0.18167708582E+02  0.17924788312E+03  0.18337341988E+03  0.00000000000E+00 0.  1.
         13    1    4    4    0    0  0.25205393271E+02  0.50421998586E+02  0.14655041704E+03  0.15701819807E+03  0.00000000000E+00 0. -1.
          1    1    1    2  501    0  0.24815613940E+02 -0.23983000643E+02 -0.47207003187E+02  0.58476492414E+02  0.00000000000E+00 0. -1.
<scales pt_clust_5="13000.00000" pt_clust_6="13000.00000" pt_clust_7="13000.00000" pt_clust_8="13000.00000" pt_clust_9="13000.00000"></scales>
<clustering>
<clus scale="   79.487">  5  6 -1 -1</clus>
<clus scale="   81.478">  1  5  2 -1</clus>
<clus scale="   92.745">  7  8 -1 -1</clus>
<clus scale="   34.418">  7  9 -1 -1</clus>
<clus scale="  285.452">  2  5  1 -1</clus>
</clustering>
</event>
<event>
 9    2  0.3707658E-005  0.3208662E+03  0.7546771E-02  0.1087215E+00
         21   -1    0    0  501  502  0.00000000000E+00  0.00000000000E+00  0.40230410719E+02  0.40230410719E+02  0.00000000000E+00 0. -1.
          2   -1    0    0  502    0 -0.00000000000E+00 -0.00000000000E+00 -0.19068738539E+04  0.19068738539E+04  0.00000000000E+00 0. -1.
         24    2    1    2    0    0 -0.40974943718E+02 -0.20636941638E+03 -0.74647734591E+03  0.78188873296E+03  0.99268729953E+02 0.  0.
         23    2    1    2    0    0 -0.10414252116E+02 -0.12070951515E+02 -0.41321678913E+03  0.42350509755E+03  0.91401796033E+02 0.  0.
        -11    1    3    3    0    0 -0.44663583431E+01 -0.81630652209E+02 -0.46132421217E+03  0.46851204944E+03  0.00000000000E+00 0.  1.
         12    1    3    3    0    0 -0.36508585375E+02 -0.12473876417E+03 -0.28515313374E+03  0.31337668352E+03  0.00000000000E+00 0. -1.
        -11    1    4    4    0    0 -0.44196492659E+02  0.16588441550E+02 -0.24793598558E+03  0.25239009351E+03  0.00000000000E+00 0.  1.
         11    1    4    4    0    0  0.33782240544E+02 -0.28659393065E+02 -0.16528080354E+03  0.17111500404E+03  0.00000000000E+00 0. -1.
          1    1    1    2  501    0  0.51389195834E+02  0.21844036790E+03 -0.70694930818E+03  0.74171043414E+03  0.00000000000E+00 0. -1.
<scales pt_clust_5="13000.00000" pt_clust_6="13000.00000" pt_clust_7="13000.00000" pt_clust_8="13000.00000" pt_clust_9="13000.00000"></scales>
<clustering>
<clus scale="   91.402">  7  8 -1 -1</clus>
<clus scale="   99.269">  5  6 -1 -1</clus>
<clus scale="  224.404">  7  9 -1 -1</clus>
<clus scale="  232.641">  2  5  1 -1</clus>
<clus scale="  320.866">  1  5  2 -1</clus>
</clustering>
</event>
<event>
 9    2  0.3707658E-005  0.1565356E+03  0.7546771E-02  0.1213456E+00
         -1   -1    0    0    0  501 -0.00000000000E+00  0.00000000000E+00  0.38860441785E+03  0.38860441785E+03  0.00000000000E+00 0.  1.
         21   -1    0    0  501  502  0.00000000000E+00 -0.00000000000E+00 -0.44661769023E+02  0.44661769023E+02  0.00000000000E+00 0.  1.
         24    2    1    2    0    0 -0.49563274750E+02 -0.24794246804E+02  0.18463837544E+03  0.20992510414E+03  0.83102026355E+02 0.  0.
         23    2    1    2    0    0  0.29883268010E+01 -0.16753118071E+02  0.81256503882E+02  0.12340678617E+03  0.91307274562E+02 0.  0.
        -13    1    3    3    0    0 -0.47414215992E+02  0.22394163424E+02  0.10394050796E+03  0.11641836466E+03  0.00000000000E+00 0.  1.
         14    1    3    3    0    0 -0.21490587573E+01 -0.47188410228E+02  0.80697867479E+02  0.93506739485E+02  0.00000000000E+00 0. -1.
        -11    1    4    4    0    0 -0.32367786426E+02 -0.10403845233E+02 -0.61197515778E+00  0.34004236609E+02  0.00000000000E+00 0.  1.
         11    1    4    4    0    0  0.35356113227E+02 -0.63492728386E+01  0.81868479039E+02  0.89402549563E+02  0.00000000000E+00 0. -1.
         -2    1    1    2    0  502  0.46574947949E+02  0.41547364875E+02  0.78047769501E+02  0.99934296558E+02  0.00000000000E+00 0.  1.
<scales pt_clust_5="13000.00000" pt_clust_6="13000.00000" pt_clust_7="13000.00000" pt_clust_8="13000.00000" pt_clust_9="13000.00000"></scales>
<clustering>
<clus scale="   83.102">  5  6 -1 -1</clus>
<clus scale="   91.307">  7  8 -1 -1</clus>
<clus scale="   62.413">  7  9 -1 -1</clus>
<clus scale="   99.886">  1  5  2 -1</clus>
<clus scale="  156.536">  2  5  1 -1</clus>
</clustering>
</event>
<event>
 9    2  0.3707658E-005  0.4772085E+03  0.7546771E-02  0.1031725E+00
         21   -1    0    0  501  502  0.00000000000E+00  0.00000000000E+00  0.39837244494E+03  0.39837244494E+03  0.00000000000E+00 0. -1.
          2   -1    0    0  502    0 -0.00000000000E+00 -0.00000000000E+00 -0.41565372503E+03  0.41565372503E+03  0.00000000000E+00 0. -1.
         24    2    1    2    0    0  0.12518983312E+03  0.30026787201E+03  0.17831623688E+02  0.33552763247E+03  0.80171915721E+02 0.  0.
         23    2    1    2    0    0  0.99103437660E+02 -0.66564442582E+02 -0.33953303411E+02  0.15457553907E+03  0.92132806821E+02 0.  0.
        -11    1    3    3    0    0  0.21696342381E+02  0.18416583617E+02  0.20819338095E+02  0.35261121133E+02  0.00000000000E+00 0.  1.
         12    1    3    3    0    0  0.10349349074E+03  0.28185128839E+03 -0.29877144068E+01  0.30026651134E+03  0.00000000000E+00 0. -1.
        -13    1    4    4    0    0  0.86162854351E+02 -0.88301460295E+02 -0.37692035567E+02  0.12900339106E+03  0.00000000000E+00 0.  1.
         13    1    4    4    0    0  0.12940583309E+02  0.21737017713E+02  0.37387321556E+01  0.25572148005E+02  0.00000000000E+00 0. -1.
          1    1    1    2  501    0 -0.22429327078E+03 -0.23370342943E+03 -0.11596003756E+01  0.32392299844E+03  0.00000000000E+00 0. -1.
<scales pt_clust_5="13000.00000" pt_clust_6="13000.00000" pt_clust_7="13000.00000" pt_clust_8="13000.00000" pt_clust_9="13000.00000"></scales>
<clustering>
<clus scale="   80.172">  5  6 -1 -1</clus>
<clus scale="   92.133">  7  8 -1 -1</clus>
<clus scale="  323.921">  7  9 -1 -1</clus>
<clus scale="  335.054">  2  5  1 -1</clus>
<clus scale="  477.208">  1  5  2 -1</clus>
</clustering>
</event>
<event>
 9    2  0.3707658E-005  0.2389059E+03  0.7546771E-02  0.1154218E+00
         21   -1    0    0  501  502  0.00000000000E+00  0.00000000000E+00  0.22159413195E+03  0.22159413195E+03  0.00000000000E+00 0. -1.
          2   -1    0    0  502    0 -0.00000000000E+00 -0.00000000000E+00 -0.60164795114E+03  0.60164795114E+03  0.00000000000E+00 0. -1.
         24    2    1    2    0    0  0.44660766351E+02  0.51322566710E+02 -0.53050757772E+03  0.54090828894E+03  0.80714912625E+02 0.  0.
         23    2    1    2    0    0  0.54909184063E+02  0.21694310740E+02  0.43831351156E+02  0.11919588571E+03  0.93812633546E+02 0.  0.
        -13    1    3    3    0    0  0.68690529608E+01 -0.20044211770E+02 -0.62745810984E+02  0.66226815642E+02  0.00000000000E+00 0.  1.
         14    1    3    3    0    0  0.37791713390E+02  0.71366778480E+02 -0.46776176673E+03  0.47468147329E+03  0.00000000000E+00 0. -1.
        -11    1    4    4    0    0  0.73754380664E+02 -0.35932386651E+01  0.12783659355E+02  0.74940256056E+02  0.00000000000E+00 0. -1.
         11    1    4    4    0    0 -0.18845196601E+02  0.25287549405E+02  0.31047691801E+02  0.44255629653E+02  0.00000000000E+00 0.  1.
          1    1    1    2  501    0 -0.99569950414E+02 -0.73016877449E+02  0.10662240737E+03  0.16313790845E+03  0.00000000000E+00 0. -1.
<scales pt_clust_5="13000.00000" pt_clust_6="13000.00000" pt_clust_7="13000.00000" pt_clust_8="13000.00000" pt_clust_9="13000.00000"></scales>
<clustering>
<clus scale="   80.715">  5  6 -1 -1</clus>
<clus scale="   93.813">  7  8 -1 -1</clus>
<clus scale="  105.563">  2  5  1 -1</clus>
<clus scale="   95.250">  7  9 -1 -1</clus>
<clus scale="  238.906">  1  5  2 -1</clus>
</clustering>
</event>
<event>
 9    2  0.3707658E-005  0.9989775E+03  0.7546771E-02  0.9605352E-01
          2   -1    0    0  502    0 -0.00000000000E+00  0.00000000000E+00  0.25486128199E+04  0.25486128199E+04  0.00000000000E+00 0. -1.
         21   -1    0    0  501  502  0.00000000000E+00 -0.00000000000E+00 -0.18180907852E+03  0.18180907852E+03  0.00000000000E+00 0. -1.
         24    2    1    2    0    0 -0.33655212178E+03  0.67121505874E+02  0.77657783024E+03  0.85245106261E+03  0.76335185235E+02 0.  0.
         23    2    1    2    0    0 -0.28138797572E+03  0.15078304435E+03  0.40612760713E+03  0.52467073950E+03  0.91787974555E+02 0.  0.
        -13    1    3    3    0    0 -0.22715561252E+02  0.14381298439E+02  0.11786996825E+03  0.12089726169E+03  0.00000000000E+00 0.  1.
         14    1    3    3    0    0 -0.31383656052E+03  0.52740207435E+02  0.65870786199E+03  0.73155380092E+03  0.00000000000E+00 0. -1.
        -11    1    4    4    0    0 -0.15585877705E+03  0.88637472777E+02  0.15449313952E+03  0.23667845302E+03  0.00000000000E+00 0. -1.
         11    1    4    4    0    0 -0.12552919867E+03  0.62145571578E+02  0.25163446761E+03  0.28799228648E+03  0.00000000000E+00 0.  1.
          1    1    1    2  501    0  0.61794009750E+03 -0.21790455023E+03  0.11840983040E+04  0.13533000963E+04  0.00000000000E+00 0. -1.
<scales pt_clust_5="13000.00000" pt_clust_6="13000.00000" pt_clust_7="13000.00000" pt_clust_8="13000.00000" pt_clust_9="13000.00000"></scales>
<clustering>
<clus scale="   76.335">  5  6 -1 -1</clus>
<clus scale="   91.788">  7  8 -1 -1</clus>
<clus scale="  351.567">  1  5  2 -1</clus>
<clus scale="  408.243">  7  9 -1 -1</clus>
<clus scale="  998.977">  2  5  1 -1</clus>
</clustering>
</event>
<event>
 9    2  0.3707658E-005  0.6950919E+03  0.7546771E-02  0.1026583E+00
          2   -1    0    0  502    0 -0.00000000000E+00  0.00000000000E+00  0.17405962706E+04  0.17405962706E+04  0.00000000000E+00 0. -1.
         21   -1    0    0  501  502  0.00000000000E+00 -0.00000000000E+00 -0.10140603406E+03  0.10140603406E+03  0.00000000000E+00 0.  1.
         24    2    1    2    0    0  0.81600916442E+02  0.50590145291E+02  0.42000040207E+03  0.43858624603E+03  0.82094367067E+02 0.  0.
         23    2    1    2    0    0 -0.31292534569E+03  0.17618209102E+03  0.63875459011E+03  0.73870430785E+03  0.93350023435E+02 0.  0.
        -13    1    3    3    0    0 -0.41887305800E+01  0.38964325773E+02  0.15070669915E+03  0.15571857088E+03  0.00000000000E+00 0.  1.
         14    1    3    3    0    0  0.85789647022E+02  0.11625819518E+02  0.26929370291E+03  0.28286767515E+03  0.00000000000E+00 0. -1.
        -13    1    4    4    0    0 -0.24913429953E+03  0.17317131742E+03  0.48331440552E+03  0.57065665593E+03  0.00000000000E+00 0.  1.
         13    1    4    4    0    0 -0.63791046167E+02  0.30107735949E+01  0.15544018459E+03  0.16804765192E+03  0.00000000000E+00 0. -1.
          1    1    1    2  501    0  0.23132442925E+03 -0.22677223631E+03  0.58043524432E+03  0.66471175075E+03  0.00000000000E+00 0. -1.
<scales pt_clust_5="13000.00000" pt_clust_6="13000.00000" pt_clust_7="13000.00000" pt_clust_8="13000.00000" pt_clust_9="13000.00000"></scales>
<clustering>
<clus scale="   82.094">  5  6 -1 -1</clus>
<clus scale="   93.350">  7  8 -1 -1</clus>
<clus scale="  126.323">  1  5  2 -1</clus>
<clus scale="  337.705">  7  9 -1 -1</clus>
<clus scale="  695.092">  2  5  1 -1</clus>
</clustering>
</event>
<event>
 9    2  0.3949551E-005  0.5578753E+03  0.7546771E-02  0.1033233E+00
         21   -1    0    0  501  502  0.00000000000E+00  0.00000000000E+00  0.37020081906E+03  0.37020081906E+03  0.00000000000E+00 0. -1.
          2   -1    0    0  502    0 -0.00000000000E+00 -0.00000000000E+00 -0.42655836034E+03  0.42655836034E+03  0.00000000000E+00 0. -1.
         24    2    1    2    0    0 -0.17362954578E+03  0.54685311135E+02 -0.12241978257E+03  0.23498598777E+03  0.84226533009E+02 0.  0.
         23    2    1    2    0    0 -0.87442932755E+02 -0.36025981444E+02 -0.16252578956E+03  0.21426851902E+03  0.10272403877E+03 0.  0.
        -11    1    3    3    0    0 -0.65431334128E+02  0.63825851886E+02 -0.64950585063E+02  0.11213196402E+03  0.00000000000E+00 0.  1.
         12    1    3    3    0    0 -0.10819821165E+03 -0.91405407517E+01 -0.57469197508E+02  0.12285402375E+03  0.00000000000E+00 0. -1.
        -11    1    4    4    0    0  0.21268045769E+01 -0.48798524572E+02 -0.63883970771E+02  0.80417541740E+02  0.00000000000E+00 0.  1.
         11    1    4    4    0    0 -0.89569737332E+02  0.12772543128E+02 -0.98641818788E+02  0.13385097728E+03  0.00000000000E+00 0. -1.
          1    1    1    2  501    0  0.26107247854E+03 -0.18659329691E+02  0.22858803085E+03  0.34750467261E+03  0.00000000000E+00 0. -1.
<scales pt_clust_5="13000.00000" pt_clust_6="13000.00000" pt_clust_7="13000.00000" pt_clust_8="13000.00000" pt_clust_9="13000.00000"></scales>
<clustering>
<clus scale="   84.227">  5  6 -1 -1</clus>
<clus scale="  102.724">  7  8 -1 -1</clus>
<clus scale="  200.579">  2  5  1 -1</clus>
<clus scale="  219.490">  7  9 -1 -1</clus>
<clus scale="  557.875">  1  5  2 -1</clus>
</clustering>
</event>
<event>
 9    2  0.8642274E-005  0.4829209E+03  0.7546771E-02  0.1072124E+00
         21   -1    0    0  501  502  0.00000000000E+00  0.00000000000E+00  0.30173056691E+03  0.30173056691E+03  0.00000000000E+00 0.  1.
         -1   -1    0    0    0  501 -0.00000000000E+00 -0.00000000000E+00 -0.28412384689E+03  0.28412384689E+03  0.00000000000E+00 0.  1.
         24    2    1    2    0    0 -0.57717431416E+02 -0.25034875979E+02 -0.23686413722E+01  0.10252060420E+03  0.80912402750E+02 0.  0.
         23    2    1    2    0    0 -0.15344099697E+02 -0.17152834110E+02 -0.21448460059E+03  0.23415663571E+03  0.91082517768E+02 0.  0.
        -11    1    3    3    0    0 -0.62287321757E+02 -0.40980159903E+02 -0.21112963218E+02  0.77490910262E+02  0.00000000000E+00 0.  1.
         12    1    3    3    0    0  0.45698903409E+01  0.15945283924E+02  0.18744321846E+02  0.25029693937E+02  0.00000000000E+00 0. -1.
        -11    1    4    4    0    0  0.16354635000E+02 -0.47062641338E+02 -0.10182327699E+03  0.11335936676E+03  0.00000000000E+00 0.  1.
         11    1    4    4    0    0 -0.31698734698E+02  0.29909807228E+02 -0.11266132360E+03  0.12079726895E+03  0.00000000000E+00 0. -1.
         -2    1    1    2    0  502  0.73061531113E+02  0.42187710090E+02  0.23445996198E+03  0.24917717388E+03  0.00000000000E+00 0.  1.
<scales pt_clust_5="13000.00000" pt_clust_6="13000.00000" pt_clust_7="13000.00000" pt_clust_8="13000.00000" pt_clust_9="13000.00000"></scales>
<clustering>
<clus scale="   80.912">  5  6 -1 -1</clus>
<clus scale="   91.083">  7  8 -1 -1</clus>
<clus scale="   84.367">  7  9 -1 -1</clus>
<clus scale="  102.493">  2  5  1 -1</clus>
<clus scale="  482.921">  1  5  2 -1</clus>
</clustering>
</event>
<event>
 9    2  0.3707658E-005  0.3458706E+03  0.7546771E-02  0.1113621E+00
          2   -1    0    0  502    0 -0.00000000000E+00  0.00000000000E+00  0.19773807639E+03  0.19773807639E+03  0.00000000000E+00 0. -1.
         21   -1    0    0  501  502  0.00000000000E+00 -0.00000000000E+00 -0.55021462905E+03  0.55021462905E+03  0.00000000000E+00 0. -1.
         24    2    1    2    0    0  0.45158071834E+02 -0.17079782383E+02  0.12634788009E+03  0.15727573747E+03  0.80255220240E+02 0.  0.
         23    2    1    2    0    0  0.30997771926E+02 -0.13500634814E+03 -0.30714587284E+03  0.34900894864E+03  0.91000456726E+02 0.  0.
        -11    1    3    3    0    0  0.18063484702E+02 -0.31390143372E+02  0.10885942918E+02  0.37817116941E+02  0.00000000000E+00 0.  1.
         12    1    3    3    0    0  0.27094587132E+02  0.14310360989E+02  0.11546193717E+03  0.11945862053E+03  0.00000000000E+00 0. -1.
        -13    1    4    4    0    0 -0.28682083413E+02 -0.21669182860E+02 -0.89787617808E+02  0.96716243239E+02  0.00000000000E+00 0.  1.
         13    1    4    4    0    0  0.59679855339E+02 -0.11333716528E+03 -0.21735825503E+03  0.25229270540E+03  0.00000000000E+00 0. -1.
          1    1    1    2  501    0 -0.76155843760E+02  0.15208613052E+03 -0.17167855991E+03  0.24166801933E+03  0.00000000000E+00 0. -1.
<scales pt_clust_5="13000.00000" pt_clust_6="13000.00000" pt_clust_7="13000.00000" pt_clust_8="13000.00000" pt_clust_9="13000.00000"></scales>
<clustering>
<clus scale="   80.255">  5  6 -1 -1</clus>
<clus scale="   91.000">  7  8 -1 -1</clus>
<clus scale="   93.658">  1  5  2 -1</clus>
<clus scale="  149.292">  7  9 -1 -1</clus>
<clus scale="  345.871">  2  5  1 -1</clus>
</clustering>
</event>
<event>
 9    2  0.3707658E-005  0.2445989E+03  0.7546771E-02  0.1156584E+00
         21   -1    0    0  501  502  0.00000000000E+00  0.00000000000E+00  0.31782591600E+02  0.31782591600E+02  0.00000000000E+00 0. -1.
          2   -1    0    0  502    0 -0.00000000000E+00 -0.00000000000E+00 -0.12082553993E+04  0.12082553993E+04  0.00000000000E+00 0. -1.
         24    2    1    2    0    0  0.20905586389E+02 -0.24692245475E+02 -0.68259870456E+03  0.68891165884E+03  0.87244092598E+02 0.  0.
         23    2    1    2    0    0  0.76332884535E+02  0.42481726584E+02 -0.19407660985E+03  0.23545193834E+03  0.10069994252E+03 0.  0.
        -13    1    3    3    0    0  0.13029644253E+02  0.17634577230E+02 -0.47069194027E+02  0.51925513669E+02  0.00000000000E+00 0.  1.
         14    1    3    3    0    0  0.78759421360E+01 -0.42326822704E+02 -0.63552951053E+03  0.63698614517E+03  0.00000000000E+00 0. -1.
        -11    1    4    4    0    0  0.29879140296E+02  0.70213745407E+02 -0.88758614214E+02  0.11705052185E+03  0.00000000000E+00 0. -1.
         11    1    4    4    0    0  0.46453744239E+02 -0.27732018823E+02 -0.10531799564E+03  0.11840141649E+03  0.00000000000E+00 0.  1.
          1    1    1    2  501    0 -0.97238470924E+02 -0.17789481109E+02 -0.29979749333E+03  0.31567439375E+03  0.00000000000E+00 0. -1.
<scales pt_clust_5="13000.00000" pt_clust_6="13000.00000" pt_clust_7="13000.00000" pt_clust_8="13000.00000" pt_clust_9="13000.00000"></scales>
<clustering>
<clus scale="   87.244">  5  6 -1 -1</clus>
<clus scale="   93.050">  2  5  1 -1</clus>
<clus scale="  100.700">  7  8 -1 -1</clus>
<clus scale="   90.872">  7  9 -1 -1</clus>
<clus scale="  244.599">  1  5  2 -1</clus>
</clustering>
</event>
<event>
 9    2  0.3707658E-005  0.1291045E+03  0.7546771E-02  0.1246689E+00
         21   -1    0    0  501  502  0.00000000000E+00  0.00000000000E+00  0.21401619203E+03  0.21401619203E+03  0.00000000000E+00 0. -1.
         -1   -1    0    0    0  501 -0.00000000000E+00 -0.00000000000E+00 -0.55912403607E+02  0.55912403607E+02  0.00000000000E+00 0.  1.
         24    2    1    2    0    0  0.36249540187E+02 -0.10585079321E+02  0.67364205647E+02  0.11212607301E+03  0.81291124840E+02 0.  0.
         23    2    1    2    0    0 -0.40637311976E+02 -0.13634269155E+02  0.88582278732E+02  0.13309456151E+03  0.89610589655E+02 0.  0.
        -13    1    3    3    0    0  0.15957838363E+02  0.30707747913E+02  0.55192516296E+01  0.35043979878E+02  0.00000000000E+00 0.  1.
         14    1    3    3    0    0  0.20291701824E+02 -0.41292827235E+02  0.61844954017E+02  0.77082093130E+02  0.00000000000E+00 0. -1.
        -11    1    4    4    0    0 -0.27613967272E+02 -0.35715398344E+02  0.47083614295E+01  0.45390412365E+02  0.00000000000E+00 0.  1.
         11    1    4    4    0    0 -0.13023344704E+02  0.22081129189E+02  0.83873917303E+02  0.87704149145E+02  0.00000000000E+00 0. -1.
         -2    1    1    2    0  502  0.43877717886E+01  0.24219348476E+02  0.21573040435E+01  0.24707961118E+02  0.00000000000E+00 0.  1.
<scales pt_clust_5="13000.00000" pt_clust_6="13000.00000" pt_clust_7="13000.00000" pt_clust_8="13000.00000" pt_clust_9="13000.00000"></scales>
<clustering>
<clus scale="   81.291">  5  6 -1 -1</clus>
<clus scale="   89.611">  7  8 -1 -1</clus>
<clus scale="   24.614">  7  9 -1 -1</clus>
<clus scale="   89.634">  2  5  1 -1</clus>
<clus scale="  129.104">  1  5  2 -1</clus>
</clustering>
</event>
<event>
 9    2  0.3707658E-005  0.3611096E+03  0.7546771E-02  0.1108072E+00
         -3   -1    0    0    0  501 -0.00000000000E+00  0.00000000000E+00  0.12960998285E+03  0.12960998285E+03  0.00000000000E+00 0.  1.
         21   -1    0    0  501  502  0.00000000000E+00 -0.00000000000E+00 -0.40929977385E+03  0.40929977385E+03  0.00000000000E+00 0.  1.
         24    2    1    2    0    0  0.44122021305E+02 -0.97924516630E+01 -0.91388528893E+02  0.13165365261E+03  0.83295715125E+02 0.  0.
         23    2    1    2    0    0  0.42519848077E+02  0.15091560966E+03 -0.41808677808E+02  0.18616192392E+03  0.91240548327E+02 0.  0.
        -11    1    3    3    0    0  0.55026017870E+02  0.20138819176E+02 -0.76841898068E+02  0.96633906985E+02  0.00000000000E+00 0.  1.
         12    1    3    3    0    0 -0.10903996565E+02 -0.29931270839E+02 -0.14546630825E+02  0.35019745623E+02  0.00000000000E+00 0. -1.
        -13    1    4    4    0    0 -0.18407190239E+02  0.11256637689E+02 -0.24758083852E+02  0.32840512489E+02  0.00000000000E+00 0. -1.
         13    1    4    4    0    0  0.60927038316E+02  0.13965897197E+03 -0.17050593957E+02  0.15332141143E+03  0.00000000000E+00 0.  1.
         -4    1    1    2    0  502 -0.86641869382E+02 -0.14112315799E+03 -0.14649258430E+03  0.22109418017E+03  0.00000000000E+00 0.  1.
<scales pt_clust_5="13000.00000" pt_clust_6="13000.00000" pt_clust_7="13000.00000" pt_clust_8="13000.00000" pt_clust_9="13000.00000"></scales>
<clustering>
<clus scale="   83.296">  5  6 -1 -1</clus>
<clus scale="   91.241">  7  8 -1 -1</clus>
<clus scale="   94.767">  1  5  2 -1</clus>
<clus scale="  161.234">  7  9 -1 -1</clus>
<clus scale="  361.110">  2  5  1 -1</clus>
</clustering>
</event>
<event>
 9    2  0.3707658E-005  0.2290317E+03  0.7546771E-02  0.1152061E+00
          2   -1    0    0  502    0 -0.00000000000E+00  0.00000000000E+00  0.69519938492E+03  0.69519938492E+03  0.00000000000E+00 0. -1.
         21   -1    0    0  501  502  0.00000000000E+00 -0.00000000000E+00 -0.51798396803E+02  0.51798396803E+02  0.00000000000E+00 0. -1.
         24    2    1    2    0    0 -0.41038937548E+02 -0.87167645253E+02  0.11313326953E+03  0.16938253937E+03  0.81295234751E+02 0.  0.
         23    2    1    2    0    0 -0.40955720316E+02 -0.13957474495E+02  0.24125707316E+03  0.26063485348E+03  0.88619238196E+02 0.  0.
        -13    1    3    3    0    0  0.15775392750E+02 -0.59513873984E+02  0.67999651490E+02  0.91731765576E+02  0.00000000000E+00 0.  1.
         14    1    3    3    0    0 -0.56814330298E+02 -0.27653771269E+02  0.45133618041E+02  0.77650773789E+02  0.00000000000E+00 0. -1.
        -13    1    4    4    0    0 -0.51383390399E+02  0.23342268301E+02  0.10790983001E+03  0.12177703277E+03  0.00000000000E+00 0.  1.
         13    1    4    4    0    0  0.10427670083E+02 -0.37299742796E+02  0.13334724315E+03  0.13885782071E+03  0.00000000000E+00 0. -1.
          1    1    1    2  501    0  0.81994657864E+02  0.10112511975E+03  0.28901064542E+03  0.31698038887E+03  0.00000000000E+00 0. -1.
<scales pt_clust_5="13000.00000" pt_clust_6="13000.00000" pt_clust_7="13000.00000" pt_clust_8="13000.00000" pt_clust_9="13000.00000"></scales>
<clustering>
<clus scale="   81.295">  5  6 -1 -1</clus>
<clus scale="   88.619">  7  8 -1 -1</clus>
<clus scale="  126.061">  1  5  2 -1</clus>
<clus scale="   80.015">  7  9 -1 -1</clus>
<clus scale="  229.032">  2  5  1 -1</clus>
</clustering>
</event>
<event>
 9    2  0.3707658E-005  0.3272499E+03  0.7546771E-02  0.1083192E+00
         21   -1    0    0  501  502  0.00000000000E+00  0.00000000000E+00  0.43649243722E+03  0.43649243722E+03  0.00000000000E+00 0.  1.
          2   -1    0    0  502    0 -0.00000000000E+00 -0.00000000000E+00 -0.18907292772E+03  0.18907292772E+03  0.00000000000E+00 0. -1.
         24    2    1    2    0    0  0.22208439797E+03 -0.62910488631E+02  0.13841598158E+03  0.28063889617E+03  0.79498406795E+02 0.  0.
         23    2    1    2    0    0  0.32040497060E+01 -0.88203804924E+00  0.68347217259E+01  0.89460549173E+02  0.89137155618E+02 0.  0.
        -11    1    3    3    0    0  0.88410319112E+02 -0.92907087299E+01  0.95234283489E+02  0.13027766710E+03  0.00000000000E+00 0.  1.
         12    1    3    3    0    0  0.13367407886E+03 -0.53619779901E+02  0.43181698090E+02  0.15036122906E+03  0.00000000000E+00 0. -1.
        -13    1    4    4    0    0 -0.30472849698E+02 -0.28854354758E+02  0.15674909777E+02  0.44798115515E+02  0.00000000000E+00 0.  1.
         13    1    4    4    0    0  0.33676899404E+02  0.27972316709E+02 -0.88401880508E+01  0.44662433658E+02  0.00000000000E+00 0. -1.
          1    1    1    2  501    0 -0.22528844768E+03  0.63792526680E+02  0.10216880620E+03  0.25546591960E+03  0.00000000000E+00 0. -1.
<scales pt_clust_5="13000.00000" pt_clust_6="13000.00000" pt_clust_7="13000.00000" pt_clust_8="13000.00000" pt_clust_9="13000.00000"></scales>
<clustering>
<clus scale="   79.498">  5  6 -1 -1</clus>
<clus scale="   89.137">  7  8 -1 -1</clus>
<clus scale="  234.146">  7  9 -1 -1</clus>
<clus scale="  244.130">  2  5  1 -1</clus>
<clus scale="  327.250">  1  5  2 -1</clus>
</clustering>
</event>
<event>
 9    2  0.3707658E-005  0.1912889E+03  0.7546771E-02  0.1182920E+00
         21   -1    0    0  501  502  0.00000000000E+00  0.00000000000E+00  0.30297773164E+02  0.30297773164E+02  0.00000000000E+00 0. -1.
          2   -1    0    0  502    0 -0.00000000000E+00 -0.00000000000E+00 -0.10131696526E+04  0.10131696526E+04  0.00000000000E+00 0. -1.
         24    2    1    2    0    0  0.55956133066E+02  0.31212358932E+02 -0.65722655451E+03  0.66579516969E+03  0.85036250206E+02 0.  0.
         23    2    1    2    0    0  0.27000746723E+02 -0.93087161257E+01 -0.23038414741E+03  0.24946810085E+03  0.91333375305E+02 0.  0.
        -11    1    3    3    0    0  0.54832050412E+02  0.41643588209E+02 -0.27717693806E+03  0.28560076538E+03  0.00000000000E+00 0.  1.
         12    1    3    3    0    0  0.11240826540E+01 -0.10431229277E+02 -0.38004961645E+03  0.38019440431E+03  0.00000000000E+00 0. -1.
        -11    1    4    4    0    0 -0.52124870339E+01 -0.35240790115E+02 -0.18361109443E+03  0.18703506973E+03  0.00000000000E+00 0.  1.
         11    1    4    4    0    0  0.32213233757E+02  0.25932073989E+02 -0.46773052977E+02  0.62433031123E+02  0.00000000000E+00 0. -1.
          1    1    1    2  501    0 -0.82956879789E+02 -0.21903642806E+02 -0.95261177476E+02  0.12820415518E+03  0.00000000000E+00 0. -1.
<scales pt_clust_5="13000.00000" pt_clust_6="13000.00000" pt_clust_7="13000.00000" pt_clust_8="13000.00000" pt_clust_9="13000.00000"></scales>
<clustering>
<clus scale="   85.036">  5  6 -1 -1</clus>
<clus scale="   91.333">  7  8 -1 -1</clus>
<clus scale="   85.800">  7  9 -1 -1</clus>
<clus scale="  106.473">  2  5  1 -1</clus>
<clus scale="  191.289">  1  5  2 -1</clus>
</clustering>
</event>
<event>
 9    2  0.3707658E-005  0.2453432E+03  0.7546771E-02  0.1144409E+00
         21   -1    0    0  501  502  0.00000000000E+00  0.00000000000E+00  0.50564456835E+02  0.50564456835E+02  0.00000000000E+00 0.  1.
         -1   -1    0    0    0  501 -0.00000000000E+00 -0.00000000000E+00 -0.68406999721E+03  0.68406999721E+03  0.00000000000E+00 0.  1.
         24    2    1    2    0    0 -0.61943730506E+02 -0.69636538560E+02 -0.26183081852E+03  0.28928582174E+03  0.80278489515E+02 0.  0.
         23    2    1    2    0    0  0.10911226172E+03  0.72129437043E+02 -0.36455748063E+03  0.39758107006E+03  0.89779781923E+02 0.  0.
        -11    1    3    3    0    0 -0.66277519294E+02 -0.82405737481E+02 -0.24960860079E+03  0.27108645986E+03  0.00000000000E+00 0.  1.
         12    1    3    3    0    0  0.43337887879E+01  0.12769198921E+02 -0.12222217736E+02  0.18199361877E+02  0.00000000000E+00 0. -1.
        -11    1    4    4    0    0  0.85501459813E+02  0.92875692971E+02 -0.30819378711E+03  0.33304624962E+03  0.00000000000E+00 0.  1.
         11    1    4    4    0    0  0.23610801911E+02 -0.20746255928E+02 -0.56363693523E+02  0.64534820442E+02  0.00000000000E+00 0. -1.
         -2    1    1    2    0  502 -0.47168531217E+02 -0.24928984830E+01 -0.71172412206E+01  0.47767562243E+02  0.00000000000E+00 0.  1.
<scales pt_clust_5="13000.00000" pt_clust_6="13000.00000" pt_clust_7="13000.00000" pt_clust_8="13000.00000" pt_clust_9="13000.00000"></scales>
<clustering>
<clus scale="   80.278">  5  6 -1 -1</clus>
<clus scale="   89.780">  7  8 -1 -1</clus>
<clus scale="   47.234">  7  9 -1 -1</clus>
<clus scale="  123.008">  2  5  1 -1</clus>
<clus scale="  245.343">  1  5  2 -1</clus>
</clustering>
</event>
<event>
 9    2  0.3707658E-005  0.1779523E+03  0.7546771E-02  0.1199331E+00
         -3   -1    0    0    0  501 -0.00000000000E+00  0.00000000000E+00  0.36034350924E+03  0.36034350924E+03  0.00000000000E+00 0.  1.
         21   -1    0    0  501  502  0.00000000000E+00 -0.00000000000E+00 -0.52439074098E+02  0.52439074098E+02  0.00000000000E+00 0. -1.
         24    2    1    2    0    0  0.40508620034E+02  0.42074582065E+01  0.69946530037E+02  0.11564458444E+03  0.82598437306E+02 0.  0.
         23    2    1    2    0    0 -0.47993445864E+02  0.41307655843E+02  0.73130863784E+02  0.12597841904E+03  0.80701583312E+02 0.  0.
        -11    1    3    3    0    0  0.21651911238E+02 -0.26174348499E+02  0.72224636629E+02  0.79814158617E+02  0.00000000000E+00 0.  1.
         12    1    3    3    0    0  0.18856708796E+02  0.30381806705E+02 -0.22781065919E+01  0.35830425827E+02  0.00000000000E+00 0. -1.
        -13    1    4    4    0    0  0.47454929468E+01  0.47483302454E+02  0.23079221663E+02  0.53007869112E+02  0.00000000000E+00 0.  1.
         13    1    4    4    0    0 -0.52738938810E+02 -0.61756466107E+01  0.50051642121E+02  0.72970549929E+02  0.00000000000E+00 0. -1.
         -4    1    1    2    0  502  0.74848258292E+01 -0.45515114050E+02  0.16482704132E+03  0.17115957985E+03  0.00000000000E+00 0.  1.
<scales pt_clust_5="13000.00000" pt_clust_6="13000.00000" pt_clust_7="13000.00000" pt_clust_8="13000.00000" pt_clust_9="13000.00000"></scales>
<clustering>
<clus scale="   80.702">  7  8 -1 -1</clus>
<clus scale="   46.126">  7  9 -1 -1</clus>
<clus scale="   82.598">  5  6 -1 -1</clus>
<clus scale="   92.093">  1  5  2 -1</clus>
<clus scale="  177.952">  2  5  1 -1</clus>
</clustering>
</event>
<event>
 9    2  0.3707658E-005  0.2247508E+03  0.7546771E-02  0.1170556E+00
          2   -1    0    0  502    0 -0.00000000000E+00  0.00000000000E+00  0.61393030101E+03  0.61393030101E+03  0.00000000000E+00 0. -1.
         21   -1    0    0  501  502  0.00000000000E+00 -0.00000000000E+00 -0.39534208753E+02  0.39534208753E+02  0.00000000000E+00 0.  1.
         24    2    1    2    0    0 -0.23194284440E+02  0.40907847934E+01  0.16321961685E+03  0.18487191633E+03  0.83559995036E+02 0.  0.
         23    2    1    2    0    0 -0.61538941195E+02 -0.52149644761E+02  0.16641980545E+03  0.20516290445E+03  0.88823639797E+02 0.  0.
        -11    1    3    3    0    0 -0.28518876507E+02  0.21077873774E+02  0.16326274681E+03  0.16706982845E+03  0.00000000000E+00 0.  1.
         12    1    3    3    0    0  0.53245920667E+01 -0.16987088980E+02 -0.43129962373E-01  0.17802087880E+02  0.00000000000E+00 0. -1.
        -11    1    4    4    0    0 -0.49255104551E+00 -0.58485527905E+02  0.85843539563E+02  0.10387450537E+03  0.00000000000E+00 0.  1.
         11    1    4    4    0    0 -0.61046390150E+02  0.63358831436E+01  0.80576265885E+02  0.10128839909E+03  0.00000000000E+00 0. -1.
          1    1    1    2  501    0  0.84733225635E+02  0.48058859968E+02  0.24475666996E+03  0.26342968898E+03  0.00000000000E+00 0. -1.
<scales pt_clust_5="13000.00000" pt_clust_6="13000.00000" pt_clust_7="13000.00000" pt_clust_8="13000.00000" pt_clust_9="13000.00000"></scales>
<clustering>
<clus scale="   83.560">  5  6 -1 -1</clus>
<clus scale="   86.816">  1  5  2 -1</clus>
<clus scale="   88.824">  7  8 -1 -1</clus>
<clus scale="   87.356">  7  9 -1 -1</clus>
<clus scale="  224.751">  2  5  1 -1</clus>
</clustering>
</event>
<event>
 9    2  0.3707658E-005  0.1875294E+03  0.7546771E-02  0.1179029E+00
         21   -1    0    0  501  502  0.00000000000E+00  0.00000000000E+00  0.24221814968E+03  0.24221814968E+03  0.00000000000E+00 0.  1.
         -1   -1    0    0    0  501 -0.00000000000E+00 -0.00000000000E+00 -0.14258781508E+03  0.14258781508E+03  0.00000000000E+00 0.  1.
         24    2    1    2    0    0  0.49582576128E+02  0.79855268880E+02  0.14651549232E+03  0.19150436726E+03  0.79823789478E+02 0.  0.
         23    2    1    2    0    0 -0.19841319952E+02 -0.75290760340E+02 -0.68107838095E+02  0.15648069014E+03  0.11741018783E+03 0.  0.
        -11    1    3    3    0    0 -0.10652276546E+02  0.58390155616E+02  0.68889404749E+02  0.90932015018E+02  0.00000000000E+00 0.  1.
         12    1    3    3    0    0  0.60234852674E+02  0.21465113263E+02  0.77626087573E+02  0.10057235224E+03  0.00000000000E+00 0. -1.
        -11    1    4    4    0    0 -0.19392470224E+02 -0.10086330573E+03 -0.23974149855E+02  0.10547148527E+03  0.00000000000E+00 0.  1.
         11    1    4    4    0    0 -0.44884972733E+00  0.25572545385E+02 -0.44133688240E+02  0.51009204868E+02  0.00000000000E+00 0. -1.
         -2    1    1    2    0  502 -0.29741256176E+02 -0.45645085397E+01  0.21222680366E+02  0.36820907363E+02  0.00000000000E+00 0.  1.
<scales pt_clust_5="13000.00000" pt_clust_6="13000.00000" pt_clust_7="13000.00000" pt_clust_8="13000.00000" pt_clust_9="13000.00000"></scales>
<clustering>
<clus scale="   79.824">  5  6 -1 -1</clus>
<clus scale="  117.410">  7  8 -1 -1</clus>
<clus scale="   30.089">  7  9 -1 -1</clus>
<clus scale="  123.317">  2  5  1 -1</clus>
<clus scale="  187.529">  1  5  2 -1</clus>
</clustering>
</event>
<event>
 9    2  0.3707658E-005  0.3047345E+03  0.7546771E-02  0.1092938E+00
          2   -1    0    0  502    0 -0.00000000000E+00  0.00000000000E+00  0.12865802046E+03  0.12865802046E+03  0.00000000000E+00 0. -1.
         21   -1    0    0  501  502  0.00000000000E+00 -0.00000000000E+00 -0.57158559698E+03  0.57158559698E+03  0.00000000000E+00 0. -1.
         24    2    1    2    0    0 -0.21492357806E+03  0.43945202844E+02 -0.23555593677E+03  0.33164337528E+03  0.79858648600E+02 0.  0.
         23    2    1    2    0    0  0.15990149206E+02  0.64107736797E+01 -0.30886460437E+02  0.97939472929E+02  0.91331177746E+02 0.  0.
        -11    1    3    3    0    0 -0.96217503694E+02 -0.41661577249E+01 -0.14769220818E+03  0.17631832929E+03  0.00000000000E+00 0.  1.
         12    1    3    3    0    0 -0.11870607437E+03  0.48111360569E+02 -0.87863728589E+02  0.15532504598E+03  0.00000000000E+00 0. -1.
        -11    1    4    4    0    0  0.37706358003E+02  0.36010658962E+02 -0.37253768454E+01  0.52272511183E+02  0.00000000000E+00 0. -1.
         11    1    4    4    0    0 -0.21716208797E+02 -0.29599885282E+02 -0.27161083591E+02  0.45666961746E+02  0.00000000000E+00 0.  1.
          1    1    1    2  501    0  0.19893342886E+03 -0.50355976523E+02 -0.17648517931E+03  0.27066076924E+03  0.00000000000E+00 0. -1.
<scales pt_clust_5="13000.00000" pt_clust_6="13000.00000" pt_clust_7="13000.00000" pt_clust_8="13000.00000" pt_clust_9="13000.00000"></scales>
<clustering>
<clus scale="   79.859">  5  6 -1 -1</clus>
<clus scale="   91.331">  7  8 -1 -1</clus>
<clus scale="  205.208">  7  9 -1 -1</clus>
<clus scale="  233.454">  1  5  2 -1</clus>
<clus scale="  304.735">  2  5  1 -1</clus>
</clustering>
</event>
<event>
 9    2  0.3707658E-005  0.2898868E+03  0.7546771E-02  0.1099851E+00
         21   -1    0    0  501  502  0.00000000000E+00  0.00000000000E+00  0.84341153908E+02  0.84341153908E+02  0.00000000000E+00 0. -1.
          2   -1    0    0  502    0 -0.00000000000E+00 -0.00000000000E+00 -0.12571089500E+04  0.12571089500E+04  0.00000000000E+00 0. -1.
         24    2    1    2    0    0  0.19751595254E+03 -0.77039119249E+02 -0.94793511006E+03  0.97459308038E+03  0.79392203953E+02 0.  0.
         23    2    1    2    0    0 -0.10012499713E+03 -0.30588577412E+01 -0.19378190701E+03  0.23699234402E+03  0.92625978964E+02 0.  0.
        -11    1    3    3    0    0  0.59034900860E+02 -0.29206382091E+02 -0.15787314199E+03  0.17106157148E+03  0.00000000000E+00 0.  1.
         12    1    3    3    0    0  0.13848105168E+03 -0.47832737157E+02 -0.79006196806E+03  0.80353150890E+03  0.00000000000E+00 0. -1.
        -13    1    4    4    0    0 -0.60470282344E+02  0.43960512889E+02 -0.10052039992E+03  0.12527383023E+03  0.00000000000E+00 0.  1.
         13    1    4    4    0    0 -0.39654714791E+02 -0.47019370630E+02 -0.93261507086E+02  0.11171851379E+03  0.00000000000E+00 0. -1.
          1    1    1    2  501    0 -0.97390955404E+02  0.80097976990E+02 -0.31050779065E+02  0.12986467954E+03  0.00000000000E+00 0. -1.
<scales pt_clust_5="13000.00000" pt_clust_6="13000.00000" pt_clust_7="13000.00000" pt_clust_8="13000.00000" pt_clust_9="13000.00000"></scales>
<clustering>
<clus scale="   79.392">  5  6 -1 -1</clus>
<clus scale="   92.626">  7  8 -1 -1</clus>
<clus scale="  126.098">  7  9 -1 -1</clus>
<clus scale="  226.386">  2  5  1 -1</clus>
<clus scale="  289.887">  1  5  2 -1</clus>
</clustering>
</event>
<event>
 9    2  0.3707658E-005  0.2606837E+03  0.7546771E-02  0.1134810E+00
          2   -1    0    0  502    0 -0.00000000000E+00  0.00000000000E+00  0.50546296097E+03  0.50546296097E+03  0.00000000000E+00 0. -1.
         21   -1    0    0  501  502  0.00000000000E+00 -0.00000000000E+00 -0.10842946942E+03  0.10842946942E+03  0.00000000000E+00 0. -1.
         24    2    1    2    0    0 -0.96649835509E+02  0.31381614496E+02  0.31517299992E+03  0.34065788083E+03  0.79923560088E+02 0.  0.
         23    2    1    2    0    0  0.25267489768E+02  0.92396636737E+01  0.14236309138E+03  0.17122429469E+03  0.91250708922E+02 0.  0.
        -13    1    3    3    0    0 -0.32391409649E+02 -0.20439816470E+02  0.50321526757E+02  0.63239588641E+02  0.00000000000E+00 0.  1.
         14    1    3    3    0    0 -0.64258425860E+02  0.51821430966E+02  0.26485147317E+03  0.27741829219E+03  0.00000000000E+00 0. -1.
        -11    1    4    4    0    0  0.46284499013E+02 -0.24677686631E+02  0.10066624763E+03  0.11351183409E+03  0.00000000000E+00 0.  1.
         11    1    4    4    0    0 -0.21017009245E+02  0.33917350305E+02  0.41696843758E+02  0.57712460601E+02  0.00000000000E+00 0. -1.
          1    1    1    2  501    0  0.71382345741E+02 -0.40621278170E+02 -0.60502599757E+02  0.10201025488E+03  0.00000000000E+00 0. -1.
<scales pt_clust_5="13000.00000" pt_clust_6="13000.00000" pt_clust_7="13000.00000" pt_clust_8="13000.00000" pt_clust_9="13000.00000"></scales>
<clustering>
<clus scale="   79.924">  5  6 -1 -1</clus>
<clus scale="   91.251">  7  8 -1 -1</clus>
<clus scale="   82.131">  7  9 -1 -1</clus>
<clus scale="  129.282">  1  5  2 -1</clus>
<clus scale="  260.684">  2  5  1 -1</clus>
</clustering>
</event>
<event>
 9    2  0.3707658E-005  0.1093135E+04  0.7546771E-02  0.9399506E-01
         -1   -1    0    0    0  501 -0.00000000000E+00  0.00000000000E+00  0.78901475349E+03  0.78901475349E+03  0.00000000000E+00 0.  1.
         21   -1    0    0  501  502  0.00000000000E+00 -0.00000000000E+00 -0.12065027154E+04  0.12065027154E+04  0.00000000000E+00 0.  1.
         24    2    1    2    0    0 -0.47703232677E+03 -0.26435178352E+03  0.35619336801E+03  0.65629154055E+03  0.80019775972E+02 0.  0.
         23    2    1    2    0    0 -0.20804195410E+03 -0.12521096374E+03 -0.47077501485E+02  0.26729354806E+03  0.10134253590E+03 0.  0.
        -13    1    3    3    0    0 -0.37532716639E+03 -0.23453104078E+03  0.26084221951E+03  0.51372556331E+03  0.00000000000E+00 0.  1.
         14    1    3    3    0    0 -0.10170516039E+03 -0.29820742738E+02  0.95351148496E+02  0.14256597724E+03  0.00000000000E+00 0. -1.
        -11    1    4    4    0    0 -0.12170655441E+03 -0.81349446036E+02  0.22420899234E+02  0.14809765184E+03  0.00000000000E+00 0. -1.
         11    1    4    4    0    0 -0.86335399684E+02 -0.43861517706E+02 -0.69498400719E+02  0.11919589622E+03  0.00000000000E+00 0.  1.
         -2    1    1    2    0  502  0.68507428087E+03  0.38956274726E+03 -0.72660382840E+03  0.10719323802E+04  0.00000000000E+00 0.  1.
<scales pt_clust_5="13000.00000" pt_clust_6="13000.00000" pt_clust_7="13000.00000" pt_clust_8="13000.00000" pt_clust_9="13000.00000"></scales>
<clustering>
<clus scale="   80.020">  5  6 -1 -1</clus>
<clus scale="  101.343">  7  8 -1 -1</clus>
<clus scale="  551.221">  1  5  2 -1</clus>
<clus scale="  455.108">  7  9 -1 -1</clus>
<clus scale=" 1093.135">  2  5  1 -1</clus>
</clustering>
</event>
<event>
 9    2  0.3707658E-005  0.5283627E+03  0.7546771E-02  0.1061895E+00
         21   -1    0    0  501  502  0.00000000000E+00  0.00000000000E+00  0.47951536356E+02  0.47951536356E+02  0.00000000000E+00 0. -1.
          2   -1    0    0  502    0 -0.00000000000E+00 -0.00000000000E+00 -0.20943241407E+04  0.20943241407E+04  0.00000000000E+00 0. -1.
         24    2    1    2    0    0 -0.39089132459E+02 -0.52295000736E+02 -0.28236398480E+03  0.30083776786E+03  0.80692101703E+02 0.  0.
         23    2    1    2    0    0 -0.13048661068E+03 -0.17063425571E+03 -0.59300388472E+03  0.63740075237E+03  0.92104869826E+02 0.  0.
        -13    1    3    3    0    0 -0.31776349218E+02 -0.52741145856E+02 -0.28607403679E+03  0.29262556170E+03  0.00000000000E+00 0.  1.
         14    1    3    3    0    0 -0.73127832409E+01  0.44614512026E+00  0.37100519872E+01  0.82122061558E+01  0.00000000000E+00 0. -1.
        -13    1    4    4    0    0 -0.12552582224E+03 -0.14498535351E+03 -0.57373932224E+03  0.60494156302E+03  0.00000000000E+00 0. -1.
         13    1    4    4    0    0 -0.49607884343E+01 -0.25648902202E+02 -0.19264562478E+02  0.32459189355E+02  0.00000000000E+00 0.  1.
          1    1    1    2  501    0  0.16957574314E+03  0.22292925645E+03 -0.11710047348E+04  0.12040371568E+04  0.00000000000E+00 0. -1.
<scales pt_clust_5="13000.00000" pt_clust_6="13000.00000" pt_clust_7="13000.00000" pt_clust_8="13000.00000" pt_clust_9="13000.00000"></scales>
<clustering>
<clus scale="   80.692">  5  6 -1 -1</clus>
<clus scale="   92.105">  7  8 -1 -1</clus>
<clus scale="  103.798">  2  5  1 -1</clus>
<clus scale="  237.089">  7  9 -1 -1</clus>
<clus scale="  528.363">  1  5  2 -1</clus>
</clustering>
</event>
<event>
 9    2  0.3707658E-005  0.2084928E+03  0.7546771E-02  0.1168790E+00
          2   -1    0    0  502    0 -0.00000000000E+00  0.00000000000E+00  0.17616075813E+03  0.17616075813E+03  0.00000000000E+00 0. -1.
         21   -1    0    0  501  502  0.00000000000E+00 -0.00000000000E+00 -0.14962297486E+03  0.14962297486E+03  0.00000000000E+00 0. -1.
         24    2    1    2    0    0 -0.76256390518E+02 -0.18540989377E+02  0.30433328828E+02  0.11725454376E+03  0.81631091793E+02 0.  0.
         23    2    1    2    0    0 -0.23201107538E+02  0.44665978160E+01  0.33603916855E+02  0.10130935851E+03  0.92607348559E+02 0.  0.
        -11    1    3    3    0    0 -0.34158063320E+02  0.21266650187E+02  0.42009167274E+02  0.58170558146E+02  0.00000000000E+00 0.  1.
         12    1    3    3    0    0 -0.42098327198E+02 -0.39807639565E+02 -0.11575838446E+02  0.59083985616E+02  0.00000000000E+00 0. -1.
        -11    1    4    4    0    0  0.20143493240E+02 -0.32035298884E+02  0.20922165043E+02  0.43240694774E+02  0.00000000000E+00 0.  1.
         11    1    4    4    0    0 -0.43344600779E+02  0.36501896700E+02  0.12681751812E+02  0.58068663738E+02  0.00000000000E+00 0. -1.
          1    1    1    2  501    0  0.99457498056E+02  0.14074391561E+02 -0.37499462410E+02  0.10721983071E+03  0.00000000000E+00 0. -1.
<scales pt_clust_5="13000.00000" pt_clust_6="13000.00000" pt_clust_7="13000.00000" pt_clust_8="13000.00000" pt_clust_9="13000.00000"></scales>
<clustering>
<clus scale="   81.631">  5  6 -1 -1</clus>
<clus scale="   92.607">  7  8 -1 -1</clus>
<clus scale="  100.448">  7  9 -1 -1</clus>
<clus scale="  113.236">  1  5  2 -1</clus>
<clus scale="  208.493">  2  5  1 -1</clus>
</clustering>
</event>
<event>
 9    2  0.3707658E-005  0.2519056E+03  0.7546771E-02  0.1157163E+00
          2   -1    0    0  502    0 -0.00000000000E+00  0.00000000000E+00  0.55817073516E+03  0.55817073516E+03  0.00000000000E+00 0. -1.
         21   -1    0    0  501  502  0.00000000000E+00 -0.00000000000E+00 -0.82872247449E+02  0.82872247449E+02  0.00000000000E+00 0.  1.
         24    2    1    2    0    0  0.27170979410E+02 -0.36510270809E+01  0.34952124882E+03  0.35948246677E+03  0.79441477946E+02 0.  0.
         23    2    1    2    0    0 -0.73300062865E+02  0.17334728781E+02 -0.26671340778E+02  0.12169899615E+03  0.91792664237E+02 0.  0.
        -13    1    3    3    0    0  0.14161783725E+01 -0.38053526381E+02  0.11755074272E+03  0.12356477470E+03  0.00000000000E+00 0.  1.
         14    1    3    3    0    0  0.25754801037E+02  0.34402499300E+02  0.23197050609E+03  0.23591769207E+03  0.00000000000E+00 0. -1.
        -11    1    4    4    0    0 -0.64866118150E+02 -0.21342455098E+02  0.84128694225E+01  0.68803270601E+02  0.00000000000E+00 0.  1.
         11    1    4    4    0    0 -0.84339447149E+01  0.38677183879E+02 -0.35084210201E+02  0.52895725552E+02  0.00000000000E+00 0. -1.
          1    1    1    2  501    0  0.46129083455E+02 -0.13683701700E+02  0.15244857967E+03  0.15986151969E+03  0.00000000000E+00 0. -1.
<scales pt_clust_5="13000.00000" pt_clust_6="13000.00000" pt_clust_7="13000.00000" pt_clust_8="13000.00000" pt_clust_9="13000.00000"></scales>
<clustering>
<clus scale="   79.441">  5  6 -1 -1</clus>
<clus scale="   84.039">  1  5  2 -1</clus>
<clus scale="   91.793">  7  8 -1 -1</clus>
<clus scale="   68.960">  7  9 -1 -1</clus>
<clus scale="  251.906">  2  5  1 -1</clus>
</clustering>
</event>
<event>
 9    2  0.3707658E-005  0.1823739E+03  0.7546771E-02  0.1193128E+00
          2   -1    0    0  502    0 -0.00000000000E+00  0.00000000000E+00  0.65054101346E+03  0.65054101346E+03  0.00000000000E+00 0. -1.
         21   -1    0    0  501  502  0.00000000000E+00 -0.00000000000E+00 -0.30428413037E+02  0.30428413037E+02  0.00000000000E+00 0. -1.
         24    2    1    2    0    0 -0.48429646866E+02 -0.17733266017E+02  0.18957978708E+03  0.21340258677E+03  0.83308276627E+02 0.  0.
         23    2    1    2    0    0  0.24707934647E+02 -0.53611845726E+02  0.25339607649E+03  0.27513433690E+03  0.89468540406E+02 0.  0.
        -13    1    3    3    0    0  0.14575891056E+02  0.19356483996E+02  0.58342530715E+02  0.63174211218E+02  0.00000000000E+00 0.  1.
         14    1    3    3    0    0 -0.63005537923E+02 -0.37089750013E+02  0.13123725636E+03  0.15022837555E+03  0.00000000000E+00 0. -1.
        -13    1    4    4    0    0 -0.31774309693E+02 -0.43861526596E+01  0.83646134549E+02  0.89585271762E+02  0.00000000000E+00 0.  1.
         13    1    4    4    0    0  0.56482244340E+02 -0.49225693066E+02  0.16974994194E+03  0.18554906514E+03  0.00000000000E+00 0. -1.
          1    1    1    2  501    0  0.23721712219E+02  0.71345111743E+02  0.17713673686E+03  0.19243250283E+03  0.00000000000E+00 0. -1.
<scales pt_clust_5="13000.00000" pt_clust_6="13000.00000" pt_clust_7="13000.00000" pt_clust_8="13000.00000" pt_clust_9="13000.00000"></scales>
<clustering>
<clus scale="   83.308">  5  6 -1 -1</clus>
<clus scale="   89.469">  7  8 -1 -1</clus>
<clus scale="   75.185">  7  9 -1 -1</clus>
<clus scale="   97.980">  1  5  2 -1</clus>
<clus scale="  182.374">  2  5  1 -1</clus>
</clustering>
</event>
<event>
 9    2  0.3707658E-005  0.2285288E+03  0.7546771E-02  0.1138354E+00
         -1   -1    0    0    0  501 -0.00000000000E+00  0.00000000000E+00  0.32353167599E+02  0.32353167599E+02  0.00000000000E+00 0.  1.
         21   -1    0    0  501  502  0.00000000000E+00 -0.00000000000E+00 -0.12656941649E+04  0.12656941649E+04  0.00000000000E+00 0.  1.
         24    2    1    2    0    0  0.93262096107E+02 -0.12543082550E+03 -0.52157808344E+03  0.55049675108E+03  0.81069508890E+02 0.  0.
         23    2    1    2    0    0 -0.34803534893E+02  0.20552984624E+02 -0.43357750802E+03  0.44455902228E+03  0.89496131838E+02 0.  0.
        -11    1    3    3    0    0  0.10818810579E+03 -0.10578934502E+03 -0.45447732110E+03  0.47900489261E+03  0.00000000000E+00 0.  1.
         12    1    3    3    0    0 -0.14926009685E+02 -0.19641480479E+02 -0.67100762345E+02  0.71491858472E+02  0.00000000000E+00 0. -1.
        -11    1    4    4    0    0  0.29595104350E+02  0.15127514579E+02 -0.13031736604E+03  0.13448913633E+03  0.00000000000E+00 0. -1.
         11    1    4    4    0    0 -0.64398639244E+02  0.54254700454E+01 -0.30326014198E+03  0.31006988596E+03  0.00000000000E+00 0.  1.
         -2    1    1    2    0  502 -0.58458561214E+02  0.10487784087E+03 -0.27818540587E+03  0.30299155917E+03  0.00000000000E+00 0.  1.
<scales pt_clust_5="13000.00000" pt_clust_6="13000.00000" pt_clust_7="13000.00000" pt_clust_8="13000.00000" pt_clust_9="13000.00000"></scales>
<clustering>
<clus scale="   81.070">  5  6 -1 -1</clus>
<clus scale="   89.496">  7  8 -1 -1</clus>
<clus scale="  120.070">  7  9 -1 -1</clus>
<clus scale="  176.077">  1  5  2 -1</clus>
<clus scale="  228.529">  2  5  1 -1</clus>
</clustering>
</event>
<event>
 9    2  0.3707658E-005  0.2474249E+03  0.7546771E-02  0.1131045E+00
          2   -1    0    0  502    0 -0.00000000000E+00  0.00000000000E+00  0.15056536597E+04  0.15056536597E+04  0.00000000000E+00 0. -1.
         21   -1    0    0  501  502  0.00000000000E+00 -0.00000000000E+00 -0.30774642928E+02  0.30774642928E+02  0.00000000000E+00 0.  1.
         24    2    1    2    0    0 -0.70670140964E+02  0.13187645797E+03  0.39138945044E+03  0.42504686006E+03  0.71368496836E+02 0.  0.
         23    2    1    2    0    0 -0.15911600714E+02 -0.58219281093E+02  0.30387717701E+03  0.32352532926E+03  0.93191395717E+02 0.  0.
        -11    1    3    3    0    0 -0.40162336250E+02  0.12840166007E+03  0.30468115164E+03  0.33306246220E+03  0.00000000000E+00 0.  1.
         12    1    3    3    0    0 -0.30507804714E+02  0.34747978982E+01  0.86708298795E+02  0.91984397856E+02  0.00000000000E+00 0. -1.
        -11    1    4    4    0    0 -0.44035980286E+02 -0.66947766223E+02  0.19722174993E+03  0.21287928412E+03  0.00000000000E+00 0.  1.
         11    1    4    4    0    0  0.28124379573E+02  0.87284851300E+01  0.10665542708E+03  0.11064604514E+03  0.00000000000E+00 0. -1.
          1    1    1    2  501    0  0.86581741678E+02 -0.73657176874E+02  0.77961238932E+03  0.78785611331E+03  0.00000000000E+00 0. -1.
<scales pt_clust_5="13000.00000" pt_clust_6="13000.00000" pt_clust_7="13000.00000" pt_clust_8="13000.00000" pt_clust_9="13000.00000"></scales>
<clustering>
<clus scale="   71.368">  5  6 -1 -1</clus>
<clus scale="   93.191">  7  8 -1 -1</clus>
<clus scale="  113.674">  7  9 -1 -1</clus>
<clus scale="  165.768">  1  5  2 -1</clus>
<clus scale="  247.425">  2  5  1 -1</clus>
</clustering>
</event>
<event>
 9    2  0.3707658E-005  0.2547562E+03  0.7546771E-02  0.1144088E+00
         21   -1    0    0  501  502  0.00000000000E+00  0.00000000000E+00  0.29532190439E+03  0.29532190439E+03  0.00000000000E+00 0.  1.
         -1   -1    0    0    0  501 -0.00000000000E+00 -0.00000000000E+00 -0.11319708532E+03  0.11319708532E+03  0.00000000000E+00 0.  1.
         24    2    1    2    0    0 -0.80677251896E+01 -0.75610881187E+02  0.48999638492E+02  0.12107677917E+03  0.80476880771E+02 0.  0.
         23    2    1    2    0    0  0.88280916748E+01 -0.74496583694E+01 -0.36263190337E+02  0.98783652315E+02  0.91157876120E+02 0.  0.
        -13    1    3    3    0    0 -0.37270052273E+02 -0.37211155403E+02  0.50285638154E+02  0.72817390007E+02  0.00000000000E+00 0.  1.
         14    1    3    3    0    0  0.29202327084E+02 -0.38399725784E+02 -0.12859996624E+01  0.48259389164E+02  0.00000000000E+00 0. -1.
        -11    1    4    4    0    0 -0.32430508904E+02 -0.30392384254E+02 -0.21097579729E+02  0.49199012174E+02  0.00000000000E+00 0.  1.
         11    1    4    4    0    0  0.41258600579E+02  0.22942725885E+02 -0.15165610608E+02  0.49584640141E+02  0.00000000000E+00 0. -1.
         -2    1    1    2    0  502 -0.76036648529E+00  0.83060539557E+02  0.16938837091E+03  0.18865855822E+03  0.00000000000E+00 0.  1.
<scales pt_clust_5="13000.00000" pt_clust_6="13000.00000" pt_clust_7="13000.00000" pt_clust_8="13000.00000" pt_clust_9="13000.00000"></scales>
<clustering>
<clus scale="   80.477">  5  6 -1 -1</clus>
<clus scale="   91.158">  7  8 -1 -1</clus>
<clus scale="   83.064">  7  9 -1 -1</clus>
<clus scale="  110.719">  2  5  1 -1</clus>
<clus scale="  254.756">  1  5  2 -1</clus>
</clustering>
</event>
<event>
 9    2  0.3707658E-005  0.1600905E+03  0.7546771E-02  0.1216920E+00
          2   -1    0    0  502    0 -0.00000000000E+00  0.00000000000E+00  0.33671434442E+03  0.33671434442E+03  0.00000000000E+00 0. -1.
         21   -1    0    0  501  502  0.00000000000E+00 -0.00000000000E+00 -0.94437685559E+02  0.94437685559E+02  0.00000000000E+00 0.  1.
         24    2    1    2    0    0  0.21066909590E+02 -0.24186952487E+02  0.25616173464E+03  0.27046048513E+03  0.80630120751E+02 0.  0.
         23    2    1    2    0    0  0.22413780914E+02  0.52205297416E+02 -0.24883813396E+02  0.10780893591E+03  0.88180450435E+02 0.  0.
        -11    1    3    3    0    0  0.96111848453E+01 -0.38168214584E+02  0.50600706501E+02  0.64106309963E+02  0.00000000000E+00 0.  1.
         12    1    3    3    0    0  0.11455724745E+02  0.13981262096E+02  0.20556102814E+03  0.20635417517E+03  0.00000000000E+00 0. -1.
        -11    1    4    4    0    0 -0.72892271442E+01  0.67552682250E+02 -0.29472868474E+02  0.74061782909E+02  0.00000000000E+00 0.  1.
         11    1    4    4    0    0  0.29703008058E+02 -0.15347384833E+02  0.45890550781E+01  0.33747152997E+02  0.00000000000E+00 0. -1.
          1    1    1    2  501    0 -0.43480690504E+02 -0.28018344929E+02  0.10998737614E+02  0.52882608941E+02  0.00000000000E+00 0. -1.
<scales pt_clust_5="13000.00000" pt_clust_6="13000.00000" pt_clust_7="13000.00000" pt_clust_8="13000.00000" pt_clust_9="13000.00000"></scales>
<clustering>
<clus scale="   80.630">  5  6 -1 -1</clus>
<clus scale="   86.776">  1  5  2 -1</clus>
<clus scale="   88.180">  7  8 -1 -1</clus>
<clus scale="   51.604">  7  9 -1 -1</clus>
<clus scale="  160.091">  2  5  1 -1</clus>
</clustering>
</event>
<event>
 9    2  0.3707658E-005  0.1869383E+03  0.7546771E-02  0.1187263E+00
         21   -1    0    0  501  502  0.00000000000E+00  0.00000000000E+00  0.25897120718E+02  0.25897120718E+02  0.00000000000E+00 0. -1.
          2   -1    0    0  502    0 -0.00000000000E+00 -0.00000000000E+00 -0.14913893327E+04  0.14913893327E+04  0.00000000000E+00 0. -1.
         24    2    1    2    0    0  0.54040511461E+02  0.11216287531E+02 -0.11172697064E+04  0.11220588846E+04  0.87626261841E+02 0.  0.
         23    2    1    2    0    0 -0.72434417404E+02 -0.46112207794E+02 -0.16689296987E+03  0.20965693115E+03  0.93432782568E+02 0.  0.
        -13    1    3    3    0    0 -0.20563174599E+02  0.55971441856E+00 -0.10552043051E+03  0.10750683087E+03  0.00000000000E+00 0.  1.
         14    1    3    3    0    0  0.74603686060E+02  0.10656573112E+02 -0.10117492759E+04  0.10145520538E+04  0.00000000000E+00 0. -1.
        -13    1    4    4    0    0  0.18623561638E+02 -0.20905912928E+02 -0.64599206555E+02  0.70405622865E+02  0.00000000000E+00 0.  1.
         13    1    4    4    0    0 -0.91057979043E+02 -0.25206294866E+02 -0.10229376331E+03  0.13925130829E+03  0.00000000000E+00 0. -1.
          1    1    1    2  501    0  0.18393905943E+02  0.34895920263E+02 -0.18132953574E+03  0.18557063765E+03  0.00000000000E+00 0. -1.
<scales pt_clust_5="13000.00000" pt_clust_6="13000.00000" pt_clust_7="13000.00000" pt_clust_8="13000.00000" pt_clust_9="13000.00000"></scales>
<clustering>
<clus scale="   87.626">  5  6 -1 -1</clus>
<clus scale="   93.433">  7  8 -1 -1</clus>
<clus scale="   39.447">  7  9 -1 -1</clus>
<clus scale="  103.559">  2  5  1 -1</clus>
<clus scale="  186.938">  1  5  2 -1</clus>
</clustering>
</event>
<event>
 9    2  0.3707658E-005  0.8143659E+03  0.7546771E-02  0.1010828E+00
         21   -1    0    0  501  502  0.00000000000E+00  0.00000000000E+00  0.11875482258E+03  0.11875482258E+03  0.00000000000E+00 0.  1.
          2   -1    0    0  502    0 -0.00000000000E+00 -0.00000000000E+00 -0.21450469526E+04  0.21450469526E+04  0.00000000000E+00 0. -1.
         24    2    1    2    0    0  0.17696739434E+02  0.99880584391E+02 -0.66941095943E+03  0.68129794571E+03  0.75937819927E+02 0.  0.
         23    2    1    2    0    0 -0.25401054409E+03  0.20659619886E+03 -0.99905294917E+03  0.10554238839E+04  0.92787033783E+02 0.  0.
        -11    1    3    3    0    0  0.30579657434E+02  0.13068373314E+02 -0.10604671138E+03  0.11113866485E+03  0.00000000000E+00 0.  1.
         12    1    3    3    0    0 -0.12882918000E+02  0.86812211077E+02 -0.56336424805E+03  0.57015928086E+03  0.00000000000E+00 0. -1.
        -13    1    4    4    0    0 -0.12102807937E+03  0.15365075749E+03 -0.62644279188E+03  0.65626741712E+03  0.00000000000E+00 0.  1.
         13    1    4    4    0    0 -0.13298246471E+03  0.52945441375E+02 -0.37261015729E+03  0.39915646682E+03  0.00000000000E+00 0. -1.
          1    1    1    2  501    0  0.23631380465E+03 -0.30647678326E+03 -0.35782822140E+03  0.52707994553E+03  0.00000000000E+00 0. -1.
<scales pt_clust_5="13000.00000" pt_clust_6="13000.00000" pt_clust_7="13000.00000" pt_clust_8="13000.00000" pt_clust_9="13000.00000"></scales>
<clustering>
<clus scale="   75.938">  5  6 -1 -1</clus>
<clus scale="   92.787">  7  8 -1 -1</clus>
<clus scale="  126.712">  2  5  1 -1</clus>
<clus scale="  367.140">  7  9 -1 -1</clus>
<clus scale="  814.366">  1  5  2 -1</clus>
</clustering>
</event>
<event>
 9    2  0.3707658E-005  0.1726374E+03  0.7546771E-02  0.1208173E+00
         -1   -1    0    0    0  501 -0.00000000000E+00  0.00000000000E+00  0.36846633867E+03  0.36846633867E+03  0.00000000000E+00 0.  1.
         21   -1    0    0  501  502  0.00000000000E+00 -0.00000000000E+00 -0.68652574083E+02  0.68652574083E+02  0.00000000000E+00 0. -1.
         24    2    1    2    0    0 -0.17313608708E+02  0.38328622136E+00  0.24057328353E+03  0.25460014627E+03  0.81521909791E+02 0.  0.
         23    2    1    2    0    0  0.23179825571E+02 -0.38317903440E+02 -0.10425159411E+02  0.10297790186E+03  0.92142271974E+02 0.  0.
        -11    1    3    3    0    0 -0.65172670382E+01  0.40477412939E+02  0.13735197412E+03  0.14334036599E+03  0.00000000000E+00 0.  1.
         12    1    3    3    0    0 -0.10796341670E+02 -0.40094126718E+02  0.10322130942E+03  0.11125978028E+03  0.00000000000E+00 0. -1.
        -11    1    4    4    0    0 -0.20030160881E+02  0.15904961909E+02  0.14377630988E+02  0.29340951435E+02  0.00000000000E+00 0.  1.
         11    1    4    4    0    0  0.43209986452E+02 -0.54222865349E+02 -0.24802790399E+02  0.73636950422E+02  0.00000000000E+00 0. -1.
         -2    1    1    2    0  502 -0.58662168630E+01  0.37934617219E+02  0.69665640461E+02  0.79540864621E+02  0.00000000000E+00 0.  1.
<scales pt_clust_5="13000.00000" pt_clust_6="13000.00000" pt_clust_7="13000.00000" pt_clust_8="13000.00000" pt_clust_9="13000.00000"></scales>
<clustering>
<clus scale="   81.522">  5  6 -1 -1</clus>
<clus scale="   83.341">  1  5  2 -1</clus>
<clus scale="   92.142">  7  8 -1 -1</clus>
<clus scale="   41.605">  7  9 -1 -1</clus>
<clus scale="  172.637">  2  5  1 -1</clus>
</clustering>
</event>
<event>
 9    2  0.3707658E-005  0.1953834E+03  0.7546771E-02  0.1183113E+00
         -1   -1    0    0    0  501 -0.00000000000E+00  0.00000000000E+00  0.22563066847E+03  0.22563066847E+03  0.00000000000E+00 0.  1.
         21   -1    0    0  501  502  0.00000000000E+00 -0.00000000000E+00 -0.10350263102E+03  0.10350263102E+03  0.00000000000E+00 0.  1.
         24    2    1    2    0    0 -0.58628710503E+02  0.59691781675E+01  0.14741219857E+01  0.99498731930E+02  0.80155273293E+02 0.  0.
         23    2    1    2    0    0  0.10033136796E+03 -0.69700338948E+01  0.43484290941E+02  0.14191191199E+03  0.90183936693E+02 0.  0.
        -13    1    3    3    0    0 -0.38276753743E+02 -0.30104146095E+02 -0.20237669016E+02  0.52734549741E+02  0.00000000000E+00 0.  1.
         14    1    3    3    0    0 -0.20351956760E+02  0.36073324262E+02  0.21711791002E+02  0.46764182189E+02  0.00000000000E+00 0. -1.
        -11    1    4    4    0    0  0.93071700611E+02  0.21575202630E+02  0.81137894939E+01  0.95883598197E+02  0.00000000000E+00 0.  1.
         11    1    4    4    0    0  0.72596673502E+01 -0.28545236525E+02  0.35370501447E+02  0.46028313796E+02  0.00000000000E+00 0. -1.
         -2    1    1    2    0  502 -0.41702657458E+02  0.10008557273E+01  0.77169624524E+02  0.87722655571E+02  0.00000000000E+00 0.  1.
<scales pt_clust_5="13000.00000" pt_clust_6="13000.00000" pt_clust_7="13000.00000" pt_clust_8="13000.00000" pt_clust_9="13000.00000"></scales>
<clustering>
<clus scale="   80.155">  5  6 -1 -1</clus>
<clus scale="   90.184">  7  8 -1 -1</clus>
<clus scale="   41.715">  7  9 -1 -1</clus>
<clus scale="   99.488">  1  5  2 -1</clus>
<clus scale="  195.383">  2  5  1 -1</clus>
</clustering>
</event>
<event>
 9    2  0.3707658E-005  0.5043144E+03  0.7546771E-02  0.1059498E+00
         -1   -1    0    0    0  501 -0.00000000000E+00  0.00000000000E+00  0.88451798239E+03  0.88451798239E+03  0.00000000000E+00 0.  1.
         21   -1    0    0  501  502  0.00000000000E+00 -0.00000000000E+00 -0.11319642489E+03  0.11319642489E+03  0.00000000000E+00 0.  1.
         24    2    1    2    0    0 -0.52662704042E+02 -0.83874724294E+02  0.13508900664E+03  0.18584932619E+03  0.80514610836E+02 0.  0.
         23    2    1    2    0    0 -0.54500779758E+02 -0.18185852857E+03  0.20407179932E+03  0.29334691448E+03  0.91456293113E+02 0.  0.
        -13    1    3    3    0    0  0.19434601443E+01 -0.20653576941E+02  0.87039810890E+02  0.89477795891E+02  0.00000000000E+00 0.  1.
         14    1    3    3    0    0 -0.54606164186E+02 -0.63221147353E+02  0.48049195746E+02  0.96371530296E+02  0.00000000000E+00 0. -1.
        -11    1    4    4    0    0  0.25508903838E+02 -0.53093949402E+02  0.63332064770E+02  0.86490589466E+02  0.00000000000E+00 0. -1.
         11    1    4    4    0    0 -0.80009683596E+02 -0.12876457916E+03  0.14073973455E+03  0.20685632501E+03  0.00000000000E+00 0.  1.
         -2    1    1    2    0  502  0.10716348380E+03  0.26573325286E+03  0.43216075155E+03  0.51851816662E+03  0.00000000000E+00 0.  1.
<scales pt_clust_5="13000.00000" pt_clust_6="13000.00000" pt_clust_7="13000.00000" pt_clust_8="13000.00000" pt_clust_9="13000.00000"></scales>
<clustering>
<clus scale="   80.515">  5  6 -1 -1</clus>
<clus scale="   91.456">  7  8 -1 -1</clus>
<clus scale="  127.636">  1  5  2 -1</clus>
<clus scale="  222.825">  7  9 -1 -1</clus>
<clus scale="  504.314">  2  5  1 -1</clus>
</clustering>
</event>
<event>
 9    2  0.3707658E-005  0.2142748E+03  0.7546771E-02  0.1169321E+00
          2   -1    0    0  502    0 -0.00000000000E+00  0.00000000000E+00  0.19834727704E+03  0.19834727704E+03  0.00000000000E+00 0. -1.
         21   -1    0    0  501  502  0.00000000000E+00 -0.00000000000E+00 -0.34554360668E+03  0.34554360668E+03  0.00000000000E+00 0. -1.
         24    2    1    2    0    0 -0.47289450271E+01 -0.61195668932E+02 -0.27549808788E+03  0.29414097574E+03  0.82779492429E+02 0.  0.
         23    2    1    2    0    0  0.34882506804E+02 -0.29577968881E+01 -0.72169789239E+01  0.96811251692E+02  0.89971083277E+02 0.  0.
        -13    1    3    3    0    0 -0.37104547640E+02 -0.36997533537E+02 -0.21563523764E+03  0.22191016347E+03  0.00000000000E+00 0.  1.
         14    1    3    3    0    0  0.32375602612E+02 -0.24198135395E+02 -0.59862850245E+02  0.72230812266E+02  0.00000000000E+00 0. -1.
        -13    1    4    4    0    0  0.49860308508E+02 -0.34853670692E+02  0.38983246396E-01  0.60834449491E+02  0.00000000000E+00 0.  1.
         13    1    4    4    0    0 -0.14977801704E+02  0.31895873804E+02 -0.72559621702E+01  0.35976802201E+02  0.00000000000E+00 0. -1.
          1    1    1    2  501    0 -0.30153561777E+02  0.64153465820E+02  0.13551873716E+03  0.15293865629E+03  0.00000000000E+00 0. -1.
<scales pt_clust_5="13000.00000" pt_clust_6="13000.00000" pt_clust_7="13000.00000" pt_clust_8="13000.00000" pt_clust_9="13000.00000"></scales>
<clustering>
<clus scale="   82.779">  5  6 -1 -1</clus>
<clus scale="   89.971">  7  8 -1 -1</clus>
<clus scale="   70.887">  7  9 -1 -1</clus>
<clus scale="  103.052">  1  5  2 -1</clus>
<clus scale="  214.275">  2  5  1 -1</clus>
</clustering>
</event>
<event>
 9    2  0.3707658E-005  0.3002565E+03  0.7546771E-02  0.1116552E+00
         21   -1    0    0  501  502  0.00000000000E+00  0.00000000000E+00  0.33218581496E+03  0.33218581496E+03  0.00000000000E+00 0.  1.
          2   -1    0    0  502    0 -0.00000000000E+00 -0.00000000000E+00 -0.14704418718E+03  0.14704418718E+03  0.00000000000E+00 0. -1.
         24    2    1    2    0    0 -0.10248737540E+03 -0.27989038214E+02  0.10230558411E+03  0.16775645592E+03  0.79929641484E+02 0.  0.
         23    2    1    2    0    0  0.21194739095E+02 -0.41770687990E+02 -0.70349100265E+02  0.12454949630E+03  0.91485374685E+02 0.  0.
        -13    1    3    3    0    0 -0.34358854806E+02 -0.13276343010E+02  0.89644021772E+02  0.96916679817E+02  0.00000000000E+00 0.  1.
         14    1    3    3    0    0 -0.68128520589E+02 -0.14712695204E+02  0.12661562341E+02  0.70839776106E+02  0.00000000000E+00 0. -1.
        -13    1    4    4    0    0  0.31838189495E+02 -0.65424965696E+02 -0.35097423828E+02  0.80783201261E+02  0.00000000000E+00 0. -1.
         13    1    4    4    0    0 -0.10643450400E+02  0.23654277706E+02 -0.35251676437E+02  0.43766295043E+02  0.00000000000E+00 0.  1.
          1    1    1    2  501    0  0.81292636300E+02  0.69759726204E+02  0.15318514393E+03  0.18692404992E+03  0.00000000000E+00 0. -1.
<scales pt_clust_5="13000.00000" pt_clust_6="13000.00000" pt_clust_7="13000.00000" pt_clust_8="13000.00000" pt_clust_9="13000.00000"></scales>
<clustering>
<clus scale="   79.930">  5  6 -1 -1</clus>
<clus scale="   91.485">  7  8 -1 -1</clus>
<clus scale="  107.121">  7  9 -1 -1</clus>
<clus scale="  132.950">  2  5  1 -1</clus>
<clus scale="  300.256">  1  5  2 -1</clus>
</clustering>
</event>
<event>
 9    2  0.3707658E-005  0.2583692E+03  0.7546771E-02  0.1148197E+00
         21   -1    0    0  501  502  0.00000000000E+00  0.00000000000E+00  0.31011536150E+03  0.31011536150E+03  0.00000000000E+00 0. -1.
          2   -1    0    0  502    0 -0.00000000000E+00 -0.00000000000E+00 -0.37937099478E+03  0.37937099478E+03  0.00000000000E+00 0. -1.
         24    2    1    2    0    0  0.34291137087E+00  0.51812572606E+02 -0.31715036430E+03  0.33142705971E+03  0.81085646498E+02 0.  0.
         23    2    1    2    0    0  0.83424548244E+02  0.63834654803E+01  0.42001103368E+02  0.12828559910E+03  0.87708029121E+02 0.  0.
        -13    1    3    3    0    0 -0.21656131399E+02  0.35680118134E+01 -0.20360028070E+02  0.29937426050E+02  0.00000000000E+00 0.  1.
         14    1    3    3    0    0  0.21999042770E+02  0.48244560793E+02 -0.29679033623E+03  0.30148963366E+03  0.00000000000E+00 0. -1.
        -11    1    4    4    0    0  0.33474223139E+02 -0.31797447996E+02  0.46147204037E+02  0.65277605304E+02  0.00000000000E+00 0.  1.
         11    1    4    4    0    0  0.49950325106E+02  0.38180913477E+02 -0.41461006692E+01  0.63007993801E+02  0.00000000000E+00 0. -1.
          1    1    1    2  501    0 -0.83767459615E+02 -0.58196038086E+02  0.20589362765E+03  0.22977369746E+03  0.00000000000E+00 0. -1.
<scales pt_clust_5="13000.00000" pt_clust_6="13000.00000" pt_clust_7="13000.00000" pt_clust_8="13000.00000" pt_clust_9="13000.00000"></scales>
<clustering>
<clus scale="   81.086">  5  6 -1 -1</clus>
<clus scale="   87.708">  7  8 -1 -1</clus>
<clus scale="   96.227">  2  5  1 -1</clus>
<clus scale="   95.970">  7  9 -1 -1</clus>
<clus scale="  258.369">  1  5  2 -1</clus>
</clustering>
</event>
<event>
 9    2  0.3707658E-005  0.1722741E+03  0.7546771E-02  0.1203577E+00
         21   -1    0    0  501  502  0.00000000000E+00  0.00000000000E+00  0.46693617176E+02  0.46693617176E+02  0.00000000000E+00 0.  1.
          2   -1    0    0  502    0 -0.00000000000E+00 -0.00000000000E+00 -0.39692883485E+03  0.39692883485E+03  0.00000000000E+00 0. -1.
         24    2    1    2    0    0 -0.34730620401E+02  0.80153736947E+01 -0.17444989418E+03  0.19749473575E+03  0.85445554950E+02 0.  0.
         23    2    1    2    0    0  0.49678368837E+02  0.25849395911E+02 -0.63697976713E+02  0.12808606637E+03  0.95981647007E+02 0.  0.
        -13    1    3    3    0    0 -0.50462710291E+02 -0.24071609711E+02 -0.11970688452E+03  0.13211989148E+03  0.00000000000E+00 0.  1.
         14    1    3    3    0    0  0.15732089890E+02  0.32086983406E+02 -0.54743009668E+02  0.65374844274E+02  0.00000000000E+00 0. -1.
        -13    1    4    4    0    0  0.59674102008E+02 -0.15434588097E+02 -0.59044624703E+02  0.85355097484E+02  0.00000000000E+00 0.  1.
         13    1    4    4    0    0 -0.99957331714E+01  0.41283984008E+02 -0.46533520103E+01  0.42730968888E+02  0.00000000000E+00 0. -1.
          1    1    1    2  501    0 -0.14947748436E+02 -0.33864769606E+02 -0.11208734677E+03  0.11804164990E+03  0.00000000000E+00 0. -1.
<scales pt_clust_5="13000.00000" pt_clust_6="13000.00000" pt_clust_7="13000.00000" pt_clust_8="13000.00000" pt_clust_9="13000.00000"></scales>
<clustering>
<clus scale="   85.446">  5  6 -1 -1</clus>
<clus scale="   92.582">  2  5  1 -1</clus>
<clus scale="   95.982">  7  8 -1 -1</clus>
<clus scale="   44.927">  7  9 -1 -1</clus>
<clus scale="  172.274">  1  5  2 -1</clus>
</clustering>
</event>
<event>
 9    2  0.3707658E-005  0.6324872E+03  0.7546771E-02  0.1035767E+00
          2   -1    0    0  502    0 -0.00000000000E+00  0.00000000000E+00  0.80808408520E+03  0.80808408520E+03  0.00000000000E+00 0. -1.
         21   -1    0    0  501  502  0.00000000000E+00 -0.00000000000E+00 -0.18038769829E+03  0.18038769829E+03  0.00000000000E+00 0. -1.
         24    2    1    2    0    0  0.42810437945E+02 -0.89285223203E+02  0.72597138720E+02  0.14694032515E+03  0.80725026645E+02 0.  0.
         23    2    1    2    0    0 -0.19478083144E+03 -0.20701132154E+03  0.23711152670E+03  0.38109380356E+03  0.90649608241E+02 0.  0.
        -13    1    3    3    0    0  0.46470310840E+01 -0.24640951119E+02  0.67144256174E+02  0.71673722570E+02  0.00000000000E+00 0.  1.
         14    1    3    3    0    0  0.38163406861E+02 -0.64644272084E+02  0.54528825462E+01  0.75266602585E+02  0.00000000000E+00 0. -1.
        -11    1    4    4    0    0 -0.85735858761E+02 -0.65072480210E+02  0.39961588712E+02  0.11481286396E+03  0.00000000000E+00 0. -1.
         11    1    4    4    0    0 -0.10904497268E+03 -0.14193884133E+03  0.19714993799E+03  0.26628093960E+03  0.00000000000E+00 0.  1.
          1    1    1    2  501    0  0.15197039349E+03  0.29629654474E+03  0.31798772149E+03  0.46043765478E+03  0.00000000000E+00 0. -1.
<scales pt_clust_5="13000.00000" pt_clust_6="13000.00000" pt_clust_7="13000.00000" pt_clust_8="13000.00000" pt_clust_9="13000.00000"></scales>
<clustering>
<clus scale="   80.725">  5  6 -1 -1</clus>
<clus scale="   90.650">  7  8 -1 -1</clus>
<clus scale="  127.754">  1  5  2 -1</clus>
<clus scale="  302.812">  7  9 -1 -1</clus>
<clus scale="  632.487">  2  5  1 -1</clus>
</clustering>
</event>
<event>
 9    2  0.3707658E-005  0.1422610E+03  0.7546771E-02  0.1232477E+00
         21   -1    0    0  501  502  0.00000000000E+00  0.00000000000E+00  0.47029625432E+02  0.47029625432E+02  0.00000000000E+00 0.  1.
          2   -1    0    0  502    0 -0.00000000000E+00 -0.00000000000E+00 -0.91501140630E+03  0.91501140630E+03  0.00000000000E+00 0. -1.
         24    2    1    2    0    0  0.26721711661E+02  0.28875284486E+02 -0.79890747170E+03  0.80389728691E+03  0.80311068006E+02 0.  0.
         23    2    1    2    0    0 -0.46360074174E+02 -0.72937204898E+01 -0.26461654516E+02  0.10649814943E+03  0.91865019650E+02 0.  0.
        -13    1    3    3    0    0 -0.16220015821E+02  0.11884049773E+02 -0.55044858465E+02  0.58602525506E+02  0.00000000000E+00 0.  1.
         14    1    3    3    0    0  0.42941727482E+02  0.16991234713E+02 -0.74386261323E+03  0.74529476141E+03  0.00000000000E+00 0. -1.
        -11    1    4    4    0    0  0.86355982882E+01  0.20983641262E+02  0.19121839891E+02  0.29673751351E+02  0.00000000000E+00 0.  1.
         11    1    4    4    0    0 -0.54995672462E+02 -0.28277361752E+02 -0.45583494407E+02  0.76824398075E+02  0.00000000000E+00 0. -1.
          1    1    1    2  501    0  0.19638362513E+02 -0.21581563996E+02 -0.42612654652E+02  0.51645595390E+02  0.00000000000E+00 0. -1.
<scales pt_clust_5="13000.00000" pt_clust_6="13000.00000" pt_clust_7="13000.00000" pt_clust_8="13000.00000" pt_clust_9="13000.00000"></scales>
<clustering>
<clus scale="   80.311">  5  6 -1 -1</clus>
<clus scale="   89.430">  2  5  1 -1</clus>
<clus scale="   91.865">  7  8 -1 -1</clus>
<clus scale="   32.189">  7  9 -1 -1</clus>
<clus scale="  142.261">  1  5  2 -1</clus>
</clustering>
</event>
<event>
 9    2  0.3707658E-005  0.3091501E+03  0.7546771E-02  0.1117053E+00
         21   -1    0    0  501  502  0.00000000000E+00  0.00000000000E+00  0.59284988052E+02  0.59284988052E+02  0.00000000000E+00 0. -1.
          2   -1    0    0  502    0 -0.00000000000E+00 -0.00000000000E+00 -0.78444319655E+03  0.78444319655E+03  0.00000000000E+00 0. -1.
         24    2    1    2    0    0  0.85569705638E+02  0.50232464838E+01 -0.23984395424E+03  0.26831206035E+03  0.84373169984E+02 0.  0.
         23    2    1    2    0    0  0.53559583483E+02  0.58553139481E+02 -0.35257040695E+03  0.37288255928E+03  0.91860829704E+02 0.  0.
        -13    1    3    3    0    0  0.73890684956E+01 -0.21111660407E+02 -0.12476996119E+03  0.12675899871E+03  0.00000000000E+00 0.  1.
         14    1    3    3    0    0  0.78180637142E+02  0.26134906891E+02 -0.11507399305E+03  0.14155306164E+03  0.00000000000E+00 0. -1.
        -13    1    4    4    0    0  0.68970926050E+02  0.44019868362E+02 -0.33646903498E+03  0.34627467270E+03  0.00000000000E+00 0. -1.
         13    1    4    4    0    0 -0.15411342567E+02  0.14533271120E+02 -0.16101371965E+02  0.26607886581E+02  0.00000000000E+00 0.  1.
          1    1    1    2  501    0 -0.13912928912E+03 -0.63576385965E+02 -0.13274384731E+03  0.20253356498E+03  0.00000000000E+00 0. -1.
<scales pt_clust_5="13000.00000" pt_clust_6="13000.00000" pt_clust_7="13000.00000" pt_clust_8="13000.00000" pt_clust_9="13000.00000"></scales>
<clustering>
<clus scale="   84.373">  5  6 -1 -1</clus>
<clus scale="   91.861">  7  8 -1 -1</clus>
<clus scale="  120.276">  2  5  1 -1</clus>
<clus scale="  128.082">  7  9 -1 -1</clus>
<clus scale="  309.150">  1  5  2 -1</clus>
</clustering>
</event>
<event>
 9    2  0.3707658E-005  0.1615464E+03  0.7546771E-02  0.1211411E+00
          2   -1    0    0  502    0 -0.00000000000E+00  0.00000000000E+00  0.64514998895E+02  0.64514998895E+02  0.00000000000E+00 0. -1.
         21   -1    0    0  501  502  0.00000000000E+00 -0.00000000000E+00 -0.29983347020E+03  0.29983347020E+03  0.00000000000E+00 0.  1.
         24    2    1    2    0    0  0.49410955105E+02 -0.18941669408E+02 -0.23182445464E+02  0.97704667083E+02  0.78794332713E+02 0.  0.
         23    2    1    2    0    0 -0.32297915524E+01  0.51842572357E+02 -0.13656140569E+03  0.17216262667E+03  0.91065188946E+02 0.  0.
        -13    1    3    3    0    0  0.37288222171E+02  0.23341889575E+02  0.67400827967E+01  0.44504876561E+02  0.00000000000E+00 0.  1.
         14    1    3    3    0    0  0.12122732934E+02 -0.42283558983E+02 -0.29922528261E+02  0.53199790522E+02  0.00000000000E+00 0. -1.
        -11    1    4    4    0    0  0.14962755008E+02 -0.20053319579E+02 -0.13364441973E+02  0.28365965043E+02  0.00000000000E+00 0. -1.
         11    1    4    4    0    0 -0.18192546560E+02  0.71895891937E+02 -0.12319696371E+03  0.14379666163E+03  0.00000000000E+00 0.  1.
          1    1    1    2  501    0 -0.46181163553E+02 -0.32900902950E+02 -0.75574620156E+02  0.94481175341E+02  0.00000000000E+00 0. -1.
<scales pt_clust_5="13000.00000" pt_clust_6="13000.00000" pt_clust_7="13000.00000" pt_clust_8="13000.00000" pt_clust_9="13000.00000"></scales>
<clustering>
<clus scale="   78.794">  5  6 -1 -1</clus>
<clus scale="   91.065">  7  8 -1 -1</clus>
<clus scale="   56.702">  7  9 -1 -1</clus>
<clus scale="   94.915">  1  5  2 -1</clus>
<clus scale="  161.546">  2  5  1 -1</clus>
</clustering>
</event>
<event>
 9    2  0.3707658E-005  0.4222462E+03  0.7546771E-02  0.1087539E+00
          2   -1    0    0  502    0 -0.00000000000E+00  0.00000000000E+00  0.49344022979E+03  0.49344022979E+03  0.00000000000E+00 0. -1.
         21   -1    0    0  501  502  0.00000000000E+00 -0.00000000000E+00 -0.14072377262E+03  0.14072377262E+03  0.00000000000E+00 0. -1.
         24    2    1    2    0    0 -0.22791341696E+02  0.59086604098E+02  0.98867688501E+02  0.14148656846E+03  0.78949079698E+02 0.  0.
         23    2    1    2    0    0  0.17098478581E+03  0.40465141651E+02  0.20860929725E+02  0.19915540742E+03  0.91402807670E+02 0.  0.
        -13    1    3    3    0    0 -0.31391179103E+02  0.51298791186E+02  0.22452587762E+02  0.64195722598E+02  0.00000000000E+00 0.  1.
         14    1    3    3    0    0  0.85998374071E+01  0.77878129124E+01  0.76415100739E+02  0.77290845863E+02  0.00000000000E+00 0. -1.
        -13    1    4    4    0    0  0.58066607507E+02  0.54477761396E+02 -0.12464969094E+02  0.80591146218E+02  0.00000000000E+00 0.  1.
         13    1    4    4    0    0  0.11291817830E+03 -0.14012619745E+02  0.33325898819E+02  0.11856426120E+03  0.00000000000E+00 0. -1.
          1    1    1    2  501    0 -0.14819344411E+03 -0.99551745749E+02  0.23298783895E+03  0.29352202653E+03  0.00000000000E+00 0. -1.
<scales pt_clust_5="13000.00000" pt_clust_6="13000.00000" pt_clust_7="13000.00000" pt_clust_8="13000.00000" pt_clust_9="13000.00000"></scales>
<clustering>
<clus scale="   78.949">  5  6 -1 -1</clus>
<clus scale="   91.403">  7  8 -1 -1</clus>
<clus scale="  101.211">  1  5  2 -1</clus>
<clus scale="  174.166">  7  9 -1 -1</clus>
<clus scale="  422.246">  2  5  1 -1</clus>
</clustering>
</event>
<event>
 9    2  0.3707658E-005  0.3014049E+03  0.7546771E-02  0.1134587E+00
         21   -1    0    0  501  502  0.00000000000E+00  0.00000000000E+00  0.20097522198E+03  0.20097522198E+03  0.00000000000E+00 0. -1.
          2   -1    0    0  502    0 -0.00000000000E+00 -0.00000000000E+00 -0.32083474775E+03  0.32083474775E+03  0.00000000000E+00 0. -1.
         24    2    1    2    0    0 -0.24215097565E+01 -0.16336246367E+02 -0.19397931291E+03  0.21142532003E+03  0.82461842443E+02 0.  0.
         23    2    1    2    0    0  0.11757765877E+03  0.70037352978E+02  0.86158936143E+02  0.18275358524E+03  0.85122112206E+02 0.  0.
        -11    1    3    3    0    0  0.33852594777E+02 -0.10837958536E+02 -0.14999067499E+03  0.15414493862E+03  0.00000000000E+00 0.  1.
         12    1    3    3    0    0 -0.36274104533E+02 -0.54982878312E+01 -0.43988637925E+02  0.57280381417E+02  0.00000000000E+00 0. -1.
        -13    1    4    4    0    0  0.59303275593E+02 -0.10290302511E+02  0.19760787479E+02  0.63350276587E+02  0.00000000000E+00 0.  1.
         13    1    4    4    0    0  0.58274383172E+02  0.80327655489E+02  0.66398148664E+02  0.11940330865E+03  0.00000000000E+00 0. -1.
          1    1    1    2  501    0 -0.11515614901E+03 -0.53701106611E+02 -0.12039149006E+02  0.12763106446E+03  0.00000000000E+00 0. -1.
<scales pt_clust_5="13000.00000" pt_clust_6="13000.00000" pt_clust_7="13000.00000" pt_clust_8="13000.00000" pt_clust_9="13000.00000"></scales>
<clustering>
<clus scale="   82.462">  5  6 -1 -1</clus>
<clus scale="   84.099">  2  5  1 -1</clus>
<clus scale="   85.122">  7  8 -1 -1</clus>
<clus scale="  132.691">  7  9 -1 -1</clus>
<clus scale="  301.405">  1  5  2 -1</clus>
</clustering>
</event>
<event>
 9    2  0.3707658E-005  0.2357380E+03  0.7546771E-02  0.1148245E+00
          2   -1    0    0  502    0 -0.00000000000E+00  0.00000000000E+00  0.69868335427E+03  0.69868335427E+03  0.00000000000E+00 0. -1.
         21   -1    0    0  501  502  0.00000000000E+00 -0.00000000000E+00 -0.58663240863E+02  0.58663240863E+02  0.00000000000E+00 0. -1.
         24    2    1    2    0    0  0.65947472897E+02  0.72168282506E+02  0.40564974607E+03  0.42492837086E+03  0.80343473229E+02 0.  0.
         23    2    1    2    0    0 -0.62181322476E+02  0.32583599189E+02  0.60298926275E+02  0.12922371844E+03  0.90192023466E+02 0.  0.
        -11    1    3    3    0    0  0.48352597903E+02  0.13847491296E+02  0.86866157951E+02  0.10037657165E+03  0.00000000000E+00 0.  1.
         12    1    3    3    0    0  0.17594874994E+02  0.58320791210E+02  0.31878358812E+03  0.32455179921E+03  0.00000000000E+00 0. -1.
        -11    1    4    4    0    0 -0.12126485307E+02  0.49491972876E+02  0.56752115693E+02  0.76271289885E+02  0.00000000000E+00 0.  1.
         11    1    4    4    0    0 -0.50054837169E+02 -0.16908373687E+02  0.35468105814E+01  0.52952428557E+02  0.00000000000E+00 0. -1.
          1    1    1    2  501    0 -0.37661504205E+01 -0.10475188170E+03  0.17407144106E+03  0.20319450583E+03  0.00000000000E+00 0. -1.
<scales pt_clust_5="13000.00000" pt_clust_6="13000.00000" pt_clust_7="13000.00000" pt_clust_8="13000.00000" pt_clust_9="13000.00000"></scales>
<clustering>
<clus scale="   80.343">  5  6 -1 -1</clus>
<clus scale="   90.192">  7  8 -1 -1</clus>
<clus scale="  104.820">  7  9 -1 -1</clus>
<clus scale="  126.540">  1  5  2 -1</clus>
<clus scale="  235.738">  2  5  1 -1</clus>
</clustering>
</event>
<event>
 9    2  0.3707658E-005  0.1720029E+03  0.7546771E-02  0.1205102E+00
         21   -1    0    0  501  502  0.00000000000E+00  0.00000000000E+00  0.42450545794E+02  0.42450545794E+02  0.00000000000E+00 0.  1.
          2   -1    0    0  502    0 -0.00000000000E+00 -0.00000000000E+00 -0.41365089032E+03  0.41365089032E+03  0.00000000000E+00 0. -1.
         24    2    1    2    0    0  0.31775650175E+02 -0.85167262927E+01 -0.16142726919E+03  0.18482713316E+03  0.83785913760E+02 0.  0.
         23    2    1    2    0    0 -0.64139439048E+02 -0.28320340244E+02 -0.10846377818E+03  0.15872227946E+03  0.92263001831E+02 0.  0.
        -11    1    3    3    0    0 -0.21146937823E+02  0.18989137164E+02 -0.71255676746E+02  0.76714742899E+02  0.00000000000E+00 0.  1.
         12    1    3    3    0    0  0.52922587998E+02 -0.27505863456E+02 -0.90171592444E+02  0.10811239026E+03  0.00000000000E+00 0. -1.
        -11    1    4    4    0    0 -0.48252710065E+02  0.65084027646E+01 -0.56539863635E+01  0.49016842992E+02  0.00000000000E+00 0.  1.
         11    1    4    4    0    0 -0.15886728984E+02 -0.34828743009E+02 -0.10280979181E+03  0.10970543646E+03  0.00000000000E+00 0. -1.
          1    1    1    2  501    0  0.32363788873E+02  0.36837066537E+02 -0.10130929716E+03  0.11255202349E+03  0.00000000000E+00 0. -1.
<scales pt_clust_5="13000.00000" pt_clust_6="13000.00000" pt_clust_7="13000.00000" pt_clust_8="13000.00000" pt_clust_9="13000.00000"></scales>
<clustering>
<clus scale="   83.786">  5  6 -1 -1</clus>
<clus scale="   90.013">  2  5  1 -1</clus>
<clus scale="   92.263">  7  8 -1 -1</clus>
<clus scale="   57.041">  7  9 -1 -1</clus>
<clus scale="  172.003">  1  5  2 -1</clus>
</clustering>
</event>
<event>
 9    2  0.3707658E-005  0.5103319E+03  0.7546771E-02  0.1061756E+00
         21   -1    0    0  501  502  0.00000000000E+00  0.00000000000E+00  0.43101689706E+03  0.43101689706E+03  0.00000000000E+00 0. -1.
          2   -1    0    0  502    0 -0.00000000000E+00 -0.00000000000E+00 -0.24120581329E+03  0.24120581329E+03  0.00000000000E+00 0. -1.
         24    2    1    2    0    0  0.59329138360E+00  0.86070400669E+02 -0.25353488030E+02  0.11838659375E+03  0.77227717560E+02 0.  0.
         23    2    1    2    0    0  0.20666008342E+03  0.57355690006E+02  0.19071374769E+03  0.30061122119E+03  0.89427666248E+02 0.  0.
        -13    1    3    3    0    0 -0.19691467984E+02  0.50051636024E+01  0.15322815457E+02  0.25447873144E+02  0.00000000000E+00 0.  1.
         14    1    3    3    0    0  0.20284759367E+02  0.81065237067E+02 -0.40676303487E+02  0.92938720610E+02  0.00000000000E+00 0. -1.
        -13    1    4    4    0    0  0.84351030373E+02  0.58994833178E+02  0.12442508861E+03  0.16148402194E+03  0.00000000000E+00 0.  1.
         13    1    4    4    0    0  0.12230905305E+03 -0.16391431721E+01  0.66288659083E+02  0.13912719925E+03  0.00000000000E+00 0. -1.
          1    1    1    2  501    0 -0.20725337481E+03 -0.14342609068E+03  0.24450824108E+02  0.25322489541E+03  0.00000000000E+00 0. -1.
<scales pt_clust_5="13000.00000" pt_clust_6="13000.00000" pt_clust_7="13000.00000" pt_clust_8="13000.00000" pt_clust_9="13000.00000"></scales>
<clustering>
<clus scale="   77.228">  5  6 -1 -1</clus>
<clus scale="   89.428">  7  8 -1 -1</clus>
<clus scale="  115.640">  2  5  1 -1</clus>
<clus scale="  223.745">  7  9 -1 -1</clus>
<clus scale="  510.332">  1  5  2 -1</clus>
</clustering>
</event>
<event>
 9    2  0.3707658E-005  0.5749598E+03  0.7546771E-02  0.1033013E+00
         21   -1    0    0  501  502  0.00000000000E+00  0.00000000000E+00  0.33763392723E+03  0.33763392723E+03  0.00000000000E+00 0. -1.
          2   -1    0    0  502    0 -0.00000000000E+00 -0.00000000000E+00 -0.43052920382E+03  0.43052920382E+03  0.00000000000E+00 0. -1.
         24    2    1    2    0    0  0.16002167912E+03  0.37719596777E+02 -0.52708316858E+02  0.19180056625E+03  0.83543909299E+02 0.  0.
         23    2    1    2    0    0  0.14732103409E+03 -0.16609078287E+03  0.22843556323E+01  0.24059103918E+03  0.92677907907E+02 0.  0.
        -13    1    3    3    0    0  0.83288268603E+02  0.57230120073E+02 -0.92377463688E+01  0.10147688549E+03  0.00000000000E+00 0.  1.
         14    1    3    3    0    0  0.76733410515E+02 -0.19510523296E+02 -0.43470570489E+02  0.90323680766E+02  0.00000000000E+00 0. -1.
        -11    1    4    4    0    0  0.21858926974E+02 -0.43481387653E+02 -0.36618552846E+02  0.60904533273E+02  0.00000000000E+00 0.  1.
         11    1    4    4    0    0  0.12546210712E+03 -0.12260939522E+03  0.38902908479E+02  0.17968650591E+03  0.00000000000E+00 0. -1.
          1    1    1    2  501    0 -0.30734271321E+03  0.12837118610E+03 -0.42471315362E+02  0.33577152561E+03  0.00000000000E+00 0. -1.
<scales pt_clust_5="13000.00000" pt_clust_6="13000.00000" pt_clust_7="13000.00000" pt_clust_8="13000.00000" pt_clust_9="13000.00000"></scales>
<clustering>
<clus scale="   83.544">  5  6 -1 -1</clus>
<clus scale="   92.678">  7  8 -1 -1</clus>
<clus scale="  184.416">  2  5  1 -1</clus>
<clus scale="  258.280">  7  9 -1 -1</clus>
<clus scale="  574.960">  1  5  2 -1</clus>
</clustering>
</event>
<event>
 9    2  0.3707658E-005  0.2511778E+03  0.7546771E-02  0.1128785E+00
         21   -1    0    0  501  502  0.00000000000E+00  0.00000000000E+00  0.44270807787E+02  0.44270807787E+02  0.00000000000E+00 0.  1.
          2   -1    0    0  502    0 -0.00000000000E+00 -0.00000000000E+00 -0.99171186378E+03  0.99171186378E+03  0.00000000000E+00 0. -1.
         24    2    1    2    0    0  0.10511766517E+03  0.10242579965E+03 -0.40123556518E+03  0.43479156203E+03  0.80702885206E+02 0.  0.
         23    2    1    2    0    0  0.11203465647E+02 -0.33636028588E+02 -0.11737349594E+03  0.15156958214E+03  0.89106119983E+02 0.  0.
        -13    1    3    3    0    0  0.45716329521E+01  0.51244146368E+02 -0.89036087079E+02  0.10283135304E+03  0.00000000000E+00 0.  1.
         14    1    3    3    0    0  0.10054603222E+03  0.51181653280E+02 -0.31219947810E+03  0.33196020899E+03  0.00000000000E+00 0. -1.
        -11    1    4    4    0    0 -0.26518424183E+02  0.28890730335E+01 -0.44614214477E+01  0.27045847103E+02  0.00000000000E+00 0.  1.
         11    1    4    4    0    0  0.37721889830E+02 -0.36525101621E+02 -0.11291207449E+03  0.12452373503E+03  0.00000000000E+00 0. -1.
          1    1    1    2  501    0 -0.11632113082E+03 -0.68789771060E+02 -0.42883199488E+03  0.44962152741E+03  0.00000000000E+00 0. -1.
<scales pt_clust_5="13000.00000" pt_clust_6="13000.00000" pt_clust_7="13000.00000" pt_clust_8="13000.00000" pt_clust_9="13000.00000"></scales>
<clustering>
<clus scale="   80.703">  5  6 -1 -1</clus>
<clus scale="   89.106">  7  8 -1 -1</clus>
<clus scale="  135.139">  7  9 -1 -1</clus>
<clus scale="  167.492">  2  5  1 -1</clus>
<clus scale="  251.178">  1  5  2 -1</clus>
</clustering>
</event>
<event>
 9    2  0.3707658E-005  0.2519018E+03  0.7546771E-02  0.1143999E+00
         -3   -1    0    0    0  501 -0.00000000000E+00  0.00000000000E+00  0.35643449906E+03  0.35643449906E+03  0.00000000000E+00 0.  1.
         21   -1    0    0  501  502  0.00000000000E+00 -0.00000000000E+00 -0.35679494089E+03  0.35679494089E+03  0.00000000000E+00 0.  1.
         24    2    1    2    0    0  0.67682842102E+02 -0.46157096382E+02  0.30001006494E+03  0.32121292359E+03  0.80375733617E+02 0.  0.
         23    2    1    2    0    0  0.51706221416E+01 -0.69634827347E+02 -0.12480378427E+03  0.16944277375E+03  0.90879725433E+02 0.  0.
        -11    1    3    3    0    0  0.67128582783E+02 -0.33828743066E+02  0.29957749000E+03  0.30886453827E+03  0.00000000000E+00 0.  1.
         12    1    3    3    0    0  0.55425931914E+00 -0.12328353315E+02  0.43257493329E+00  0.12348385317E+02  0.00000000000E+00 0. -1.
        -11    1    4    4    0    0  0.23609406160E+02  0.14651709015E+02 -0.37776534898E+02  0.46895023459E+02  0.00000000000E+00 0. -1.
         11    1    4    4    0    0 -0.18438784018E+02 -0.84286536362E+02 -0.87027249369E+02  0.12254775029E+03  0.00000000000E+00 0.  1.
         -4    1    1    2    0  502 -0.72853464244E+02  0.11579192373E+03 -0.17556672250E+03  0.22257374261E+03  0.00000000000E+00 0.  1.
<scales pt_clust_5="13000.00000" pt_clust_6="13000.00000" pt_clust_7="13000.00000" pt_clust_8="13000.00000" pt_clust_9="13000.00000"></scales>
<clustering>
<clus scale="   80.376">  5  6 -1 -1</clus>
<clus scale="   90.880">  7  8 -1 -1</clus>
<clus scale="  114.768">  1  5  2 -1</clus>
<clus scale="   99.700">  7  9 -1 -1</clus>
<clus scale="  251.902">  2  5  1 -1</clus>
</clustering>
</event>
<event>
 9    2  0.3707658E-005  0.2033286E+03  0.7546771E-02  0.1184570E+00
         21   -1    0    0  501  502  0.00000000000E+00  0.00000000000E+00  0.26762212942E+02  0.26762212942E+02  0.00000000000E+00 0.  1.
          2   -1    0    0  502    0 -0.00000000000E+00 -0.00000000000E+00 -0.90282194096E+03  0.90282194096E+03  0.00000000000E+00 0. -1.
         24    2    1    2    0    0 -0.25076009829E+01 -0.14499981570E+02 -0.44300804348E+03  0.45117398630E+03  0.84174234767E+02 0.  0.
         23    2    1    2    0    0  0.11910372231E+02 -0.63513972949E+02 -0.33344030016E+03  0.35153614700E+03  0.90660615199E+02 0.  0.
        -13    1    3    3    0    0 -0.19169801246E+02  0.27613895315E+02 -0.10778565531E+03  0.11290596081E+03  0.00000000000E+00 0.  1.
         14    1    3    3    0    0  0.16662200263E+02 -0.42113876885E+02 -0.33522238817E+03  0.33826802549E+03  0.00000000000E+00 0. -1.
        -13    1    4    4    0    0 -0.34374198924E+02 -0.13725683493E+02 -0.17915861124E+03  0.18294203432E+03  0.00000000000E+00 0. -1.
         13    1    4    4    0    0  0.46284571155E+02 -0.49788289455E+02 -0.15428168892E+03  0.16859411268E+03  0.00000000000E+00 0.  1.
          1    1    1    2  501    0 -0.94027712485E+01  0.78013954518E+02 -0.99611384380E+02  0.12687402061E+03  0.00000000000E+00 0. -1.
<scales pt_clust_5="13000.00000" pt_clust_6="13000.00000" pt_clust_7="13000.00000" pt_clust_8="13000.00000" pt_clust_9="13000.00000"></scales>
<clustering>
<clus scale="   84.174">  5  6 -1 -1</clus>
<clus scale="   85.451">  2  5  1 -1</clus>
<clus scale="   90.661">  7  8 -1 -1</clus>
<clus scale="   75.083">  7  9 -1 -1</clus>
<clus scale="  203.329">  1  5  2 -1</clus>
</clustering>
</event>
<event>
 9    2  0.3707658E-005  0.5929182E+03  0.7546771E-02  0.1040271E+00
         21   -1    0    0  501  502  0.00000000000E+00  0.00000000000E+00  0.19285349853E+03  0.19285349853E+03  0.00000000000E+00 0. -1.
          2   -1    0    0  502    0 -0.00000000000E+00 -0.00000000000E+00 -0.68883984083E+03  0.68883984083E+03  0.00000000000E+00 0. -1.
         24    2    1    2    0    0 -0.24137751298E+02  0.10725306630E+03 -0.87454762558E+02  0.16165862366E+03  0.79995773901E+02 0.  0.
         23    2    1    2    0    0 -0.14296054005E+03  0.18827727144E+03 -0.18446325539E+03  0.31325881490E+03  0.90655091250E+02 0.  0.
        -11    1    3    3    0    0  0.11303825348E+02  0.67103783955E+02 -0.11951524065E+02  0.69090760714E+02  0.00000000000E+00 0.  1.
         12    1    3    3    0    0 -0.35441576646E+02  0.40149282344E+02 -0.75503238492E+02  0.92567862948E+02  0.00000000000E+00 0. -1.
        -13    1    4    4    0    0 -0.65377768870E+02  0.77426298879E+02 -0.13586024128E+03  0.16949067697E+03  0.00000000000E+00 0.  1.
         13    1    4    4    0    0 -0.77582771180E+02  0.11085097256E+03 -0.48603014112E+02  0.14376813792E+03  0.00000000000E+00 0. -1.
          1    1    1    2  501    0  0.16709829135E+03 -0.29553033774E+03 -0.22406832436E+03  0.40677590080E+03  0.00000000000E+00 0. -1.
<scales pt_clust_5="13000.00000" pt_clust_6="13000.00000" pt_clust_7="13000.00000" pt_clust_8="13000.00000" pt_clust_9="13000.00000"></scales>
<clustering>
<clus scale="   79.996">  5  6 -1 -1</clus>
<clus scale="   90.655">  7  8 -1 -1</clus>
<clus scale="  135.960">  2  5  1 -1</clus>
<clus scale="  281.233">  7  9 -1 -1</clus>
<clus scale="  592.918">  1  5  2 -1</clus>
</clustering>
</event>
<event>
 9    2  0.3707658E-005  0.6379449E+03  0.7546771E-02  0.1042282E+00
         21   -1    0    0  501  502  0.00000000000E+00  0.00000000000E+00  0.91803269968E+02  0.91803269968E+02  0.00000000000E+00 0. -1.
          2   -1    0    0  502    0 -0.00000000000E+00 -0.00000000000E+00 -0.15064899741E+04  0.15064899741E+04  0.00000000000E+00 0. -1.
         24    2    1    2    0    0  0.62107695876E+02  0.18492800543E+02 -0.24918663902E+03  0.26962317426E+03  0.80020781513E+02 0.  0.
         23    2    1    2    0    0  0.23079956492E+02 -0.14941237918E+03 -0.25801337093E+02  0.17831792249E+03  0.90966087312E+02 0.  0.
        -13    1    3    3    0    0  0.58848319763E+02 -0.13865026738E+02 -0.21086740845E+03  0.21936368809E+03  0.00000000000E+00 0.  1.
         14    1    3    3    0    0  0.32593761134E+01  0.32357827280E+02 -0.38319230572E+02  0.50259486175E+02  0.00000000000E+00 0. -1.
        -11    1    4    4    0    0  0.47754792445E+02 -0.14267683202E+03 -0.26286722458E+02  0.15273568795E+03  0.00000000000E+00 0. -1.
         11    1    4    4    0    0 -0.24674835953E+02 -0.67355471594E+01  0.48538536477E+00  0.25582234535E+02  0.00000000000E+00 0.  1.
          1    1    1    2  501    0 -0.85187652368E+02  0.13091957864E+03 -0.11396987280E+04  0.11503521473E+04  0.00000000000E+00 0. -1.
<scales pt_clust_5="13000.00000" pt_clust_6="13000.00000" pt_clust_7="13000.00000" pt_clust_8="13000.00000" pt_clust_9="13000.00000"></scales>
<clustering>
<clus scale="   80.021">  5  6 -1 -1</clus>
<clus scale="   90.966">  7  8 -1 -1</clus>
<clus scale="  102.969">  2  5  1 -1</clus>
<clus scale="  150.557">  7  9 -1 -1</clus>
<clus scale="  637.945">  1  5  2 -1</clus>
</clustering>
</event>
<event>
 9    2  0.3707658E-005  0.4418730E+03  0.7546771E-02  0.1038425E+00
          2   -1    0    0  502    0 -0.00000000000E+00  0.00000000000E+00  0.30730109923E+03  0.30730109923E+03  0.00000000000E+00 0. -1.
         21   -1    0    0  501  502  0.00000000000E+00 -0.00000000000E+00 -0.50582789423E+03  0.50582789423E+03  0.00000000000E+00 0. -1.
         24    2    1    2    0    0  0.33611436834E+03  0.41440857099E+02 -0.90221709753E+02  0.35817657395E+03  0.73893761408E+02 0.  0.
         23    2    1    2    0    0 -0.74320576421E+02 -0.36710126530E+02 -0.13882269325E+03  0.19134344071E+03  0.10232004043E+03 0.  0.
        -11    1    3    3    0    0  0.52182111086E+02 -0.17599532371E+02 -0.27117584297E+02  0.61384685673E+02  0.00000000000E+00 0.  1.
         12    1    3    3    0    0  0.28393225726E+03  0.59040389470E+02 -0.63104125457E+02  0.29679188828E+03  0.00000000000E+00 0. -1.
        -13    1    4    4    0    0 -0.15595528916E+02 -0.45799283936E+02 -0.98994786516E+01  0.49384153418E+02  0.00000000000E+00 0.  1.
         13    1    4    4    0    0 -0.58725047506E+02  0.90891574063E+01 -0.12892321460E+03  0.14195928730E+03  0.00000000000E+00 0. -1.
          1    1    1    2  501    0 -0.26179379192E+03 -0.47307305689E+01  0.30517608002E+02  0.26360897879E+03  0.00000000000E+00 0. -1.
<scales pt_clust_5="13000.00000" pt_clust_6="13000.00000" pt_clust_7="13000.00000" pt_clust_8="13000.00000" pt_clust_9="13000.00000"></scales>
<clustering>
<clus scale="   73.894">  5  6 -1 -1</clus>
<clus scale="  102.320">  7  8 -1 -1</clus>
<clus scale="  261.837">  7  9 -1 -1</clus>
<clus scale="  346.627">  1  5  2 -1</clus>
<clus scale="  441.873">  2  5  1 -1</clus>
</clustering>
</event>
<event>
 9    2  0.3707658E-005  0.2124103E+03  0.7546771E-02  0.1171872E+00
         21   -1    0    0  501  502  0.00000000000E+00  0.00000000000E+00  0.25990210284E+02  0.25990210284E+02  0.00000000000E+00 0.  1.
          2   -1    0    0  502    0 -0.00000000000E+00 -0.00000000000E+00 -0.93954698255E+03  0.93954698255E+03  0.00000000000E+00 0. -1.
         24    2    1    2    0    0  0.62897497745E+02  0.36871392161E+01 -0.31280141484E+03  0.32833619324E+03  0.77396643654E+02 0.  0.
         23    2    1    2    0    0 -0.79621549817E+01 -0.25845879865E+02 -0.12204002307E+03  0.15483467301E+03  0.91370691786E+02 0.  0.
        -11    1    3    3    0    0  0.66846812058E+02  0.50692764639E+01 -0.13737304841E+03  0.15285793495E+03  0.00000000000E+00 0.  1.
         12    1    3    3    0    0 -0.39493143132E+01 -0.13821372478E+01 -0.17542836642E+03  0.17547825829E+03  0.00000000000E+00 0. -1.
        -13    1    4    4    0    0 -0.49466110075E+02 -0.11097586999E+02 -0.56990926642E+02  0.76275934624E+02  0.00000000000E+00 0.  1.
         13    1    4    4    0    0  0.41503955094E+02 -0.14748292866E+02 -0.65049096425E+02  0.78558738385E+02  0.00000000000E+00 0. -1.
          1    1    1    2  501    0 -0.54935342763E+02  0.22158740649E+02 -0.47871533436E+03  0.48236632659E+03  0.00000000000E+00 0. -1.
<scales pt_clust_5="13000.00000" pt_clust_6="13000.00000" pt_clust_7="13000.00000" pt_clust_8="13000.00000" pt_clust_9="13000.00000"></scales>
<clustering>
<clus scale="   77.397">  5  6 -1 -1</clus>
<clus scale="   91.371">  7  8 -1 -1</clus>
<clus scale="   59.236">  7  9 -1 -1</clus>
<clus scale="   99.799">  2  5  1 -1</clus>
<clus scale="  212.410">  1  5  2 -1</clus>
</clustering>
</event>
<event>
 9    2  0.3707658E-005  0.5284191E+03  0.7546771E-02  0.1052543E+00
         21   -1    0    0  501  502  0.00000000000E+00  0.00000000000E+00  0.50597105269E+03  0.50597105269E+03  0.00000000000E+00 0. -1.
          2   -1    0    0  502    0 -0.00000000000E+00 -0.00000000000E+00 -0.12057982941E+04  0.12057982941E+04  0.00000000000E+00 0. -1.
         24    2    1    2    0    0  0.10235748693E+03  0.36180674546E+02 -0.10623864694E+04  0.10709293168E+04  0.80240231422E+02 0.  0.
         23    2    1    2    0    0 -0.26702686470E+03 -0.15024586841E+03  0.26574925647E+03  0.41835622609E+03  0.10257727403E+03 0.  0.
        -11    1    3    3    0    0  0.21805478321E+02 -0.13806803031E+01 -0.48973899113E+02  0.53626746659E+02  0.00000000000E+00 0.  1.
         12    1    3    3    0    0  0.80552008614E+02  0.37561354849E+02 -0.10134125703E+04  0.10173025701E+04  0.00000000000E+00 0. -1.
        -11    1    4    4    0    0 -0.51047577966E+02 -0.74165631918E+02  0.46517680363E+02  0.10134244304E+03  0.00000000000E+00 0.  1.
         11    1    4    4    0    0 -0.21597928674E+03 -0.76080236489E+02  0.21923157611E+03  0.31701378306E+03  0.00000000000E+00 0. -1.
          1    1    1    2  501    0  0.16466937777E+03  0.11406519386E+03  0.96809971535E+02  0.22248380394E+03  0.00000000000E+00 0. -1.
<scales pt_clust_5="13000.00000" pt_clust_6="13000.00000" pt_clust_7="13000.00000" pt_clust_8="13000.00000" pt_clust_9="13000.00000"></scales>
<clustering>
<clus scale="   80.240">  5  6 -1 -1</clus>
<clus scale="  102.577">  7  8 -1 -1</clus>
<clus scale="  134.998">  2  5  1 -1</clus>
<clus scale="  247.956">  7  9 -1 -1</clus>
<clus scale="  528.419">  1  5  2 -1</clus>
</clustering>
</event>
<event>
 9    2  0.3707658E-005  0.3836935E+03  0.7546771E-02  0.1067684E+00
          2   -1    0    0  502    0 -0.00000000000E+00  0.00000000000E+00  0.16877736892E+04  0.16877736892E+04  0.00000000000E+00 0. -1.
         21   -1    0    0  501  502  0.00000000000E+00 -0.00000000000E+00 -0.57095496052E+02  0.57095496052E+02  0.00000000000E+00 0. -1.
         24    2    1    2    0    0 -0.18999104731E+03 -0.10370624070E+03  0.73695553808E+03  0.77226396966E+03  0.80228369699E+02 0.  0.
         23    2    1    2    0    0  0.44520950799E+02 -0.40267522464E+02  0.78523439941E+02  0.13210551078E+03  0.87648998466E+02 0.  0.
        -11    1    3    3    0    0 -0.86279658741E+02 -0.79733832077E+02  0.29186278004E+03  0.31461968448E+03  0.00000000000E+00 0.  1.
         12    1    3    3    0    0 -0.10371138857E+03 -0.23972408623E+02  0.44509275804E+03  0.45764428518E+03  0.00000000000E+00 0. -1.
        -13    1    4    4    0    0  0.12882140461E+02 -0.21518651622E+02  0.90119171351E+02  0.93543930618E+02  0.00000000000E+00 0.  1.
         13    1    4    4    0    0  0.31638810338E+02 -0.18748870842E+02 -0.11595731410E+02  0.38561580159E+02  0.00000000000E+00 0. -1.
          1    1    1    2  501    0  0.14547009651E+03  0.14397376316E+03  0.81519921515E+03  0.84049970485E+03  0.00000000000E+00 0. -1.
<scales pt_clust_5="13000.00000" pt_clust_6="13000.00000" pt_clust_7="13000.00000" pt_clust_8="13000.00000" pt_clust_9="13000.00000"></scales>
<clustering>
<clus scale="   80.228">  5  6 -1 -1</clus>
<clus scale="   87.649">  7  8 -1 -1</clus>
<clus scale="  204.671">  7  9 -1 -1</clus>
<clus scale="  230.842">  1  5  2 -1</clus>
<clus scale="  383.694">  2  5  1 -1</clus>
</clustering>
</event>
<event>
 9    2  0.3707658E-005  0.5509053E+03  0.7546771E-02  0.1026351E+00
          2   -1    0    0  502    0 -0.00000000000E+00  0.00000000000E+00  0.83324248182E+03  0.83324248182E+03  0.00000000000E+00 0. -1.
         21   -1    0    0  501  502  0.00000000000E+00 -0.00000000000E+00 -0.19679270647E+03  0.19679270647E+03  0.00000000000E+00 0. -1.
         24    2    1    2    0    0 -0.23598335914E+03 -0.54546217895E+02  0.24702920403E+03  0.35539084286E+03  0.81337493603E+02 0.  0.
         23    2    1    2    0    0 -0.19768767208E+02 -0.14423033205E+03  0.28790840246E+03  0.33519480962E+03  0.90945694512E+02 0.  0.
        -11    1    3    3    0    0 -0.15993101743E+03 -0.83485427275E+01  0.19491693776E+03  0.25227017487E+03  0.00000000000E+00 0.  1.
         12    1    3    3    0    0 -0.76052341718E+02 -0.46197675168E+02  0.52112266263E+02  0.10312066799E+03  0.00000000000E+00 0. -1.
        -11    1    4    4    0    0 -0.34521280277E+02 -0.45730146137E+02  0.45641850823E+02  0.73253966474E+02  0.00000000000E+00 0.  1.
         11    1    4    4    0    0  0.14752513069E+02 -0.98500185910E+02  0.24226655164E+03  0.26194084315E+03  0.00000000000E+00 0. -1.
          1    1    1    2  501    0  0.25575212635E+03  0.19877654994E+03  0.10151216886E+03  0.33944953582E+03  0.00000000000E+00 0. -1.
<scales pt_clust_5="13000.00000" pt_clust_6="13000.00000" pt_clust_7="13000.00000" pt_clust_8="13000.00000" pt_clust_9="13000.00000"></scales>
<clustering>
<clus scale="   81.337">  5  6 -1 -1</clus>
<clus scale="   90.946">  7  8 -1 -1</clus>
<clus scale="  255.498">  1  5  2 -1</clus>
<clus scale="  236.616">  7  9 -1 -1</clus>
<clus scale="  550.905">  2  5  1 -1</clus>
</clustering>
</event>
<event>
 9    2  0.3707658E-005  0.1525241E+03  0.7546771E-02  0.1225009E+00
         21   -1    0    0  501  502  0.00000000000E+00  0.00000000000E+00  0.29795546850E+02  0.29795546850E+02  0.00000000000E+00 0.  1.
          2   -1    0    0  502    0 -0.00000000000E+00 -0.00000000000E+00 -0.59698375186E+03  0.59698375186E+03  0.00000000000E+00 0. -1.
         24    2    1    2    0    0 -0.56729518224E-01  0.24303159062E+02 -0.80858692292E+02  0.11709311973E+03  0.81129672806E+02 0.  0.
         23    2    1    2    0    0 -0.39449721666E+02  0.25744956266E+01 -0.26509417792E+03  0.28334961240E+03  0.91919372909E+02 0.  0.
        -11    1    3    3    0    0  0.13915402536E+02  0.49666996281E+02 -0.68152335519E+02  0.85470402971E+02  0.00000000000E+00 0.  1.
         12    1    3    3    0    0 -0.13972132055E+02 -0.25363837219E+02 -0.12706356773E+02  0.31622716756E+02  0.00000000000E+00 0. -1.
        -11    1    4    4    0    0 -0.37113967128E+02 -0.41587658092E+02 -0.14161783269E+03  0.15219260953E+03  0.00000000000E+00 0. -1.
         11    1    4    4    0    0 -0.23357545377E+01  0.44162153719E+02 -0.12347634523E+03  0.13115700287E+03  0.00000000000E+00 0.  1.
          1    1    1    2  501    0  0.39506451184E+02 -0.26877654689E+02 -0.22123533480E+03  0.22633656658E+03  0.00000000000E+00 0. -1.
<scales pt_clust_5="13000.00000" pt_clust_6="13000.00000" pt_clust_7="13000.00000" pt_clust_8="13000.00000" pt_clust_9="13000.00000"></scales>
<clustering>
<clus scale="   81.130">  5  6 -1 -1</clus>
<clus scale="   84.692">  2  5  1 -1</clus>
<clus scale="   91.919">  7  8 -1 -1</clus>
<clus scale="   42.584">  7  9 -1 -1</clus>
<clus scale="  152.524">  1  5  2 -1</clus>
</clustering>
</event>
<event>
 9    2  0.3707658E-005  0.3217303E+03  0.7546771E-02  0.1087117E+00
          2   -1    0    0  502    0 -0.00000000000E+00  0.00000000000E+00  0.10418727190E+04  0.10418727190E+04  0.00000000000E+00 0. -1.
         21   -1    0    0  501  502  0.00000000000E+00 -0.00000000000E+00 -0.73880710899E+02  0.73880710899E+02  0.00000000000E+00 0. -1.
         24    2    1    2    0    0 -0.20569257242E+03  0.65849205562E+02  0.44950677819E+03  0.50555894523E+03  0.82993681928E+02 0.  0.
         23    2    1    2    0    0 -0.14782909777E+02 -0.23714027637E+02  0.14986874269E+03  0.17861259658E+03  0.93064118186E+02 0.  0.
        -11    1    3    3    0    0 -0.76239816087E+02  0.67184931972E+02  0.21040929747E+03  0.23366299901E+03  0.00000000000E+00 0.  1.
         12    1    3    3    0    0 -0.12945275634E+03 -0.13357264102E+01  0.23909748072E+03  0.27189594623E+03  0.00000000000E+00 0. -1.
        -13    1    4    4    0    0  0.30508988376E+00 -0.50118295228E+02  0.38593524684E+02  0.63256594470E+02  0.00000000000E+00 0.  1.
         13    1    4    4    0    0 -0.15087999661E+02  0.26404267591E+02  0.11127521800E+03  0.11535600211E+03  0.00000000000E+00 0. -1.
          1    1    1    2  501    0  0.22047548220E+03 -0.42135177924E+02  0.36861648720E+03  0.43158188806E+03  0.00000000000E+00 0. -1.
<scales pt_clust_5="13000.00000" pt_clust_6="13000.00000" pt_clust_7="13000.00000" pt_clust_8="13000.00000" pt_clust_9="13000.00000"></scales>
<clustering>
<clus scale="   82.994">  5  6 -1 -1</clus>
<clus scale="   93.064">  7  8 -1 -1</clus>
<clus scale="  224.466">  7  9 -1 -1</clus>
<clus scale="  231.373">  1  5  2 -1</clus>
<clus scale="  321.730">  2  5  1 -1</clus>
</clustering>
</event>
<event>
 9    2  0.3707658E-005  0.4017252E+03  0.7546771E-02  0.1083339E+00
         21   -1    0    0  501  502  0.00000000000E+00  0.00000000000E+00  0.53615089698E+02  0.53615089698E+02  0.00000000000E+00 0. -1.
          2   -1    0    0  502    0 -0.00000000000E+00 -0.00000000000E+00 -0.13457138091E+04  0.13457138091E+04  0.00000000000E+00 0. -1.
         24    2    1    2    0    0  0.62135721558E+02 -0.83599689773E+02 -0.39747511918E+03  0.41864825001E+03  0.80188096631E+02 0.  0.
         23    2    1    2    0    0  0.12057583779E+03 -0.65134374330E+02 -0.41072970588E+03  0.44248120925E+03  0.91157610036E+02 0.  0.
        -13    1    3    3    0    0 -0.65194668373E+01 -0.55317443963E+02 -0.20222892090E+03  0.20975952780E+03  0.00000000000E+00 0.  1.
         14    1    3    3    0    0  0.68655188396E+02 -0.28282245810E+02 -0.19524619828E+03  0.20888872221E+03  0.00000000000E+00 0. -1.
        -13    1    4    4    0    0  0.12852627104E+03 -0.44878593443E+02 -0.38718531641E+03  0.41042119796E+03  0.00000000000E+00 0.  1.
         13    1    4    4    0    0 -0.79504332430E+01 -0.20255780886E+02 -0.23544389476E+02  0.32060011289E+02  0.00000000000E+00 0. -1.
          1    1    1    2  501    0 -0.18271155935E+03  0.14873406410E+03 -0.48389389435E+03  0.53819943955E+03  0.00000000000E+00 0. -1.
<scales pt_clust_5="13000.00000" pt_clust_6="13000.00000" pt_clust_7="13000.00000" pt_clust_8="13000.00000" pt_clust_9="13000.00000"></scales>
<clustering>
<clus scale="   80.188">  5  6 -1 -1</clus>
<clus scale="   91.158">  7  8 -1 -1</clus>
<clus scale="  131.453">  2  5  1 -1</clus>
<clus scale="  181.105">  7  9 -1 -1</clus>
<clus scale="  401.725">  1  5  2 -1</clus>
</clustering>
</event>
<event>
 9    2  0.3707658E-005  0.1989169E+03  0.7546771E-02  0.1177010E+00
         21   -1    0    0  501  502  0.00000000000E+00  0.00000000000E+00  0.93768149747E+03  0.93768149747E+03  0.00000000000E+00 0.  1.
          4   -1    0    0  502    0 -0.00000000000E+00 -0.00000000000E+00 -0.25694105713E+02  0.25694105713E+02  0.00000000000E+00 0. -1.
         24    2    1    2    0    0 -0.44759030792E+01  0.71601163632E+02  0.39188476535E+03  0.40653212757E+03  0.80919349271E+02 0.  0.
         23    2    1    2    0    0 -0.16400121711E+02 -0.10242136771E+03  0.48857758582E+03  0.50806313557E+03  0.93064449776E+02 0.  0.
        -13    1    3    3    0    0  0.30854887968E+02  0.61440910004E+02  0.29502886321E+03  0.30293405167E+03  0.00000000000E+00 0.  1.
         14    1    3    3    0    0 -0.35330791047E+02  0.10160253627E+02  0.96855902143E+02  0.10359807590E+03  0.00000000000E+00 0. -1.
        -13    1    4    4    0    0  0.29342996197E+02 -0.68558935430E+02  0.19002650726E+03  0.20413576981E+03  0.00000000000E+00 0.  1.
         13    1    4    4    0    0 -0.45743117908E+02 -0.33862432281E+02  0.29855107855E+03  0.30392736576E+03  0.00000000000E+00 0. -1.
          3    1    1    2  501    0  0.20876024790E+02  0.30820204079E+02  0.31525040591E+02  0.48780340043E+02  0.00000000000E+00 0. -1.
<scales pt_clust_5="13000.00000" pt_clust_6="13000.00000" pt_clust_7="13000.00000" pt_clust_8="13000.00000" pt_clust_9="13000.00000"></scales>
<clustering>
<clus scale="   80.919">  5  6 -1 -1</clus>
<clus scale="   93.064">  7  8 -1 -1</clus>
<clus scale="   37.225">  7  9 -1 -1</clus>
<clus scale="  108.142">  2  5  1 -1</clus>
<clus scale="  198.917">  1  5  2 -1</clus>
</clustering>
</event>
<event>
 9    2  0.3707658E-005  0.1533202E+03  0.7546771E-02  0.1211914E+00
         21   -1    0    0  501  502  0.00000000000E+00  0.00000000000E+00  0.44217301071E+02  0.44217301071E+02  0.00000000000E+00 0.  1.
          2   -1    0    0  502    0 -0.00000000000E+00 -0.00000000000E+00 -0.51387118744E+03  0.51387118744E+03  0.00000000000E+00 0. -1.
         24    2    1    2    0    0  0.28864259098E+02  0.67493967211E+02 -0.33997963485E+03  0.35728389885E+03  0.81713225374E+02 0.  0.
         23    2    1    2    0    0 -0.24761206057E+02 -0.10340685087E+02 -0.68542579173E+02  0.11701667845E+03  0.90965767086E+02 0.  0.
        -11    1    3    3    0    0  0.35220542531E+02  0.38173546016E+02 -0.78742572956E+02  0.94329735648E+02  0.00000000000E+00 0.  1.
         12    1    3    3    0    0 -0.63562834327E+01  0.29320421195E+02 -0.26123706189E+03  0.26295416320E+03  0.00000000000E+00 0. -1.
        -11    1    4    4    0    0 -0.24884545808E+02 -0.36182846006E+02 -0.77988323656E+02  0.89502053563E+02  0.00000000000E+00 0. -1.
         11    1    4    4    0    0  0.12333975025E+00  0.25842160920E+02  0.94457444831E+01  0.27514624885E+02  0.00000000000E+00 0.  1.
          1    1    1    2  501    0 -0.41030530409E+01 -0.57153282125E+02 -0.61131672343E+02  0.83787911213E+02  0.00000000000E+00 0. -1.
<scales pt_clust_5="13000.00000" pt_clust_6="13000.00000" pt_clust_7="13000.00000" pt_clust_8="13000.00000" pt_clust_9="13000.00000"></scales>
<clustering>
<clus scale="   81.713">  5  6 -1 -1</clus>
<clus scale="   90.966">  7  8 -1 -1</clus>
<clus scale="   57.300">  7  9 -1 -1</clus>
<clus scale="  109.844">  2  5  1 -1</clus>
<clus scale="  153.320">  1  5  2 -1</clus>
</clustering>
</event>
<event>
 9    2  0.3707658E-005  0.1635237E+03  0.7546771E-02  0.1215818E+00
          2   -1    0    0  502    0 -0.00000000000E+00  0.00000000000E+00  0.32425948190E+03  0.32425948190E+03  0.00000000000E+00 0. -1.
         21   -1    0    0  501  502  0.00000000000E+00 -0.00000000000E+00 -0.73119629919E+02  0.73119629919E+02  0.00000000000E+00 0. -1.
         24    2    1    2    0    0 -0.24087300814E+02  0.51419212854E+01  0.21404889666E+03  0.22970158703E+03  0.79619416669E+02 0.  0.
         23    2    1    2    0    0  0.44028132498E+02 -0.15662998550E+02  0.73296207023E+02  0.12502602909E+03  0.89863051422E+02 0.  0.
        -11    1    3    3    0    0 -0.22328617370E+02  0.40499350638E+02  0.14351207519E+03  0.15077957514E+03  0.00000000000E+00 0.  1.
         12    1    3    3    0    0 -0.17586834440E+01 -0.35357429352E+02  0.70536821469E+02  0.78922011891E+02  0.00000000000E+00 0. -1.
        -11    1    4    4    0    0  0.54217294951E+02 -0.44851745129E+02  0.51588285100E+02  0.87249901275E+02  0.00000000000E+00 0. -1.
         11    1    4    4    0    0 -0.10189162453E+02  0.29188746580E+02  0.21707921923E+02  0.37776127813E+02  0.00000000000E+00 0.  1.
          1    1    1    2  501    0 -0.19940831684E+02  0.10521077264E+02 -0.36205251696E+02  0.42651495700E+02  0.00000000000E+00 0. -1.
<scales pt_clust_5="13000.00000" pt_clust_6="13000.00000" pt_clust_7="13000.00000" pt_clust_8="13000.00000" pt_clust_9="13000.00000"></scales>
<clustering>
<clus scale="   79.619">  5  6 -1 -1</clus>
<clus scale="   83.342">  1  5  2 -1</clus>
<clus scale="   89.863">  7  8 -1 -1</clus>
<clus scale="   23.293">  7  9 -1 -1</clus>
<clus scale="  163.524">  2  5  1 -1</clus>
</clustering>
</event>
<event>
 9    2  0.3707658E-005  0.2562642E+03  0.7546771E-02  0.1136611E+00
          2   -1    0    0  502    0 -0.00000000000E+00  0.00000000000E+00  0.53539404844E+02  0.53539404844E+02  0.00000000000E+00 0. -1.
         21   -1    0    0  501  502  0.00000000000E+00 -0.00000000000E+00 -0.69947926200E+03  0.69947926200E+03  0.00000000000E+00 0.  1.
         24    2    1    2    0    0 -0.49184322629E+02 -0.88961043088E+02 -0.19959717626E+03  0.23834095661E+03  0.81450684741E+02 0.  0.
         23    2    1    2    0    0  0.69353617750E+01 -0.48255723293E+02 -0.25925333454E+03  0.27884760362E+03  0.90371347783E+02 0.  0.
        -11    1    3    3    0    0 -0.52763358894E+02 -0.35158216019E+02 -0.15797443195E+03  0.17022336310E+03  0.00000000000E+00 0.  1.
         12    1    3    3    0    0  0.35790362644E+01 -0.53802827069E+02 -0.41622744318E+02  0.68117593512E+02  0.00000000000E+00 0. -1.
        -11    1    4    4    0    0  0.44251755178E+02 -0.47693748821E+02 -0.17481497660E+03  0.18652932090E+03  0.00000000000E+00 0.  1.
         11    1    4    4    0    0 -0.37316393403E+02 -0.56197447275E+00 -0.84438357936E+02  0.92318282712E+02  0.00000000000E+00 0. -1.
          1    1    1    2  501    0  0.42248960854E+02  0.13721676638E+03 -0.18708934636E+03  0.23583010662E+03  0.00000000000E+00 0. -1.
<scales pt_clust_5="13000.00000" pt_clust_6="13000.00000" pt_clust_7="13000.00000" pt_clust_8="13000.00000" pt_clust_9="13000.00000"></scales>
<clustering>
<clus scale="   81.451">  5  6 -1 -1</clus>
<clus scale="   90.371">  7  8 -1 -1</clus>
<clus scale="  130.259">  1  5  2 -1</clus>
<clus scale="   74.112">  7  9 -1 -1</clus>
<clus scale="  256.264">  2  5  1 -1</clus>
</clustering>
</event>
<event>
 9    2  0.3707658E-005  0.1566523E+03  0.7546771E-02  0.1222319E+00
         -1   -1    0    0    0  501 -0.00000000000E+00  0.00000000000E+00  0.19990386922E+03  0.19990386922E+03  0.00000000000E+00 0.  1.
         21   -1    0    0  501  502  0.00000000000E+00 -0.00000000000E+00 -0.71644165139E+02  0.71644165139E+02  0.00000000000E+00 0. -1.
         24    2    1    2    0    0  0.27187852084E+02 -0.33884365571E+01  0.45595881065E+02  0.94423103440E+02  0.78013314824E+02 0.  0.
         23    2    1    2    0    0 -0.36734748139E+02 -0.42695776857E+02  0.69515314709E+02  0.12826000258E+03  0.91901459191E+02 0.  0.
        -11    1    3    3    0    0 -0.22279022670E+02 -0.41789904808E+01 -0.54742991203E+01  0.23319235911E+02  0.00000000000E+00 0.  1.
         12    1    3    3    0    0  0.49466874754E+02  0.79055392377E+00  0.51070180185E+02  0.71103867529E+02  0.00000000000E+00 0. -1.
        -13    1    4    4    0    0  0.17811632668E+02  0.11403745910E+02  0.41331772766E+02  0.46428602381E+02  0.00000000000E+00 0.  1.
         13    1    4    4    0    0 -0.54546380806E+02 -0.54099522767E+02  0.28183541943E+02  0.81831400202E+02  0.00000000000E+00 0. -1.
         -2    1    1    2    0  502  0.95468960551E+01  0.46084213414E+02  0.13148508302E+02  0.48864928331E+02  0.00000000000E+00 0.  1.
<scales pt_clust_5="13000.00000" pt_clust_6="13000.00000" pt_clust_7="13000.00000" pt_clust_8="13000.00000" pt_clust_9="13000.00000"></scales>
<clustering>
<clus scale="   78.013">  5  6 -1 -1</clus>
<clus scale="   82.685">  1  5  2 -1</clus>
<clus scale="   91.901">  7  8 -1 -1</clus>
<clus scale="   48.032">  7  9 -1 -1</clus>
<clus scale="  156.652">  2  5  1 -1</clus>
</clustering>
</event>
<event>
 9    2  0.3707658E-005  0.4352442E+03  0.7546771E-02  0.1043232E+00
          2   -1    0    0  502    0 -0.00000000000E+00  0.00000000000E+00  0.60090761151E+03  0.60090761151E+03  0.00000000000E+00 0. -1.
         21   -1    0    0  501  502  0.00000000000E+00 -0.00000000000E+00 -0.30699843511E+03  0.30699843511E+03  0.00000000000E+00 0.  1.
         24    2    1    2    0    0  0.30562054408E+03  0.49417991691E+02 -0.89481684518E+02  0.32788354218E+03  0.60453209207E+02 0.  0.
         23    2    1    2    0    0 -0.81730660746E+02  0.68520073565E+02  0.24956507533E+02  0.14126146153E+03  0.89202420694E+02 0.  0.
        -13    1    3    3    0    0  0.29154215035E+03  0.35716393506E+02 -0.74077442405E+02  0.30291905465E+03  0.00000000000E+00 0.  1.
         14    1    3    3    0    0  0.14078393734E+02  0.13701598185E+02 -0.15404242113E+02  0.24964487538E+02  0.00000000000E+00 0. -1.
        -11    1    4    4    0    0 -0.20279144331E+02  0.28099211335E+02  0.52343521024E+02  0.62774625173E+02  0.00000000000E+00 0. -1.
         11    1    4    4    0    0 -0.61451516415E+02  0.40420862230E+02 -0.27387013491E+02  0.78486836355E+02  0.00000000000E+00 0.  1.
          1    1    1    2  501    0 -0.22388988333E+03 -0.11793806526E+03  0.35843435339E+03  0.43876104292E+03  0.00000000000E+00 0. -1.
<scales pt_clust_5="13000.00000" pt_clust_6="13000.00000" pt_clust_7="13000.00000" pt_clust_8="13000.00000" pt_clust_9="13000.00000"></scales>
<clustering>
<clus scale="   60.453">  5  6 -1 -1</clus>
<clus scale="   89.202">  7  8 -1 -1</clus>
<clus scale="  253.054">  7  9 -1 -1</clus>
<clus scale="  315.437">  1  5  2 -1</clus>
<clus scale="  435.244">  2  5  1 -1</clus>
</clustering>
</event>
<event>
 9    2  0.3707658E-005  0.3517511E+03  0.7546771E-02  0.1106876E+00
         21   -1    0    0  501  502  0.00000000000E+00  0.00000000000E+00  0.53265661646E+03  0.53265661646E+03  0.00000000000E+00 0. -1.
          4   -1    0    0  502    0 -0.00000000000E+00 -0.00000000000E+00 -0.14877741582E+03  0.14877741582E+03  0.00000000000E+00 0. -1.
         24    2    1    2    0    0  0.46727119289E+02 -0.50116818172E+02 -0.54854203346E+02  0.11910330541E+03  0.80507730024E+02 0.  0.
         23    2    1    2    0    0 -0.10541305026E+03 -0.55978580468E+02  0.52748271046E+02  0.15775095110E+03  0.88642370450E+02 0.  0.
        -11    1    3    3    0    0  0.14644196299E+02  0.13935949694E+02  0.99242535512E+01  0.22520079655E+02  0.00000000000E+00 0.  1.
         12    1    3    3    0    0  0.32082922989E+02 -0.64052767866E+02 -0.64778456897E+02  0.96583225752E+02  0.00000000000E+00 0. -1.
        -13    1    4    4    0    0  0.11253974726E+02 -0.23465961674E+02  0.18364557926E+02  0.31852163070E+02  0.00000000000E+00 0.  1.
         13    1    4    4    0    0 -0.11666702499E+03 -0.32512618795E+02  0.34383713121E+02  0.12589878804E+03  0.00000000000E+00 0. -1.
          3    1    1    2  501    0  0.58685930974E+02  0.10609539864E+03  0.38598513295E+03  0.40457977577E+03  0.00000000000E+00 0. -1.
<scales pt_clust_5="13000.00000" pt_clust_6="13000.00000" pt_clust_7="13000.00000" pt_clust_8="13000.00000" pt_clust_9="13000.00000"></scales>
<clustering>
<clus scale="   80.508">  5  6 -1 -1</clus>
<clus scale="   88.642">  7  8 -1 -1</clus>
<clus scale="  105.720">  2  5  1 -1</clus>
<clus scale="  118.456">  7  9 -1 -1</clus>
<clus scale="  351.751">  1  5  2 -1</clus>
</clustering>
</event>
<event>
 9    2  0.4808244E-005  0.3065657E+03  0.7546771E-02  0.1123586E+00
         21   -1    0    0  501  502  0.00000000000E+00  0.00000000000E+00  0.87235994974E+02  0.87235994974E+02  0.00000000000E+00 0. -1.
          2   -1    0    0  502    0 -0.00000000000E+00 -0.00000000000E+00 -0.12516045136E+04  0.12516045136E+04  0.00000000000E+00 0. -1.
         24    2    1    2    0    0  0.28897929441E+02 -0.39449880432E+02 -0.97045710165E+03  0.97609517449E+03  0.92646749228E+02 0.  0.
         23    2    1    2    0    0 -0.30677625006E+02 -0.34937391163E+02 -0.24859103028E+03  0.27040631958E+03  0.95709661780E+02 0.  0.
        -11    1    3    3    0    0  0.10205727039E+02  0.24846856521E+02 -0.11828906057E+03  0.12130055645E+03  0.00000000000E+00 0.  1.
         12    1    3    3    0    0  0.18692202402E+02 -0.64296736953E+02 -0.85216804107E+03  0.85479461805E+03  0.00000000000E+00 0. -1.
        -11    1    4    4    0    0 -0.60128691996E+02 -0.40053173160E+02 -0.13702323003E+03  0.15490345977E+03  0.00000000000E+00 0.  1.
         11    1    4    4    0    0  0.29451066990E+02  0.51157819964E+01 -0.11156780025E+03  0.11550285981E+03  0.00000000000E+00 0. -1.
          1    1    1    2  501    0  0.17796955646E+01  0.74387271596E+02  0.54679613285E+02  0.92339014510E+02  0.00000000000E+00 0. -1.
<scales pt_clust_5="13000.00000" pt_clust_6="13000.00000" pt_clust_7="13000.00000" pt_clust_8="13000.00000" pt_clust_9="13000.00000"></scales>
<clustering>
<clus scale="   92.647">  5  6 -1 -1</clus>
<clus scale="   95.710">  7  8 -1 -1</clus>
<clus scale="   74.409">  7  9 -1 -1</clus>
<clus scale="  104.761">  2  5  1 -1</clus>
<clus scale="  306.566">  1  5  2 -1</clus>
</clustering>
</event>
<event>
 9    2  0.3707658E-005  0.1909809E+03  0.7546771E-02  0.1174381E+00
          2   -1    0    0  502    0 -0.00000000000E+00  0.00000000000E+00  0.60809664554E+02  0.60809664554E+02  0.00000000000E+00 0. -1.
         21   -1    0    0  501  502  0.00000000000E+00 -0.00000000000E+00 -0.42799226824E+03  0.42799226824E+03  0.00000000000E+00 0.  1.
         24    2    1    2    0    0 -0.93083511786E+02 -0.41639443861E+02 -0.17549226883E+03  0.21821207086E+03  0.80128571665E+02 0.  0.
         23    2    1    2    0    0  0.82210859028E+01  0.51117097513E+02 -0.98267789077E+02  0.14402276785E+03  0.91681270596E+02 0.  0.
        -13    1    3    3    0    0 -0.98229388978E+02 -0.35507492090E+02 -0.18066192833E+03  0.20868283878E+03  0.00000000000E+00 0.  1.
         14    1    3    3    0    0  0.51458771925E+01 -0.61319517706E+01  0.51696595007E+01  0.95292320756E+01  0.00000000000E+00 0. -1.
        -11    1    4    4    0    0 -0.34077584165E+02  0.18605198325E+02 -0.87285371876E+01  0.39794754788E+02  0.00000000000E+00 0.  1.
         11    1    4    4    0    0  0.42298670068E+02  0.32511899188E+02 -0.89539251890E+02  0.10422801306E+03  0.00000000000E+00 0. -1.
          1    1    1    2  501    0  0.84862425883E+02 -0.94776536515E+01 -0.93422545780E+02  0.12656709409E+03  0.00000000000E+00 0. -1.
<scales pt_clust_5="13000.00000" pt_clust_6="13000.00000" pt_clust_7="13000.00000" pt_clust_8="13000.00000" pt_clust_9="13000.00000"></scales>
<clustering>
<clus scale="   80.129">  5  6 -1 -1</clus>
<clus scale="   91.681">  7  8 -1 -1</clus>
<clus scale="   85.390">  7  9 -1 -1</clus>
<clus scale="  129.688">  1  5  2 -1</clus>
<clus scale="  190.981">  2  5  1 -1</clus>
</clustering>
</event>
<event>
 9    2  0.3707658E-005  0.1629731E+03  0.7546771E-02  0.1196722E+00
          2   -1    0    0  502    0 -0.00000000000E+00  0.00000000000E+00  0.74315336413E+03  0.74315336413E+03  0.00000000000E+00 0. -1.
         21   -1    0    0  501  502  0.00000000000E+00 -0.00000000000E+00 -0.88880545827E+02  0.88880545827E+02  0.00000000000E+00 0.  1.
         24    2    1    2    0    0  0.64202927860E+02  0.72103482814E+02 -0.28511741152E+02  0.13006882750E+03  0.82365358766E+02 0.  0.
         23    2    1    2    0    0 -0.17133163285E+02 -0.19638927490E+02  0.39813673425E+03  0.40872034389E+03  0.88657924589E+02 0.  0.
        -13    1    3    3    0    0  0.78517655479E+02  0.40432880127E+02 -0.57095441635E+01  0.88501067292E+02  0.00000000000E+00 0.  1.
         14    1    3    3    0    0 -0.14314727619E+02  0.31670602688E+02 -0.22802196989E+02  0.41567760211E+02  0.00000000000E+00 0. -1.
        -11    1    4    4    0    0  0.23803071476E+02 -0.39084117901E+02  0.16549389293E+03  0.17170434788E+03  0.00000000000E+00 0. -1.
         11    1    4    4    0    0 -0.40936234761E+02  0.19445190412E+02  0.23264284132E+03  0.23701599601E+03  0.00000000000E+00 0.  1.
          1    1    1    2  501    0 -0.47069764575E+02 -0.52464555325E+02  0.28464782520E+03  0.29324473856E+03  0.00000000000E+00 0. -1.
<scales pt_clust_5="13000.00000" pt_clust_6="13000.00000" pt_clust_7="13000.00000" pt_clust_8="13000.00000" pt_clust_9="13000.00000"></scales>
<clustering>
<clus scale="   82.365">  5  6 -1 -1</clus>
<clus scale="   88.658">  7  8 -1 -1</clus>
<clus scale="   70.485">  7  9 -1 -1</clus>
<clus scale="  126.905">  1  5  2 -1</clus>
<clus scale="  162.973">  2  5  1 -1</clus>
</clustering>
</event>
<event>
 9    2  0.3707658E-005  0.2393818E+03  0.7546771E-02  0.1143562E+00
          2   -1    0    0  502    0 -0.00000000000E+00  0.00000000000E+00  0.67055870565E+03  0.67055870565E+03  0.00000000000E+00 0. -1.
         21   -1    0    0  501  502  0.00000000000E+00 -0.00000000000E+00 -0.69371811251E+02  0.69371811251E+02  0.00000000000E+00 0.  1.
         24    2    1    2    0    0  0.31511929966E+02  0.87274935144E+02  0.59406429726E+02  0.14762171625E+03  0.98250349527E+02 0.  0.
         23    2    1    2    0    0  0.72729267477E+02 -0.59171882521E+02  0.31712473423E+03  0.34305750971E+03  0.91266093827E+02 0.  0.
        -11    1    3    3    0    0 -0.28128339592E+02  0.16296148446E+02 -0.74127794367E+01  0.33342424047E+02  0.00000000000E+00 0.  1.
         12    1    3    3    0    0  0.59640269558E+02  0.70978786698E+02  0.66819209163E+02  0.11427929221E+03  0.00000000000E+00 0. -1.
        -11    1    4    4    0    0  0.57527609892E+02 -0.82180678670E+02  0.21459978127E+03  0.23688848847E+03  0.00000000000E+00 0.  1.
         11    1    4    4    0    0  0.15201657584E+02  0.23008796149E+02  0.10252495295E+03  0.10616902124E+03  0.00000000000E+00 0. -1.
          1    1    1    2  501    0 -0.10424119744E+03 -0.28103052623E+02  0.22465573044E+03  0.24925129093E+03  0.00000000000E+00 0. -1.
<scales pt_clust_5="13000.00000" pt_clust_6="13000.00000" pt_clust_7="13000.00000" pt_clust_8="13000.00000" pt_clust_9="13000.00000"></scales>
<clustering>
<clus scale="   91.266">  7  8 -1 -1</clus>
<clus scale="   98.250">  5  6 -1 -1</clus>
<clus scale="  107.963">  7  9 -1 -1</clus>
<clus scale="  135.141">  1  5  2 -1</clus>
<clus scale="  239.382">  2  5  1 -1</clus>
</clustering>
</event>
<event>
 9    2  0.3707658E-005  0.2658953E+03  0.7546771E-02  0.1107932E+00
         21   -1    0    0  501  502  0.00000000000E+00  0.00000000000E+00  0.19058905822E+03  0.19058905822E+03  0.00000000000E+00 0.  1.
         -1   -1    0    0    0  501 -0.00000000000E+00 -0.00000000000E+00 -0.37666264452E+03  0.37666264452E+03  0.00000000000E+00 0.  1.
         24    2    1    2    0    0  0.17224468516E+03  0.14289470512E+03 -0.18455310863E+03  0.30135207559E+03  0.81646158775E+02 0.  0.
         23    2    1    2    0    0 -0.62248884761E+02 -0.87723000528E+02  0.11426900570E+02  0.14216350593E+03  0.92247709375E+02 0.  0.
        -13    1    3    3    0    0  0.12081851034E+03  0.54367529138E+02 -0.78753049018E+02  0.15412651750E+03  0.00000000000E+00 0.  1.
         14    1    3    3    0    0  0.51426174820E+02  0.88527175981E+02 -0.10580005961E+03  0.14722555810E+03  0.00000000000E+00 0. -1.
        -13    1    4    4    0    0 -0.66366805697E+02 -0.36747497380E+02  0.37650526123E+02  0.84690575506E+02  0.00000000000E+00 0.  1.
         13    1    4    4    0    0  0.41179209358E+01 -0.50975503148E+02 -0.26223625553E+02  0.57472930421E+02  0.00000000000E+00 0. -1.
         -2    1    1    2    0  502 -0.10999580040E+03 -0.55171704591E+02 -0.12947378244E+02  0.12373612123E+03  0.00000000000E+00 0.  1.
<scales pt_clust_5="13000.00000" pt_clust_6="13000.00000" pt_clust_7="13000.00000" pt_clust_8="13000.00000" pt_clust_9="13000.00000"></scales>
<clustering>
<clus scale="   81.646">  5  6 -1 -1</clus>
<clus scale="   92.248">  7  8 -1 -1</clus>
<clus scale="  123.057">  7  9 -1 -1</clus>
<clus scale="  238.229">  2  5  1 -1</clus>
<clus scale="  265.895">  1  5  2 -1</clus>
</clustering>
</event>
<event>
 9    2  0.3707658E-005  0.3202495E+03  0.7546771E-02  0.1106556E+00
          2   -1    0    0  502    0 -0.00000000000E+00  0.00000000000E+00  0.76131739498E+03  0.76131739498E+03  0.00000000000E+00 0. -1.
         21   -1    0    0  501  502  0.00000000000E+00 -0.00000000000E+00 -0.69988398592E+02  0.69988398592E+02  0.00000000000E+00 0. -1.
         24    2    1    2    0    0  0.40799676668E+02 -0.10868312356E+03  0.20124118322E+03  0.24586081915E+03  0.80454295139E+02 0.  0.
         23    2    1    2    0    0  0.91817342313E+02  0.32722317214E+02  0.10246296526E+03  0.16877923244E+03  0.92122720652E+02 0.  0.
        -13    1    3    3    0    0  0.60702613211E+01 -0.92355554239E+02  0.93817472036E+02  0.13178814260E+03  0.00000000000E+00 0.  1.
         14    1    3    3    0    0  0.34729415347E+02 -0.16327569320E+02  0.10742371118E+03  0.11407267654E+03  0.00000000000E+00 0. -1.
        -11    1    4    4    0    0  0.13068868884E+02 -0.16673466011E+02 -0.95328121091E+01  0.23230891275E+02  0.00000000000E+00 0.  1.
         11    1    4    4    0    0  0.78748473429E+02  0.49395783225E+02  0.11199577737E+03  0.14554834117E+03  0.00000000000E+00 0. -1.
          1    1    1    2  501    0 -0.13261701898E+03  0.75960806344E+02  0.38762484792E+03  0.41666574199E+03  0.00000000000E+00 0. -1.
<scales pt_clust_5="13000.00000" pt_clust_6="13000.00000" pt_clust_7="13000.00000" pt_clust_8="13000.00000" pt_clust_9="13000.00000"></scales>
<clustering>
<clus scale="   80.454">  5  6 -1 -1</clus>
<clus scale="   92.123">  7  8 -1 -1</clus>
<clus scale="  141.243">  1  5  2 -1</clus>
<clus scale="  102.245">  7  9 -1 -1</clus>
<clus scale="  320.250">  2  5  1 -1</clus>
</clustering>
</event>
<event>
 9    2  0.3707658E-005  0.3340989E+03  0.7546771E-02  0.1113139E+00
         21   -1    0    0  501  502  0.00000000000E+00  0.00000000000E+00  0.21223166998E+03  0.21223166998E+03  0.00000000000E+00 0. -1.
          2   -1    0    0  502    0 -0.00000000000E+00 -0.00000000000E+00 -0.23607031022E+03  0.23607031022E+03  0.00000000000E+00 0. -1.
         24    2    1    2    0    0  0.22764767166E+02 -0.63367929365E+02  0.31165769036E+02  0.10970548110E+03  0.80810013782E+02 0.  0.
         23    2    1    2    0    0 -0.20626052726E+02 -0.74455315921E+02 -0.13248261926E+03  0.18047409695E+03  0.95132681780E+02 0.  0.
        -11    1    3    3    0    0  0.33459164914E+02 -0.27831715619E+02 -0.18847852312E+02  0.47427435602E+02  0.00000000000E+00 0.  1.
         12    1    3    3    0    0 -0.10694397747E+02 -0.35536213745E+02  0.50013621348E+02  0.62278045497E+02  0.00000000000E+00 0. -1.
        -11    1    4    4    0    0 -0.58570033695E+02 -0.41442307763E+02 -0.85877503529E+02  0.11190558222E+03  0.00000000000E+00 0. -1.
         11    1    4    4    0    0  0.37943980969E+02 -0.33013008158E+02 -0.46605115730E+02  0.68568514725E+02  0.00000000000E+00 0.  1.
          1    1    1    2  501    0 -0.21387144403E+01  0.13782324529E+03  0.77478209985E+02  0.15812240215E+03  0.00000000000E+00 0. -1.
<scales pt_clust_5="13000.00000" pt_clust_6="13000.00000" pt_clust_7="13000.00000" pt_clust_8="13000.00000" pt_clust_9="13000.00000"></scales>
<clustering>
<clus scale="   80.810">  5  6 -1 -1</clus>
<clus scale="   95.133">  7  8 -1 -1</clus>
<clus scale="  105.186">  2  5  1 -1</clus>
<clus scale="  124.866">  7  9 -1 -1</clus>
<clus scale="  334.099">  1  5  2 -1</clus>
</clustering>
</event>
<event>
 9    2  0.3707658E-005  0.2848827E+03  0.7546771E-02  0.1142156E+00
         -1   -1    0    0    0  501 -0.00000000000E+00  0.00000000000E+00  0.17192091216E+03  0.17192091216E+03  0.00000000000E+00 0.  1.
         21   -1    0    0  501  502  0.00000000000E+00 -0.00000000000E+00 -0.20302902139E+03  0.20302902139E+03  0.00000000000E+00 0.  1.
         24    2    1    2    0    0  0.90949517982E+01 -0.16045824797E+02 -0.35066747335E+02  0.90039730866E+02  0.80853507803E+02 0.  0.
         23    2    1    2    0    0 -0.60267931910E+02  0.11594656922E+02 -0.11271087081E+03  0.15743369073E+03  0.91186440297E+02 0.  0.
        -13    1    3    3    0    0 -0.29248842466E+02 -0.12352788180E+02  0.75065810585E+01  0.32625678853E+02  0.00000000000E+00 0.  1.
         14    1    3    3    0    0  0.38343794264E+02 -0.36930366172E+01 -0.42573328394E+02  0.57414052013E+02  0.00000000000E+00 0. -1.
        -11    1    4    4    0    0 -0.65652269013E+02  0.37363091694E+02 -0.10618314167E+03  0.13031147541E+03  0.00000000000E+00 0.  1.
         11    1    4    4    0    0  0.53843371028E+01 -0.25768434772E+02 -0.65277291378E+01  0.27122215328E+02  0.00000000000E+00 0. -1.
         -2    1    1    2    0  502  0.51172980112E+02  0.44511678747E+01  0.11666950891E+03  0.12747651195E+03  0.00000000000E+00 0.  1.
<scales pt_clust_5="13000.00000" pt_clust_6="13000.00000" pt_clust_7="13000.00000" pt_clust_8="13000.00000" pt_clust_9="13000.00000"></scales>
<clustering>
<clus scale="   80.854">  5  6 -1 -1</clus>
<clus scale="   82.931">  1  5  2 -1</clus>
<clus scale="   91.186">  7  8 -1 -1</clus>
<clus scale="   59.561">  7  9 -1 -1</clus>
<clus scale="  284.883">  2  5  1 -1</clus>
</clustering>
</event>
<event>
 9    2  0.3707658E-005  0.1617236E+03  0.7546771E-02  0.1199469E+00
         21   -1    0    0  501  502  0.00000000000E+00  0.00000000000E+00  0.90283223735E+02  0.90283223735E+02  0.00000000000E+00 0. -1.
          2   -1    0    0  502    0 -0.00000000000E+00 -0.00000000000E+00 -0.33863981728E+03  0.33863981728E+03  0.00000000000E+00 0. -1.
         24    2    1    2    0    0 -0.32199842657E+02 -0.85911571416E+02 -0.23711495323E+03  0.26680923599E+03  0.80907597874E+02 0.  0.
         23    2    1    2    0    0 -0.17370889606E+00  0.92205164261E+02  0.56468396946E+00  0.12708459659E+03  0.87454864531E+02 0.  0.
        -13    1    3    3    0    0 -0.25211241483E+02  0.44041253138E+01 -0.94109552230E+02  0.97527487601E+02  0.00000000000E+00 0.  1.
         14    1    3    3    0    0 -0.69886011743E+01 -0.90315696730E+02 -0.14300540100E+03  0.16928174839E+03  0.00000000000E+00 0. -1.
        -11    1    4    4    0    0  0.11081205836E+02  0.49943860794E+02 -0.41899241888E+02  0.66126612075E+02  0.00000000000E+00 0.  1.
         11    1    4    4    0    0 -0.11254914732E+02  0.42261303468E+02  0.42463925857E+02  0.60957984511E+02  0.00000000000E+00 0. -1.
          1    1    1    2  501    0  0.32373551553E+02 -0.62935928454E+01 -0.11806324291E+02  0.35029208446E+02  0.00000000000E+00 0. -1.
<scales pt_clust_5="13000.00000" pt_clust_6="13000.00000" pt_clust_7="13000.00000" pt_clust_8="13000.00000" pt_clust_9="13000.00000"></scales>
<clustering>
<clus scale="   80.908">  5  6 -1 -1</clus>
<clus scale="   87.455">  7  8 -1 -1</clus>
<clus scale="   32.980">  7  9 -1 -1</clus>
<clus scale="  122.326">  2  5  1 -1</clus>
<clus scale="  161.724">  1  5  2 -1</clus>
</clustering>
</event>
<event>
 9    2  0.3707658E-005  0.2354133E+03  0.7546771E-02  0.1162356E+00
         21   -1    0    0  501  502  0.00000000000E+00  0.00000000000E+00  0.66057247901E+03  0.66057247901E+03  0.00000000000E+00 0. -1.
         -1   -1    0    0    0  501 -0.00000000000E+00 -0.00000000000E+00 -0.41449423904E+02  0.41449423904E+02  0.00000000000E+00 0.  1.
         24    2    1    2    0    0 -0.13113667695E+02 -0.35861052079E+02  0.22714943944E+03  0.24478810511E+03  0.82863533788E+02 0.  0.
         23    2    1    2    0    0  0.90808475922E+02 -0.25131988482E+02  0.26651620483E+03  0.29755851431E+03  0.92910633724E+02 0.  0.
        -11    1    3    3    0    0  0.24081770785E+02 -0.36910078838E+02  0.65743858233E+02  0.79148850272E+02  0.00000000000E+00 0.  1.
         12    1    3    3    0    0 -0.37195438480E+02  0.10490267586E+01  0.16140558120E+03  0.16563925484E+03  0.00000000000E+00 0. -1.
        -13    1    4    4    0    0  0.43183893611E+01 -0.27080126595E+02  0.14972647079E+03  0.15221694320E+03  0.00000000000E+00 0.  1.
         13    1    4    4    0    0  0.86490086560E+02  0.19481381128E+01  0.11678973404E+03  0.14534157111E+03  0.00000000000E+00 0. -1.
         -2    1    1    2    0  502 -0.77694808226E+02  0.60993040562E+02  0.12545741084E+03  0.15967528349E+03  0.00000000000E+00 0.  1.
<scales pt_clust_5="13000.00000" pt_clust_6="13000.00000" pt_clust_7="13000.00000" pt_clust_8="13000.00000" pt_clust_9="13000.00000"></scales>
<clustering>
<clus scale="   82.864">  5  6 -1 -1</clus>
<clus scale="   91.238">  2  5  1 -1</clus>
<clus scale="   92.911">  7  8 -1 -1</clus>
<clus scale="   94.510">  7  9 -1 -1</clus>
<clus scale="  235.413">  1  5  2 -1</clus>
</clustering>
</event>
<event>
 9    2  0.3707658E-005  0.1837319E+03  0.7546771E-02  0.1199008E+00
         21   -1    0    0  501  502  0.00000000000E+00  0.00000000000E+00  0.16933935494E+03  0.16933935494E+03  0.00000000000E+00 0. -1.
          2   -1    0    0  502    0 -0.00000000000E+00 -0.00000000000E+00 -0.10723710002E+03  0.10723710002E+03  0.00000000000E+00 0. -1.
         24    2    1    2    0    0 -0.40185201806E+01  0.22018606699E+02  0.60288171337E+01  0.84478487050E+02  0.81236079378E+02 0.  0.
         23    2    1    2    0    0  0.33590729946E+02 -0.40237658035E+02  0.95427293429E+02  0.13960820342E+03  0.87388076232E+02 0.  0.
        -13    1    3    3    0    0 -0.35674435554E+02 -0.12090444002E+02  0.11079767483E+01  0.37683840048E+02  0.00000000000E+00 0.  1.
         14    1    3    3    0    0  0.31655915374E+02  0.34109050701E+02  0.49208403854E+01  0.46794647002E+02  0.00000000000E+00 0. -1.
        -13    1    4    4    0    0  0.60660764340E+01 -0.31373561465E+02 -0.73933174763E+01  0.32798761952E+02  0.00000000000E+00 0.  1.
         13    1    4    4    0    0  0.27524653513E+02 -0.88640965699E+01  0.10282061091E+03  0.10680944146E+03  0.00000000000E+00 0. -1.
          1    1    1    2  501    0 -0.29572209766E+02  0.18219051336E+02 -0.39353855649E+02  0.52489764492E+02  0.00000000000E+00 0. -1.
<scales pt_clust_5="13000.00000" pt_clust_6="13000.00000" pt_clust_7="13000.00000" pt_clust_8="13000.00000" pt_clust_9="13000.00000"></scales>
<clustering>
<clus scale="   81.236">  5  6 -1 -1</clus>
<clus scale="   84.263">  2  5  1 -1</clus>
<clus scale="   87.388">  7  8 -1 -1</clus>
<clus scale="   46.228">  7  9 -1 -1</clus>
<clus scale="  183.732">  1  5  2 -1</clus>
</clustering>
</event>
<event>
 9    2  0.3707658E-005  0.4372514E+03  0.7546771E-02  0.1081663E+00
         21   -1    0    0  501  502  0.00000000000E+00  0.00000000000E+00  0.26626032009E+03  0.26626032009E+03  0.00000000000E+00 0.  1.
          2   -1    0    0  502    0 -0.00000000000E+00 -0.00000000000E+00 -0.33396616132E+03  0.33396616132E+03  0.00000000000E+00 0. -1.
         24    2    1    2    0    0  0.69081240867E+02  0.18759928198E+02 -0.11922416266E+03  0.15995051304E+03  0.79029190269E+02 0.  0.
         23    2    1    2    0    0  0.14528319290E+03 -0.52146510658E+02  0.11692872208E+03  0.21368096650E+03  0.90336950827E+02 0.  0.
        -13    1    3    3    0    0  0.53650944108E+02 -0.22850239577E+02 -0.88458437575E+02  0.10595023563E+03  0.00000000000E+00 0.  1.
         14    1    3    3    0    0  0.15430296759E+02  0.41610167775E+02 -0.30765725088E+02  0.54000277412E+02  0.00000000000E+00 0. -1.
        -11    1    4    4    0    0  0.10073801545E+03 -0.24127815750E+02  0.23144585247E+02  0.10614127885E+03  0.00000000000E+00 0.  1.
         11    1    4    4    0    0  0.44545177449E+02 -0.28018694907E+02  0.93784136835E+02  0.10753968765E+03  0.00000000000E+00 0. -1.
          1    1    1    2  501    0 -0.21436443377E+03  0.33386582460E+02 -0.65410400651E+02  0.22659500186E+03  0.00000000000E+00 0. -1.
<scales pt_clust_5="13000.00000" pt_clust_6="13000.00000" pt_clust_7="13000.00000" pt_clust_8="13000.00000" pt_clust_9="13000.00000"></scales>
<clustering>
<clus scale="   79.029">  5  6 -1 -1</clus>
<clus scale="   90.337">  7  8 -1 -1</clus>
<clus scale="  106.629">  2  5  1 -1</clus>
<clus scale="  169.271">  7  9 -1 -1</clus>
<clus scale="  437.251">  1  5  2 -1</clus>
</clustering>
</event>
<event>
 9    2  0.3707658E-005  0.2003410E+03  0.7546771E-02  0.1167843E+00
         21   -1    0    0  501  502  0.00000000000E+00  0.00000000000E+00  0.32723317090E+02  0.32723317090E+02  0.00000000000E+00 0.  1.
          2   -1    0    0  502    0 -0.00000000000E+00 -0.00000000000E+00 -0.83663494372E+03  0.83663494372E+03  0.00000000000E+00 0. -1.
         24    2    1    2    0    0  0.44259549874E+02  0.92468536070E+02 -0.30431196967E+03  0.33108664840E+03  0.80642767473E+02 0.  0.
         23    2    1    2    0    0  0.12442048392E+02 -0.57566473362E+02 -0.42350002217E+03  0.43715593785E+03  0.91018359656E+02 0.  0.
        -11    1    3    3    0    0 -0.56423622961E+01  0.76919077455E+02 -0.16045945514E+03  0.17803263036E+03  0.00000000000E+00 0.  1.
         12    1    3    3    0    0  0.49901912170E+02  0.15549458615E+02 -0.14385251453E+03  0.15305401804E+03  0.00000000000E+00 0. -1.
        -11    1    4    4    0    0 -0.21969378390E+02 -0.68516960426E+02 -0.29801708780E+03  0.30658018866E+03  0.00000000000E+00 0. -1.
         11    1    4    4    0    0  0.34411426782E+02  0.10950487064E+02 -0.12548293436E+03  0.13057574919E+03  0.00000000000E+00 0.  1.
          1    1    1    2  501    0 -0.56701598266E+02 -0.34902062707E+02 -0.76099634791E+02  0.10111567456E+03  0.00000000000E+00 0. -1.
<scales pt_clust_5="13000.00000" pt_clust_6="13000.00000" pt_clust_7="13000.00000" pt_clust_8="13000.00000" pt_clust_9="13000.00000"></scales>
<clustering>
<clus scale="   80.643">  5  6 -1 -1</clus>
<clus scale="   91.018">  7  8 -1 -1</clus>
<clus scale="   66.583">  7  9 -1 -1</clus>
<clus scale="  130.432">  2  5  1 -1</clus>
<clus scale="  200.341">  1  5  2 -1</clus>
</clustering>
</event>
<event>
 9    2  0.3707658E-005  0.4303770E+03  0.7546771E-02  0.1040941E+00
          2   -1    0    0  502    0 -0.00000000000E+00  0.00000000000E+00  0.72720747550E+03  0.72720747550E+03  0.00000000000E+00 0. -1.
         21   -1    0    0  501  502  0.00000000000E+00 -0.00000000000E+00 -0.39485842944E+03  0.39485842944E+03  0.00000000000E+00 0.  1.
         24    2    1    2    0    0  0.27718967917E+03  0.19629382313E+03 -0.22719954799E+03  0.41614878882E+03  0.78707030159E+02 0.  0.
         23    2    1    2    0    0 -0.70023123184E+01 -0.10266686156E+03  0.23178034063E+03  0.27094671587E+03  0.95396434414E+02 0.  0.
        -13    1    3    3    0    0  0.16331630203E+03  0.85527890908E+02 -0.15829050638E+03  0.24298789896E+03  0.00000000000E+00 0.  1.
         14    1    3    3    0    0  0.11387337714E+03  0.11076593222E+03 -0.68909041604E+02  0.17316088986E+03  0.00000000000E+00 0. -1.
        -13    1    4    4    0    0 -0.39422183657E+02 -0.99885444045E+02  0.18615946792E+03  0.21491058139E+03  0.00000000000E+00 0.  1.
         13    1    4    4    0    0  0.32419871339E+02 -0.27814175129E+01  0.45620872711E+02  0.56036134484E+02  0.00000000000E+00 0. -1.
          1    1    1    2  501    0 -0.27018736685E+03 -0.93626961571E+02  0.32776825342E+03  0.43497040024E+03  0.00000000000E+00 0. -1.
<scales pt_clust_5="13000.00000" pt_clust_6="13000.00000" pt_clust_7="13000.00000" pt_clust_8="13000.00000" pt_clust_9="13000.00000"></scales>
<clustering>
<clus scale="   78.707">  5  6 -1 -1</clus>
<clus scale="   95.396">  7  8 -1 -1</clus>
<clus scale="  285.950">  7  9 -1 -1</clus>
<clus scale="  348.655">  1  5  2 -1</clus>
<clus scale="  430.377">  2  5  1 -1</clus>
</clustering>
</event>
<event>
 9    2  0.3707658E-005  0.1533971E+03  0.7546771E-02  0.1208831E+00
         21   -1    0    0  501  502  0.00000000000E+00  0.00000000000E+00  0.55672722855E+03  0.55672722855E+03  0.00000000000E+00 0.  1.
         -1   -1    0    0    0  501 -0.00000000000E+00 -0.00000000000E+00 -0.32876904623E+02  0.32876904623E+02  0.00000000000E+00 0.  1.
         24    2    1    2    0    0 -0.38324431029E+02  0.57367237321E+02  0.23217097604E+03  0.26004759891E+03  0.94665884302E+02 0.  0.
         23    2    1    2    0    0  0.31980935603E+01 -0.18309930294E+02  0.23245473799E+03  0.25039286056E+03  0.91191545986E+02 0.  0.
        -11    1    3    3    0    0  0.23650357992E+02  0.48604110431E+02  0.95758442608E+02  0.10996080354E+03  0.00000000000E+00 0.  1.
         12    1    3    3    0    0 -0.61974789021E+02  0.87631268906E+01  0.13641253343E+03  0.15008679537E+03  0.00000000000E+00 0. -1.
        -11    1    4    4    0    0 -0.21343753631E+02 -0.39775527404E+02  0.19749677058E+03  0.20258978945E+03  0.00000000000E+00 0.  1.
         11    1    4    4    0    0  0.24541847191E+02  0.21465597110E+02  0.34957967405E+02  0.47803071114E+02  0.00000000000E+00 0. -1.
         -2    1    1    2    0  502  0.35126337469E+02 -0.39057307027E+02  0.59224609902E+02  0.79163673704E+02  0.00000000000E+00 0.  1.
<scales pt_clust_5="13000.00000" pt_clust_6="13000.00000" pt_clust_7="13000.00000" pt_clust_8="13000.00000" pt_clust_9="13000.00000"></scales>
<clustering>
<clus scale="   91.192">  7  8 -1 -1</clus>
<clus scale="   52.529">  7  9 -1 -1</clus>
<clus scale="   94.666">  5  6 -1 -1</clus>
<clus scale="  117.138">  2  5  1 -1</clus>
<clus scale="  153.397">  1  5  2 -1</clus>
</clustering>
</event>
<event>
 9    2  0.3707658E-005  0.4354292E+03  0.7546771E-02  0.1076880E+00
          2   -1    0    0  502    0 -0.00000000000E+00  0.00000000000E+00  0.22932056200E+03  0.22932056200E+03  0.00000000000E+00 0. -1.
         21   -1    0    0  501  502  0.00000000000E+00 -0.00000000000E+00 -0.44049121138E+03  0.44049121138E+03  0.00000000000E+00 0.  1.
         24    2    1    2    0    0  0.86865699913E+02 -0.34505703498E+02  0.79459460346E+02  0.14630014542E+03  0.79709681440E+02 0.  0.
         23    2    1    2    0    0  0.13237220755E+03 -0.86012398413E+02 -0.15137295932E+03  0.23718589231E+03  0.91776035472E+02 0.  0.
        -11    1    3    3    0    0  0.92625316825E+02 -0.16830157954E+02  0.85067354013E+02  0.12688245841E+03  0.00000000000E+00 0.  1.
         12    1    3    3    0    0 -0.57596169125E+01 -0.17675545544E+02 -0.56078936670E+01  0.19417687006E+02  0.00000000000E+00 0. -1.
        -11    1    4    4    0    0  0.34484144963E+02  0.53205371514E+01  0.27964994206E+00  0.34893302702E+02  0.00000000000E+00 0. -1.
         11    1    4    4    0    0  0.97888062589E+02 -0.91332935564E+02 -0.15165260926E+03  0.20229258961E+03  0.00000000000E+00 0.  1.
          1    1    1    2  501    0 -0.21923790746E+03  0.12051810191E+03 -0.13925715041E+03  0.28632573565E+03  0.00000000000E+00 0. -1.
<scales pt_clust_5="13000.00000" pt_clust_6="13000.00000" pt_clust_7="13000.00000" pt_clust_8="13000.00000" pt_clust_9="13000.00000"></scales>
<clustering>
<clus scale="   79.710">  5  6 -1 -1</clus>
<clus scale="   91.776">  7  8 -1 -1</clus>
<clus scale="  122.841">  1  5  2 -1</clus>
<clus scale="  191.750">  7  9 -1 -1</clus>
<clus scale="  435.429">  2  5  1 -1</clus>
</clustering>
</event>
<event>
 9    2  0.3707658E-005  0.2580786E+03  0.7546771E-02  0.1144535E+00
         21   -1    0    0  501  502  0.00000000000E+00  0.00000000000E+00  0.83440592020E+02  0.83440592020E+02  0.00000000000E+00 0.  1.
          2   -1    0    0  502    0 -0.00000000000E+00 -0.00000000000E+00 -0.40041231507E+03  0.40041231507E+03  0.00000000000E+00 0. -1.
         24    2    1    2    0    0  0.49129617580E+02  0.46764353254E+02 -0.68970539712E+02  0.12592952086E+03  0.80626824420E+02 0.  0.
         23    2    1    2    0    0 -0.48925673298E+02 -0.13434524460E+03 -0.18452696024E+03  0.24975947765E+03  0.88810085935E+02 0.  0.
        -11    1    3    3    0    0  0.21975419517E+02 -0.17709156904E+02 -0.42735130929E+02  0.51213520839E+02  0.00000000000E+00 0.  1.
         12    1    3    3    0    0  0.27154198063E+02  0.64473510158E+02 -0.26235408783E+02  0.74716000017E+02  0.00000000000E+00 0. -1.
        -13    1    4    4    0    0  0.24798189689E+01 -0.26056814060E+02  0.38716630917E+01  0.26459343079E+02  0.00000000000E+00 0.  1.
         13    1    4    4    0    0 -0.51405492266E+02 -0.10828843054E+03 -0.18839862333E+03  0.22330013457E+03  0.00000000000E+00 0. -1.
          1    1    1    2  501    0 -0.20394428279E+00  0.87580891350E+02 -0.63474223101E+02  0.10816390859E+03  0.00000000000E+00 0. -1.
<scales pt_clust_5="13000.00000" pt_clust_6="13000.00000" pt_clust_7="13000.00000" pt_clust_8="13000.00000" pt_clust_9="13000.00000"></scales>
<clustering>
<clus scale="   80.627">  5  6 -1 -1</clus>
<clus scale="   88.810">  7  8 -1 -1</clus>
<clus scale="   87.581">  7  9 -1 -1</clus>
<clus scale="  105.363">  2  5  1 -1</clus>
<clus scale="  258.079">  1  5  2 -1</clus>
</clustering>
</event>
<event>
 9    2  0.3707658E-005  0.1567023E+03  0.7546771E-02  0.1223676E+00
         -1   -1    0    0    0  501 -0.00000000000E+00  0.00000000000E+00  0.79357345073E+02  0.79357345073E+02  0.00000000000E+00 0.  1.
         21   -1    0    0  501  502  0.00000000000E+00 -0.00000000000E+00 -0.21932957399E+03  0.21932957399E+03  0.00000000000E+00 0.  1.
         24    2    1    2    0    0  0.14854644736E+02  0.28295784988E+01  0.11054401084E+02  0.81052719644E+02  0.78858586049E+02 0.  0.
         23    2    1    2    0    0 -0.11607319362E+02  0.19629477391E+02 -0.16569108834E+03  0.19061567518E+03  0.91437151234E+02 0.  0.
        -11    1    3    3    0    0  0.38081369682E+02  0.20748041778E+02 -0.10536756425E+02  0.44628412367E+02  0.00000000000E+00 0.  1.
         12    1    3    3    0    0 -0.23226724946E+02 -0.17918463280E+02  0.21591157509E+02  0.36424307277E+02  0.00000000000E+00 0. -1.
        -13    1    4    4    0    0 -0.42219482916E+02  0.19468634769E+02 -0.14828072633E+03  0.15539847579E+03  0.00000000000E+00 0.  1.
         13    1    4    4    0    0  0.30612163555E+02  0.16084262168E+00 -0.17410362010E+02  0.35217199394E+02  0.00000000000E+00 0. -1.
         -2    1    1    2    0  502 -0.32473253738E+01 -0.22459055889E+02  0.14664458336E+02  0.27018524235E+02  0.00000000000E+00 0.  1.
<scales pt_clust_5="13000.00000" pt_clust_6="13000.00000" pt_clust_7="13000.00000" pt_clust_8="13000.00000" pt_clust_9="13000.00000"></scales>
<clustering>
<clus scale="   78.859">  5  6 -1 -1</clus>
<clus scale="   80.295">  1  5  2 -1</clus>
<clus scale="   91.437">  7  8 -1 -1</clus>
<clus scale="   21.554">  7  9 -1 -1</clus>
<clus scale="  156.702">  2  5  1 -1</clus>
</clustering>
</event>
<event>
 9    2  0.3707658E-005  0.3011790E+03  0.7546771E-02  0.1112877E+00
         21   -1    0    0  501  502  0.00000000000E+00  0.00000000000E+00  0.45665645229E+03  0.45665645229E+03  0.00000000000E+00 0.  1.
         -1   -1    0    0    0  501 -0.00000000000E+00 -0.00000000000E+00 -0.52855697709E+03  0.52855697709E+03  0.00000000000E+00 0.  1.
         24    2    1    2    0    0  0.29338196942E+02 -0.11620979240E+03 -0.46674535572E+03  0.48861377414E+03  0.80788288433E+02 0.  0.
         23    2    1    2    0    0  0.54074309184E+01 -0.13638502456E+02  0.16245201484E+02  0.94846599557E+02  0.92286086806E+02 0.  0.
        -13    1    3    3    0    0  0.37015121290E+02 -0.12420237632E+03 -0.45171739451E+03  0.46994143677E+03  0.00000000000E+00 0.  1.
         14    1    3    3    0    0 -0.76769243484E+01  0.79925839136E+01 -0.15027961210E+02  0.18672337379E+02  0.00000000000E+00 0. -1.
        -13    1    4    4    0    0  0.53349184270E+01 -0.46857631880E+02 -0.14749753688E+02  0.49413097999E+02  0.00000000000E+00 0. -1.
         13    1    4    4    0    0  0.72512491453E-01  0.33219129424E+02  0.30994955172E+02  0.45433501558E+02  0.00000000000E+00 0.  1.
         -2    1    1    2    0  502 -0.34745627860E+02  0.12984829486E+03  0.37859962944E+03  0.40175305568E+03  0.00000000000E+00 0.  1.
<scales pt_clust_5="13000.00000" pt_clust_6="13000.00000" pt_clust_7="13000.00000" pt_clust_8="13000.00000" pt_clust_9="13000.00000"></scales>
<clustering>
<clus scale="   80.788">  5  6 -1 -1</clus>
<clus scale="   92.286">  7  8 -1 -1</clus>
<clus scale="  134.417">  7  9 -1 -1</clus>
<clus scale="  144.541">  2  5  1 -1</clus>
<clus scale="  301.179">  1  5  2 -1</clus>
</clustering>
</event>
<event>
 9    2  0.3707658E-005  0.2305768E+03  0.7546771E-02  0.1159498E+00
         21   -1    0    0  501  502  0.00000000000E+00  0.00000000000E+00  0.24466685239E+03  0.24466685239E+03  0.00000000000E+00 0.  1.
         -1   -1    0    0    0  501 -0.00000000000E+00 -0.00000000000E+00 -0.12687622009E+03  0.12687622009E+03  0.00000000000E+00 0.  1.
         24    2    1    2    0    0 -0.35835322644E+02 -0.55397278291E+02  0.93518218150E+02  0.13969220635E+03  0.80095109693E+02 0.  0.
         23    2    1    2    0    0  0.71171391584E+02  0.87039969826E+02  0.73853751134E+02  0.16323449292E+03  0.92465127455E+02 0.  0.
        -13    1    3    3    0    0 -0.34202038023E+02  0.11132633958E+02  0.22808534736E+02  0.42590423814E+02  0.00000000000E+00 0.  1.
         14    1    3    3    0    0 -0.16332846211E+01 -0.66529912248E+02  0.70709683414E+02  0.97101782532E+02  0.00000000000E+00 0. -1.
        -13    1    4    4    0    0  0.54513617030E+02  0.43782198621E+02 -0.67589672254E+01  0.70244565595E+02  0.00000000000E+00 0.  1.
         13    1    4    4    0    0  0.16657774555E+02  0.43257771205E+02  0.80612718359E+02  0.92989927326E+02  0.00000000000E+00 0. -1.
         -2    1    1    2    0  502 -0.35336068940E+02 -0.31642691535E+02 -0.49581336982E+02  0.68616373211E+02  0.00000000000E+00 0.  1.
<scales pt_clust_5="13000.00000" pt_clust_6="13000.00000" pt_clust_7="13000.00000" pt_clust_8="13000.00000" pt_clust_9="13000.00000"></scales>
<clustering>
<clus scale="   80.095">  5  6 -1 -1</clus>
<clus scale="   92.465">  7  8 -1 -1</clus>
<clus scale="   47.433">  7  9 -1 -1</clus>
<clus scale="  103.770">  2  5  1 -1</clus>
<clus scale="  230.577">  1  5  2 -1</clus>
</clustering>
</event>
<event>
 9    2  0.3707658E-005  0.3160100E+03  0.7546771E-02  0.1103106E+00
         21   -1    0    0  501  502  0.00000000000E+00  0.00000000000E+00  0.89154442655E+02  0.89154442655E+02  0.00000000000E+00 0. -1.
          2   -1    0    0  502    0 -0.00000000000E+00 -0.00000000000E+00 -0.75572477239E+03  0.75572477239E+03  0.00000000000E+00 0. -1.
         24    2    1    2    0    0  0.55674889022E+02 -0.12708444638E+03 -0.40140898917E+03  0.43235910784E+03  0.80963397708E+02 0.  0.
         23    2    1    2    0    0  0.71923634453E+02  0.15379219133E+03 -0.16287025942E+03  0.24681509184E+03  0.74605099366E+02 0.  0.
        -11    1    3    3    0    0  0.23001383495E+02  0.25474679679E+01 -0.99834477711E+02  0.10248158945E+03  0.00000000000E+00 0.  1.
         12    1    3    3    0    0  0.32673505527E+02 -0.12963191435E+03 -0.30157451146E+03  0.32987751840E+03  0.00000000000E+00 0. -1.
        -11    1    4    4    0    0  0.60638253876E+02  0.81744633113E+02 -0.13425850442E+03  0.16847708712E+03  0.00000000000E+00 0.  1.
         11    1    4    4    0    0  0.11285380577E+02  0.72047558215E+02 -0.28611755000E+02  0.78338004722E+02  0.00000000000E+00 0. -1.
          1    1    1    2  501    0 -0.12759852348E+03 -0.26707744948E+02 -0.10229108114E+03  0.16570501536E+03  0.00000000000E+00 0. -1.
<scales pt_clust_5="13000.00000" pt_clust_6="13000.00000" pt_clust_7="13000.00000" pt_clust_8="13000.00000" pt_clust_9="13000.00000"></scales>
<clustering>
<clus scale="   74.605">  7  8 -1 -1</clus>
<clus scale="   80.963">  5  6 -1 -1</clus>
<clus scale="  130.364">  7  9 -1 -1</clus>
<clus scale="  160.640">  2  5  1 -1</clus>
<clus scale="  316.010">  1  5  2 -1</clus>
</clustering>
</event>
<event>
 9    2  0.3707658E-005  0.4666014E+03  0.7546771E-02  0.1079453E+00
         -1   -1    0    0    0  501 -0.00000000000E+00  0.00000000000E+00  0.10275572799E+03  0.10275572799E+03  0.00000000000E+00 0.  1.
         21   -1    0    0  501  502  0.00000000000E+00 -0.00000000000E+00 -0.76773966413E+03  0.76773966413E+03  0.00000000000E+00 0.  1.
         24    2    1    2    0    0 -0.11975857072E+02  0.44711848086E+02 -0.13978450287E+03  0.16796331459E+03  0.80804686083E+02 0.  0.
         23    2    1    2    0    0 -0.18288126450E+03 -0.37322760370E+02 -0.91107213971E+02  0.22665399303E+03  0.90735675313E+02 0.  0.
        -11    1    3    3    0    0 -0.30541311292E+02  0.50270304874E+02 -0.13605827886E+03  0.14822864262E+03  0.00000000000E+00 0.  1.
         12    1    3    3    0    0  0.18565454220E+02 -0.55584567874E+01 -0.37262240114E+01  0.19734671967E+02  0.00000000000E+00 0. -1.
        -11    1    4    4    0    0 -0.12148515139E+03  0.11156256141E+02 -0.83968007164E+02  0.14810040610E+03  0.00000000000E+00 0.  1.
         11    1    4    4    0    0 -0.61396113110E+02 -0.48479016511E+02 -0.71392068077E+01  0.78553586938E+02  0.00000000000E+00 0. -1.
         -2    1    1    2    0  502  0.19485712157E+03 -0.73890877167E+01 -0.43409221930E+03  0.47587808450E+03  0.00000000000E+00 0.  1.
<scales pt_clust_5="13000.00000" pt_clust_6="13000.00000" pt_clust_7="13000.00000" pt_clust_8="13000.00000" pt_clust_9="13000.00000"></scales>
<clustering>
<clus scale="   80.805">  5  6 -1 -1</clus>
<clus scale="   90.736">  7  8 -1 -1</clus>
<clus scale="   93.123">  1  5  2 -1</clus>
<clus scale="  192.061">  7  9 -1 -1</clus>
<clus scale="  466.601">  2  5  1 -1</clus>
</clustering>
</event>
<event>
 9    2  0.3707658E-005  0.3076803E+03  0.7546771E-02  0.1086815E+00
          2   -1    0    0  502    0 -0.00000000000E+00  0.00000000000E+00  0.10445752296E+03  0.10445752296E+03  0.00000000000E+00 0. -1.
         21   -1    0    0  501  502  0.00000000000E+00 -0.00000000000E+00 -0.82274557315E+03  0.82274557315E+03  0.00000000000E+00 0.  1.
         24    2    1    2    0    0  0.75626609039E+01  0.25418132817E+03 -0.42749331130E+03  0.50384895033E+03  0.80298767825E+02 0.  0.
         23    2    1    2    0    0  0.19727255171E+02 -0.60007769716E+02 -0.13411021804E+03  0.17235982434E+03  0.87933278347E+02 0.  0.
        -11    1    3    3    0    0  0.42963523448E+02  0.16065322490E+03 -0.27962845458E+03  0.32534196721E+03  0.00000000000E+00 0.  1.
         12    1    3    3    0    0 -0.35400862544E+02  0.93528103274E+02 -0.14786485671E+03  0.17850698312E+03  0.00000000000E+00 0. -1.
        -13    1    4    4    0    0 -0.33563244317E+02 -0.12568571236E+02 -0.56774702138E+02  0.67140354146E+02  0.00000000000E+00 0.  1.
         13    1    4    4    0    0  0.53290499488E+02 -0.47439198480E+02 -0.77335515906E+02  0.10521947020E+03  0.00000000000E+00 0. -1.
          1    1    1    2  501    0 -0.27289916075E+02 -0.19417355846E+03 -0.15668452085E+03  0.25099432144E+03  0.00000000000E+00 0. -1.
<scales pt_clust_5="13000.00000" pt_clust_6="13000.00000" pt_clust_7="13000.00000" pt_clust_8="13000.00000" pt_clust_9="13000.00000"></scales>
<clustering>
<clus scale="   80.299">  5  6 -1 -1</clus>
<clus scale="   87.933">  7  8 -1 -1</clus>
<clus scale="  196.082">  7  9 -1 -1</clus>
<clus scale="  266.671">  1  5  2 -1</clus>
<clus scale="  307.680">  2  5  1 -1</clus>
</clustering>
</event>
<event>
 9    2  0.3707658E-005  0.1312286E+03  0.7546771E-02  0.1246695E+00
          2   -1    0    0  502    0 -0.00000000000E+00  0.00000000000E+00  0.16887163727E+03  0.16887163727E+03  0.00000000000E+00 0. -1.
         21   -1    0    0  501  502  0.00000000000E+00 -0.00000000000E+00 -0.79086706692E+02  0.79086706692E+02  0.00000000000E+00 0.  1.
         24    2    1    2    0    0 -0.14451780318E+02 -0.20974295363E+02 -0.59069642890E+01  0.85545637573E+02  0.81451757871E+02 0.  0.
         23    2    1    2    0    0  0.28353601250E+01 -0.48071081294E+01  0.39976149909E+02  0.99931779536E+02  0.91417287446E+02 0.  0.
        -11    1    3    3    0    0  0.26150559429E+02  0.40158631195E+00 -0.24687941547E+02  0.35965365115E+02  0.00000000000E+00 0.  1.
         12    1    3    3    0    0 -0.40602339747E+02 -0.21375881675E+02  0.18780977258E+02  0.49580272459E+02  0.00000000000E+00 0. -1.
        -13    1    4    4    0    0  0.45116963694E+02  0.62106746366E+01  0.91338603562E+01  0.46449330430E+02  0.00000000000E+00 0. -1.
         13    1    4    4    0    0 -0.42281603569E+02 -0.11017782766E+02  0.30842289553E+02  0.53482449106E+02  0.00000000000E+00 0.  1.
          1    1    1    2  501    0  0.11616420193E+02  0.25781403493E+02  0.55715744954E+02  0.62480926849E+02  0.00000000000E+00 0. -1.
<scales pt_clust_5="13000.00000" pt_clust_6="13000.00000" pt_clust_7="13000.00000" pt_clust_8="13000.00000" pt_clust_9="13000.00000"></scales>
<clustering>
<clus scale="   81.452">  5  6 -1 -1</clus>
<clus scale="   85.341">  1  5  2 -1</clus>
<clus scale="   91.417">  7  8 -1 -1</clus>
<clus scale="   16.931">  7  9 -1 -1</clus>
<clus scale="  131.229">  2  5  1 -1</clus>
</clustering>
</event>
<event>
 9    2  0.3707658E-005  0.1871730E+03  0.7546771E-02  0.1176442E+00
         21   -1    0    0  501  502  0.00000000000E+00  0.00000000000E+00  0.10048660925E+03  0.10048660925E+03  0.00000000000E+00 0. -1.
          2   -1    0    0  502    0 -0.00000000000E+00 -0.00000000000E+00 -0.83673158003E+03  0.83673158003E+03  0.00000000000E+00 0. -1.
         24    2    1    2    0    0  0.83312169842E+02 -0.62935823426E+02 -0.73841853095E+03  0.75003253548E+03  0.79906457319E+02 0.  0.
         23    2    1    2    0    0 -0.22179511843E+02 -0.90669421070E+01 -0.84395318054E+01  0.92137046030E+02  0.88565621825E+02 0.  0.
        -11    1    3    3    0    0  0.23107002665E+02 -0.23623178805E+02 -0.66300747333E+02  0.74079533245E+02  0.00000000000E+00 0.  1.
         12    1    3    3    0    0  0.60205167178E+02 -0.39312644621E+02 -0.67211778361E+03  0.67595300223E+03  0.00000000000E+00 0. -1.
        -13    1    4    4    0    0 -0.50324611630E+02  0.58371929368E+01 -0.24717789351E+02  0.56370280001E+02  0.00000000000E+00 0.  1.
         13    1    4    4    0    0  0.28145099786E+02 -0.14904135044E+02  0.16278257545E+02  0.35766766028E+02  0.00000000000E+00 0. -1.
          1    1    1    2  501    0 -0.61132657999E+02  0.72002765533E+02  0.10613091965E+02  0.95048607772E+02  0.00000000000E+00 0. -1.
<scales pt_clust_5="13000.00000" pt_clust_6="13000.00000" pt_clust_7="13000.00000" pt_clust_8="13000.00000" pt_clust_9="13000.00000"></scales>
<clustering>
<clus scale="   79.906">  5  6 -1 -1</clus>
<clus scale="   88.566">  7  8 -1 -1</clus>
<clus scale="   94.454">  7  9 -1 -1</clus>
<clus scale="  131.480">  2  5  1 -1</clus>
<clus scale="  187.173">  1  5  2 -1</clus>
</clustering>
</event>
<event>
 9    2  0.3707658E-005  0.2102440E+03  0.7546771E-02  0.1151515E+00
         21   -1    0    0  501  502  0.00000000000E+00  0.00000000000E+00  0.99760644845E+02  0.99760644845E+02  0.00000000000E+00 0.  1.
          2   -1    0    0  502    0 -0.00000000000E+00 -0.00000000000E+00 -0.36779739912E+03  0.36779739912E+03  0.00000000000E+00 0. -1.
         24    2    1    2    0    0  0.12407315802E+03 -0.72657621505E+02 -0.72004557473E+02  0.18010170184E+03  0.81109112959E+02 0.  0.
         23    2    1    2    0    0 -0.51766737190E+02 -0.54521702858E+01 -0.10214023723E+03  0.14552305449E+03  0.89637102174E+02 0.  0.
        -13    1    3    3    0    0  0.10077870760E+03 -0.33439354947E+02 -0.15223022042E+02  0.10726732384E+03  0.00000000000E+00 0.  1.
         14    1    3    3    0    0  0.23294450422E+02 -0.39218266558E+02 -0.56781535431E+02  0.72834377997E+02  0.00000000000E+00 0. -1.
        -13    1    4    4    0    0 -0.24261336014E+02 -0.19537165497E+02 -0.10942640560E+03  0.11377368546E+03  0.00000000000E+00 0. -1.
         13    1    4    4    0    0 -0.27505401177E+02  0.14084995211E+02  0.72861683731E+01  0.31749369026E+02  0.00000000000E+00 0.  1.
          1    1    1    2  501    0 -0.72306420831E+02  0.78109791791E+02 -0.93891959576E+02  0.14193328764E+03  0.00000000000E+00 0. -1.
<scales pt_clust_5="13000.00000" pt_clust_6="13000.00000" pt_clust_7="13000.00000" pt_clust_8="13000.00000" pt_clust_9="13000.00000"></scales>
<clustering>
<clus scale="   81.109">  5  6 -1 -1</clus>
<clus scale="   89.637">  7  8 -1 -1</clus>
<clus scale="  106.440">  7  9 -1 -1</clus>
<clus scale="  165.082">  2  5  1 -1</clus>
<clus scale="  210.244">  1  5  2 -1</clus>
</clustering>
</event>
<event>
 9    2  0.3707658E-005  0.3058009E+03  0.7546771E-02  0.1103341E+00
          2   -1    0    0  502    0 -0.00000000000E+00  0.00000000000E+00  0.11992653543E+03  0.11992653543E+03  0.00000000000E+00 0. -1.
         21   -1    0    0  501  502  0.00000000000E+00 -0.00000000000E+00 -0.55381587495E+03  0.55381587495E+03  0.00000000000E+00 0. -1.
         24    2    1    2    0    0 -0.14215222799E+03 -0.65897625659E+02 -0.50421580951E+02  0.18327151600E+03  0.80599998531E+02 0.  0.
         23    2    1    2    0    0 -0.36379058705E+02 -0.13325064706E+02 -0.19511414942E+03  0.21912842244E+03  0.91906152975E+02 0.  0.
        -13    1    3    3    0    0 -0.56284522021E+02  0.91044360865E+01 -0.38148932860E+02  0.68601598042E+02  0.00000000000E+00 0.  1.
         14    1    3    3    0    0 -0.85867705967E+02 -0.75002061746E+02 -0.12272648091E+02  0.11466991796E+03  0.00000000000E+00 0. -1.
        -11    1    4    4    0    0  0.21090012886E+02 -0.32788177146E+02 -0.80575846013E+02  0.89511564419E+02  0.00000000000E+00 0.  1.
         11    1    4    4    0    0 -0.57469071590E+02  0.19463112440E+02 -0.11453830340E+03  0.12961685802E+03  0.00000000000E+00 0. -1.
          1    1    1    2  501    0  0.17853128669E+03  0.79222690365E+02 -0.18835360915E+03  0.27134247194E+03  0.00000000000E+00 0. -1.
<scales pt_clust_5="13000.00000" pt_clust_6="13000.00000" pt_clust_7="13000.00000" pt_clust_8="13000.00000" pt_clust_9="13000.00000"></scales>
<clustering>
<clus scale="   80.600">  5  6 -1 -1</clus>
<clus scale="   91.906">  7  8 -1 -1</clus>
<clus scale="  176.199">  1  5  2 -1</clus>
<clus scale="   73.843">  7  9 -1 -1</clus>
<clus scale="  305.801">  2  5  1 -1</clus>
</clustering>
</event>
<event>
 9    2  0.3707658E-005  0.2305541E+03  0.7546771E-02  0.1156414E+00
         21   -1    0    0  501  502  0.00000000000E+00  0.00000000000E+00  0.10782603812E+03  0.10782603812E+03  0.00000000000E+00 0. -1.
          2   -1    0    0  502    0 -0.00000000000E+00 -0.00000000000E+00 -0.27314394400E+03  0.27314394400E+03  0.00000000000E+00 0. -1.
         24    2    1    2    0    0  0.35586080065E+02  0.69698353576E+02 -0.39651510749E+02  0.11839195307E+03  0.79499576484E+02 0.  0.
         23    2    1    2    0    0 -0.60322598273E+02  0.29719147984E+02 -0.11138782991E+03  0.15913909840E+03  0.91629473257E+02 0.  0.
        -13    1    3    3    0    0 -0.15535667316E+02  0.25190968067E+02 -0.41037015916E+02  0.50596230160E+02  0.00000000000E+00 0.  1.
         14    1    3    3    0    0  0.51121747381E+02  0.44507385510E+02  0.13855051670E+01  0.67795722909E+02  0.00000000000E+00 0. -1.
        -11    1    4    4    0    0 -0.83738373822E+02  0.24496288971E+02 -0.99595672943E+02  0.13240650095E+03  0.00000000000E+00 0. -1.
         11    1    4    4    0    0  0.23415775550E+02  0.52228590132E+01 -0.11792156964E+02  0.26732597456E+02  0.00000000000E+00 0.  1.
          1    1    1    2  501    0  0.24736518208E+02 -0.99417501560E+02 -0.14278565218E+02  0.10343893065E+03  0.00000000000E+00 0. -1.
<scales pt_clust_5="13000.00000" pt_clust_6="13000.00000" pt_clust_7="13000.00000" pt_clust_8="13000.00000" pt_clust_9="13000.00000"></scales>
<clustering>
<clus scale="   79.500">  5  6 -1 -1</clus>
<clus scale="   91.629">  7  8 -1 -1</clus>
<clus scale="  102.449">  7  9 -1 -1</clus>
<clus scale="  111.555">  2  5  1 -1</clus>
<clus scale="  230.554">  1  5  2 -1</clus>
</clustering>
</event>
<event>
 9    2  0.3707658E-005  0.1322946E+03  0.7546771E-02  0.1241254E+00
         -1   -1    0    0    0  501 -0.00000000000E+00  0.00000000000E+00  0.32767527991E+02  0.32767527991E+02  0.00000000000E+00 0.  1.
         21   -1    0    0  501  502  0.00000000000E+00 -0.00000000000E+00 -0.47574449731E+03  0.47574449731E+03  0.00000000000E+00 0.  1.
         24    2    1    2    0    0 -0.11755041450E+01 -0.21759212957E+02 -0.29838604402E+03  0.31253141003E+03  0.90370381374E+02 0.  0.
         23    2    1    2    0    0 -0.22425622713E+02 -0.54269353944E+01 -0.83933564536E+02  0.12544399169E+03  0.90327136645E+02 0.  0.
        -13    1    3    3    0    0 -0.41993386665E+02 -0.16789238513E+01 -0.19661428598E+03  0.20105581504E+03  0.00000000000E+00 0.  1.
         14    1    3    3    0    0  0.40817882520E+02 -0.20080289106E+02 -0.10177175804E+03  0.11147559499E+03  0.00000000000E+00 0. -1.
        -13    1    4    4    0    0 -0.23513027981E+02 -0.46514652134E+02 -0.47602629844E+02  0.70586724786E+02  0.00000000000E+00 0.  1.
         13    1    4    4    0    0  0.10874052672E+01  0.41087716739E+02 -0.36330934692E+02  0.54857266908E+02  0.00000000000E+00 0. -1.
         -2    1    1    2    0  502  0.23601126858E+02  0.27186148352E+02 -0.60657360760E+02  0.70536623576E+02  0.00000000000E+00 0.  1.
<scales pt_clust_5="13000.00000" pt_clust_6="13000.00000" pt_clust_7="13000.00000" pt_clust_8="13000.00000" pt_clust_9="13000.00000"></scales>
<clustering>
<clus scale="   90.327">  7  8 -1 -1</clus>
<clus scale="   36.001">  7  9 -1 -1</clus>
<clus scale="   90.370">  5  6 -1 -1</clus>
<clus scale="   92.961">  1  5  2 -1</clus>
<clus scale="  132.295">  2  5  1 -1</clus>
</clustering>
</event>
<event>
 9    2  0.3707658E-005  0.2186990E+03  0.7546771E-02  0.1149372E+00
          2   -1    0    0  502    0 -0.00000000000E+00  0.00000000000E+00  0.11663044452E+04  0.11663044452E+04  0.00000000000E+00 0. -1.
         21   -1    0    0  501  502  0.00000000000E+00 -0.00000000000E+00 -0.39143606827E+02  0.39143606827E+02  0.00000000000E+00 0. -1.
         24    2    1    2    0    0 -0.11462032825E+03 -0.65137280298E+02  0.78020927819E+03  0.79532046886E+03  0.80171350750E+02 0.  0.
         23    2    1    2    0    0  0.38553612879E+02  0.17723052592E+02  0.28328449199E+03  0.30018328022E+03  0.89774220488E+02 0.  0.
        -13    1    3    3    0    0 -0.38199732200E+02 -0.56274864537E+02  0.23282428019E+03  0.24255561293E+03  0.00000000000E+00 0.  1.
         14    1    3    3    0    0 -0.76420596055E+02 -0.88624157610E+01  0.54738499800E+03  0.55276485593E+03  0.00000000000E+00 0. -1.
        -11    1    4    4    0    0  0.62606902922E+02  0.17057037270E+02  0.25461826067E+03  0.26275658979E+03  0.00000000000E+00 0.  1.
         11    1    4    4    0    0 -0.24053290044E+02  0.66601532186E+00  0.28666231320E+02  0.37426690428E+02  0.00000000000E+00 0. -1.
          1    1    1    2  501    0  0.76066715375E+02  0.47414227706E+02  0.63667068188E+02  0.10994430294E+03  0.00000000000E+00 0. -1.
<scales pt_clust_5="13000.00000" pt_clust_6="13000.00000" pt_clust_7="13000.00000" pt_clust_8="13000.00000" pt_clust_9="13000.00000"></scales>
<clustering>
<clus scale="   80.171">  5  6 -1 -1</clus>
<clus scale="   89.774">  7  8 -1 -1</clus>
<clus scale="   89.634">  7  9 -1 -1</clus>
<clus scale="  154.299">  1  5  2 -1</clus>
<clus scale="  218.699">  2  5  1 -1</clus>
</clustering>
</event>
<event>
 9    2  0.3707658E-005  0.2101741E+03  0.7546771E-02  0.1152968E+00
         21   -1    0    0  501  502  0.00000000000E+00  0.00000000000E+00  0.90198229449E+02  0.90198229449E+02  0.00000000000E+00 0.  1.
         -1   -1    0    0    0  501 -0.00000000000E+00 -0.00000000000E+00 -0.41409045981E+03  0.41409045981E+03  0.00000000000E+00 0.  1.
         24    2    1    2    0    0  0.84698692042E+02 -0.10910208424E+03 -0.69064605712E+02  0.17397024805E+03  0.80116129614E+02 0.  0.
         23    2    1    2    0    0 -0.29256495623E+01  0.38307637702E+02 -0.91584410844E+02  0.13449446160E+03  0.90691903501E+02 0.  0.
        -11    1    3    3    0    0  0.65351123967E+02 -0.11692322367E+03 -0.73277396048E+02  0.15268066809E+03  0.00000000000E+00 0.  1.
         12    1    3    3    0    0  0.19347568075E+02  0.78211394282E+01  0.42127903361E+01  0.21289579958E+02  0.00000000000E+00 0. -1.
        -11    1    4    4    0    0  0.26478110478E+02  0.15461568614E+00 -0.80943471547E+02  0.85164310756E+02  0.00000000000E+00 0.  1.
         11    1    4    4    0    0 -0.29403760040E+02  0.38153022015E+02 -0.10640939297E+02  0.49330150846E+02  0.00000000000E+00 0. -1.
         -2    1    1    2    0  502 -0.81773042480E+02  0.70794446537E+02 -0.16324321380E+03  0.19582397961E+03  0.00000000000E+00 0.  1.
<scales pt_clust_5="13000.00000" pt_clust_6="13000.00000" pt_clust_7="13000.00000" pt_clust_8="13000.00000" pt_clust_9="13000.00000"></scales>
<clustering>
<clus scale="   80.116">  5  6 -1 -1</clus>
<clus scale="   90.692">  7  8 -1 -1</clus>
<clus scale="  108.161">  7  9 -1 -1</clus>
<clus scale="  159.674">  2  5  1 -1</clus>
<clus scale="  210.174">  1  5  2 -1</clus>
</clustering>
</event>
<event>
 9    2  0.3707658E-005  0.3410353E+03  0.7546771E-02  0.1079748E+00
          2   -1    0    0  502    0 -0.00000000000E+00  0.00000000000E+00  0.11094979930E+04  0.11094979930E+04  0.00000000000E+00 0. -1.
         21   -1    0    0  501  502  0.00000000000E+00 -0.00000000000E+00 -0.80699937634E+02  0.80699937634E+02  0.00000000000E+00 0. -1.
         24    2    1    2    0    0  0.19248995335E+03  0.11463260172E+03  0.58091165185E+03  0.62725271486E+03  0.76122306336E+02 0.  0.
         23    2    1    2    0    0  0.74324675163E+01  0.14458793541E+02  0.18988992144E+03  0.21195269810E+03  0.92744087051E+02 0.  0.
        -13    1    3    3    0    0  0.13246593025E+03  0.79862347538E+02  0.29552889587E+03  0.33356040761E+03  0.00000000000E+00 0.  1.
         14    1    3    3    0    0  0.60024023106E+02  0.34770254180E+02  0.28538275598E+03  0.29369230725E+03  0.00000000000E+00 0. -1.
        -13    1    4    4    0    0  0.13804558873E+02 -0.31368949088E+02  0.30148629319E+02  0.45645554684E+02  0.00000000000E+00 0.  1.
         13    1    4    4    0    0 -0.63720913569E+01  0.45827742629E+02  0.15974129212E+03  0.16630714341E+03  0.00000000000E+00 0. -1.
          1    1    1    2  501    0 -0.19992242087E+03 -0.12909139526E+03  0.25799648205E+03  0.35099251765E+03  0.00000000000E+00 0. -1.
<scales pt_clust_5="13000.00000" pt_clust_6="13000.00000" pt_clust_7="13000.00000" pt_clust_8="13000.00000" pt_clust_9="13000.00000"></scales>
<clustering>
<clus scale="   76.122">  5  6 -1 -1</clus>
<clus scale="   92.744">  7  8 -1 -1</clus>
<clus scale="  236.617">  1  5  2 -1</clus>
<clus scale="  103.208">  7  9 -1 -1</clus>
<clus scale="  341.035">  2  5  1 -1</clus>
</clustering>
</event>
<event>
 9    2  0.3707658E-005  0.5512647E+03  0.7546771E-02  0.1063347E+00
          2   -1    0    0  502    0 -0.00000000000E+00  0.00000000000E+00  0.89112806706E+03  0.89112806706E+03  0.00000000000E+00 0. -1.
         21   -1    0    0  501  502  0.00000000000E+00 -0.00000000000E+00 -0.19679866836E+03  0.19679866836E+03  0.00000000000E+00 0. -1.
         24    2    1    2    0    0  0.16165063392E+02 -0.30460480283E+02  0.49346153472E+03  0.50120649289E+03  0.80712527701E+02 0.  0.
         23    2    1    2    0    0  0.13109352821E+03 -0.16089320885E+03  0.25296649508E+03  0.33970689369E+03  0.91304918771E+02 0.  0.
        -11    1    3    3    0    0  0.20443940229E+02 -0.58953875565E+01  0.28446578099E+02  0.35523486485E+02  0.00000000000E+00 0.  1.
         12    1    3    3    0    0 -0.42788768373E+01 -0.24565092727E+02  0.46501495662E+03  0.46568300640E+03  0.00000000000E+00 0. -1.
        -13    1    4    4    0    0  0.13575425517E+03 -0.12420346382E+03  0.17747515458E+03  0.25564261913E+03  0.00000000000E+00 0. -1.
         13    1    4    4    0    0 -0.46607269608E+01 -0.36689745036E+02  0.75491340504E+02  0.84064274563E+02  0.00000000000E+00 0.  1.
          1    1    1    2  501    0 -0.14725859160E+03  0.19135368914E+03 -0.52098631096E+02  0.24701334885E+03  0.00000000000E+00 0. -1.
<scales pt_clust_5="13000.00000" pt_clust_6="13000.00000" pt_clust_7="13000.00000" pt_clust_8="13000.00000" pt_clust_9="13000.00000"></scales>
<clustering>
<clus scale="   80.713">  5  6 -1 -1</clus>
<clus scale="   87.771">  1  5  2 -1</clus>
<clus scale="   91.305">  7  8 -1 -1</clus>
<clus scale="  233.047">  7  9 -1 -1</clus>
<clus scale="  551.265">  2  5  1 -1</clus>
</clustering>
</event>
<event>
 9    2  0.3707658E-005  0.3128523E+03  0.7546771E-02  0.1121763E+00
         21   -1    0    0  501  502  0.00000000000E+00  0.00000000000E+00  0.27635317873E+03  0.27635317873E+03  0.00000000000E+00 0.  1.
         -1   -1    0    0    0  501 -0.00000000000E+00 -0.00000000000E+00 -0.15737746596E+03  0.15737746596E+03  0.00000000000E+00 0.  1.
         24    2    1    2    0    0  0.62067865581E+02  0.10325045477E+02  0.16094617602E+02  0.10439630844E+03  0.81734484759E+02 0.  0.
         23    2    1    2    0    0 -0.16600039496E+03  0.43042797834E+02  0.64739526354E+02  0.20643243783E+03  0.94943833639E+02 0.  0.
        -13    1    3    3    0    0  0.36046927964E+02  0.37243359455E+02  0.34913908313E+02  0.62493438318E+02  0.00000000000E+00 0.  1.
         14    1    3    3    0    0  0.26020937618E+02 -0.26918313978E+02 -0.18819290710E+02  0.41902870125E+02  0.00000000000E+00 0. -1.
        -11    1    4    4    0    0 -0.10572056130E+03  0.71898928174E+02  0.53806179920E+02  0.13871336616E+03  0.00000000000E+00 0.  1.
         11    1    4    4    0    0 -0.60279833655E+02 -0.28856130340E+02  0.10933346434E+02  0.67719071671E+02  0.00000000000E+00 0. -1.
         -2    1    1    2    0  502  0.10393252938E+03 -0.53367843311E+02  0.38141568814E+02  0.12290189841E+03  0.00000000000E+00 0.  1.
<scales pt_clust_5="13000.00000" pt_clust_6="13000.00000" pt_clust_7="13000.00000" pt_clust_8="13000.00000" pt_clust_9="13000.00000"></scales>
<clustering>
<clus scale="   81.734">  5  6 -1 -1</clus>
<clus scale="   94.944">  7  8 -1 -1</clus>
<clus scale="  103.148">  2  5  1 -1</clus>
<clus scale="  136.460">  7  9 -1 -1</clus>
<clus scale="  312.852">  1  5  2 -1</clus>
</clustering>
</event>
<event>
 9    2  0.3707658E-005  0.1649709E+03  0.7546771E-02  0.1194298E+00
          2   -1    0    0  502    0 -0.00000000000E+00  0.00000000000E+00  0.75231154759E+03  0.75231154759E+03  0.00000000000E+00 0. -1.
         21   -1    0    0  501  502  0.00000000000E+00 -0.00000000000E+00 -0.28728139374E+02  0.28728139374E+02  0.00000000000E+00 0. -1.
         24    2    1    2    0    0  0.99944819449E+02 -0.10532740551E+02  0.31163042596E+03  0.33728225731E+03  0.80906694123E+02 0.  0.
         23    2    1    2    0    0 -0.38646546197E+02  0.14650246013E+02  0.21331655706E+03  0.23583710460E+03  0.91689700347E+02 0.  0.
        -13    1    3    3    0    0  0.39320613292E+02 -0.22269217268E+02  0.23280373130E+03  0.23714891097E+03  0.00000000000E+00 0.  1.
         14    1    3    3    0    0  0.60624206157E+02  0.11736476716E+02  0.78826694652E+02  0.10013334633E+03  0.00000000000E+00 0. -1.
        -11    1    4    4    0    0 -0.34143760865E+02 -0.34162247581E+02  0.13567495874E+03  0.14401579772E+03  0.00000000000E+00 0.  1.
         11    1    4    4    0    0 -0.45027853320E+01  0.48812493594E+02  0.77641598326E+02  0.91821306880E+02  0.00000000000E+00 0. -1.
          1    1    1    2  501    0 -0.61298273252E+02 -0.41175054612E+01  0.19863642520E+03  0.20792032505E+03  0.00000000000E+00 0. -1.
<scales pt_clust_5="13000.00000" pt_clust_6="13000.00000" pt_clust_7="13000.00000" pt_clust_8="13000.00000" pt_clust_9="13000.00000"></scales>
<clustering>
<clus scale="   80.907">  5  6 -1 -1</clus>
<clus scale="   91.690">  7  8 -1 -1</clus>
<clus scale="   61.436">  7  9 -1 -1</clus>
<clus scale="  129.019">  1  5  2 -1</clus>
<clus scale="  164.971">  2  5  1 -1</clus>
</clustering>
</event>
<event>
 9    2  0.3707658E-005  0.4816597E+03  0.7546771E-02  0.1078854E+00
         -3   -1    0    0    0  501 -0.00000000000E+00  0.00000000000E+00  0.43614662446E+03  0.43614662446E+03  0.00000000000E+00 0.  1.
         21   -1    0    0  501  502  0.00000000000E+00 -0.00000000000E+00 -0.18600168268E+03  0.18600168268E+03  0.00000000000E+00 0.  1.
         24    2    1    2    0    0 -0.38797594249E+02  0.91505376613E+00  0.20016281391E+02  0.88336291157E+02  0.76789049817E+02 0.  0.
         23    2    1    2    0    0 -0.20606237981E+03 -0.52207566008E+02  0.11672897582E+03  0.25913617583E+03  0.91315768089E+02 0.  0.
        -13    1    3    3    0    0  0.65509754572E-01  0.29748900482E+02 -0.10008006921E+02  0.31387283634E+02  0.00000000000E+00 0.  1.
         14    1    3    3    0    0 -0.38863104004E+02 -0.28833846716E+02  0.30024288312E+02  0.56949007523E+02  0.00000000000E+00 0. -1.
        -11    1    4    4    0    0 -0.11394211369E+02  0.20365169193E+02  0.81518579449E+01  0.24718838098E+02  0.00000000000E+00 0. -1.
         11    1    4    4    0    0 -0.19466816845E+03 -0.72572735201E+02  0.10857711788E+03  0.23441733773E+03  0.00000000000E+00 0.  1.
         -4    1    1    2    0  502  0.24485997406E+03  0.51292512242E+02  0.11339968457E+03  0.27467584016E+03  0.00000000000E+00 0.  1.
<scales pt_clust_5="13000.00000" pt_clust_6="13000.00000" pt_clust_7="13000.00000" pt_clust_8="13000.00000" pt_clust_9="13000.00000"></scales>
<clustering>
<clus scale="   76.789">  5  6 -1 -1</clus>
<clus scale="   86.039">  1  5  2 -1</clus>
<clus scale="   91.316">  7  8 -1 -1</clus>
<clus scale="  231.024">  7  9 -1 -1</clus>
<clus scale="  481.660">  2  5  1 -1</clus>
</clustering>
</event>
<event>
 9    2  0.3707658E-005  0.1678321E+03  0.7546771E-02  0.1231858E+00
         21   -1    0    0  501  502  0.00000000000E+00  0.00000000000E+00  0.13800822057E+03  0.13800822057E+03  0.00000000000E+00 0.  1.
         -1   -1    0    0    0  501 -0.00000000000E+00 -0.00000000000E+00 -0.90439631916E+02  0.90439631916E+02  0.00000000000E+00 0.  1.
         24    2    1    2    0    0  0.51222591061E+01 -0.68492831910E+01  0.55899825298E+01  0.55445534335E+02  0.54495955395E+02 0.  0.
         23    2    1    2    0    0  0.68303107388E+02  0.10066063072E+02  0.25287805626E+02  0.97635117468E+02  0.64237862239E+02 0.  0.
        -13    1    3    3    0    0  0.40997121989E+00 -0.22959220145E+02 -0.16081500747E+02  0.28034060219E+02  0.00000000000E+00 0.  1.
         14    1    3    3    0    0  0.47122878862E+01  0.16109936954E+02  0.21671483277E+02  0.27411474116E+02  0.00000000000E+00 0. -1.
        -13    1    4    4    0    0  0.46967761959E+02  0.20669375589E+02  0.43798154261E+02  0.67464598622E+02  0.00000000000E+00 0.  1.
         13    1    4    4    0    0  0.21335345429E+02 -0.10603312516E+02 -0.18510348634E+02  0.30170518846E+02  0.00000000000E+00 0. -1.
         -2    1    1    2    0  502 -0.73425366494E+02 -0.32167798814E+01  0.16690800497E+02  0.75367200683E+02  0.00000000000E+00 0.  1.
<scales pt_clust_5="13000.00000" pt_clust_6="13000.00000" pt_clust_7="13000.00000" pt_clust_8="13000.00000" pt_clust_9="13000.00000"></scales>
<clustering>
<clus scale="   54.496">  5  6 -1 -1</clus>
<clus scale="   55.163">  2  5  1 -1</clus>
<clus scale="   64.238">  7  8 -1 -1</clus>
<clus scale="   71.409">  7  9 -1 -1</clus>
<clus scale="  167.832">  1  5  2 -1</clus>
</clustering>
</event>
<event>
 9    2  0.3707658E-005  0.1735807E+03  0.7546771E-02  0.1195840E+00
          2   -1    0    0  502    0 -0.00000000000E+00  0.00000000000E+00  0.47293490252E+02  0.47293490252E+02  0.00000000000E+00 0. -1.
         21   -1    0    0  501  502  0.00000000000E+00 -0.00000000000E+00 -0.42147350468E+03  0.42147350468E+03  0.00000000000E+00 0. -1.
         24    2    1    2    0    0 -0.68495245343E+02  0.56530660778E+01 -0.16832599973E+03  0.19949736427E+03  0.82109685039E+02 0.  0.
         23    2    1    2    0    0 -0.52950930055E+01 -0.82077916634E+01 -0.15155604233E+03  0.17761915079E+03  0.92108213031E+02 0.  0.
        -11    1    3    3    0    0 -0.26124802577E+02  0.23800651276E+01 -0.15155905365E+03  0.15381260274E+03  0.00000000000E+00 0.  1.
         12    1    3    3    0    0 -0.42370442766E+02  0.32730009502E+01 -0.16766946080E+02  0.45684761532E+02  0.00000000000E+00 0. -1.
        -11    1    4    4    0    0 -0.13936289445E+02 -0.48802988045E+02 -0.91164160783E+02  0.10434009784E+03  0.00000000000E+00 0.  1.
         11    1    4    4    0    0  0.86411964392E+01  0.40595196382E+02 -0.60391881543E+02  0.73279052951E+02  0.00000000000E+00 0. -1.
          1    1    1    2  501    0  0.73790338348E+02  0.25547255856E+01 -0.54297972376E+02  0.91650479871E+02  0.00000000000E+00 0. -1.
<scales pt_clust_5="13000.00000" pt_clust_6="13000.00000" pt_clust_7="13000.00000" pt_clust_8="13000.00000" pt_clust_9="13000.00000"></scales>
<clustering>
<clus scale="   82.110">  5  6 -1 -1</clus>
<clus scale="   92.108">  7  8 -1 -1</clus>
<clus scale="   73.835">  7  9 -1 -1</clus>
<clus scale="  107.077">  1  5  2 -1</clus>
<clus scale="  173.581">  2  5  1 -1</clus>
</clustering>
</event>
<event>
 9    2  0.3707658E-005  0.4389659E+03  0.7546771E-02  0.1048466E+00
         21   -1    0    0  501  502  0.00000000000E+00  0.00000000000E+00  0.31890673528E+03  0.31890673528E+03  0.00000000000E+00 0. -1.
          2   -1    0    0  502    0 -0.00000000000E+00 -0.00000000000E+00 -0.39397467103E+03  0.39397467103E+03  0.00000000000E+00 0. -1.
         24    2    1    2    0    0 -0.23019114676E+03  0.99881464102E+02  0.14363158870E+02  0.26489813622E+03  0.83668699769E+02 0.  0.
         23    2    1    2    0    0 -0.28871351000E+02 -0.70301859062E+02  0.74343001833E+02  0.14007048139E+03  0.91197321990E+02 0.  0.
        -13    1    3    3    0    0 -0.21043682270E+02 -0.56248998653E+01  0.21405619689E+02  0.30539754685E+02  0.00000000000E+00 0.  1.
         14    1    3    3    0    0 -0.20914746449E+03  0.10550636397E+03 -0.70424608190E+01  0.23435838153E+03  0.00000000000E+00 0. -1.
        -11    1    4    4    0    0 -0.65328098620E+01 -0.21420831719E+02 -0.20950344440E+02  0.30666701296E+02  0.00000000000E+00 0.  1.
         11    1    4    4    0    0 -0.22338541138E+02 -0.48881027343E+02  0.95293346273E+02  0.10940378009E+03  0.00000000000E+00 0. -1.
          1    1    1    2  501    0  0.25906249776E+03 -0.29579605040E+02 -0.16377409645E+03  0.30791278870E+03  0.00000000000E+00 0. -1.
<scales pt_clust_5="13000.00000" pt_clust_6="13000.00000" pt_clust_7="13000.00000" pt_clust_8="13000.00000" pt_clust_9="13000.00000"></scales>
<clustering>
<clus scale="   83.669">  5  6 -1 -1</clus>
<clus scale="   91.197">  7  8 -1 -1</clus>
<clus scale="  260.746">  7  9 -1 -1</clus>
<clus scale="  264.509">  2  5  1 -1</clus>
<clus scale="  438.966">  1  5  2 -1</clus>
</clustering>
</event>
<event>
 9    2  0.3707658E-005  0.2936798E+03  0.7546771E-02  0.1131577E+00
          4   -1    0    0  502    0 -0.00000000000E+00  0.00000000000E+00  0.41234921744E+03  0.41234921744E+03  0.00000000000E+00 0. -1.
         21   -1    0    0  501  502  0.00000000000E+00 -0.00000000000E+00 -0.34960635411E+03  0.34960635411E+03  0.00000000000E+00 0.  1.
         24    2    1    2    0    0  0.28460022496E+02 -0.49935024023E+02  0.34259248752E+03  0.35629110575E+03  0.79184973493E+02 0.  0.
         23    2    1    2    0    0  0.37455713682E+01 -0.61255264653E+02 -0.26732274303E+03  0.28922820288E+03  0.91789256733E+02 0.  0.
        -11    1    3    3    0    0 -0.25404206755E+02 -0.16332220940E+01  0.84790287230E+02  0.88529282973E+02  0.00000000000E+00 0.  1.
         12    1    3    3    0    0  0.53864229251E+02 -0.48301801929E+02  0.25780220029E+03  0.26776182278E+03  0.00000000000E+00 0. -1.
        -13    1    4    4    0    0  0.24061566716E+02 -0.34615168451E+02 -0.24584253614E+03  0.24943079492E+03  0.00000000000E+00 0.  1.
         13    1    4    4    0    0 -0.20315995348E+02 -0.26640096203E+02 -0.21480206889E+02  0.39797407964E+02  0.00000000000E+00 0. -1.
          3    1    1    2  501    0 -0.32205593864E+02  0.11119028868E+03 -0.12526881162E+02  0.11643626292E+03  0.00000000000E+00 0. -1.
<scales pt_clust_5="13000.00000" pt_clust_6="13000.00000" pt_clust_7="13000.00000" pt_clust_8="13000.00000" pt_clust_9="13000.00000"></scales>
<clustering>
<clus scale="   79.185">  5  6 -1 -1</clus>
<clus scale="   91.789">  7  8 -1 -1</clus>
<clus scale="   97.845">  1  5  2 -1</clus>
<clus scale="   70.488">  7  9 -1 -1</clus>
<clus scale="  293.680">  2  5  1 -1</clus>
</clustering>
</event>
<event>
 9    2  0.3707658E-005  0.3080658E+03  0.7546771E-02  0.1121825E+00
         -3   -1    0    0    0  501 -0.00000000000E+00  0.00000000000E+00  0.17233504681E+03  0.17233504681E+03  0.00000000000E+00 0.  1.
         21   -1    0    0  501  502  0.00000000000E+00 -0.00000000000E+00 -0.29029813350E+03  0.29029813350E+03  0.00000000000E+00 0.  1.
         24    2    1    2    0    0  0.62543661950E+02 -0.33028256476E+02  0.41707309729E+02  0.11564735717E+03  0.81438542218E+02 0.  0.
         23    2    1    2    0    0  0.61891613168E+02 -0.17241240497E+02 -0.17945830411E+03  0.21132919297E+03  0.91251919065E+02 0.  0.
        -11    1    3    3    0    0  0.69627289427E+02 -0.69191116272E+01  0.51496566702E+02  0.86877672165E+02  0.00000000000E+00 0.  1.
         12    1    3    3    0    0 -0.70836274765E+01 -0.26109144848E+02 -0.97892569738E+01  0.28769685001E+02  0.00000000000E+00 0. -1.
        -13    1    4    4    0    0  0.18005855202E+02 -0.41410248092E+02 -0.14133436109E+03  0.14837257527E+03  0.00000000000E+00 0.  1.
         13    1    4    4    0    0  0.43885757966E+02  0.24169007596E+02 -0.38123943019E+02  0.62956617696E+02  0.00000000000E+00 0. -1.
         -4    1    1    2    0  502 -0.12443527512E+03  0.50269496972E+02  0.19787907696E+02  0.13565663018E+03  0.00000000000E+00 0.  1.
<scales pt_clust_5="13000.00000" pt_clust_6="13000.00000" pt_clust_7="13000.00000" pt_clust_8="13000.00000" pt_clust_9="13000.00000"></scales>
<clustering>
<clus scale="   81.439">  5  6 -1 -1</clus>
<clus scale="   91.252">  7  8 -1 -1</clus>
<clus scale="  107.865">  1  5  2 -1</clus>
<clus scale="   76.051">  7  9 -1 -1</clus>
<clus scale="  308.066">  2  5  1 -1</clus>
</clustering>
</event>
<event>
 9    2  0.3707658E-005  0.3348178E+03  0.7546771E-02  0.1132971E+00
          2   -1    0    0  502    0 -0.00000000000E+00  0.00000000000E+00  0.15582847807E+03  0.15582847807E+03  0.00000000000E+00 0. -1.
         21   -1    0    0  501  502  0.00000000000E+00 -0.00000000000E+00 -0.25755645019E+03  0.25755645019E+03  0.00000000000E+00 0. -1.
         24    2    1    2    0    0  0.23235268165E+02  0.13855057162E+02 -0.13016165940E+01  0.63830354204E+02  0.57799477648E+02 0.  0.
         23    2    1    2    0    0  0.83670654773E+02  0.58504920011E+02 -0.15032118876E+03  0.21115537956E+03  0.10754780513E+03 0.  0.
        -13    1    3    3    0    0  0.30658258543E+02  0.28635547052E+02 -0.12596677884E+02  0.43801822628E+02  0.00000000000E+00 0.  1.
         14    1    3    3    0    0 -0.74229903780E+01 -0.14780489890E+02  0.11295061290E+02  0.20028531575E+02  0.00000000000E+00 0. -1.
        -11    1    4    4    0    0  0.40824240344E+01  0.62284063877E+02 -0.96770000364E+02  0.11515382655E+03  0.00000000000E+00 0. -1.
         11    1    4    4    0    0  0.79588230739E+02 -0.37791438668E+01 -0.53551188400E+02  0.96001553006E+02  0.00000000000E+00 0.  1.
          1    1    1    2  501    0 -0.10690592294E+03 -0.72359977173E+02  0.49894833237E+02  0.13839919450E+03  0.00000000000E+00 0. -1.
<scales pt_clust_5="13000.00000" pt_clust_6="13000.00000" pt_clust_7="13000.00000" pt_clust_8="13000.00000" pt_clust_9="13000.00000"></scales>
<clustering>
<clus scale="   57.799">  5  6 -1 -1</clus>
<clus scale="   63.817">  1  5  2 -1</clus>
<clus scale="  107.548">  7  8 -1 -1</clus>
<clus scale="  108.686">  7  9 -1 -1</clus>
<clus scale="  334.818">  2  5  1 -1</clus>
</clustering>
</event>
<event>
 9    2  0.3707658E-005  0.8230011E+03  0.7546771E-02  0.1010188E+00
         21   -1    0    0  501  502  0.00000000000E+00  0.00000000000E+00  0.17859585454E+03  0.17859585454E+03  0.00000000000E+00 0. -1.
          2   -1    0    0  502    0 -0.00000000000E+00 -0.00000000000E+00 -0.12598273478E+04  0.12598273478E+04  0.00000000000E+00 0. -1.
         24    2    1    2    0    0  0.90320222277E+02 -0.35602148671E+02 -0.12786248927E+03  0.17896167429E+03  0.79077235405E+02 0.  0.
         23    2    1    2    0    0 -0.26854903763E+03  0.35123956464E+03 -0.62104385886E+03  0.76769685764E+03  0.90416664558E+02 0.  0.
        -11    1    3    3    0    0  0.96625151085E+02 -0.50482771483E+02 -0.10992116611E+03  0.15481470472E+03  0.00000000000E+00 0.  1.
         12    1    3    3    0    0 -0.63049288083E+01  0.14880622811E+02 -0.17941323154E+02  0.24146969563E+02  0.00000000000E+00 0. -1.
        -11    1    4    4    0    0 -0.95605572919E+02  0.68464800932E+02 -0.13052238851E+03  0.17568138331E+03  0.00000000000E+00 0.  1.
         11    1    4    4    0    0 -0.17294346471E+03  0.28277476370E+03 -0.49052147035E+03  0.59201547433E+03  0.00000000000E+00 0. -1.
          1    1    1    2  501    0  0.17822881535E+03 -0.31563741597E+03 -0.33232514511E+03  0.49176467039E+03  0.00000000000E+00 0. -1.
<scales pt_clust_5="13000.00000" pt_clust_6="13000.00000" pt_clust_7="13000.00000" pt_clust_8="13000.00000" pt_clust_9="13000.00000"></scales>
<clustering>
<clus scale="   79.077">  5  6 -1 -1</clus>
<clus scale="   90.417">  7  8 -1 -1</clus>
<clus scale="  125.214">  2  5  1 -1</clus>
<clus scale="  391.229">  7  9 -1 -1</clus>
<clus scale="  823.001">  1  5  2 -1</clus>
</clustering>
</event>
<event>
 9    2  0.3707658E-005  0.2993924E+03  0.7546771E-02  0.1100949E+00
         21   -1    0    0  501  502  0.00000000000E+00  0.00000000000E+00  0.61462706103E+02  0.61462706103E+02  0.00000000000E+00 0.  1.
          2   -1    0    0  502    0 -0.00000000000E+00 -0.00000000000E+00 -0.10922070732E+04  0.10922070732E+04  0.00000000000E+00 0. -1.
         24    2    1    2    0    0 -0.77057475226E+02 -0.16446218436E+03 -0.26778495978E+03  0.33407058217E+03  0.83118617750E+02 0.  0.
         23    2    1    2    0    0 -0.55598898671E+02  0.67562344535E+02 -0.19770983829E+03  0.23096147512E+03  0.81228781216E+02 0.  0.
        -13    1    3    3    0    0 -0.31171814803E+00 -0.68775810438E+02 -0.53392644741E+02  0.87068845071E+02  0.00000000000E+00 0.  1.
         14    1    3    3    0    0 -0.76745757078E+02 -0.95686373923E+02 -0.21439231504E+03  0.24700173710E+03  0.00000000000E+00 0. -1.
        -11    1    4    4    0    0 -0.21875373359E+02  0.79493315196E+02 -0.15196865169E+03  0.17289358061E+03  0.00000000000E+00 0. -1.
         11    1    4    4    0    0 -0.33723525312E+02 -0.11930970661E+02 -0.45741186605E+02  0.58067894506E+02  0.00000000000E+00 0.  1.
          1    1    1    2  501    0  0.13265637390E+03  0.96899839827E+02 -0.56524956903E+03  0.58863772202E+03  0.00000000000E+00 0. -1.
<scales pt_clust_5="13000.00000" pt_clust_6="13000.00000" pt_clust_7="13000.00000" pt_clust_8="13000.00000" pt_clust_9="13000.00000"></scales>
<clustering>
<clus scale="   81.229">  7  8 -1 -1</clus>
<clus scale="   83.119">  5  6 -1 -1</clus>
<clus scale="  164.278">  7  9 -1 -1</clus>
<clus scale="  199.736">  2  5  1 -1</clus>
<clus scale="  299.392">  1  5  2 -1</clus>
</clustering>
</event>
<event>
 9    2  0.3707658E-005  0.1402299E+03  0.7546771E-02  0.1237949E+00
          2   -1    0    0  502    0 -0.00000000000E+00  0.00000000000E+00  0.94949969594E+03  0.94949969594E+03  0.00000000000E+00 0. -1.
         21   -1    0    0  501  502  0.00000000000E+00 -0.00000000000E+00 -0.21231322462E+02  0.21231322462E+02  0.00000000000E+00 0.  1.
         24    2    1    2    0    0  0.50941688290E+01 -0.19578680475E+02  0.68398025780E+03  0.68905548569E+03  0.80988851235E+02 0.  0.
         23    2    1    2    0    0 -0.28556548046E+00 -0.12516855312E+02  0.11701670909E+03  0.15033149204E+03  0.93540868490E+02 0.  0.
        -11    1    3    3    0    0  0.19949153722E+02  0.25101701876E+02  0.17592298143E+03  0.17882102664E+03  0.00000000000E+00 0.  1.
         12    1    3    3    0    0 -0.14854984893E+02 -0.44680382350E+02  0.50805727637E+03  0.51023445906E+03  0.00000000000E+00 0. -1.
        -13    1    4    4    0    0 -0.28905471941E+02 -0.41551523705E+02  0.83085943655E+02  0.97289924778E+02  0.00000000000E+00 0.  1.
         13    1    4    4    0    0  0.28619906460E+02  0.29034668393E+02  0.33930765436E+02  0.53041567261E+02  0.00000000000E+00 0. -1.
          1    1    1    2  501    0 -0.48086033485E+01  0.32095535787E+02  0.12727140659E+03  0.13134404066E+03  0.00000000000E+00 0. -1.
<scales pt_clust_5="13000.00000" pt_clust_6="13000.00000" pt_clust_7="13000.00000" pt_clust_8="13000.00000" pt_clust_9="13000.00000"></scales>
<clustering>
<clus scale="   80.989">  5  6 -1 -1</clus>
<clus scale="   83.477">  1  5  2 -1</clus>
<clus scale="   93.541">  7  8 -1 -1</clus>
<clus scale="   22.587">  7  9 -1 -1</clus>
<clus scale="  140.230">  2  5  1 -1</clus>
</clustering>
</event>
<event>
 9    2  0.3707658E-005  0.1320168E+03  0.7546771E-02  0.1248309E+00
         21   -1    0    0  501  502  0.00000000000E+00  0.00000000000E+00  0.10444725081E+03  0.10444725081E+03  0.00000000000E+00 0. -1.
          2   -1    0    0  502    0 -0.00000000000E+00 -0.00000000000E+00 -0.24571636456E+03  0.24571636456E+03  0.00000000000E+00 0. -1.
         24    2    1    2    0    0  0.65255788186E+01  0.13527256076E+02 -0.19222592054E+03  0.20865376555E+03  0.79749730498E+02 0.  0.
         23    2    1    2    0    0  0.24309348973E+02 -0.21623701972E+02  0.26574747048E+02  0.10137470257E+03  0.92260957107E+02 0.  0.
        -11    1    3    3    0    0 -0.31149616593E+02  0.26722132648E+02 -0.90275193243E+02  0.99166433344E+02  0.00000000000E+00 0.  1.
         12    1    3    3    0    0  0.37675195411E+02 -0.13194876572E+02 -0.10195072730E+03  0.10948733220E+03  0.00000000000E+00 0. -1.
        -11    1    4    4    0    0 -0.14156199783E+02 -0.47125542142E+02  0.23739252279E+01  0.49263071722E+02  0.00000000000E+00 0.  1.
         11    1    4    4    0    0  0.38465548756E+02  0.25501840169E+02  0.24200821820E+02  0.52111630850E+02  0.00000000000E+00 0. -1.
          1    1    1    2  501    0 -0.30834927791E+02  0.80964458961E+01  0.24382059739E+02  0.40135147255E+02  0.00000000000E+00 0. -1.
<scales pt_clust_5="13000.00000" pt_clust_6="13000.00000" pt_clust_7="13000.00000" pt_clust_8="13000.00000" pt_clust_9="13000.00000"></scales>
<clustering>
<clus scale="   79.750">  5  6 -1 -1</clus>
<clus scale="   81.152">  2  5  1 -1</clus>
<clus scale="   92.261">  7  8 -1 -1</clus>
<clus scale="   31.484">  7  9 -1 -1</clus>
<clus scale="  132.017">  1  5  2 -1</clus>
</clustering>
</event>
<event>
 9    2  0.3707658E-005  0.2092120E+03  0.7546771E-02  0.1178306E+00
         -3   -1    0    0    0  501 -0.00000000000E+00  0.00000000000E+00  0.37034993089E+03  0.37034993089E+03  0.00000000000E+00 0.  1.
         21   -1    0    0  501  502  0.00000000000E+00 -0.00000000000E+00 -0.62284054254E+02  0.62284054254E+02  0.00000000000E+00 0. -1.
         24    2    1    2    0    0 -0.94191410777E+01 -0.36308411089E+02  0.61300081839E+02  0.10911732397E+03  0.82108887602E+02 0.  0.
         23    2    1    2    0    0 -0.52146312727E+02  0.71449173321E+02  0.20438063991E+03  0.24092320122E+03  0.91914746446E+02 0.  0.
        -13    1    3    3    0    0  0.67282192406E+01  0.24867977514E+02  0.26278107314E+02  0.36799784834E+02  0.00000000000E+00 0.  1.
         14    1    3    3    0    0 -0.16147360318E+02 -0.61176388602E+02  0.35021974524E+02  0.72317539140E+02  0.00000000000E+00 0. -1.
        -11    1    4    4    0    0 -0.74468309521E+02  0.59113477875E+02  0.18782016521E+03  0.21051448133E+03  0.00000000000E+00 0.  1.
         11    1    4    4    0    0  0.22321996794E+02  0.12335695446E+02  0.16560474708E+02  0.30408719893E+02  0.00000000000E+00 0. -1.
         -4    1    1    2    0  502  0.61565453805E+02 -0.35140762232E+02  0.42385154883E+02  0.82593459953E+02  0.00000000000E+00 0.  1.
<scales pt_clust_5="13000.00000" pt_clust_6="13000.00000" pt_clust_7="13000.00000" pt_clust_8="13000.00000" pt_clust_9="13000.00000"></scales>
<clustering>
<clus scale="   82.109">  5  6 -1 -1</clus>
<clus scale="   90.271">  1  5  2 -1</clus>
<clus scale="   91.915">  7  8 -1 -1</clus>
<clus scale="   73.470">  7  9 -1 -1</clus>
<clus scale="  209.212">  2  5  1 -1</clus>
</clustering>
</event>
<event>
 9    2  0.3707658E-005  0.1386446E+03  0.7546771E-02  0.1237879E+00
         -1   -1    0    0    0  501 -0.00000000000E+00  0.00000000000E+00  0.14657073738E+03  0.14657073738E+03  0.00000000000E+00 0.  1.
         21   -1    0    0  501  502  0.00000000000E+00 -0.00000000000E+00 -0.10434946890E+03  0.10434946890E+03  0.00000000000E+00 0. -1.
         24    2    1    2    0    0 -0.62165991691E+01 -0.30560670956E+02 -0.33722308451E+02  0.92838768863E+02  0.80679874828E+02 0.  0.
         23    2    1    2    0    0  0.84535828926E+01 -0.29152917504E+01  0.21501061507E+02  0.94131209411E+02  0.91205410747E+02 0.  0.
        -11    1    3    3    0    0  0.17640332203E+02  0.14017163830E+02  0.11239008076E+02  0.25178909917E+02  0.00000000000E+00 0.  1.
         12    1    3    3    0    0 -0.23856931373E+02 -0.44577834786E+02 -0.44961316527E+02  0.67659858946E+02  0.00000000000E+00 0. -1.
        -13    1    4    4    0    0 -0.21562132674E+02 -0.32757126687E+02  0.31893130543E+02  0.50548261000E+02  0.00000000000E+00 0.  1.
         13    1    4    4    0    0  0.30015715567E+02  0.29841834936E+02 -0.10392069036E+02  0.43582948411E+02  0.00000000000E+00 0. -1.
         -2    1    1    2    0  502 -0.22369837235E+01  0.33475962706E+02  0.54442515430E+02  0.63950228003E+02  0.00000000000E+00 0.  1.
<scales pt_clust_5="13000.00000" pt_clust_6="13000.00000" pt_clust_7="13000.00000" pt_clust_8="13000.00000" pt_clust_9="13000.00000"></scales>
<clustering>
<clus scale="   80.680">  5  6 -1 -1</clus>
<clus scale="   86.498">  1  5  2 -1</clus>
<clus scale="   91.205">  7  8 -1 -1</clus>
<clus scale="   18.802">  7  9 -1 -1</clus>
<clus scale="  138.645">  2  5  1 -1</clus>
</clustering>
</event>
<event>
 9    2  0.3707658E-005  0.1793324E+03  0.7546771E-02  0.1182850E+00
         21   -1    0    0  501  502  0.00000000000E+00  0.00000000000E+00  0.21630934179E+03  0.21630934179E+03  0.00000000000E+00 0. -1.
         -1   -1    0    0    0  501 -0.00000000000E+00 -0.00000000000E+00 -0.14755867540E+03  0.14755867540E+03  0.00000000000E+00 0.  1.
         24    2    1    2    0    0 -0.62830157307E+02 -0.80769603470E+02  0.12089923828E+03  0.17710721894E+03  0.79240038319E+02 0.  0.
         23    2    1    2    0    0  0.41775467860E+02  0.31185929964E+01 -0.18804461514E+02  0.99669988906E+02  0.88462328584E+02 0.  0.
        -13    1    3    3    0    0 -0.49848528742E+02 -0.74046985372E+02  0.45285053077E+02  0.10009279641E+03  0.00000000000E+00 0.  1.
         14    1    3    3    0    0 -0.12981628565E+02 -0.67226180978E+01  0.75614185207E+02  0.77014422538E+02  0.00000000000E+00 0. -1.
        -13    1    4    4    0    0  0.66175796822E+02  0.13166362622E+02 -0.35835129386E+00  0.67473829040E+02  0.00000000000E+00 0.  1.
         13    1    4    4    0    0 -0.24400328962E+02 -0.10047769625E+02 -0.18446110220E+02  0.32196159866E+02  0.00000000000E+00 0. -1.
         -2    1    1    2    0  502  0.21054689448E+02  0.77651010473E+02 -0.33344110382E+02  0.87090809345E+02  0.00000000000E+00 0.  1.
<scales pt_clust_5="13000.00000" pt_clust_6="13000.00000" pt_clust_7="13000.00000" pt_clust_8="13000.00000" pt_clust_9="13000.00000"></scales>
<clustering>
<clus scale="   79.240">  5  6 -1 -1</clus>
<clus scale="   88.462">  7  8 -1 -1</clus>
<clus scale="   80.455">  7  9 -1 -1</clus>
<clus scale="  129.423">  2  5  1 -1</clus>
<clus scale="  179.332">  1  5  2 -1</clus>
</clustering>
</event>
<event>
 9    2  0.3707658E-005  0.1901048E+03  0.7546771E-02  0.1194233E+00
          2   -1    0    0  502    0 -0.00000000000E+00  0.00000000000E+00  0.32120519724E+03  0.32120519724E+03  0.00000000000E+00 0. -1.
         21   -1    0    0  501  502  0.00000000000E+00 -0.00000000000E+00 -0.12704979684E+03  0.12704979684E+03  0.00000000000E+00 0. -1.
         24    2    1    2    0    0 -0.10885364242E+02 -0.21331115767E+02  0.23853616567E+03  0.25303849808E+03  0.80965866410E+02 0.  0.
         23    2    1    2    0    0 -0.17284973197E+02  0.59453533792E+02  0.23326454903E+02  0.11256569847E+03  0.91068216160E+02 0.  0.
        -13    1    3    3    0    0  0.30563207777E+02 -0.28808181567E+02  0.13002929945E+03  0.13664420848E+03  0.00000000000E+00 0.  1.
         14    1    3    3    0    0 -0.41448572019E+02  0.74770658001E+01  0.10850686622E+03  0.11639428961E+03  0.00000000000E+00 0. -1.
        -13    1    4    4    0    0  0.33934570864E+02  0.16036872251E+02 -0.81518949636E+01  0.38408199161E+02  0.00000000000E+00 0.  1.
         13    1    4    4    0    0 -0.51219544061E+02  0.43416661542E+02  0.31478349866E+02  0.74157499308E+02  0.00000000000E+00 0. -1.
          1    1    1    2  501    0  0.28170337439E+02 -0.38122418026E+02 -0.67707220180E+02  0.82650797528E+02  0.00000000000E+00 0. -1.
<scales pt_clust_5="13000.00000" pt_clust_6="13000.00000" pt_clust_7="13000.00000" pt_clust_8="13000.00000" pt_clust_9="13000.00000"></scales>
<clustering>
<clus scale="   80.966">  5  6 -1 -1</clus>
<clus scale="   84.433">  1  5  2 -1</clus>
<clus scale="   91.068">  7  8 -1 -1</clus>
<clus scale="   48.507">  7  9 -1 -1</clus>
<clus scale="  190.105">  2  5  1 -1</clus>
</clustering>
</event>
<event>
 9    2  0.3707658E-005  0.2053117E+03  0.7546771E-02  0.1181226E+00
         21   -1    0    0  501  502  0.00000000000E+00  0.00000000000E+00  0.93991624733E+02  0.93991624733E+02  0.00000000000E+00 0. -1.
          2   -1    0    0  502    0 -0.00000000000E+00 -0.00000000000E+00 -0.24877943221E+03  0.24877943221E+03  0.00000000000E+00 0. -1.
         24    2    1    2    0    0  0.22473675938E+02  0.30778414384E+02 -0.68360326740E+01  0.89704589337E+02  0.80918509027E+02 0.  0.
         23    2    1    2    0    0  0.54646594872E+02 -0.57649801698E+02 -0.68053495337E+02  0.13881524141E+03  0.91261399577E+02 0.  0.
        -13    1    3    3    0    0 -0.30357462756E+02  0.99445214568E+01 -0.78877180195E+01  0.32904181308E+02  0.00000000000E+00 0.  1.
         14    1    3    3    0    0  0.52831138694E+02  0.20833892927E+02  0.10516853455E+01  0.56800408029E+02  0.00000000000E+00 0. -1.
        -11    1    4    4    0    0 -0.11154948579E+02 -0.26239733128E+02  0.11642007050E+02  0.30797610307E+02  0.00000000000E+00 0.  1.
         11    1    4    4    0    0  0.65801543451E+02 -0.31410068569E+02 -0.79695502388E+02  0.10801763110E+03  0.00000000000E+00 0. -1.
          1    1    1    2  501    0 -0.77120270810E+02  0.26871387314E+02 -0.79898279463E+02  0.11425122620E+03  0.00000000000E+00 0. -1.
<scales pt_clust_5="13000.00000" pt_clust_6="13000.00000" pt_clust_7="13000.00000" pt_clust_8="13000.00000" pt_clust_9="13000.00000"></scales>
<clustering>
<clus scale="   80.919">  5  6 -1 -1</clus>
<clus scale="   89.444">  2  5  1 -1</clus>
<clus scale="   91.261">  7  8 -1 -1</clus>
<clus scale="   78.311">  7  9 -1 -1</clus>
<clus scale="  205.312">  1  5  2 -1</clus>
</clustering>
</event>
<event>
 9    2  0.3707658E-005  0.2121247E+03  0.7546771E-02  0.1171236E+00
         21   -1    0    0  501  502  0.00000000000E+00  0.00000000000E+00  0.66027839858E+02  0.66027839858E+02  0.00000000000E+00 0. -1.
          2   -1    0    0  502    0 -0.00000000000E+00 -0.00000000000E+00 -0.61049662755E+03  0.61049662755E+03  0.00000000000E+00 0. -1.
         24    2    1    2    0    0 -0.60851537844E+02  0.15587436985E+01 -0.41663154037E+03  0.42885682372E+03  0.81430924626E+02 0.  0.
         23    2    1    2    0    0  0.82071348740E+02  0.37403911573E+02 -0.21905343375E+02  0.13282019202E+03  0.95008423068E+02 0.  0.
        -13    1    3    3    0    0 -0.91846953619E+01  0.35978628720E+02 -0.11303931347E+03  0.11898195973E+03  0.00000000000E+00 0.  1.
         14    1    3    3    0    0 -0.51666842483E+02 -0.34419885022E+02 -0.30359222690E+03  0.30987486399E+03  0.00000000000E+00 0. -1.
        -11    1    4    4    0    0  0.37681965735E+02  0.42710746479E+02 -0.53447476313E+02  0.78107433261E+02  0.00000000000E+00 0.  1.
         11    1    4    4    0    0  0.44389383005E+02 -0.53068349059E+01  0.31542132938E+02  0.54712758755E+02  0.00000000000E+00 0. -1.
          1    1    1    2  501    0 -0.21219810895E+02 -0.38962655272E+02 -0.10593190395E+03  0.11484745167E+03  0.00000000000E+00 0. -1.
<scales pt_clust_5="13000.00000" pt_clust_6="13000.00000" pt_clust_7="13000.00000" pt_clust_8="13000.00000" pt_clust_9="13000.00000"></scales>
<clustering>
<clus scale="   81.431">  5  6 -1 -1</clus>
<clus scale="   95.008">  7  8 -1 -1</clus>
<clus scale="   44.366">  7  9 -1 -1</clus>
<clus scale="  101.668">  2  5  1 -1</clus>
<clus scale="  212.125">  1  5  2 -1</clus>
</clustering>
</event>
<event>
 9    2  0.3707658E-005  0.2255098E+03  0.7546771E-02  0.1164524E+00
         21   -1    0    0  501  502  0.00000000000E+00  0.00000000000E+00  0.41316449646E+02  0.41316449646E+02  0.00000000000E+00 0. -1.
          2   -1    0    0  502    0 -0.00000000000E+00 -0.00000000000E+00 -0.72972027710E+03  0.72972027710E+03  0.00000000000E+00 0. -1.
         24    2    1    2    0    0 -0.26853671112E+02  0.47185168457E+02 -0.35543568319E+03  0.36888943773E+03  0.82445937474E+02 0.  0.
         23    2    1    2    0    0  0.90942266642E+02 -0.63744450857E+01 -0.13886127904E+03  0.19369984157E+03  0.99629535771E+02 0.  0.
        -11    1    3    3    0    0 -0.34619648465E+02 -0.13602082915E+02 -0.14690079158E+03  0.15153672586E+03  0.00000000000E+00 0.  1.
         12    1    3    3    0    0  0.77659773529E+01  0.60787251372E+02 -0.20853489161E+03  0.21735271186E+03  0.00000000000E+00 0. -1.
        -11    1    4    4    0    0  0.35184280226E+02  0.46377918655E+02 -0.56737968038E+02  0.81289863641E+02  0.00000000000E+00 0.  1.
         11    1    4    4    0    0  0.55757986416E+02 -0.52752363740E+02 -0.82123310997E+02  0.11240997793E+03  0.00000000000E+00 0. -1.
          1    1    1    2  501    0 -0.64088595530E+02 -0.40810723371E+02 -0.19410686523E+03  0.20844744745E+03  0.00000000000E+00 0. -1.
<scales pt_clust_5="13000.00000" pt_clust_6="13000.00000" pt_clust_7="13000.00000" pt_clust_8="13000.00000" pt_clust_9="13000.00000"></scales>
<clustering>
<clus scale="   82.446">  5  6 -1 -1</clus>
<clus scale="   98.716">  2  5  1 -1</clus>
<clus scale="   99.630">  7  8 -1 -1</clus>
<clus scale="   80.204">  7  9 -1 -1</clus>
<clus scale="  225.510">  1  5  2 -1</clus>
</clustering>
</event>
<event>
 9    2  0.3707658E-005  0.2587837E+03  0.7546771E-02  0.1156820E+00
         21   -1    0    0  501  502  0.00000000000E+00  0.00000000000E+00  0.24279310645E+02  0.24279310645E+02  0.00000000000E+00 0. -1.
          2   -1    0    0  502    0 -0.00000000000E+00 -0.00000000000E+00 -0.12069623767E+04  0.12069623767E+04  0.00000000000E+00 0. -1.
         24    2    1    2    0    0 -0.20136065300E+02  0.22402675601E+01 -0.37720649613E+03  0.38521479315E+03  0.75466656293E+02 0.  0.
         23    2    1    2    0    0 -0.71836400110E+02 -0.65229210649E+02 -0.30022119920E+03  0.32862035095E+03  0.91887149856E+02 0.  0.
        -13    1    3    3    0    0  0.18794777613E+02  0.25267763211E+02 -0.12010414930E+03  0.12416404553E+03  0.00000000000E+00 0.  1.
         14    1    3    3    0    0 -0.38930842913E+02 -0.23027495651E+02 -0.25710234684E+03  0.26105074763E+03  0.00000000000E+00 0. -1.
        -11    1    4    4    0    0 -0.92541465430E+02 -0.63343089987E+02 -0.23991857689E+03  0.26483427537E+03  0.00000000000E+00 0. -1.
         11    1    4    4    0    0  0.20705065320E+02 -0.18861206627E+01 -0.60302622304E+02  0.63786075579E+02  0.00000000000E+00 0.  1.
          1    1    1    2  501    0  0.91972465410E+02  0.62988943089E+02 -0.50525537071E+03  0.51740654322E+03  0.00000000000E+00 0. -1.
<scales pt_clust_5="13000.00000" pt_clust_6="13000.00000" pt_clust_7="13000.00000" pt_clust_8="13000.00000" pt_clust_9="13000.00000"></scales>
<clustering>
<clus scale="   75.467">  5  6 -1 -1</clus>
<clus scale="   78.139">  2  5  1 -1</clus>
<clus scale="   91.887">  7  8 -1 -1</clus>
<clus scale="  102.299">  7  9 -1 -1</clus>
<clus scale="  258.784">  1  5  2 -1</clus>
</clustering>
</event>
<event>
 9    2  0.3707658E-005  0.1406583E+03  0.7546771E-02  0.1232778E+00
         21   -1    0    0  501  502  0.00000000000E+00  0.00000000000E+00  0.37289593066E+02  0.37289593066E+02  0.00000000000E+00 0. -1.
          2   -1    0    0  502    0 -0.00000000000E+00 -0.00000000000E+00 -0.91113535662E+03  0.91113535662E+03  0.00000000000E+00 0. -1.
         24    2    1    2    0    0 -0.17318097152E+02  0.98014150557E+00 -0.76516894107E+03  0.77067398414E+03  0.90299525331E+02 0.  0.
         23    2    1    2    0    0  0.22003367083E+01  0.23116779166E+02 -0.11580758624E+03  0.14842425318E+03  0.89884008268E+02 0.  0.
        -13    1    3    3    0    0 -0.25675928903E+02 -0.29190031198E+02 -0.15850386132E+03  0.16320167064E+03  0.00000000000E+00 0.  1.
         14    1    3    3    0    0  0.83578317506E+01  0.30170172703E+02 -0.60666507976E+03  0.60747231350E+03  0.00000000000E+00 0. -1.
        -11    1    4    4    0    0 -0.34759608196E+02 -0.58203658585E+01 -0.85684976051E+02  0.92649998066E+02  0.00000000000E+00 0.  1.
         11    1    4    4    0    0  0.36959944904E+02  0.28937145024E+02 -0.30122610184E+02  0.55774255116E+02  0.00000000000E+00 0. -1.
          1    1    1    2  501    0  0.15117760444E+02 -0.24096920671E+02  0.71307637528E+01  0.29326712369E+02  0.00000000000E+00 0. -1.
<scales pt_clust_5="13000.00000" pt_clust_6="13000.00000" pt_clust_7="13000.00000" pt_clust_8="13000.00000" pt_clust_9="13000.00000"></scales>
<clustering>
<clus scale="   89.884">  7  8 -1 -1</clus>
<clus scale="   28.447">  7  9 -1 -1</clus>
<clus scale="   90.300">  5  6 -1 -1</clus>
<clus scale="   91.950">  2  5  1 -1</clus>
<clus scale="  140.658">  1  5  2 -1</clus>
</clustering>
</event>
<event>
 9    2  0.3707658E-005  0.2981551E+03  0.7546771E-02  0.1127322E+00
         21   -1    0    0  501  502  0.00000000000E+00  0.00000000000E+00  0.17412365821E+03  0.17412365821E+03  0.00000000000E+00 0. -1.
          2   -1    0    0  502    0 -0.00000000000E+00 -0.00000000000E+00 -0.24030848918E+03  0.24030848918E+03  0.00000000000E+00 0. -1.
         24    2    1    2    0    0  0.63033758269E+02  0.90380483294E+01  0.16271865101E+02  0.10508517815E+03  0.81995000294E+02 0.  0.
         23    2    1    2    0    0  0.58238452125E+01 -0.19285586993E+02  0.86768631092E+02  0.12636174317E+03  0.89625017465E+02 0.  0.
        -11    1    3    3    0    0  0.26833730785E+02 -0.15227542856E+00  0.48712781322E+02  0.55614812413E+02  0.00000000000E+00 0.  1.
         12    1    3    3    0    0  0.36200027485E+02  0.91903237580E+01 -0.32440916221E+02  0.49470365735E+02  0.00000000000E+00 0. -1.
        -13    1    4    4    0    0  0.44499417750E+02 -0.17952782254E+02  0.26716447060E+02  0.54920570957E+02  0.00000000000E+00 0.  1.
         13    1    4    4    0    0 -0.38675572537E+02 -0.13328047394E+01  0.60052184032E+02  0.71441172209E+02  0.00000000000E+00 0. -1.
          1    1    1    2  501    0 -0.68857603482E+02  0.10247538664E+02 -0.16922532717E+03  0.18298522607E+03  0.00000000000E+00 0. -1.
<scales pt_clust_5="13000.00000" pt_clust_6="13000.00000" pt_clust_7="13000.00000" pt_clust_8="13000.00000" pt_clust_9="13000.00000"></scales>
<clustering>
<clus scale="   81.995">  5  6 -1 -1</clus>
<clus scale="   89.625">  7  8 -1 -1</clus>
<clus scale="   69.616">  7  9 -1 -1</clus>
<clus scale="  103.818">  2  5  1 -1</clus>
<clus scale="  298.155">  1  5  2 -1</clus>
</clustering>
</event>
<event>
 9    2  0.3707658E-005  0.2580657E+03  0.7546771E-02  0.1119582E+00
         -1   -1    0    0    0  501 -0.00000000000E+00  0.00000000000E+00  0.22817495640E+03  0.22817495640E+03  0.00000000000E+00 0.  1.
         21   -1    0    0  501  502  0.00000000000E+00 -0.00000000000E+00 -0.25911300286E+03  0.25911300286E+03  0.00000000000E+00 0.  1.
         24    2    1    2    0    0 -0.57087340479E+02  0.16507312572E+03  0.75363359657E+02  0.20818600462E+03  0.84579402113E+02 0.  0.
         23    2    1    2    0    0  0.99015511723E+02 -0.94590099927E+02 -0.30889766645E+02  0.16768946057E+03  0.91729051760E+02 0.  0.
        -13    1    3    3    0    0 -0.24232126327E+02  0.14881239231E+03  0.80909184031E+02  0.17110996497E+03  0.00000000000E+00 0.  1.
         14    1    3    3    0    0 -0.32855214151E+02  0.16260733409E+02 -0.55458243732E+01  0.37076039647E+02  0.00000000000E+00 0. -1.
        -11    1    4    4    0    0  0.94259380443E+02 -0.47131618885E+02 -0.49574569110E+02  0.11646397813E+03  0.00000000000E+00 0.  1.
         11    1    4    4    0    0  0.47561312794E+01 -0.47458481042E+02  0.18684802466E+02  0.51225482435E+02  0.00000000000E+00 0. -1.
         -2    1    1    2    0  502 -0.41928171244E+02 -0.70483025792E+02 -0.75411639470E+02  0.11141249408E+03  0.00000000000E+00 0.  1.
<scales pt_clust_5="13000.00000" pt_clust_6="13000.00000" pt_clust_7="13000.00000" pt_clust_8="13000.00000" pt_clust_9="13000.00000"></scales>
<clustering>
<clus scale="   84.579">  5  6 -1 -1</clus>
<clus scale="   91.729">  7  8 -1 -1</clus>
<clus scale="   82.011">  7  9 -1 -1</clus>
<clus scale="  194.066">  1  5  2 -1</clus>
<clus scale="  258.066">  2  5  1 -1</clus>
</clustering>
</event>
<event>
 9    2  0.3707658E-005  0.1775165E+03  0.7546771E-02  0.1194348E+00
          2   -1    0    0  502    0 -0.00000000000E+00  0.00000000000E+00  0.85457562803E+02  0.85457562803E+02  0.00000000000E+00 0. -1.
         21   -1    0    0  501  502  0.00000000000E+00 -0.00000000000E+00 -0.24130018732E+03  0.24130018732E+03  0.00000000000E+00 0. -1.
         24    2    1    2    0    0  0.32396427170E+02 -0.52676205325E+02 -0.25522572229E+02  0.10654095366E+03  0.82917199740E+02 0.  0.
         23    2    1    2    0    0 -0.12492613760E+02 -0.25069500235E+02 -0.91577282633E+02  0.13110137287E+03  0.89535613218E+02 0.  0.
        -13    1    3    3    0    0  0.24010907088E+01 -0.20122845219E+02 -0.51410830524E+02  0.55260905091E+02  0.00000000000E+00 0.  1.
         14    1    3    3    0    0  0.29995336461E+02 -0.32553360106E+02  0.25888258295E+02  0.51280048568E+02  0.00000000000E+00 0. -1.
        -13    1    4    4    0    0 -0.43361712230E+02 -0.18236408198E+00 -0.16879287992E+02  0.46531513056E+02  0.00000000000E+00 0.  1.
         13    1    4    4    0    0  0.30869098470E+02 -0.24887136153E+02 -0.74697994641E+02  0.84569859818E+02  0.00000000000E+00 0. -1.
          1    1    1    2  501    0 -0.19903813410E+02  0.77745705560E+02 -0.38742769657E+02  0.89115423592E+02  0.00000000000E+00 0. -1.
<scales pt_clust_5="13000.00000" pt_clust_6="13000.00000" pt_clust_7="13000.00000" pt_clust_8="13000.00000" pt_clust_9="13000.00000"></scales>
<clustering>
<clus scale="   82.917">  5  6 -1 -1</clus>
<clus scale="   89.536">  7  8 -1 -1</clus>
<clus scale="   80.253">  7  9 -1 -1</clus>
<clus scale="  103.439">  1  5  2 -1</clus>
<clus scale="  177.517">  2  5  1 -1</clus>
</clustering>
</event>
<event>
 9    2  0.3707658E-005  0.5780886E+03  0.7546771E-02  0.1051657E+00
          2   -1    0    0  502    0 -0.00000000000E+00  0.00000000000E+00  0.84406860559E+03  0.84406860559E+03  0.00000000000E+00 0. -1.
         21   -1    0    0  501  502  0.00000000000E+00 -0.00000000000E+00 -0.60828200620E+03  0.60828200620E+03  0.00000000000E+00 0. -1.
         24    2    1    2    0    0 -0.67947448095E+02 -0.13608675000E+02  0.70186039715E+03  0.70977994560E+03  0.79859265838E+02 0.  0.
         23    2    1    2    0    0 -0.14329916996E+02 -0.69743225556E+01  0.11968351588E+03  0.15070509439E+03  0.90188102354E+02 0.  0.
        -11    1    3    3    0    0 -0.66629720355E+02 -0.39110135537E+02  0.44537761646E+03  0.45202914019E+03  0.00000000000E+00 0.  1.
         12    1    3    3    0    0 -0.13177277408E+01  0.25501460537E+02  0.25648278069E+03  0.25775080541E+03  0.00000000000E+00 0. -1.
        -13    1    4    4    0    0  0.20038485409E+02 -0.38786759873E+02  0.69409699051E+02  0.81997926567E+02  0.00000000000E+00 0.  1.
         13    1    4    4    0    0 -0.34368402406E+02  0.31812437318E+02  0.50273816830E+02  0.68707167826E+02  0.00000000000E+00 0. -1.
          1    1    1    2  501    0  0.82277365092E+02  0.20582997556E+02 -0.58575731364E+03  0.59186557180E+03  0.00000000000E+00 0. -1.
<scales pt_clust_5="13000.00000" pt_clust_6="13000.00000" pt_clust_7="13000.00000" pt_clust_8="13000.00000" pt_clust_9="13000.00000"></scales>
<clustering>
<clus scale="   79.859">  5  6 -1 -1</clus>
<clus scale="   90.188">  7  8 -1 -1</clus>
<clus scale="   84.813">  7  9 -1 -1</clus>
<clus scale="  105.733">  1  5  2 -1</clus>
<clus scale="  578.089">  2  5  1 -1</clus>
</clustering>
</event>
<event>
 9    2  0.3707658E-005  0.3562455E+03  0.7546771E-02  0.1075384E+00
         21   -1    0    0  501  502  0.00000000000E+00  0.00000000000E+00  0.13694780108E+04  0.13694780108E+04  0.00000000000E+00 0. -1.
         -1   -1    0    0    0  501 -0.00000000000E+00 -0.00000000000E+00 -0.20762874418E+03  0.20762874418E+03  0.00000000000E+00 0.  1.
         24    2    1    2    0    0  0.21607009416E+03 -0.23092473957E+02  0.11965825062E+04  0.12191720682E+04  0.85739663152E+02 0.  0.
         23    2    1    2    0    0  0.36393879885E+02 -0.27684421064E+02 -0.10083229186E+02  0.99238002846E+02  0.87496102972E+02 0.  0.
        -11    1    3    3    0    0  0.14245967082E+03  0.22495301929E+02  0.65303506683E+03  0.66877170613E+03  0.00000000000E+00 0.  1.
         12    1    3    3    0    0  0.73610423340E+02 -0.45587775886E+02  0.54354743939E+03  0.55040036210E+03  0.00000000000E+00 0. -1.
        -11    1    4    4    0    0 -0.57006376715E+01  0.25852523637E+02 -0.15907786765E+02  0.30885399917E+02  0.00000000000E+00 0.  1.
         11    1    4    4    0    0  0.42094517557E+02 -0.53536944701E+02  0.58245575786E+01  0.68352602929E+02  0.00000000000E+00 0. -1.
         -2    1    1    2    0  502 -0.25246397405E+03  0.50776895021E+02 -0.24650010383E+02  0.25869668392E+03  0.00000000000E+00 0.  1.
<scales pt_clust_5="13000.00000" pt_clust_6="13000.00000" pt_clust_7="13000.00000" pt_clust_8="13000.00000" pt_clust_9="13000.00000"></scales>
<clustering>
<clus scale="   85.740">  5  6 -1 -1</clus>
<clus scale="   87.496">  7  8 -1 -1</clus>
<clus scale="  233.604">  2  5  1 -1</clus>
<clus scale="  102.399">  7  9 -1 -1</clus>
<clus scale="  356.245">  1  5  2 -1</clus>
</clustering>
</event>
<event>
 9    2  0.3707658E-005  0.2616274E+03  0.7546771E-02  0.1142051E+00
          2   -1    0    0  502    0 -0.00000000000E+00  0.00000000000E+00  0.79868415831E+03  0.79868415831E+03  0.00000000000E+00 0. -1.
         21   -1    0    0  501  502  0.00000000000E+00 -0.00000000000E+00 -0.45449874577E+02  0.45449874577E+02  0.00000000000E+00 0. -1.
         24    2    1    2    0    0  0.13895897766E+02  0.70222319854E+02  0.32537902220E+03  0.34262729292E+03  0.79985521074E+02 0.  0.
         23    2    1    2    0    0 -0.24612448971E+02 -0.12821293760E+03  0.16102608593E+03  0.22823843744E+03  0.95493737806E+02 0.  0.
        -11    1    3    3    0    0 -0.15709029435E+02  0.31113164589E+02  0.39961894101E+02  0.53025989823E+02  0.00000000000E+00 0.  1.
         12    1    3    3    0    0  0.29604927201E+02  0.39109155265E+02  0.28541712810E+03  0.28960130309E+03  0.00000000000E+00 0. -1.
        -13    1    4    4    0    0 -0.92667890414E+01 -0.46395985740E+02  0.13176507189E+03  0.14000176800E+03  0.00000000000E+00 0.  1.
         13    1    4    4    0    0 -0.15345659930E+02 -0.81816951865E+02  0.29261014037E+02  0.88236669439E+02  0.00000000000E+00 0. -1.
          1    1    1    2  501    0  0.10716551205E+02  0.57990617751E+02  0.26682917560E+03  0.27326830253E+03  0.00000000000E+00 0. -1.
<scales pt_clust_5="13000.00000" pt_clust_6="13000.00000" pt_clust_7="13000.00000" pt_clust_8="13000.00000" pt_clust_9="13000.00000"></scales>
<clustering>
<clus scale="   79.986">  5  6 -1 -1</clus>
<clus scale="   95.494">  7  8 -1 -1</clus>
<clus scale="   58.973">  7  9 -1 -1</clus>
<clus scale="  107.340">  1  5  2 -1</clus>
<clus scale="  261.627">  2  5  1 -1</clus>
</clustering>
</event>
<event>
 9    2  0.3707658E-005  0.3711858E+03  0.7546771E-02  0.1081416E+00
          2   -1    0    0  502    0 -0.00000000000E+00  0.00000000000E+00  0.10163613228E+04  0.10163613228E+04  0.00000000000E+00 0. -1.
         21   -1    0    0  501  502  0.00000000000E+00 -0.00000000000E+00 -0.76121697549E+02  0.76121697549E+02  0.00000000000E+00 0. -1.
         24    2    1    2    0    0  0.15153665909E+03 -0.35867083014E+02  0.40242930643E+03  0.43901623638E+03  0.80846165283E+02 0.  0.
         23    2    1    2    0    0 -0.63959279766E+02 -0.13612208189E+03  0.31189768048E+03  0.35633618915E+03  0.84114837993E+02 0.  0.
        -13    1    3    3    0    0  0.48836751385E+02  0.32753451143E+01  0.50514395358E+02  0.70338185290E+02  0.00000000000E+00 0.  1.
         14    1    3    3    0    0  0.10269990771E+03 -0.39142428129E+02  0.35191491107E+03  0.36867805109E+03  0.00000000000E+00 0. -1.
        -11    1    4    4    0    0  0.94214111619E+01 -0.49270762920E+02  0.50019903547E+02  0.70840396793E+02  0.00000000000E+00 0.  1.
         11    1    4    4    0    0 -0.73380690928E+02 -0.86851318965E+02  0.26187777693E+03  0.28549579236E+03  0.00000000000E+00 0. -1.
          1    1    1    2  501    0 -0.87577379327E+02  0.17198916490E+03  0.22591263838E+03  0.29713059484E+03  0.00000000000E+00 0. -1.
<scales pt_clust_5="13000.00000" pt_clust_6="13000.00000" pt_clust_7="13000.00000" pt_clust_8="13000.00000" pt_clust_9="13000.00000"></scales>
<clustering>
<clus scale="   80.846">  5  6 -1 -1</clus>
<clus scale="   84.115">  7  8 -1 -1</clus>
<clus scale="  175.459">  1  5  2 -1</clus>
<clus scale="  157.652">  7  9 -1 -1</clus>
<clus scale="  371.186">  2  5  1 -1</clus>
</clustering>
</event>
<event>
 9    2  0.3707658E-005  0.1669070E+03  0.7546771E-02  0.1209019E+00
         21   -1    0    0  501  502  0.00000000000E+00  0.00000000000E+00  0.21432475225E+02  0.21432475225E+02  0.00000000000E+00 0. -1.
          2   -1    0    0  502    0 -0.00000000000E+00 -0.00000000000E+00 -0.10354770295E+04  0.10354770295E+04  0.00000000000E+00 0. -1.
         24    2    1    2    0    0 -0.38600506446E+02 -0.71308197128E+01 -0.65180191707E+03  0.65806407729E+03  0.81619501535E+02 0.  0.
         23    2    1    2    0    0 -0.16746261302E+02 -0.11711318011E+02 -0.29739023791E+03  0.31152919441E+03  0.90509077622E+02 0.  0.
        -11    1    3    3    0    0  0.22254722352E+02  0.15766084634E+01 -0.82877324380E+02  0.85827788376E+02  0.00000000000E+00 0.  1.
         12    1    3    3    0    0 -0.60855228798E+02 -0.87074281762E+01 -0.56892459269E+03  0.57223628891E+03  0.00000000000E+00 0. -1.
        -13    1    4    4    0    0  0.50578255521E+01  0.37863936809E+02 -0.10850617508E+03  0.11503412250E+03  0.00000000000E+00 0.  1.
         13    1    4    4    0    0 -0.21804086854E+02 -0.49575254820E+02 -0.18888406283E+03  0.19649507191E+03  0.00000000000E+00 0. -1.
          1    1    1    2  501    0  0.55346767748E+02  0.18842137724E+02 -0.64852399279E+02  0.87316233007E+02  0.00000000000E+00 0. -1.
<scales pt_clust_5="13000.00000" pt_clust_6="13000.00000" pt_clust_7="13000.00000" pt_clust_8="13000.00000" pt_clust_9="13000.00000"></scales>
<clustering>
<clus scale="   81.620">  5  6 -1 -1</clus>
<clus scale="   90.509">  7  8 -1 -1</clus>
<clus scale="   58.466">  7  9 -1 -1</clus>
<clus scale="   90.568">  2  5  1 -1</clus>
<clus scale="  166.907">  1  5  2 -1</clus>
</clustering>
</event>
<event>
 9    2  0.3707658E-005  0.2385445E+03  0.7546771E-02  0.1138082E+00
          4   -1    0    0  502    0 -0.00000000000E+00  0.00000000000E+00  0.33511219569E+03  0.33511219569E+03  0.00000000000E+00 0. -1.
         21   -1    0    0  501  502  0.00000000000E+00 -0.00000000000E+00 -0.15627872410E+03  0.15627872410E+03  0.00000000000E+00 0.  1.
         24    2    1    2    0    0  0.89487406571E+02  0.99959112450E+02 -0.47134424543E+02  0.16281068235E+03  0.79283316109E+02 0.  0.
         23    2    1    2    0    0 -0.31735417141E+01  0.10021865057E+02  0.13086765575E+03  0.15949459523E+03  0.90563090937E+02 0.  0.
        -13    1    3    3    0    0  0.82435069898E+02  0.90362496919E+02 -0.67138770177E+02  0.13952969598E+03  0.00000000000E+00 0.  1.
         14    1    3    3    0    0  0.70523366724E+01  0.95966155308E+01  0.20004345634E+02  0.23280986371E+02  0.00000000000E+00 0. -1.
        -11    1    4    4    0    0 -0.32993765293E+02  0.37969199015E+02  0.71999578154E+02  0.87830449597E+02  0.00000000000E+00 0. -1.
         11    1    4    4    0    0  0.29820223579E+02 -0.27947333958E+02  0.58868077595E+02  0.71664145633E+02  0.00000000000E+00 0.  1.
          3    1    1    2  501    0 -0.86313864857E+02 -0.10998097751E+03  0.95100240387E+02  0.16908564221E+03  0.00000000000E+00 0. -1.
<scales pt_clust_5="13000.00000" pt_clust_6="13000.00000" pt_clust_7="13000.00000" pt_clust_8="13000.00000" pt_clust_9="13000.00000"></scales>
<clustering>
<clus scale="   79.283">  5  6 -1 -1</clus>
<clus scale="   90.563">  7  8 -1 -1</clus>
<clus scale="  139.807">  7  9 -1 -1</clus>
<clus scale="  155.839">  1  5  2 -1</clus>
<clus scale="  238.545">  2  5  1 -1</clus>
</clustering>
</event>
<event>
 9    2  0.3707658E-005  0.2397272E+03  0.7546771E-02  0.1151089E+00
          2   -1    0    0  502    0 -0.00000000000E+00  0.00000000000E+00  0.73259971886E+02  0.73259971886E+02  0.00000000000E+00 0. -1.
         21   -1    0    0  501  502  0.00000000000E+00 -0.00000000000E+00 -0.44419457211E+03  0.44419457211E+03  0.00000000000E+00 0.  1.
         24    2    1    2    0    0 -0.64786981567E+02 -0.46271402068E+02 -0.69136951243E+02  0.13203146746E+03  0.79460649021E+02 0.  0.
         23    2    1    2    0    0  0.41131765161E+02  0.75062371473E+02 -0.32051987810E+03  0.34372162518E+03  0.89918750239E+02 0.  0.
        -13    1    3    3    0    0 -0.15839227595E+02 -0.56341173717E+02 -0.19738539511E+02  0.61764220457E+02  0.00000000000E+00 0.  1.
         14    1    3    3    0    0 -0.48947753972E+02  0.10069771649E+02 -0.49398411731E+02  0.70267247004E+02  0.00000000000E+00 0. -1.
        -11    1    4    4    0    0  0.69506364644E+02  0.45878018991E+02 -0.20704541919E+03  0.22316749979E+03  0.00000000000E+00 0.  1.
         11    1    4    4    0    0 -0.28374599483E+02  0.29184352482E+02 -0.11347445890E+03  0.12055412539E+03  0.00000000000E+00 0. -1.
          1    1    1    2  501    0  0.23655216406E+02 -0.28790969406E+02  0.18722229112E+02  0.41701451359E+02  0.00000000000E+00 0. -1.
<scales pt_clust_5="13000.00000" pt_clust_6="13000.00000" pt_clust_7="13000.00000" pt_clust_8="13000.00000" pt_clust_9="13000.00000"></scales>
<clustering>
<clus scale="   79.461">  5  6 -1 -1</clus>
<clus scale="   89.919">  7  8 -1 -1</clus>
<clus scale="   37.262">  7  9 -1 -1</clus>
<clus scale="  112.483">  1  5  2 -1</clus>
<clus scale="  239.727">  2  5  1 -1</clus>
</clustering>
</event>
<event>
 9    2  0.3707658E-005  0.3936244E+03  0.7546771E-02  0.1094153E+00
         21   -1    0    0  501  502  0.00000000000E+00  0.00000000000E+00  0.34395295078E+03  0.34395295078E+03  0.00000000000E+00 0.  1.
          2   -1    0    0  502    0 -0.00000000000E+00 -0.00000000000E+00 -0.18632393339E+03  0.18632393339E+03  0.00000000000E+00 0. -1.
         24    2    1    2    0    0 -0.30679916202E+02 -0.61975182933E+02 -0.34326862323E+01  0.10497572093E+03  0.78904613890E+02 0.  0.
         23    2    1    2    0    0 -0.51761020502E+02  0.13107382575E+03  0.23941853439E+03  0.29221876992E+03  0.90614699929E+02 0.  0.
        -11    1    3    3    0    0  0.11008586185E+01 -0.71596807900E+02 -0.45697241421E+01  0.71750938460E+02  0.00000000000E+00 0.  1.
         12    1    3    3    0    0 -0.31780774821E+02  0.96216249672E+01  0.11370379098E+01  0.33224782474E+02  0.00000000000E+00 0. -1.
        -13    1    4    4    0    0  0.22974280578E+02  0.41309920987E+02  0.97975268998E+02  0.10878180213E+03  0.00000000000E+00 0. -1.
         13    1    4    4    0    0 -0.74735301079E+02  0.89763904764E+02  0.14144326539E+03  0.18343696778E+03  0.00000000000E+00 0.  1.
          1    1    1    2  501    0  0.82440936704E+02 -0.69098642819E+02 -0.78356830768E+02  0.13308239332E+03  0.00000000000E+00 0. -1.
<scales pt_clust_5="13000.00000" pt_clust_6="13000.00000" pt_clust_7="13000.00000" pt_clust_8="13000.00000" pt_clust_9="13000.00000"></scales>
<clustering>
<clus scale="   78.905">  5  6 -1 -1</clus>
<clus scale="   90.615">  7  8 -1 -1</clus>
<clus scale="  104.920">  2  5  1 -1</clus>
<clus scale="  132.056">  7  9 -1 -1</clus>
<clus scale="  393.624">  1  5  2 -1</clus>
</clustering>
</event>
<event>
 9    2  0.3707658E-005  0.4499736E+03  0.7546771E-02  0.1077617E+00
          2   -1    0    0  502    0 -0.00000000000E+00  0.00000000000E+00  0.30642651731E+03  0.30642651731E+03  0.00000000000E+00 0. -1.
         21   -1    0    0  501  502  0.00000000000E+00 -0.00000000000E+00 -0.26653088985E+03  0.26653088985E+03  0.00000000000E+00 0.  1.
         24    2    1    2    0    0  0.14281892106E+02  0.72622094183E+02  0.56104917020E+02  0.12269192139E+03  0.80172344704E+02 0.  0.
         23    2    1    2    0    0 -0.86293502833E+02 -0.96357922913E+02 -0.18988479033E+03  0.26076023199E+03  0.12332172172E+03 0.  0.
        -13    1    3    3    0    0  0.21676554153E+02 -0.43990104034E+01 -0.66179446858E+01  0.23087258052E+02  0.00000000000E+00 0.  1.
         14    1    3    3    0    0 -0.73946620474E+01  0.77021104586E+02  0.62722861706E+02  0.99604663340E+02  0.00000000000E+00 0. -1.
        -11    1    4    4    0    0 -0.10518347103E+03 -0.67485145304E+02 -0.18858243944E+03  0.22623249961E+03  0.00000000000E+00 0.  1.
         11    1    4    4    0    0  0.18889968194E+02 -0.28872777609E+02 -0.13023508858E+01  0.34527732377E+02  0.00000000000E+00 0. -1.
          1    1    1    2  501    0  0.72011610727E+02  0.23735828730E+02  0.17367550077E+03  0.18950525378E+03  0.00000000000E+00 0. -1.
<scales pt_clust_5="13000.00000" pt_clust_6="13000.00000" pt_clust_7="13000.00000" pt_clust_8="13000.00000" pt_clust_9="13000.00000"></scales>
<clustering>
<clus scale="   80.172">  5  6 -1 -1</clus>
<clus scale="  109.113">  1  5  2 -1</clus>
<clus scale="  123.322">  7  8 -1 -1</clus>
<clus scale="  119.121">  7  9 -1 -1</clus>
<clus scale="  449.974">  2  5  1 -1</clus>
</clustering>
</event>
<event>
 9    2  0.3707658E-005  0.2496593E+03  0.7546771E-02  0.1117838E+00
          2   -1    0    0  502    0 -0.00000000000E+00  0.00000000000E+00  0.55751797201E+03  0.55751797201E+03  0.00000000000E+00 0. -1.
         21   -1    0    0  501  502  0.00000000000E+00 -0.00000000000E+00 -0.10424606012E+03  0.10424606012E+03  0.00000000000E+00 0.  1.
         24    2    1    2    0    0  0.99895055470E+01  0.20905216776E+03  0.15268539508E+03  0.27101855434E+03  0.79596657346E+02 0.  0.
         23    2    1    2    0    0 -0.81722752482E+01 -0.13057230067E+03  0.14437701120E+03  0.21592041806E+03  0.93064460390E+02 0.  0.
        -11    1    3    3    0    0 -0.33971880410E+02  0.11492122906E+03  0.87310800640E+02  0.14827054143E+03  0.00000000000E+00 0.  1.
         12    1    3    3    0    0  0.43961385957E+02  0.94130938700E+02  0.65374594435E+02  0.12274801291E+03  0.00000000000E+00 0. -1.
        -13    1    4    4    0    0  0.32985829935E+02 -0.53286814333E+02  0.24094526082E+02  0.67142354333E+02  0.00000000000E+00 0.  1.
         13    1    4    4    0    0 -0.41158105183E+02 -0.77285486337E+02  0.12028248512E+03  0.14877806373E+03  0.00000000000E+00 0. -1.
          1    1    1    2  501    0 -0.18172302987E+01 -0.78479867090E+02  0.15620950562E+03  0.17482505973E+03  0.00000000000E+00 0. -1.
<scales pt_clust_5="13000.00000" pt_clust_6="13000.00000" pt_clust_7="13000.00000" pt_clust_8="13000.00000" pt_clust_9="13000.00000"></scales>
<clustering>
<clus scale="   79.597">  5  6 -1 -1</clus>
<clus scale="   93.064">  7  8 -1 -1</clus>
<clus scale="   78.501">  7  9 -1 -1</clus>
<clus scale="  223.916">  1  5  2 -1</clus>
<clus scale="  249.659">  2  5  1 -1</clus>
</clustering>
</event>
<event>
 9    2  0.3707658E-005  0.1725995E+03  0.7546771E-02  0.1208095E+00
         -1   -1    0    0    0  501 -0.00000000000E+00  0.00000000000E+00  0.23352457840E+03  0.23352457840E+03  0.00000000000E+00 0.  1.
         21   -1    0    0  501  502  0.00000000000E+00 -0.00000000000E+00 -0.14761175367E+03  0.14761175367E+03  0.00000000000E+00 0.  1.
         24    2    1    2    0    0  0.86113793877E+01 -0.21173415119E+02  0.16979612474E+03  0.18923271473E+03  0.80348161052E+02 0.  0.
         23    2    1    2    0    0  0.43238930342E+02  0.28969773820E+02 -0.44213519168E+02  0.12615462998E+03  0.10607215702E+03 0.  0.
        -13    1    3    3    0    0  0.42790194539E+02 -0.24061115127E+02  0.10537843981E+03  0.11625211218E+03  0.00000000000E+00 0.  1.
         14    1    3    3    0    0 -0.34178815152E+02  0.28877000080E+01  0.64417684927E+02  0.72980602545E+02  0.00000000000E+00 0. -1.
        -11    1    4    4    0    0 -0.32125615187E+01  0.55515328914E+02  0.17278029336E+01  0.55635039309E+02  0.00000000000E+00 0. -1.
         11    1    4    4    0    0  0.46451491861E+02 -0.26545555094E+02 -0.45941322102E+02  0.70519590667E+02  0.00000000000E+00 0.  1.
         -2    1    1    2    0  502 -0.51850309730E+02 -0.77963587005E+01 -0.39669780840E+02  0.65748987368E+02  0.00000000000E+00 0.  1.
<scales pt_clust_5="13000.00000" pt_clust_6="13000.00000" pt_clust_7="13000.00000" pt_clust_8="13000.00000" pt_clust_9="13000.00000"></scales>
<clustering>
<clus scale="   80.348">  5  6 -1 -1</clus>
<clus scale="   83.536">  1  5  2 -1</clus>
<clus scale="  106.072">  7  8 -1 -1</clus>
<clus scale="   51.418">  7  9 -1 -1</clus>
<clus scale="  172.600">  2  5  1 -1</clus>
</clustering>
</event>
<event>
 9    2  0.3707658E-005  0.2606367E+03  0.7546771E-02  0.1119315E+00
         21   -1    0    0  501  502  0.00000000000E+00  0.00000000000E+00  0.28643358462E+03  0.28643358462E+03  0.00000000000E+00 0. -1.
          2   -1    0    0  502    0 -0.00000000000E+00 -0.00000000000E+00 -0.21210035795E+03  0.21210035795E+03  0.00000000000E+00 0. -1.
         24    2    1    2    0    0  0.14409723411E+03  0.88150028442E+02  0.13267937893E+03  0.23144635001E+03  0.86192545763E+02 0.  0.
         23    2    1    2    0    0  0.52104469598E+01 -0.59609366749E+02 -0.19098554937E+02  0.11009164709E+03  0.90415654600E+02 0.  0.
        -13    1    3    3    0    0  0.97098203996E+02  0.34442620309E+02  0.31699848329E+02  0.10779255863E+03  0.00000000000E+00 0.  1.
         14    1    3    3    0    0  0.46999030118E+02  0.53707408134E+02  0.10097953060E+03  0.12365379137E+03  0.00000000000E+00 0. -1.
        -13    1    4    4    0    0 -0.31949881468E+02  0.40555499082E+01 -0.16834062523E+02  0.36340446776E+02  0.00000000000E+00 0.  1.
         13    1    4    4    0    0  0.37160328428E+02 -0.63664916657E+02 -0.22644924146E+01  0.73751200314E+02  0.00000000000E+00 0. -1.
          1    1    1    2  501    0 -0.14930768107E+03 -0.28540661693E+02 -0.39247597328E+02  0.15699594547E+03  0.00000000000E+00 0. -1.
<scales pt_clust_5="13000.00000" pt_clust_6="13000.00000" pt_clust_7="13000.00000" pt_clust_8="13000.00000" pt_clust_9="13000.00000"></scales>
<clustering>
<clus scale="   86.193">  5  6 -1 -1</clus>
<clus scale="   90.416">  7  8 -1 -1</clus>
<clus scale="  152.011">  7  9 -1 -1</clus>
<clus scale="  189.641">  2  5  1 -1</clus>
<clus scale="  260.637">  1  5  2 -1</clus>
</clustering>
</event>
<event>
 9    2  0.3707658E-005  0.2259110E+03  0.7546771E-02  0.1156686E+00
          2   -1    0    0  502    0 -0.00000000000E+00  0.00000000000E+00  0.12728213930E+04  0.12728213930E+04  0.00000000000E+00 0. -1.
         21   -1    0    0  501  502  0.00000000000E+00 -0.00000000000E+00 -0.24071565656E+02  0.24071565656E+02  0.00000000000E+00 0. -1.
         24    2    1    2    0    0 -0.18008335663E+02 -0.77755240572E+02  0.55198983612E+03  0.56442435239E+03  0.86671176320E+02 0.  0.
         23    2    1    2    0    0 -0.14414303252E+02 -0.35256689983E+02  0.22441184480E+03  0.24570819765E+03  0.92525866539E+02 0.  0.
        -11    1    3    3    0    0  0.34514543150E+02 -0.38882678201E+02  0.21936710120E+03  0.22544409827E+03  0.00000000000E+00 0.  1.
         12    1    3    3    0    0 -0.52522878812E+02 -0.38872562371E+02  0.33262273492E+03  0.33898025413E+03  0.00000000000E+00 0. -1.
        -11    1    4    4    0    0 -0.32138277956E+02 -0.52222217356E+02  0.20627808087E+03  0.21519915321E+03  0.00000000000E+00 0.  1.
         11    1    4    4    0    0  0.17723974703E+02  0.16965527373E+02  0.18133763934E+02  0.30509044442E+02  0.00000000000E+00 0. -1.
          1    1    1    2  501    0  0.32422638915E+02  0.11301193056E+03  0.47234814639E+03  0.48676040858E+03  0.00000000000E+00 0. -1.
<scales pt_clust_5="13000.00000" pt_clust_6="13000.00000" pt_clust_7="13000.00000" pt_clust_8="13000.00000" pt_clust_9="13000.00000"></scales>
<clustering>
<clus scale="   86.671">  5  6 -1 -1</clus>
<clus scale="   92.526">  7  8 -1 -1</clus>
<clus scale="  117.571">  7  9 -1 -1</clus>
<clus scale="  117.822">  1  5  2 -1</clus>
<clus scale="  225.911">  2  5  1 -1</clus>
</clustering>
</event>
<event>
 9    2  0.3707658E-005  0.8370935E+03  0.7546771E-02  0.9957987E-01
         21   -1    0    0  501  502  0.00000000000E+00  0.00000000000E+00  0.25509712656E+03  0.25509712656E+03  0.00000000000E+00 0. -1.
          2   -1    0    0  502    0 -0.00000000000E+00 -0.00000000000E+00 -0.11968584791E+04  0.11968584791E+04  0.00000000000E+00 0. -1.
         24    2    1    2    0    0  0.14372429730E+03 -0.88713480370E+02 -0.43505086798E+03  0.47344599511E+03  0.79718864281E+02 0.  0.
         23    2    1    2    0    0  0.27366648733E+03  0.25781982472E+03 -0.22923020229E+03  0.44954143584E+03  0.90424601701E+02 0.  0.
        -13    1    3    3    0    0  0.70050178375E+02 -0.63057844207E+02 -0.14385731635E+03  0.17198327440E+03  0.00000000000E+00 0.  1.
         14    1    3    3    0    0  0.73674118927E+02 -0.25655636163E+02 -0.29119355163E+03  0.30146272071E+03  0.00000000000E+00 0. -1.
        -11    1    4    4    0    0  0.16754493757E+02  0.58147782301E+02 -0.25674967903E+02  0.65734934581E+02  0.00000000000E+00 0.  1.
         11    1    4    4    0    0  0.25691199357E+03  0.19967204242E+03 -0.20355523439E+03  0.38380650126E+03  0.00000000000E+00 0. -1.
          1    1    1    2  501    0 -0.41739078463E+03 -0.16910634435E+03 -0.27748028224E+03  0.52896817468E+03  0.00000000000E+00 0. -1.
<scales pt_clust_5="13000.00000" pt_clust_6="13000.00000" pt_clust_7="13000.00000" pt_clust_8="13000.00000" pt_clust_9="13000.00000"></scales>
<clustering>
<clus scale="   79.719">  5  6 -1 -1</clus>
<clus scale="   90.425">  7  8 -1 -1</clus>
<clus scale="  186.767">  2  5  1 -1</clus>
<clus scale="  402.949">  7  9 -1 -1</clus>
<clus scale="  837.094">  1  5  2 -1</clus>
</clustering>
</event>
<event>
 9    2  0.3707658E-005  0.6183119E+03  0.7546771E-02  0.1048446E+00
          2   -1    0    0  502    0 -0.00000000000E+00  0.00000000000E+00  0.10768712898E+04  0.10768712898E+04  0.00000000000E+00 0. -1.
         21   -1    0    0  501  502  0.00000000000E+00 -0.00000000000E+00 -0.11804157252E+03  0.11804157252E+03  0.00000000000E+00 0. -1.
         24    2    1    2    0    0  0.13783495412E+02 -0.24063097613E+02  0.12243283426E+03  0.15478336944E+03  0.90548744541E+02 0.  0.
         23    2    1    2    0    0  0.27219552791E+03  0.36288482477E+02  0.61069861062E+03  0.67561176770E+03  0.89951143812E+02 0.  0.
        -11    1    3    3    0    0  0.77309050489E+01 -0.37919895906E+02  0.82064293912E+01  0.39560471203E+02  0.00000000000E+00 0.  1.
         12    1    3    3    0    0  0.60525903634E+01  0.13856798293E+02  0.11422640487E+03  0.11522289824E+03  0.00000000000E+00 0. -1.
        -13    1    4    4    0    0  0.13805966432E+03 -0.18040945409E+02  0.23705128645E+03  0.27491682203E+03  0.00000000000E+00 0. -1.
         13    1    4    4    0    0  0.13413586358E+03  0.54329427886E+02  0.37364732416E+03  0.40069494567E+03  0.00000000000E+00 0.  1.
          1    1    1    2  501    0 -0.28597902332E+03 -0.12225384864E+02  0.22569827242E+03  0.36451772520E+03  0.00000000000E+00 0. -1.
<scales pt_clust_5="13000.00000" pt_clust_6="13000.00000" pt_clust_7="13000.00000" pt_clust_8="13000.00000" pt_clust_9="13000.00000"></scales>
<clustering>
<clus scale="   89.951">  7  8 -1 -1</clus>
<clus scale="   90.549">  5  6 -1 -1</clus>
<clus scale="   94.700">  1  5  2 -1</clus>
<clus scale="  282.339">  7  9 -1 -1</clus>
<clus scale="  618.312">  2  5  1 -1</clus>
</clustering>
</event>
<event>
 9    2  0.3707658E-005  0.3160465E+03  0.7546771E-02  0.1118049E+00
         21   -1    0    0  501  502  0.00000000000E+00  0.00000000000E+00  0.43956159098E+02  0.43956159098E+02  0.00000000000E+00 0. -1.
          2   -1    0    0  502    0 -0.00000000000E+00 -0.00000000000E+00 -0.14903005159E+04  0.14903005159E+04  0.00000000000E+00 0. -1.
         24    2    1    2    0    0  0.65837577788E+02 -0.31278885805E+02 -0.87038953728E+03  0.87728687169E+03  0.82105744557E+02 0.  0.
         23    2    1    2    0    0  0.51499942230E+02  0.12651096213E+03 -0.28448201188E+03  0.32865038634E+03  0.91781227753E+02 0.  0.
        -13    1    3    3    0    0  0.46096656384E+02 -0.20673930440E+02 -0.19225063511E+03  0.19877781524E+03  0.00000000000E+00 0.  1.
         14    1    3    3    0    0  0.19740921404E+02 -0.10604955365E+02 -0.67813890217E+03  0.67850905646E+03  0.00000000000E+00 0. -1.
        -11    1    4    4    0    0  0.38611047418E+00  0.10403916508E+03 -0.14548541104E+03  0.17885832879E+03  0.00000000000E+00 0. -1.
         11    1    4    4    0    0  0.51113831756E+02  0.22471797049E+02 -0.13899660084E+03  0.14979205755E+03  0.00000000000E+00 0.  1.
          1    1    1    2  501    0 -0.11733752002E+03 -0.95232076324E+02 -0.29147280765E+03  0.32831941697E+03  0.00000000000E+00 0. -1.
<scales pt_clust_5="13000.00000" pt_clust_6="13000.00000" pt_clust_7="13000.00000" pt_clust_8="13000.00000" pt_clust_9="13000.00000"></scales>
<clustering>
<clus scale="   82.106">  5  6 -1 -1</clus>
<clus scale="   91.781">  7  8 -1 -1</clus>
<clus scale="  109.792">  2  5  1 -1</clus>
<clus scale="  139.312">  7  9 -1 -1</clus>
<clus scale="  316.046">  1  5  2 -1</clus>
</clustering>
</event>
<event>
 9    2  0.3707658E-005  0.1826972E+03  0.7546771E-02  0.1197231E+00
         21   -1    0    0  501  502  0.00000000000E+00  0.00000000000E+00  0.42426571629E+02  0.42426571629E+02  0.00000000000E+00 0. -1.
          2   -1    0    0  502    0 -0.00000000000E+00 -0.00000000000E+00 -0.54132863686E+03  0.54132863686E+03  0.00000000000E+00 0. -1.
         24    2    1    2    0    0 -0.33307753025E+02 -0.19014595583E+02 -0.57483986866E+02  0.10602285297E+03  0.80408179621E+02 0.  0.
         23    2    1    2    0    0  0.80137992302E+01 -0.49555851278E+02 -0.27228298079E+03  0.29348151695E+03  0.97331268291E+02 0.  0.
        -13    1    3    3    0    0 -0.40546488258E+02  0.67317951036E+01 -0.66176001034E+02  0.77901205949E+02  0.00000000000E+00 0.  1.
         14    1    3    3    0    0  0.72387352327E+01 -0.25746390686E+02  0.86920141681E+01  0.28121647026E+02  0.00000000000E+00 0. -1.
        -11    1    4    4    0    0 -0.28742071828E+02  0.16353150313E+02 -0.10197315032E+03  0.10720100562E+03  0.00000000000E+00 0.  1.
         11    1    4    4    0    0  0.36755871058E+02 -0.65909001591E+02 -0.17030983046E+03  0.18628051133E+03  0.00000000000E+00 0. -1.
          1    1    1    2  501    0  0.25293953795E+02  0.68570446861E+02 -0.16913509757E+03  0.18425083857E+03  0.00000000000E+00 0. -1.
<scales pt_clust_5="13000.00000" pt_clust_6="13000.00000" pt_clust_7="13000.00000" pt_clust_8="13000.00000" pt_clust_9="13000.00000"></scales>
<clustering>
<clus scale="   80.408">  5  6 -1 -1</clus>
<clus scale="   89.087">  2  5  1 -1</clus>
<clus scale="   97.331">  7  8 -1 -1</clus>
<clus scale="   62.520">  7  9 -1 -1</clus>
<clus scale="  182.697">  1  5  2 -1</clus>
</clustering>
</event>
<event>
 9    2  0.3707658E-005  0.3725425E+03  0.7546771E-02  0.1094357E+00
          2   -1    0    0  502    0 -0.00000000000E+00  0.00000000000E+00  0.89841570260E+03  0.89841570260E+03  0.00000000000E+00 0. -1.
         21   -1    0    0  501  502  0.00000000000E+00 -0.00000000000E+00 -0.68679413462E+02  0.68679413462E+02  0.00000000000E+00 0. -1.
         24    2    1    2    0    0 -0.54529397167E+02 -0.74697495318E+02  0.17849085633E+03  0.21682281573E+03  0.81240240430E+02 0.  0.
         23    2    1    2    0    0 -0.37694304490E+02 -0.84107593925E+02  0.48455682672E+03  0.50226149630E+03  0.94743571806E+02 0.  0.
        -11    1    3    3    0    0 -0.48554083230E+01 -0.73213734712E+02  0.10416299971E+03  0.12741175946E+03  0.00000000000E+00 0.  1.
         12    1    3    3    0    0 -0.49673988844E+02 -0.14837606060E+01  0.74327856618E+02  0.89411056266E+02  0.00000000000E+00 0. -1.
        -13    1    4    4    0    0 -0.68746423369E+02 -0.45868524051E+02  0.28764492495E+03  0.29928179877E+03  0.00000000000E+00 0.  1.
         13    1    4    4    0    0  0.31052118879E+02 -0.38239069874E+02  0.19691190177E+03  0.20297969753E+03  0.00000000000E+00 0. -1.
          1    1    1    2  501    0  0.92223701657E+02  0.15880508924E+03  0.16668860609E+03  0.24801080403E+03  0.00000000000E+00 0. -1.
<scales pt_clust_5="13000.00000" pt_clust_6="13000.00000" pt_clust_7="13000.00000" pt_clust_8="13000.00000" pt_clust_9="13000.00000"></scales>
<clustering>
<clus scale="   81.240">  5  6 -1 -1</clus>
<clus scale="   94.744">  7  8 -1 -1</clus>
<clus scale="  123.098">  1  5  2 -1</clus>
<clus scale="  156.452">  7  9 -1 -1</clus>
<clus scale="  372.542">  2  5  1 -1</clus>
</clustering>
</event>
<event>
 9    2  0.3707658E-005  0.3451215E+03  0.7546771E-02  0.1114302E+00
         21   -1    0    0  501  502  0.00000000000E+00  0.00000000000E+00  0.72345676227E+02  0.72345676227E+02  0.00000000000E+00 0. -1.
          2   -1    0    0  502    0 -0.00000000000E+00 -0.00000000000E+00 -0.66229449224E+03  0.66229449224E+03  0.00000000000E+00 0. -1.
         24    2    1    2    0    0  0.42717920659E+02 -0.16087405449E+02 -0.12639593273E+03  0.15672137184E+03  0.80635173585E+02 0.  0.
         23    2    1    2    0    0 -0.10819693265E+03  0.44269633687E+02 -0.48201539003E+03  0.50428046996E+03  0.91069091619E+02 0.  0.
        -13    1    3    3    0    0  0.39831859594E+02 -0.44829510743E+02 -0.10446021052E+03  0.12044997988E+03  0.00000000000E+00 0.  1.
         14    1    3    3    0    0  0.28860610646E+01  0.28742105293E+02 -0.21935722216E+02  0.36271391955E+02  0.00000000000E+00 0. -1.
        -11    1    4    4    0    0 -0.92333945889E+02  0.68947709245E+02 -0.33218949538E+03  0.35160944955E+03  0.00000000000E+00 0. -1.
         11    1    4    4    0    0 -0.15862986757E+02 -0.24678075558E+02 -0.14982589466E+03  0.15267102041E+03  0.00000000000E+00 0.  1.
          1    1    1    2  501    0  0.65479011987E+02 -0.28182228238E+02  0.18462506759E+02  0.73638326672E+02  0.00000000000E+00 0. -1.
<scales pt_clust_5="13000.00000" pt_clust_6="13000.00000" pt_clust_7="13000.00000" pt_clust_8="13000.00000" pt_clust_9="13000.00000"></scales>
<clustering>
<clus scale="   80.635">  5  6 -1 -1</clus>
<clus scale="   91.069">  7  8 -1 -1</clus>
<clus scale="   71.286">  7  9 -1 -1</clus>
<clus scale="   92.659">  2  5  1 -1</clus>
<clus scale="  345.122">  1  5  2 -1</clus>
</clustering>
</event>
<event>
 9    2  0.3707658E-005  0.1469397E+03  0.7546771E-02  0.1224347E+00
          2   -1    0    0  502    0 -0.00000000000E+00  0.00000000000E+00  0.26654362578E+03  0.26654362578E+03  0.00000000000E+00 0. -1.
         21   -1    0    0  501  502  0.00000000000E+00 -0.00000000000E+00 -0.12289176724E+03  0.12289176724E+03  0.00000000000E+00 0.  1.
         24    2    1    2    0    0 -0.27866877841E+02  0.32145072127E+02  0.20794182062E+03  0.22904692645E+03  0.86097765425E+02 0.  0.
         23    2    1    2    0    0 -0.14760265659E+01 -0.46387531988E+02 -0.73450351002E+02  0.12650976489E+03  0.91955341178E+02 0.  0.
        -11    1    3    3    0    0  0.17127527791E+02 -0.18933535290E+02  0.36114418547E+02  0.44227617998E+02  0.00000000000E+00 0.  1.
         12    1    3    3    0    0 -0.44994405632E+02  0.51078607417E+02  0.17182740207E+03  0.18481930845E+03  0.00000000000E+00 0. -1.
        -13    1    4    4    0    0 -0.23419214313E+02 -0.56231314215E+01  0.13785337760E+02  0.27750941303E+02  0.00000000000E+00 0. -1.
         13    1    4    4    0    0  0.21943187747E+02 -0.40764400566E+02 -0.87235688762E+02  0.98758823585E+02  0.00000000000E+00 0.  1.
          1    1    1    2  501    0  0.29342904407E+02  0.14242459861E+02  0.91603889231E+01  0.33878701674E+02  0.00000000000E+00 0. -1.
<scales pt_clust_5="13000.00000" pt_clust_6="13000.00000" pt_clust_7="13000.00000" pt_clust_8="13000.00000" pt_clust_9="13000.00000"></scales>
<clustering>
<clus scale="   86.098">  5  6 -1 -1</clus>
<clus scale="   91.955">  7  8 -1 -1</clus>
<clus scale="   32.617">  7  9 -1 -1</clus>
<clus scale="   96.035">  1  5  2 -1</clus>
<clus scale="  146.940">  2  5  1 -1</clus>
</clustering>
</event>
<event>
 9    2  0.3707658E-005  0.1500500E+03  0.7546771E-02  0.1223298E+00
          2   -1    0    0  502    0 -0.00000000000E+00  0.00000000000E+00  0.46060692300E+03  0.46060692300E+03  0.00000000000E+00 0. -1.
         21   -1    0    0  501  502  0.00000000000E+00 -0.00000000000E+00 -0.47655414772E+02  0.47655414772E+02  0.00000000000E+00 0. -1.
         24    2    1    2    0    0 -0.10611642892E+02  0.42979547713E+02  0.31706140016E+03  0.33018951820E+03  0.80853806145E+02 0.  0.
         23    2    1    2    0    0  0.26640319537E+02 -0.64407709255E+01  0.99144237298E+02  0.13804045715E+03  0.92056492801E+02 0.  0.
        -13    1    3    3    0    0  0.32785965433E+02  0.24830120106E+02  0.10072224787E+03  0.10879533818E+03  0.00000000000E+00 0.  1.
         14    1    3    3    0    0 -0.43397608324E+02  0.18149427607E+02  0.21633915229E+03  0.22139418002E+03  0.00000000000E+00 0. -1.
        -13    1    4    4    0    0 -0.27277632688E+02 -0.18900706999E+02  0.12975923637E+02  0.35632577291E+02  0.00000000000E+00 0.  1.
         13    1    4    4    0    0  0.53917952226E+02  0.12459936073E+02  0.86168313661E+02  0.10240787986E+03  0.00000000000E+00 0. -1.
          1    1    1    2  501    0 -0.16028676646E+02 -0.36538776788E+02 -0.32541292293E+01  0.40032362424E+02  0.00000000000E+00 0. -1.
<scales pt_clust_5="13000.00000" pt_clust_6="13000.00000" pt_clust_7="13000.00000" pt_clust_8="13000.00000" pt_clust_9="13000.00000"></scales>
<clustering>
<clus scale="   80.854">  5  6 -1 -1</clus>
<clus scale="   92.056">  7  8 -1 -1</clus>
<clus scale="   39.900">  7  9 -1 -1</clus>
<clus scale="   92.180">  1  5  2 -1</clus>
<clus scale="  150.050">  2  5  1 -1</clus>
</clustering>
</event>
<event>
 9    2  0.3707658E-005  0.2557229E+03  0.7546771E-02  0.1135129E+00
         -1   -1    0    0    0  501 -0.00000000000E+00  0.00000000000E+00  0.49010968723E+03  0.49010968723E+03  0.00000000000E+00 0.  1.
         21   -1    0    0  501  502  0.00000000000E+00 -0.00000000000E+00 -0.31395660666E+03  0.31395660666E+03  0.00000000000E+00 0.  1.
         24    2    1    2    0    0 -0.78351321659E+02  0.79927414718E+02  0.42563665295E+03  0.44680416341E+03  0.77071907203E+02 0.  0.
         23    2    1    2    0    0  0.87136363794E+02 -0.14206581287E+03 -0.16702400711E+03  0.25363811108E+03  0.93058214902E+02 0.  0.
        -11    1    3    3    0    0 -0.80519784276E+02  0.90308759324E+02  0.41273093313E+03  0.43009990797E+03  0.00000000000E+00 0.  1.
         12    1    3    3    0    0  0.21684626168E+01 -0.10381344606E+02  0.12905719816E+02  0.16704255443E+02  0.00000000000E+00 0. -1.
        -13    1    4    4    0    0  0.86507219228E+02 -0.52252146876E+02 -0.88864743329E+02  0.13457610649E+03  0.00000000000E+00 0. -1.
         13    1    4    4    0    0  0.62914456690E+00 -0.89813665997E+02 -0.78159263777E+02  0.11906200459E+03  0.00000000000E+00 0.  1.
         -2    1    1    2    0  502 -0.87850421351E+01  0.62138398154E+02 -0.82459565278E+02  0.10362401940E+03  0.00000000000E+00 0.  1.
<scales pt_clust_5="13000.00000" pt_clust_6="13000.00000" pt_clust_7="13000.00000" pt_clust_8="13000.00000" pt_clust_9="13000.00000"></scales>
<clustering>
<clus scale="   77.072">  5  6 -1 -1</clus>
<clus scale="   93.058">  7  8 -1 -1</clus>
<clus scale="   62.756">  7  9 -1 -1</clus>
<clus scale="  135.895">  1  5  2 -1</clus>
<clus scale="  255.723">  2  5  1 -1</clus>
</clustering>
</event>
<event>
 9    2  0.3707658E-005  0.1400334E+03  0.7546771E-02  0.1236216E+00
         -1   -1    0    0    0  501 -0.00000000000E+00  0.00000000000E+00  0.83866990500E+02  0.83866990500E+02  0.00000000000E+00 0.  1.
         21   -1    0    0  501  502  0.00000000000E+00 -0.00000000000E+00 -0.19994494670E+03  0.19994494670E+03  0.00000000000E+00 0. -1.
         24    2    1    2    0    0  0.62310393081E+01 -0.31200425768E+02  0.19379610566E+02  0.88983528812E+02  0.80809694191E+02 0.  0.
         23    2    1    2    0    0  0.17309967106E+02  0.70697116406E+01 -0.13067244709E+03  0.16077891915E+03  0.91787562495E+02 0.  0.
        -13    1    3    3    0    0 -0.28419742274E+02 -0.18531214488E+02 -0.16316630184E+02  0.37647311749E+02  0.00000000000E+00 0.  1.
         14    1    3    3    0    0  0.34650781582E+02 -0.12669211280E+02  0.35696240750E+02  0.51336217064E+02  0.00000000000E+00 0. -1.
        -13    1    4    4    0    0  0.22499204379E+01  0.25101657885E+02 -0.13461746160E+03  0.13695625703E+03  0.00000000000E+00 0. -1.
         13    1    4    4    0    0  0.15060046668E+02 -0.18031946244E+02  0.39450145097E+01  0.23822662120E+02  0.00000000000E+00 0.  1.
         -2    1    1    2    0  502 -0.23541006414E+02  0.24130714127E+02 -0.47851196743E+01  0.34049489241E+02  0.00000000000E+00 0.  1.
<scales pt_clust_5="13000.00000" pt_clust_6="13000.00000" pt_clust_7="13000.00000" pt_clust_8="13000.00000" pt_clust_9="13000.00000"></scales>
<clustering>
<clus scale="   80.810">  5  6 -1 -1</clus>
<clus scale="   86.848">  1  5  2 -1</clus>
<clus scale="   91.788">  7  8 -1 -1</clus>
<clus scale="   22.262">  7  9 -1 -1</clus>
<clus scale="  140.033">  2  5  1 -1</clus>
</clustering>
</event>
<event>
 9    2  0.3707658E-005  0.1805349E+03  0.7546771E-02  0.1188518E+00
         -3   -1    0    0    0  501 -0.00000000000E+00  0.00000000000E+00  0.16680378366E+03  0.16680378366E+03  0.00000000000E+00 0.  1.
         21   -1    0    0  501  502  0.00000000000E+00 -0.00000000000E+00 -0.20749693278E+03  0.20749693278E+03  0.00000000000E+00 0.  1.
         24    2    1    2    0    0 -0.20703754336E+02 -0.74710746449E+02  0.96381986432E+02  0.14762371956E+03  0.80578745264E+02 0.  0.
         23    2    1    2    0    0  0.63020933075E+02  0.62387317791E+02 -0.68106568888E+02  0.14482790589E+03  0.92047825463E+02 0.  0.
        -11    1    3    3    0    0 -0.14385378485E+02 -0.91817761858E+02  0.74315511953E+02  0.11899678913E+03  0.00000000000E+00 0.  1.
         12    1    3    3    0    0 -0.63183758508E+01  0.17107015409E+02  0.22066474478E+02  0.28626930424E+02  0.00000000000E+00 0. -1.
        -11    1    4    4    0    0  0.66904285800E+02  0.16240673161E+01 -0.35121116324E+02  0.75579850919E+02  0.00000000000E+00 0.  1.
         11    1    4    4    0    0 -0.38833527252E+01  0.60763250475E+02 -0.32985452564E+02  0.69248054973E+02  0.00000000000E+00 0. -1.
         -4    1    1    2    0  502 -0.42317178739E+02  0.12323428658E+02 -0.68968566663E+02  0.81849091002E+02  0.00000000000E+00 0.  1.
<scales pt_clust_5="13000.00000" pt_clust_6="13000.00000" pt_clust_7="13000.00000" pt_clust_8="13000.00000" pt_clust_9="13000.00000"></scales>
<clustering>
<clus scale="   80.579">  5  6 -1 -1</clus>
<clus scale="   92.048">  7  8 -1 -1</clus>
<clus scale="   44.075">  7  9 -1 -1</clus>
<clus scale="  111.818">  1  5  2 -1</clus>
<clus scale="  180.535">  2  5  1 -1</clus>
</clustering>
</event>
<event>
 9    2  0.3707658E-005  0.7392388E+03  0.7546771E-02  0.9923044E-01
         21   -1    0    0  501  502  0.00000000000E+00  0.00000000000E+00  0.12027219201E+04  0.12027219201E+04  0.00000000000E+00 0. -1.
          4   -1    0    0  502    0 -0.00000000000E+00 -0.00000000000E+00 -0.28716391163E+03  0.28716391163E+03  0.00000000000E+00 0. -1.
         24    2    1    2    0    0  0.28325981387E+03  0.71968084453E+02 -0.12462660881E+02  0.30342202607E+03  0.80585858901E+02 0.  0.
         23    2    1    2    0    0  0.10131897307E+03  0.48573577317E+02 -0.28561015334E+02  0.14844663092E+03  0.92713234854E+02 0.  0.
        -13    1    3    3    0    0  0.68676732821E+02  0.14370492235E+02 -0.37977936070E+02  0.79783007628E+02  0.00000000000E+00 0.  1.
         14    1    3    3    0    0  0.21458308105E+03  0.57597592219E+02  0.25515275189E+02  0.22363901845E+03  0.00000000000E+00 0. -1.
        -11    1    4    4    0    0  0.92174929233E+02  0.11511835901E+01  0.30319068448E+00  0.92182616188E+02  0.00000000000E+00 0.  1.
         11    1    4    4    0    0  0.91440438356E+01  0.47422393727E+02 -0.28864206019E+02  0.56264014730E+02  0.00000000000E+00 0. -1.
          3    1    1    2  501    0 -0.38457878694E+03 -0.12054166177E+03  0.95658168465E+03  0.10380171747E+04  0.00000000000E+00 0. -1.
<scales pt_clust_5="13000.00000" pt_clust_6="13000.00000" pt_clust_7="13000.00000" pt_clust_8="13000.00000" pt_clust_9="13000.00000"></scales>
<clustering>
<clus scale="   80.586">  5  6 -1 -1</clus>
<clus scale="   92.713">  7  8 -1 -1</clus>
<clus scale="  303.166">  2  5  1 -1</clus>
<clus scale="  311.117">  7  9 -1 -1</clus>
<clus scale="  739.239">  1  5  2 -1</clus>
</clustering>
</event>
<event>
 9    2  0.3707658E-005  0.3481834E+03  0.7546771E-02  0.1084323E+00
         21   -1    0    0  501  502  0.00000000000E+00  0.00000000000E+00  0.58452143965E+02  0.58452143965E+02  0.00000000000E+00 0. -1.
          2   -1    0    0  502    0 -0.00000000000E+00 -0.00000000000E+00 -0.13005003029E+04  0.13005003029E+04  0.00000000000E+00 0. -1.
         24    2    1    2    0    0 -0.14772195718E+03  0.10083115988E+03 -0.55308721013E+03  0.58700758284E+03  0.81754148971E+02 0.  0.
         23    2    1    2    0    0 -0.58721228064E+02 -0.71616907940E+02 -0.35604920535E+03  0.37913130752E+03  0.91609757012E+02 0.  0.
        -13    1    3    3    0    0 -0.39757096299E+02 -0.92460851660E+01 -0.87466386289E+02  0.96521943243E+02  0.00000000000E+00 0.  1.
         14    1    3    3    0    0 -0.10796486088E+03  0.11007724505E+03 -0.46562082384E+03  0.49048563960E+03  0.00000000000E+00 0. -1.
        -11    1    4    4    0    0 -0.53086208403E+02 -0.92810097842E+02 -0.27177254928E+03  0.29204824657E+03  0.00000000000E+00 0. -1.
         11    1    4    4    0    0 -0.56350196614E+01  0.21193189902E+02 -0.84276656073E+02  0.87083060945E+02  0.00000000000E+00 0.  1.
          1    1    1    2  501    0  0.20644318524E+03 -0.29214251944E+02 -0.33291174350E+03  0.39281355655E+03  0.00000000000E+00 0. -1.
<scales pt_clust_5="13000.00000" pt_clust_6="13000.00000" pt_clust_7="13000.00000" pt_clust_8="13000.00000" pt_clust_9="13000.00000"></scales>
<clustering>
<clus scale="   81.754">  5  6 -1 -1</clus>
<clus scale="   91.610">  7  8 -1 -1</clus>
<clus scale="  196.653">  2  5  1 -1</clus>
<clus scale="  134.688">  7  9 -1 -1</clus>
<clus scale="  348.183">  1  5  2 -1</clus>
</clustering>
</event>
<event>
 9    2  0.3707658E-005  0.3428999E+03  0.7546771E-02  0.1100919E+00
         21   -1    0    0  501  502  0.00000000000E+00  0.00000000000E+00  0.35147843197E+02  0.35147843197E+02  0.00000000000E+00 0. -1.
          2   -1    0    0  502    0 -0.00000000000E+00 -0.00000000000E+00 -0.17272175728E+04  0.17272175728E+04  0.00000000000E+00 0. -1.
         24    2    1    2    0    0 -0.34082691467E+02  0.95499576172E+02 -0.70465306140E+03  0.71710373237E+03  0.86139579281E+02 0.  0.
         23    2    1    2    0    0  0.16777398070E+03 -0.18601019332E+02 -0.55240158041E+03  0.58371550451E+03  0.84155675055E+02 0.  0.
        -11    1    3    3    0    0  0.91456390660E+01  0.35350435786E+02 -0.78409004543E+02  0.86494323615E+02  0.00000000000E+00 0.  1.
         12    1    3    3    0    0 -0.43228330533E+02  0.60149140386E+02 -0.62624405686E+03  0.63060940875E+03  0.00000000000E+00 0. -1.
        -11    1    4    4    0    0  0.72768888856E+01 -0.21947395097E+02 -0.12583876481E+03  0.12794544147E+03  0.00000000000E+00 0.  1.
         11    1    4    4    0    0  0.16049709182E+03  0.33463757649E+01 -0.42656281560E+03  0.45577006304E+03  0.00000000000E+00 0. -1.
          1    1    1    2  501    0 -0.13369128923E+03 -0.76898556840E+02 -0.43501508781E+03  0.46154617915E+03  0.00000000000E+00 0. -1.
<scales pt_clust_5="13000.00000" pt_clust_6="13000.00000" pt_clust_7="13000.00000" pt_clust_8="13000.00000" pt_clust_9="13000.00000"></scales>
<clustering>
<clus scale="   84.156">  7  8 -1 -1</clus>
<clus scale="   86.140">  5  6 -1 -1</clus>
<clus scale="  133.048">  2  5  1 -1</clus>
<clus scale="  152.736">  7  9 -1 -1</clus>
<clus scale="  342.900">  1  5  2 -1</clus>
</clustering>
</event>
<event>
 9    2  0.3707658E-005  0.3260261E+03  0.7546771E-02  0.1123729E+00
          2   -1    0    0  502    0 -0.00000000000E+00  0.00000000000E+00  0.23217045741E+03  0.23217045741E+03  0.00000000000E+00 0. -1.
         21   -1    0    0  501  502  0.00000000000E+00 -0.00000000000E+00 -0.27544195980E+03  0.27544195980E+03  0.00000000000E+00 0. -1.
         24    2    1    2    0    0  0.34185124232E+02 -0.28270865324E+01 -0.14247445763E+03  0.16682763758E+03  0.79723738288E+02 0.  0.
         23    2    1    2    0    0  0.54874560207E+02 -0.44795860879E+02 -0.76036636902E+02  0.13852631339E+03  0.91597395379E+02 0.  0.
        -13    1    3    3    0    0  0.39295603277E+02 -0.35202150260E+02 -0.73637207689E+02  0.90585728325E+02  0.00000000000E+00 0.  1.
         14    1    3    3    0    0 -0.51104790452E+01  0.32375063728E+02 -0.68837249944E+02  0.76241909258E+02  0.00000000000E+00 0. -1.
        -13    1    4    4    0    0  0.57811378797E+02 -0.16358577272E+02 -0.30707260538E+01  0.60159686895E+02  0.00000000000E+00 0.  1.
         13    1    4    4    0    0 -0.29368185899E+01 -0.28437283607E+02 -0.72965910848E+02  0.78366626495E+02  0.00000000000E+00 0. -1.
          1    1    1    2  501    0 -0.89059684439E+02  0.47622947412E+02  0.17523959214E+03  0.20225846624E+03  0.00000000000E+00 0. -1.
<scales pt_clust_5="13000.00000" pt_clust_6="13000.00000" pt_clust_7="13000.00000" pt_clust_8="13000.00000" pt_clust_9="13000.00000"></scales>
<clustering>
<clus scale="   79.724">  5  6 -1 -1</clus>
<clus scale="   86.790">  1  5  2 -1</clus>
<clus scale="   91.597">  7  8 -1 -1</clus>
<clus scale="   74.903">  7  9 -1 -1</clus>
<clus scale="  326.026">  2  5  1 -1</clus>
</clustering>
</event>
<event>
 9    2  0.3707658E-005  0.2908825E+03  0.7546771E-02  0.1115250E+00
         21   -1    0    0  501  502  0.00000000000E+00  0.00000000000E+00  0.17330572294E+03  0.17330572294E+03  0.00000000000E+00 0.  1.
          4   -1    0    0  502    0 -0.00000000000E+00 -0.00000000000E+00 -0.32578089371E+03  0.32578089371E+03  0.00000000000E+00 0. -1.
         24    2    1    2    0    0 -0.12724497128E+03 -0.14563689932E+02  0.32257286501E+02  0.15450180619E+03  0.80167897583E+02 0.  0.
         23    2    1    2    0    0  0.68714205005E+02 -0.10600204868E+03 -0.12438633444E+03  0.19760317055E+03  0.87275291584E+02 0.  0.
        -13    1    3    3    0    0 -0.88895192200E+02  0.26334257755E+02  0.33056376792E+02  0.98430545942E+02  0.00000000000E+00 0.  1.
         14    1    3    3    0    0 -0.38349779084E+02 -0.40897947687E+02 -0.79909029119E+00  0.56071260251E+02  0.00000000000E+00 0. -1.
        -13    1    4    4    0    0 -0.10165151665E+02 -0.62771543385E+02 -0.52161609701E+02  0.82246157928E+02  0.00000000000E+00 0.  1.
         13    1    4    4    0    0  0.78879356671E+02 -0.43230505293E+02 -0.72224724738E+02  0.11535701262E+03  0.00000000000E+00 0. -1.
          3    1    1    2  501    0  0.58530766278E+02  0.12056573861E+03 -0.60346122831E+02  0.14698163990E+03  0.00000000000E+00 0. -1.
<scales pt_clust_5="13000.00000" pt_clust_6="13000.00000" pt_clust_7="13000.00000" pt_clust_8="13000.00000" pt_clust_9="13000.00000"></scales>
<clustering>
<clus scale="   80.168">  5  6 -1 -1</clus>
<clus scale="   87.275">  7  8 -1 -1</clus>
<clus scale="  134.022">  7  9 -1 -1</clus>
<clus scale="  151.097">  2  5  1 -1</clus>
<clus scale="  290.882">  1  5  2 -1</clus>
</clustering>
</event>
<event>
 9    2  0.3707658E-005  0.2527562E+03  0.7546771E-02  0.1155928E+00
         21   -1    0    0  501  502  0.00000000000E+00  0.00000000000E+00  0.10230279867E+03  0.10230279867E+03  0.00000000000E+00 0. -1.
          2   -1    0    0  502    0 -0.00000000000E+00 -0.00000000000E+00 -0.74958087027E+03  0.74958087027E+03  0.00000000000E+00 0. -1.
         24    2    1    2    0    0 -0.85183360896E+01 -0.28891746135E+02 -0.58544397648E+03  0.59167388687E+03  0.80162608297E+02 0.  0.
         23    2    1    2    0    0 -0.20859514522E+02  0.41170829928E+02  0.70747975862E+02  0.12385788604E+03  0.90583349803E+02 0.  0.
        -13    1    3    3    0    0 -0.41377434474E+02 -0.16550055047E+02 -0.21495845939E+03  0.21952935036E+03  0.00000000000E+00 0.  1.
         14    1    3    3    0    0  0.32859098385E+02 -0.12341691088E+02 -0.37048551709E+03  0.37214453651E+03  0.00000000000E+00 0. -1.
        -13    1    4    4    0    0  0.14842560593E+02  0.22894862364E+02 -0.13579979039E+02  0.30477732171E+02  0.00000000000E+00 0.  1.
         13    1    4    4    0    0 -0.35702075115E+02  0.18275967564E+02  0.84327954901E+02  0.93380153864E+02  0.00000000000E+00 0. -1.
          1    1    1    2  501    0  0.29377850612E+02 -0.12279083793E+02 -0.13258207098E+03  0.13635189603E+03  0.00000000000E+00 0. -1.
<scales pt_clust_5="13000.00000" pt_clust_6="13000.00000" pt_clust_7="13000.00000" pt_clust_8="13000.00000" pt_clust_9="13000.00000"></scales>
<clustering>
<clus scale="   80.163">  5  6 -1 -1</clus>
<clus scale="   85.635">  2  5  1 -1</clus>
<clus scale="   90.583">  7  8 -1 -1</clus>
<clus scale="   42.674">  7  9 -1 -1</clus>
<clus scale="  252.756">  1  5  2 -1</clus>
</clustering>
</event>
<event>
 9    2  0.3707658E-005  0.1807986E+03  0.7546771E-02  0.1187291E+00
          2   -1    0    0  502    0 -0.00000000000E+00  0.00000000000E+00  0.15492531917E+04  0.15492531917E+04  0.00000000000E+00 0. -1.
         21   -1    0    0  501  502  0.00000000000E+00 -0.00000000000E+00 -0.33945017265E+02  0.33945017265E+02  0.00000000000E+00 0. -1.
         24    2    1    2    0    0 -0.48909319077E+02 -0.65406569762E+02  0.12865156333E+04  0.12915920644E+04  0.80108957971E+02 0.  0.
         23    2    1    2    0    0 -0.14435867233E+02  0.22437645208E+02  0.17088810127E+03  0.19562768208E+03  0.91408996584E+02 0.  0.
        -13    1    3    3    0    0 -0.31934051792E+02 -0.35283192444E+01  0.15690639383E+03  0.16016194656E+03  0.00000000000E+00 0.  1.
         14    1    3    3    0    0 -0.16975267285E+02 -0.61878250517E+02  0.11296092395E+04  0.11314301178E+04  0.00000000000E+00 0. -1.
        -11    1    4    4    0    0  0.41376420805E+01 -0.32412564914E+02  0.34827782974E+02  0.47756349454E+02  0.00000000000E+00 0. -1.
         11    1    4    4    0    0 -0.18573509313E+02  0.54850210123E+02  0.13606031830E+03  0.14787133263E+03  0.00000000000E+00 0.  1.
          1    1    1    2  501    0  0.63345186309E+02  0.42968924553E+02  0.57904439798E+02  0.95978462450E+02  0.00000000000E+00 0. -1.
<scales pt_clust_5="13000.00000" pt_clust_6="13000.00000" pt_clust_7="13000.00000" pt_clust_8="13000.00000" pt_clust_9="13000.00000"></scales>
<clustering>
<clus scale="   80.109">  5  6 -1 -1</clus>
<clus scale="   91.409">  7  8 -1 -1</clus>
<clus scale="   76.544">  7  9 -1 -1</clus>
<clus scale="  114.401">  1  5  2 -1</clus>
<clus scale="  180.799">  2  5  1 -1</clus>
</clustering>
</event>
<event>
 9    2  0.3707658E-005  0.4895238E+03  0.7546771E-02  0.1031064E+00
         21   -1    0    0  501  502  0.00000000000E+00  0.00000000000E+00  0.28682626044E+03  0.28682626044E+03  0.00000000000E+00 0. -1.
          2   -1    0    0  502    0 -0.00000000000E+00 -0.00000000000E+00 -0.16214754655E+04  0.16214754655E+04  0.00000000000E+00 0. -1.
         24    2    1    2    0    0  0.30045649966E+03 -0.57513272272E+02 -0.13807923562E+04  0.14166079761E+04  0.81294172363E+02 0.  0.
         23    2    1    2    0    0 -0.25211234825E+03 -0.47207902871E+02 -0.11296560154E+03  0.29517587097E+03  0.92619357820E+02 0.  0.
        -11    1    3    3    0    0  0.18427670728E+03 -0.61728735625E+02 -0.72525158706E+03  0.75083833559E+03  0.00000000000E+00 0.  1.
         12    1    3    3    0    0  0.11617979238E+03  0.42154633535E+01 -0.65554076914E+03  0.66576964056E+03  0.00000000000E+00 0. -1.
        -11    1    4    4    0    0 -0.23040836028E+03 -0.36350103871E+02 -0.66170445056E+02  0.24246210083E+03  0.00000000000E+00 0. -1.
         11    1    4    4    0    0 -0.21703987962E+02 -0.10857799000E+02 -0.46795156483E+02  0.52713770144E+02  0.00000000000E+00 0.  1.
          1    1    1    2  501    0 -0.48344151414E+02  0.10472117514E+03  0.15910875270E+03  0.19651787879E+03  0.00000000000E+00 0. -1.
<scales pt_clust_5="13000.00000" pt_clust_6="13000.00000" pt_clust_7="13000.00000" pt_clust_8="13000.00000" pt_clust_9="13000.00000"></scales>
<clustering>
<clus scale="   81.294">  5  6 -1 -1</clus>
<clus scale="   92.619">  7  8 -1 -1</clus>
<clus scale="  115.342">  7  9 -1 -1</clus>
<clus scale="  316.529">  2  5  1 -1</clus>
<clus scale="  489.524">  1  5  2 -1</clus>
</clustering>
</event>
<event>
 9    2  0.3707658E-005  0.3334118E+03  0.7546771E-02  0.1113280E+00
          2   -1    0    0  502    0 -0.00000000000E+00  0.00000000000E+00  0.26583198378E+03  0.26583198378E+03  0.00000000000E+00 0. -1.
         21   -1    0    0  501  502  0.00000000000E+00 -0.00000000000E+00 -0.30180183801E+03  0.30180183801E+03  0.00000000000E+00 0. -1.
         24    2    1    2    0    0  0.54544180683E+02 -0.43072750303E+02  0.15191098682E+03  0.18492940708E+03  0.79319658479E+02 0.  0.
         23    2    1    2    0    0 -0.47565314240E+02 -0.53562060947E+02 -0.24460993750E+03  0.27043161432E+03  0.90376340986E+02 0.  0.
        -13    1    3    3    0    0  0.49938333618E+02  0.10981061224E+02  0.77299465807E+02  0.92680247541E+02  0.00000000000E+00 0.  1.
         14    1    3    3    0    0  0.46058470649E+01 -0.54053811527E+02  0.74611521017E+02  0.92249159542E+02  0.00000000000E+00 0. -1.
        -13    1    4    4    0    0  0.16711061978E+02  0.12319728407E+02 -0.26267016273E+02  0.33481210318E+02  0.00000000000E+00 0.  1.
         13    1    4    4    0    0 -0.64276376219E+02 -0.65881789354E+02 -0.21834292123E+03  0.23695040401E+03  0.00000000000E+00 0. -1.
          1    1    1    2  501    0 -0.69788664431E+01  0.96634811250E+02  0.56729096442E+02  0.11227280038E+03  0.00000000000E+00 0. -1.
<scales pt_clust_5="13000.00000" pt_clust_6="13000.00000" pt_clust_7="13000.00000" pt_clust_8="13000.00000" pt_clust_9="13000.00000"></scales>
<clustering>
<clus scale="   79.320">  5  6 -1 -1</clus>
<clus scale="   90.376">  7  8 -1 -1</clus>
<clus scale="   96.887">  7  9 -1 -1</clus>
<clus scale="  105.461">  1  5  2 -1</clus>
<clus scale="  333.412">  2  5  1 -1</clus>
</clustering>
</event>
<event>
 9    2  0.3707658E-005  0.2558661E+03  0.7546771E-02  0.1154662E+00
         21   -1    0    0  501  502  0.00000000000E+00  0.00000000000E+00  0.14773118136E+02  0.14773118136E+02  0.00000000000E+00 0. -1.
          2   -1    0    0  502    0 -0.00000000000E+00 -0.00000000000E+00 -0.19667174113E+04  0.19667174113E+04  0.00000000000E+00 0. -1.
         24    2    1    2    0    0 -0.10604682595E+01  0.36951748101E+02 -0.48327673548E+03  0.49070153282E+03  0.76583516342E+02 0.  0.
         23    2    1    2    0    0  0.75488344528E+02  0.57174463533E+02 -0.64695755631E+03  0.66036345580E+03  0.92511646023E+02 0.  0.
        -13    1    3    3    0    0 -0.23325432098E+02 -0.63691526603E+01 -0.60881136552E+02  0.65506905560E+02  0.00000000000E+00 0.  1.
         14    1    3    3    0    0  0.22264963838E+02  0.43320900762E+02 -0.42239559892E+03  0.42519462726E+03  0.00000000000E+00 0. -1.
        -11    1    4    4    0    0  0.83811857487E+02  0.99587875294E+01 -0.42032965338E+03  0.42871974810E+03  0.00000000000E+00 0.  1.
         11    1    4    4    0    0 -0.83235129590E+01  0.47215676004E+02 -0.22662790293E+03  0.23164370770E+03  0.00000000000E+00 0. -1.
          1    1    1    2  501    0 -0.74427876268E+02 -0.94126211634E+02 -0.82171000140E+03  0.83042554084E+03  0.00000000000E+00 0. -1.
<scales pt_clust_5="13000.00000" pt_clust_6="13000.00000" pt_clust_7="13000.00000" pt_clust_8="13000.00000" pt_clust_9="13000.00000"></scales>
<clustering>
<clus scale="   76.584">  5  6 -1 -1</clus>
<clus scale="   85.039">  2  5  1 -1</clus>
<clus scale="   92.512">  7  8 -1 -1</clus>
<clus scale="  105.023">  7  9 -1 -1</clus>
<clus scale="  255.866">  1  5  2 -1</clus>
</clustering>
</event>
<event>
 9    2  0.3707658E-005  0.2611818E+03  0.7546771E-02  0.1141595E+00
         21   -1    0    0  501  502  0.00000000000E+00  0.00000000000E+00  0.97898734788E+03  0.97898734788E+03  0.00000000000E+00 0. -1.
          2   -1    0    0  502    0 -0.00000000000E+00 -0.00000000000E+00 -0.62212310867E+02  0.62212310867E+02  0.00000000000E+00 0. -1.
         24    2    1    2    0    0  0.66883984681E+02  0.29569927028E+02  0.24922898792E+02  0.11189015368E+03  0.80934588503E+02 0.  0.
         23    2    1    2    0    0  0.27384329899E+02  0.61337921578E+02  0.27546927805E+03  0.29916778895E+03  0.95424318959E+02 0.  0.
        -13    1    3    3    0    0  0.12891915601E+02 -0.23997140318E+02  0.23252536189E+02  0.35815425036E+02  0.00000000000E+00 0.  1.
         14    1    3    3    0    0  0.53992069080E+02  0.53567067347E+02  0.16703626031E+01  0.76074728648E+02  0.00000000000E+00 0. -1.
        -13    1    4    4    0    0 -0.16359075950E+02  0.54278169899E+02  0.22488967303E+03  0.23192478119E+03  0.00000000000E+00 0.  1.
         13    1    4    4    0    0  0.43743405848E+02  0.70597516792E+01  0.50579605018E+02  0.67243007761E+02  0.00000000000E+00 0. -1.
          1    1    1    2  501    0 -0.94268314579E+02 -0.90907848607E+02  0.61638286017E+03  0.63014171611E+03  0.00000000000E+00 0. -1.
<scales pt_clust_5="13000.00000" pt_clust_6="13000.00000" pt_clust_7="13000.00000" pt_clust_8="13000.00000" pt_clust_9="13000.00000"></scales>
<clustering>
<clus scale="   80.935">  5  6 -1 -1</clus>
<clus scale="   95.424">  7  8 -1 -1</clus>
<clus scale="  109.079">  2  5  1 -1</clus>
<clus scale="  106.139">  7  9 -1 -1</clus>
<clus scale="  261.182">  1  5  2 -1</clus>
</clustering>
</event>
<event>
 9    2  0.3707658E-005  0.3265260E+03  0.7546771E-02  0.1123060E+00
          2   -1    0    0  502    0 -0.00000000000E+00  0.00000000000E+00  0.36049008170E+03  0.36049008170E+03  0.00000000000E+00 0. -1.
         21   -1    0    0  501  502  0.00000000000E+00 -0.00000000000E+00 -0.11995564099E+03  0.11995564099E+03  0.00000000000E+00 0. -1.
         24    2    1    2    0    0 -0.32289102897E+02 -0.33397276334E+02  0.34631177987E+02  0.94420651292E+02  0.74551838805E+02 0.  0.
         23    2    1    2    0    0 -0.93421672881E+01  0.15830513435E+03  0.16893807710E+03  0.24927142209E+03  0.91915049505E+02 0.  0.
        -13    1    3    3    0    0 -0.55409463758E+02 -0.31536477130E+02  0.31175583874E+02  0.70969536377E+02  0.00000000000E+00 0.  1.
         14    1    3    3    0    0  0.23120360862E+02 -0.18607992042E+01  0.34555941130E+01  0.23451114914E+02  0.00000000000E+00 0. -1.
        -11    1    4    4    0    0  0.80276808361E+01  0.34825635487E+02 -0.41126983761E+01  0.35974752738E+02  0.00000000000E+00 0.  1.
         11    1    4    4    0    0 -0.17369848124E+02  0.12347949886E+03  0.17305077548E+03  0.21329666935E+03  0.00000000000E+00 0. -1.
          1    1    1    2  501    0  0.41631270185E+02 -0.12490785801E+03  0.36965185618E+02  0.13675364931E+03  0.00000000000E+00 0. -1.
<scales pt_clust_5="13000.00000" pt_clust_6="13000.00000" pt_clust_7="13000.00000" pt_clust_8="13000.00000" pt_clust_9="13000.00000"></scales>
<clustering>
<clus scale="   74.552">  5  6 -1 -1</clus>
<clus scale="   87.840">  1  5  2 -1</clus>
<clus scale="   91.915">  7  8 -1 -1</clus>
<clus scale="  138.494">  7  9 -1 -1</clus>
<clus scale="  326.526">  2  5  1 -1</clus>
</clustering>
</event>
<event>
 9    2  0.3707658E-005  0.2098746E+03  0.7546771E-02  0.1148656E+00
          2   -1    0    0  502    0 -0.00000000000E+00  0.00000000000E+00  0.30466686137E+03  0.30466686137E+03  0.00000000000E+00 0. -1.
         21   -1    0    0  501  502  0.00000000000E+00 -0.00000000000E+00 -0.12519510778E+03  0.12519510778E+03  0.00000000000E+00 0.  1.
         24    2    1    2    0    0 -0.15772520466E+03  0.11373963782E+02  0.10951222542E+03  0.20863426163E+03  0.80800497342E+02 0.  0.
         23    2    1    2    0    0  0.13371309520E+03  0.20343253929E+02  0.66005173029E+02  0.18125021105E+03  0.10100453618E+03 0.  0.
        -11    1    3    3    0    0 -0.92124812433E+02  0.45810369841E+02  0.72101909830E+02  0.12563541082E+03  0.00000000000E+00 0.  1.
         12    1    3    3    0    0 -0.65600392228E+02 -0.34436406060E+02  0.37410315593E+02  0.82998850809E+02  0.00000000000E+00 0. -1.
        -13    1    4    4    0    0  0.13999925438E+03  0.41811288589E+02  0.53321409476E+02  0.15553503717E+03  0.00000000000E+00 0.  1.
         13    1    4    4    0    0 -0.62861591778E+01 -0.21468034661E+02  0.12683763553E+02  0.25715173872E+02  0.00000000000E+00 0. -1.
          1    1    1    2  501    0  0.24012109460E+02 -0.31717217711E+02  0.39543551297E+01  0.39977496476E+02  0.00000000000E+00 0. -1.
<scales pt_clust_5="13000.00000" pt_clust_6="13000.00000" pt_clust_7="13000.00000" pt_clust_8="13000.00000" pt_clust_9="13000.00000"></scales>
<clustering>
<clus scale="   80.800">  5  6 -1 -1</clus>
<clus scale="  101.005">  7  8 -1 -1</clus>
<clus scale="   39.781">  7  9 -1 -1</clus>
<clus scale="  177.582">  1  5  2 -1</clus>
<clus scale="  209.875">  2  5  1 -1</clus>
</clustering>
</event>
<event>
 9    2  0.3707658E-005  0.3161642E+03  0.7546771E-02  0.1121955E+00
          2   -1    0    0  502    0 -0.00000000000E+00  0.00000000000E+00  0.11236432115E+03  0.11236432115E+03  0.00000000000E+00 0. -1.
         21   -1    0    0  501  502  0.00000000000E+00 -0.00000000000E+00 -0.38668840604E+03  0.38668840604E+03  0.00000000000E+00 0. -1.
         24    2    1    2    0    0 -0.53697316446E+02  0.14224666309E+02 -0.82691726092E+02  0.12934644293E+03  0.82503562407E+02 0.  0.
         23    2    1    2    0    0 -0.27823585639E+02  0.94540460175E+02  0.17701409915E+01  0.13331669663E+03  0.89767241648E+02 0.  0.
        -11    1    3    3    0    0 -0.26070049722E+02  0.43428152163E+02 -0.71487490171E+02  0.87613430157E+02  0.00000000000E+00 0.  1.
         12    1    3    3    0    0 -0.27627266724E+02 -0.29203485854E+02 -0.11204235920E+02  0.41733012774E+02  0.00000000000E+00 0. -1.
        -11    1    4    4    0    0 -0.25701851618E+02  0.56387073848E+02  0.44275193473E+02  0.76160226042E+02  0.00000000000E+00 0. -1.
         11    1    4    4    0    0 -0.21217340219E+01  0.38153386327E+02 -0.42505052482E+02  0.57156470587E+02  0.00000000000E+00 0.  1.
          1    1    1    2  501    0  0.81520902085E+02 -0.10876512648E+03 -0.19340249979E+03  0.23638958763E+03  0.00000000000E+00 0. -1.
<scales pt_clust_5="13000.00000" pt_clust_6="13000.00000" pt_clust_7="13000.00000" pt_clust_8="13000.00000" pt_clust_9="13000.00000"></scales>
<clustering>
<clus scale="   82.504">  5  6 -1 -1</clus>
<clus scale="   89.767">  7  8 -1 -1</clus>
<clus scale="   99.462">  1  5  2 -1</clus>
<clus scale="  125.678">  7  9 -1 -1</clus>
<clus scale="  316.164">  2  5  1 -1</clus>
</clustering>
</event>
<event>
 9    2  0.3707658E-005  0.1782609E+03  0.7546771E-02  0.1201565E+00
          2   -1    0    0  502    0 -0.00000000000E+00  0.00000000000E+00  0.35082141364E+03  0.35082141364E+03  0.00000000000E+00 0. -1.
         21   -1    0    0  501  502  0.00000000000E+00 -0.00000000000E+00 -0.10341443711E+03  0.10341443711E+03  0.00000000000E+00 0.  1.
         24    2    1    2    0    0  0.11852138732E+01  0.24143062017E+02  0.26124436858E+03  0.27543868680E+03  0.83866309659E+02 0.  0.
         23    2    1    2    0    0 -0.12811083157E+02  0.18500555666E+02 -0.63076879124E+02  0.11262945240E+03  0.90555543485E+02 0.  0.
        -11    1    3    3    0    0 -0.42852459512E+01 -0.30285675278E+02  0.67251606355E+02  0.73880741857E+02  0.00000000000E+00 0.  1.
         12    1    3    3    0    0  0.54704598244E+01  0.54428737295E+02  0.19399276223E+03  0.20155794495E+03  0.00000000000E+00 0. -1.
        -11    1    4    4    0    0  0.27093087479E+01 -0.36150102343E+02 -0.20617742464E+02  0.41704454890E+02  0.00000000000E+00 0. -1.
         11    1    4    4    0    0 -0.15520391905E+02  0.54650658009E+02 -0.42459136659E+02  0.70924997509E+02  0.00000000000E+00 0.  1.
          1    1    1    2  501    0  0.11625869284E+02 -0.42643617682E+02  0.49239487072E+02  0.66167711558E+02  0.00000000000E+00 0. -1.
<scales pt_clust_5="13000.00000" pt_clust_6="13000.00000" pt_clust_7="13000.00000" pt_clust_8="13000.00000" pt_clust_9="13000.00000"></scales>
<clustering>
<clus scale="   83.866">  5  6 -1 -1</clus>
<clus scale="   87.280">  1  5  2 -1</clus>
<clus scale="   90.556">  7  8 -1 -1</clus>
<clus scale="   28.607">  7  9 -1 -1</clus>
<clus scale="  178.261">  2  5  1 -1</clus>
</clustering>
</event>
<event>
 9    2  0.3707658E-005  0.4115775E+03  0.7546771E-02  0.1089771E+00
         21   -1    0    0  501  502  0.00000000000E+00  0.00000000000E+00  0.35819774026E+02  0.35819774026E+02  0.00000000000E+00 0. -1.
          2   -1    0    0  502    0 -0.00000000000E+00 -0.00000000000E+00 -0.18517488841E+04  0.18517488841E+04  0.00000000000E+00 0. -1.
         24    2    1    2    0    0 -0.14973020178E+02 -0.67731976911E+02 -0.39793494382E+03  0.41105130885E+03  0.76152130420E+02 0.  0.
         23    2    1    2    0    0  0.16079815617E+03  0.30313932203E+02 -0.33665897011E+03  0.38475231651E+03  0.88994951476E+02 0.  0.
        -11    1    3    3    0    0  0.16074997167E+02 -0.70044852304E+02 -0.28022684760E+03  0.28929530412E+03  0.00000000000E+00 0.  1.
         12    1    3    3    0    0 -0.31048017346E+02  0.23128753930E+01 -0.11770809622E+03  0.12175600474E+03  0.00000000000E+00 0. -1.
        -11    1    4    4    0    0  0.23880212403E+02  0.86023348701E+01 -0.15061492214E+03  0.15273872947E+03  0.00000000000E+00 0.  1.
         11    1    4    4    0    0  0.13691794376E+03  0.21711597333E+02 -0.18604404798E+03  0.23201358704E+03  0.00000000000E+00 0. -1.
          1    1    1    2  501    0 -0.14582513599E+03  0.37418044708E+02 -0.10813351962E+04  0.10917650328E+04  0.00000000000E+00 0. -1.
<scales pt_clust_5="13000.00000" pt_clust_6="13000.00000" pt_clust_7="13000.00000" pt_clust_8="13000.00000" pt_clust_9="13000.00000"></scales>
<clustering>
<clus scale="   76.152">  5  6 -1 -1</clus>
<clus scale="   88.995">  7  8 -1 -1</clus>
<clus scale="  103.010">  2  5  1 -1</clus>
<clus scale="  157.640">  7  9 -1 -1</clus>
<clus scale="  411.577">  1  5  2 -1</clus>
</clustering>
</event>
<event>
 9    2  0.3707658E-005  0.3284304E+03  0.7546771E-02  0.1109768E+00
         21   -1    0    0  501  502  0.00000000000E+00  0.00000000000E+00  0.38975969609E+03  0.38975969609E+03  0.00000000000E+00 0.  1.
         -1   -1    0    0    0  501 -0.00000000000E+00 -0.00000000000E+00 -0.16367103864E+03  0.16367103864E+03  0.00000000000E+00 0.  1.
         24    2    1    2    0    0 -0.80339822423E+02 -0.25548315465E+02 -0.43803031238E+02  0.12833306222E+03  0.86275522733E+02 0.  0.
         23    2    1    2    0    0 -0.59605902247E+02 -0.96402218155E+02  0.82004159331E+02  0.16097939940E+03  0.79645675558E+02 0.  0.
        -13    1    3    3    0    0 -0.49808073005E+02  0.26397064079E+02 -0.48376379184E+01  0.56577839028E+02  0.00000000000E+00 0.  1.
         14    1    3    3    0    0 -0.30531749418E+02 -0.51945379545E+02 -0.38965393320E+02  0.71755223191E+02  0.00000000000E+00 0. -1.
        -13    1    4    4    0    0 -0.22073379055E+02 -0.94331147524E+02  0.75515193048E+02  0.12283380576E+03  0.00000000000E+00 0.  1.
         13    1    4    4    0    0 -0.37532523191E+02 -0.20710706306E+01  0.64889662833E+01  0.38145593639E+02  0.00000000000E+00 0. -1.
         -2    1    1    2    0  502  0.13994572467E+03  0.12195053362E+03  0.18788752936E+03  0.26411827311E+03  0.00000000000E+00 0.  1.
<scales pt_clust_5="13000.00000" pt_clust_6="13000.00000" pt_clust_7="13000.00000" pt_clust_8="13000.00000" pt_clust_9="13000.00000"></scales>
<clustering>
<clus scale="   79.646">  7  8 -1 -1</clus>
<clus scale="   86.276">  5  6 -1 -1</clus>
<clus scale="  120.626">  2  5  1 -1</clus>
<clus scale="  148.547">  7  9 -1 -1</clus>
<clus scale="  328.430">  1  5  2 -1</clus>
</clustering>
</event>
<event>
 9    2  0.3707658E-005  0.5673047E+03  0.7546771E-02  0.9996350E-01
         21   -1    0    0  501  502  0.00000000000E+00  0.00000000000E+00  0.25727473007E+03  0.25727473007E+03  0.00000000000E+00 0. -1.
          2   -1    0    0  502    0 -0.00000000000E+00 -0.00000000000E+00 -0.12024164174E+04  0.12024164174E+04  0.00000000000E+00 0. -1.
         24    2    1    2    0    0  0.45153256689E+03  0.26866084503E+03 -0.34341368138E+03  0.63270188709E+03  0.79488444193E+02 0.  0.
         23    2    1    2    0    0 -0.10165559655E+03 -0.50134676463E+02 -0.97283957158E+02  0.17535180052E+03  0.91851725807E+02 0.  0.
        -11    1    3    3    0    0  0.21547126655E+03  0.93342054980E+02 -0.18329803825E+03  0.29789054494E+03  0.00000000000E+00 0.  1.
         12    1    3    3    0    0  0.23606130034E+03  0.17531879005E+03 -0.16011564313E+03  0.33481134215E+03  0.00000000000E+00 0. -1.
        -11    1    4    4    0    0 -0.29745457054E+01  0.21311130397E+02 -0.27615046738E+02  0.35008613330E+02  0.00000000000E+00 0.  1.
         11    1    4    4    0    0 -0.98681050841E+02 -0.71445806860E+02 -0.69668910420E+02  0.14034318719E+03  0.00000000000E+00 0. -1.
          1    1    1    2  501    0 -0.34987697034E+03 -0.21852616856E+03 -0.50444404879E+03  0.65163745985E+03  0.00000000000E+00 0. -1.
<scales pt_clust_5="13000.00000" pt_clust_6="13000.00000" pt_clust_7="13000.00000" pt_clust_8="13000.00000" pt_clust_9="13000.00000"></scales>
<clustering>
<clus scale="   79.488">  5  6 -1 -1</clus>
<clus scale="   91.852">  7  8 -1 -1</clus>
<clus scale="  412.514">  7  9 -1 -1</clus>
<clus scale="  531.393">  2  5  1 -1</clus>
<clus scale="  567.305">  1  5  2 -1</clus>
</clustering>
</event>
<event>
 9    2  0.3707658E-005  0.1719039E+03  0.7546771E-02  0.1202392E+00
         21   -1    0    0  501  502  0.00000000000E+00  0.00000000000E+00  0.13598485487E+03  0.13598485487E+03  0.00000000000E+00 0. -1.
          2   -1    0    0  502    0 -0.00000000000E+00 -0.00000000000E+00 -0.32914305817E+03  0.32914305817E+03  0.00000000000E+00 0. -1.
         24    2    1    2    0    0  0.35563249675E+02  0.37204127040E+02 -0.26280408444E+03  0.27965146189E+03  0.80560918227E+02 0.  0.
         23    2    1    2    0    0 -0.63996434646E+02  0.10496614132E+02  0.24664694141E+02  0.11401237696E+03  0.90469621463E+02 0.  0.
        -11    1    3    3    0    0 -0.26146732632E+02  0.13414015724E+02 -0.75845795675E+02  0.81339855955E+02  0.00000000000E+00 0.  1.
         12    1    3    3    0    0  0.61709982307E+02  0.23790111315E+02 -0.18695828876E+03  0.19831160594E+03  0.00000000000E+00 0. -1.
        -13    1    4    4    0    0  0.18143619144E+02 -0.14612310846E+02 -0.36356016976E+01  0.23578128501E+02  0.00000000000E+00 0.  1.
         13    1    4    4    0    0 -0.82140053790E+02  0.25108924978E+02  0.28300295839E+02  0.90434248461E+02  0.00000000000E+00 0. -1.
          1    1    1    2  501    0  0.28433184971E+02 -0.47700741171E+02  0.44981186999E+02  0.71464074189E+02  0.00000000000E+00 0. -1.
<scales pt_clust_5="13000.00000" pt_clust_6="13000.00000" pt_clust_7="13000.00000" pt_clust_8="13000.00000" pt_clust_9="13000.00000"></scales>
<clustering>
<clus scale="   80.561">  5  6 -1 -1</clus>
<clus scale="   90.470">  7  8 -1 -1</clus>
<clus scale="   55.532">  7  9 -1 -1</clus>
<clus scale="   95.598">  2  5  1 -1</clus>
<clus scale="  171.904">  1  5  2 -1</clus>
</clustering>
</event>
<event>
 9    2  0.3707658E-005  0.2310212E+03  0.7546771E-02  0.1169770E+00
          2   -1    0    0  502    0 -0.00000000000E+00  0.00000000000E+00  0.32219119052E+03  0.32219119052E+03  0.00000000000E+00 0. -1.
         21   -1    0    0  501  502  0.00000000000E+00 -0.00000000000E+00 -0.75953207773E+02  0.75953207773E+02  0.00000000000E+00 0. -1.
         24    2    1    2    0    0  0.97111311896E+00 -0.18493496668E+02  0.73782961569E+02  0.10985369884E+03  0.79252490510E+02 0.  0.
         23    2    1    2    0    0 -0.47398911962E+02 -0.74472149703E+02  0.93629252556E+02  0.15786196907E+03  0.91439632581E+02 0.  0.
        -11    1    3    3    0    0  0.11304231035E+02 -0.22410844584E+02  0.88192334231E+02  0.91694707652E+02  0.00000000000E+00 0.  1.
         12    1    3    3    0    0 -0.10333117916E+02  0.39173479169E+01 -0.14409372662E+02  0.18158991191E+02  0.00000000000E+00 0. -1.
        -13    1    4    4    0    0 -0.64021222197E+02 -0.40240031876E+02  0.92920888510E+02  0.11980095400E+03  0.00000000000E+00 0.  1.
         13    1    4    4    0    0  0.16622310235E+02 -0.34232117826E+02  0.70836404553E+00  0.38061015069E+02  0.00000000000E+00 0. -1.
          1    1    1    2  501    0  0.46427798843E+02  0.92965646370E+02  0.78825768619E+02  0.13042873038E+03  0.00000000000E+00 0. -1.
<scales pt_clust_5="13000.00000" pt_clust_6="13000.00000" pt_clust_7="13000.00000" pt_clust_8="13000.00000" pt_clust_9="13000.00000"></scales>
<clustering>
<clus scale="   79.252">  5  6 -1 -1</clus>
<clus scale="   81.387">  1  5  2 -1</clus>
<clus scale="   91.440">  7  8 -1 -1</clus>
<clus scale="   96.686">  7  9 -1 -1</clus>
<clus scale="  231.021">  2  5  1 -1</clus>
</clustering>
</event>
<event>
 9    2  0.3707658E-005  0.3869767E+03  0.7546771E-02  0.1067118E+00
          2   -1    0    0  502    0 -0.00000000000E+00  0.00000000000E+00  0.20422855321E+03  0.20422855321E+03  0.00000000000E+00 0. -1.
         21   -1    0    0  501  502  0.00000000000E+00 -0.00000000000E+00 -0.74479296657E+03  0.74479296657E+03  0.00000000000E+00 0. -1.
         24    2    1    2    0    0 -0.15344098045E+03  0.14911548117E+03 -0.51234902781E+03  0.56101752577E+03  0.80371491987E+02 0.  0.
         23    2    1    2    0    0 -0.77979926098E+02 -0.52980209183E+02 -0.31372276441E+02  0.13738956412E+03  0.94888888499E+02 0.  0.
        -11    1    3    3    0    0 -0.58561155729E+02  0.32543010564E+02 -0.86427503185E+02  0.10935341697E+03  0.00000000000E+00 0.  1.
         12    1    3    3    0    0 -0.94879824722E+02  0.11657247061E+03 -0.42592152462E+03  0.45166410880E+03  0.00000000000E+00 0. -1.
        -11    1    4    4    0    0 -0.49374945375E+02 -0.77537549061E+02 -0.37343410535E+02  0.99219388506E+02  0.00000000000E+00 0. -1.
         11    1    4    4    0    0 -0.28604980723E+02  0.24557339877E+02  0.59711340937E+01  0.38170175614E+02  0.00000000000E+00 0.  1.
          1    1    1    2  501    0  0.23142090655E+03 -0.96135271990E+02  0.31568908880E+01  0.25061442989E+03  0.00000000000E+00 0. -1.
<scales pt_clust_5="13000.00000" pt_clust_6="13000.00000" pt_clust_7="13000.00000" pt_clust_8="13000.00000" pt_clust_9="13000.00000"></scales>
<clustering>
<clus scale="   80.371">  5  6 -1 -1</clus>
<clus scale="   94.889">  7  8 -1 -1</clus>
<clus scale="  228.559">  1  5  2 -1</clus>
<clus scale="  123.525">  7  9 -1 -1</clus>
<clus scale="  386.977">  2  5  1 -1</clus>
</clustering>
</event>
<event>
 9    2  0.3707658E-005  0.2357730E+03  0.7546771E-02  0.1156236E+00
         21   -1    0    0  501  502  0.00000000000E+00  0.00000000000E+00  0.36272061159E+02  0.36272061159E+02  0.00000000000E+00 0.  1.
         -1   -1    0    0    0  501 -0.00000000000E+00 -0.00000000000E+00 -0.87981084949E+03  0.87981084949E+03  0.00000000000E+00 0.  1.
         24    2    1    2    0    0  0.64601640697E+02 -0.22086289806E+02 -0.40334484015E+03  0.41672370579E+03  0.79438093583E+02 0.  0.
         23    2    1    2    0    0  0.44179860671E+02 -0.22266725095E+02 -0.29682145029E+03  0.31400473871E+03  0.89712515539E+02 0.  0.
        -11    1    3    3    0    0  0.82873148207E+02 -0.20082658232E+02 -0.35221607834E+03  0.36239127707E+03  0.00000000000E+00 0.  1.
         12    1    3    3    0    0 -0.18271507510E+02 -0.20036315744E+01 -0.51128761817E+02  0.54332428725E+02  0.00000000000E+00 0. -1.
        -11    1    4    4    0    0  0.42396844125E+02  0.23743408294E+02 -0.91704207988E+02  0.10378296388E+03  0.00000000000E+00 0. -1.
         11    1    4    4    0    0  0.17830165462E+01 -0.46010133390E+02 -0.20511724230E+03  0.21022177483E+03  0.00000000000E+00 0.  1.
         -2    1    1    2    0  502 -0.10878150137E+03  0.44353014902E+02 -0.14337249789E+03  0.18535446615E+03  0.00000000000E+00 0.  1.
<scales pt_clust_5="13000.00000" pt_clust_6="13000.00000" pt_clust_7="13000.00000" pt_clust_8="13000.00000" pt_clust_9="13000.00000"></scales>
<clustering>
<clus scale="   79.438">  5  6 -1 -1</clus>
<clus scale="   89.713">  7  8 -1 -1</clus>
<clus scale="  104.745">  2  5  1 -1</clus>
<clus scale="   93.639">  7  9 -1 -1</clus>
<clus scale="  235.773">  1  5  2 -1</clus>
</clustering>
</event>
<event>
 9    2  0.3707658E-005  0.2693610E+03  0.7546771E-02  0.1141322E+00
         21   -1    0    0  501  502  0.00000000000E+00  0.00000000000E+00  0.20197892460E+03  0.20197892460E+03  0.00000000000E+00 0. -1.
          2   -1    0    0  502    0 -0.00000000000E+00 -0.00000000000E+00 -0.46250277689E+03  0.46250277689E+03  0.00000000000E+00 0. -1.
         24    2    1    2    0    0 -0.30041687327E+02  0.47842428897E+02 -0.36280155882E+03  0.37635661554E+03  0.82631289466E+02 0.  0.
         23    2    1    2    0    0 -0.84308466580E+02 -0.76720684251E+02  0.83753873325E+02  0.16873897400E+03  0.92000810432E+02 0.  0.
        -13    1    3    3    0    0  0.21558109321E+02 -0.74244492335E+01 -0.58097025357E+02  0.62411047734E+02  0.00000000000E+00 0.  1.
         14    1    3    3    0    0 -0.51599796649E+02  0.55266878131E+02 -0.30470453346E+03  0.31394556780E+03  0.00000000000E+00 0. -1.
        -11    1    4    4    0    0 -0.26015835608E+02 -0.50779257154E+02 -0.73364837916E+01  0.57525478302E+02  0.00000000000E+00 0.  1.
         11    1    4    4    0    0 -0.58292630973E+02 -0.25941427097E+02  0.91090357116E+02  0.11121349570E+03  0.00000000000E+00 0. -1.
          1    1    1    2  501    0  0.11435015391E+03  0.28878255354E+02  0.18523833206E+02  0.11938611195E+03  0.00000000000E+00 0. -1.
<scales pt_clust_5="13000.00000" pt_clust_6="13000.00000" pt_clust_7="13000.00000" pt_clust_8="13000.00000" pt_clust_9="13000.00000"></scales>
<clustering>
<clus scale="   82.631">  5  6 -1 -1</clus>
<clus scale="   92.001">  7  8 -1 -1</clus>
<clus scale="  100.097">  2  5  1 -1</clus>
<clus scale="  112.342">  7  9 -1 -1</clus>
<clus scale="  269.361">  1  5  2 -1</clus>
</clustering>
</event>
<event>
 9    2  0.3707658E-005  0.2727572E+03  0.7546771E-02  0.1106303E+00
         21   -1    0    0  501  502  0.00000000000E+00  0.00000000000E+00  0.20194614388E+03  0.20194614388E+03  0.00000000000E+00 0. -1.
          2   -1    0    0  502    0 -0.00000000000E+00 -0.00000000000E+00 -0.31303911304E+03  0.31303911304E+03  0.00000000000E+00 0. -1.
         24    2    1    2    0    0 -0.18222776886E+03 -0.11571449117E+03 -0.50200056015E+02  0.23551353744E+03  0.79685491055E+02 0.  0.
         23    2    1    2    0    0  0.14895782939E+03  0.14001387941E+03 -0.25621837621E+02  0.22523706349E+03  0.91010630366E+02 0.  0.
        -13    1    3    3    0    0 -0.25323364953E+01 -0.28866936334E+02  0.25164366389E+01  0.29086856049E+02  0.00000000000E+00 0.  1.
         14    1    3    3    0    0 -0.17969543237E+03 -0.86847554834E+02 -0.52716492654E+02  0.20642668139E+03  0.00000000000E+00 0. -1.
        -13    1    4    4    0    0  0.75450084927E+02  0.34437330056E+02 -0.46228444800E+02  0.94951114399E+02  0.00000000000E+00 0.  1.
         13    1    4    4    0    0  0.73507744465E+02  0.10557654935E+03  0.20606607179E+02  0.13028594909E+03  0.00000000000E+00 0. -1.
          1    1    1    2  501    0  0.33269939469E+02 -0.24299388242E+02 -0.35271075531E+02  0.54234655989E+02  0.00000000000E+00 0. -1.
<scales pt_clust_5="13000.00000" pt_clust_6="13000.00000" pt_clust_7="13000.00000" pt_clust_8="13000.00000" pt_clust_9="13000.00000"></scales>
<clustering>
<clus scale="   79.685">  5  6 -1 -1</clus>
<clus scale="   91.011">  7  8 -1 -1</clus>
<clus scale="   41.199">  7  9 -1 -1</clus>
<clus scale="  230.101">  2  5  1 -1</clus>
<clus scale="  272.757">  1  5  2 -1</clus>
</clustering>
</event>
<event>
 9    2  0.3707658E-005  0.4410279E+03  0.7546771E-02  0.1070196E+00
         21   -1    0    0  501  502  0.00000000000E+00  0.00000000000E+00  0.78947721285E+03  0.78947721285E+03  0.00000000000E+00 0. -1.
          4   -1    0    0  502    0 -0.00000000000E+00 -0.00000000000E+00 -0.11367395809E+03  0.11367395809E+03  0.00000000000E+00 0. -1.
         24    2    1    2    0    0 -0.37115889423E+02 -0.11035091356E+03  0.26427220570E+03  0.29994024801E+03  0.81052083870E+02 0.  0.
         23    2    1    2    0    0 -0.10597488618E+03  0.21357722602E+03  0.30051693040E+03  0.39475283076E+03  0.93131433804E+02 0.  0.
        -11    1    3    3    0    0 -0.40262216707E+02 -0.69661737555E+02  0.88994838729E+02  0.11997451852E+03  0.00000000000E+00 0.  1.
         12    1    3    3    0    0  0.31463272836E+01 -0.40689176007E+02  0.17527736697E+03  0.17996572949E+03  0.00000000000E+00 0. -1.
        -11    1    4    4    0    0  0.50975148331E+01  0.35040894741E+02  0.11279455122E+02  0.37162818375E+02  0.00000000000E+00 0.  1.
         11    1    4    4    0    0 -0.11107240102E+03  0.17853633128E+03  0.28923747528E+03  0.35759001239E+03  0.00000000000E+00 0. -1.
          3    1    1    2  501    0  0.14309077561E+03 -0.10322631246E+03  0.11101411866E+03  0.20845809216E+03  0.00000000000E+00 0. -1.
<scales pt_clust_5="13000.00000" pt_clust_6="13000.00000" pt_clust_7="13000.00000" pt_clust_8="13000.00000" pt_clust_9="13000.00000"></scales>
<clustering>
<clus scale="   81.052">  5  6 -1 -1</clus>
<clus scale="   93.131">  7  8 -1 -1</clus>
<clus scale="  141.860">  2  5  1 -1</clus>
<clus scale="  202.029">  7  9 -1 -1</clus>
<clus scale="  441.028">  1  5  2 -1</clus>
</clustering>
</event>
<event>
 9    2  0.3707658E-005  0.5035037E+03  0.7546771E-02  0.1024209E+00
         21   -1    0    0  501  502  0.00000000000E+00  0.00000000000E+00  0.60299828021E+03  0.60299828021E+03  0.00000000000E+00 0. -1.
          2   -1    0    0  502    0 -0.00000000000E+00 -0.00000000000E+00 -0.51479479152E+03  0.51479479152E+03  0.00000000000E+00 0. -1.
         24    2    1    2    0    0  0.24977587681E+03  0.24172898531E+03 -0.31247407480E+03  0.47431932103E+03  0.80733387790E+02 0.  0.
         23    2    1    2    0    0 -0.43762131845E+02 -0.14455310212E+02 -0.37106740771E+02  0.10891778210E+03  0.91444479718E+02 0.  0.
        -11    1    3    3    0    0  0.25216566307E+02  0.16632275571E+02 -0.64071327921E+02  0.70835322181E+02  0.00000000000E+00 0.  1.
         12    1    3    3    0    0  0.22455931050E+03  0.22509670974E+03 -0.24840274688E+03  0.40348399884E+03  0.00000000000E+00 0. -1.
        -11    1    4    4    0    0 -0.24177404472E+02 -0.51142778119E+02 -0.36505226828E+02  0.67325791689E+02  0.00000000000E+00 0. -1.
         11    1    4    4    0    0 -0.19584727373E+02  0.36687467907E+02 -0.60151394246E+00  0.41591990415E+02  0.00000000000E+00 0.  1.
          1    1    1    2  501    0 -0.20601374497E+03 -0.22727367510E+03  0.43778430426E+03  0.53455596860E+03  0.00000000000E+00 0. -1.
<scales pt_clust_5="13000.00000" pt_clust_6="13000.00000" pt_clust_7="13000.00000" pt_clust_8="13000.00000" pt_clust_9="13000.00000"></scales>
<clustering>
<clus scale="   80.733">  5  6 -1 -1</clus>
<clus scale="   91.444">  7  8 -1 -1</clus>
<clus scale="  306.749">  7  9 -1 -1</clus>
<clus scale="  356.846">  2  5  1 -1</clus>
<clus scale="  503.504">  1  5  2 -1</clus>
</clustering>
</event>
<event>
 9    2  0.3707658E-005  0.4697770E+03  0.7546771E-02  0.1065914E+00
         21   -1    0    0  501  502  0.00000000000E+00  0.00000000000E+00  0.11745153187E+03  0.11745153187E+03  0.00000000000E+00 0. -1.
         -1   -1    0    0    0  501 -0.00000000000E+00 -0.00000000000E+00 -0.77445778131E+03  0.77445778131E+03  0.00000000000E+00 0.  1.
         24    2    1    2    0    0  0.81990764223E+02 -0.65931750799E+02 -0.12036655334E+03  0.17869641395E+03  0.79842469980E+02 0.  0.
         23    2    1    2    0    0 -0.56223567684E+02  0.23111822513E+03 -0.46546787263E+03  0.53150998738E+03  0.96259039518E+02 0.  0.
        -11    1    3    3    0    0  0.16302594268E+02 -0.23870768664E+02 -0.90783452952E+02  0.95274464083E+02  0.00000000000E+00 0.  1.
         12    1    3    3    0    0  0.65688169955E+02 -0.42060982135E+02 -0.29583100389E+02  0.83421949862E+02  0.00000000000E+00 0. -1.
        -11    1    4    4    0    0  0.37572678200E+01  0.17303947253E+03 -0.31753815853E+03  0.36164521045E+03  0.00000000000E+00 0. -1.
         11    1    4    4    0    0 -0.59980835504E+02  0.58078752600E+02 -0.14792971409E+03  0.16986477693E+03  0.00000000000E+00 0.  1.
         -2    1    1    2    0  502 -0.25767196540E+02 -0.16518647433E+03 -0.71171823478E+02  0.18170291185E+03  0.00000000000E+00 0.  1.
<scales pt_clust_5="13000.00000" pt_clust_6="13000.00000" pt_clust_7="13000.00000" pt_clust_8="13000.00000" pt_clust_9="13000.00000"></scales>
<clustering>
<clus scale="   79.842">  5  6 -1 -1</clus>
<clus scale="   96.259">  7  8 -1 -1</clus>
<clus scale="  132.077">  2  5  1 -1</clus>
<clus scale="  178.762">  7  9 -1 -1</clus>
<clus scale="  469.777">  1  5  2 -1</clus>
</clustering>
</event>
<event>
 9    2  0.3707658E-005  0.2133496E+03  0.7546771E-02  0.1176645E+00
         21   -1    0    0  501  502  0.00000000000E+00  0.00000000000E+00  0.84702253063E+02  0.84702253063E+02  0.00000000000E+00 0.  1.
          2   -1    0    0  502    0 -0.00000000000E+00 -0.00000000000E+00 -0.28997525136E+03  0.28997525136E+03  0.00000000000E+00 0. -1.
         24    2    1    2    0    0  0.38354276667E+01  0.15567781100E+02 -0.16702098370E+02  0.89937179930E+02  0.86906098348E+02 0.  0.
         23    2    1    2    0    0  0.52485463152E+02  0.19643261229E+02 -0.40649010604E+02  0.12258994495E+03  0.10117001031E+03 0.  0.
        -13    1    3    3    0    0  0.43544715486E+02 -0.45131106151E+01 -0.10386875584E+02  0.44993306154E+02  0.00000000000E+00 0.  1.
         14    1    3    3    0    0 -0.39709287820E+02  0.20080891715E+02 -0.63152227860E+01  0.44943873777E+02  0.00000000000E+00 0. -1.
        -13    1    4    4    0    0  0.37861728547E+02 -0.28732906012E+02  0.12604737967E+02  0.49172856290E+02  0.00000000000E+00 0.  1.
         13    1    4    4    0    0  0.14623734605E+02  0.48376167240E+02 -0.53253748571E+02  0.73417088662E+02  0.00000000000E+00 0. -1.
          1    1    1    2  501    0 -0.56320890819E+02 -0.35211042328E+02 -0.14792188932E+03  0.16215037954E+03  0.00000000000E+00 0. -1.
<scales pt_clust_5="13000.00000" pt_clust_6="13000.00000" pt_clust_7="13000.00000" pt_clust_8="13000.00000" pt_clust_9="13000.00000"></scales>
<clustering>
<clus scale="   86.906">  5  6 -1 -1</clus>
<clus scale="   88.373">  2  5  1 -1</clus>
<clus scale="  101.170">  7  8 -1 -1</clus>
<clus scale="   59.338">  7  9 -1 -1</clus>
<clus scale="  213.350">  1  5  2 -1</clus>
</clustering>
</event>
<event>
 9    2  0.3707658E-005  0.1587289E+03  0.7546771E-02  0.1204627E+00
         21   -1    0    0  501  502  0.00000000000E+00  0.00000000000E+00  0.50734747847E+03  0.50734747847E+03  0.00000000000E+00 0. -1.
          4   -1    0    0  502    0 -0.00000000000E+00 -0.00000000000E+00 -0.37438021210E+02  0.37438021210E+02  0.00000000000E+00 0. -1.
         24    2    1    2    0    0  0.65459442499E+02  0.53432163066E+02  0.17340165430E+03  0.20846463011E+03  0.79053359398E+02 0.  0.
         23    2    1    2    0    0 -0.81321718896E+01 -0.31860550805E+02  0.20021422751E+03  0.22219723887E+03  0.90579518357E+02 0.  0.
        -13    1    3    3    0    0 -0.82755406975E+01  0.32857576099E+02  0.27263277534E+02  0.43490127418E+02  0.00000000000E+00 0.  1.
         14    1    3    3    0    0  0.73734983197E+02  0.20574586967E+02  0.14613837676E+03  0.16497450269E+03  0.00000000000E+00 0. -1.
        -13    1    4    4    0    0 -0.31749848639E+02 -0.50334400935E+02  0.16780279302E+03  0.17804320304E+03  0.00000000000E+00 0. -1.
         13    1    4    4    0    0  0.23617676749E+02  0.18473850130E+02  0.32411434495E+02  0.44154035825E+02  0.00000000000E+00 0.  1.
          3    1    1    2  501    0 -0.57327270609E+02 -0.21571612261E+02  0.96293575454E+02  0.11412363070E+03  0.00000000000E+00 0. -1.
<scales pt_clust_5="13000.00000" pt_clust_6="13000.00000" pt_clust_7="13000.00000" pt_clust_8="13000.00000" pt_clust_9="13000.00000"></scales>
<clustering>
<clus scale="   79.053">  5  6 -1 -1</clus>
<clus scale="   90.580">  7  8 -1 -1</clus>
<clus scale="   61.252">  7  9 -1 -1</clus>
<clus scale="  115.712">  2  5  1 -1</clus>
<clus scale="  158.729">  1  5  2 -1</clus>
</clustering>
</event>
<event>
 9    2  0.3707658E-005  0.4095465E+03  0.7546771E-02  0.1085418E+00
         21   -1    0    0  501  502  0.00000000000E+00  0.00000000000E+00  0.63019905707E+02  0.63019905707E+02  0.00000000000E+00 0. -1.
          2   -1    0    0  502    0 -0.00000000000E+00 -0.00000000000E+00 -0.12178662897E+04  0.12178662897E+04  0.00000000000E+00 0. -1.
         24    2    1    2    0    0 -0.11097627935E+02  0.84324533255E+02 -0.45615977619E+03  0.47101503670E+03  0.80868035319E+02 0.  0.
         23    2    1    2    0    0  0.42092496182E+02  0.14200843429E+03 -0.24781836796E+03  0.30443128715E+03  0.96572726211E+02 0.  0.
        -11    1    3    3    0    0  0.28338423865E+02  0.20043413434E+02 -0.77490761782E+02  0.84909498001E+02  0.00000000000E+00 0.  1.
         12    1    3    3    0    0 -0.39436051800E+02  0.64281119821E+02 -0.37866901440E+03  0.38610553870E+03  0.00000000000E+00 0. -1.
        -11    1    4    4    0    0 -0.11073215625E+02  0.77054740231E+02 -0.18138635965E+03  0.19738556321E+03  0.00000000000E+00 0.  1.
         11    1    4    4    0    0  0.53165711807E+02  0.64953694064E+02 -0.66432008311E+02  0.10704572393E+03  0.00000000000E+00 0. -1.
          1    1    1    2  501    0 -0.30994868248E+02 -0.22633296755E+03 -0.45086823982E+03  0.50543987153E+03  0.00000000000E+00 0. -1.
<scales pt_clust_5="13000.00000" pt_clust_6="13000.00000" pt_clust_7="13000.00000" pt_clust_8="13000.00000" pt_clust_9="13000.00000"></scales>
<clustering>
<clus scale="   80.868">  5  6 -1 -1</clus>
<clus scale="   96.573">  7  8 -1 -1</clus>
<clus scale="  117.360">  2  5  1 -1</clus>
<clus scale="  177.011">  7  9 -1 -1</clus>
<clus scale="  409.546">  1  5  2 -1</clus>
</clustering>
</event>
<event>
 9    2  0.3707658E-005  0.1350743E+03  0.7546771E-02  0.1239095E+00
         21   -1    0    0  501  502  0.00000000000E+00  0.00000000000E+00  0.52877906000E+02  0.52877906000E+02  0.00000000000E+00 0.  1.
         -1   -1    0    0    0  501 -0.00000000000E+00 -0.00000000000E+00 -0.37222255287E+03  0.37222255287E+03  0.00000000000E+00 0.  1.
         24    2    1    2    0    0 -0.24721611722E+02  0.61331399431E+01 -0.15466052244E+02  0.92553813687E+02  0.87625545159E+02 0.  0.
         23    2    1    2    0    0  0.49594142497E+02  0.32379851120E+01 -0.24687241158E+03  0.26964858736E+03  0.96406999486E+02 0.  0.
        -11    1    3    3    0    0  0.97750199141E+01  0.26103208740E+02  0.23762731442E+02  0.36627802642E+02  0.00000000000E+00 0.  1.
         12    1    3    3    0    0 -0.34496631637E+02 -0.19970068797E+02 -0.39228783685E+02  0.55926011045E+02  0.00000000000E+00 0. -1.
        -13    1    4    4    0    0  0.75477067706E+02 -0.14640604012E+02 -0.16926132715E+03  0.18590463121E+03  0.00000000000E+00 0.  1.
         13    1    4    4    0    0 -0.25882925208E+02  0.17878589124E+02 -0.77611084431E+02  0.83743956158E+02  0.00000000000E+00 0. -1.
         -2    1    1    2    0  502 -0.24872530775E+02 -0.93711250552E+01 -0.57006183047E+02  0.62898057820E+02  0.00000000000E+00 0.  1.
<scales pt_clust_5="13000.00000" pt_clust_6="13000.00000" pt_clust_7="13000.00000" pt_clust_8="13000.00000" pt_clust_9="13000.00000"></scales>
<clustering>
<clus scale="   87.626">  5  6 -1 -1</clus>
<clus scale="   91.252">  2  5  1 -1</clus>
<clus scale="   96.407">  7  8 -1 -1</clus>
<clus scale="   30.652">  7  9 -1 -1</clus>
<clus scale="  135.074">  1  5  2 -1</clus>
</clustering>
</event>
<event>
 9    2  0.3707658E-005  0.2110363E+03  0.7546771E-02  0.1169050E+00
         21   -1    0    0  501  502  0.00000000000E+00  0.00000000000E+00  0.44769880639E+02  0.44769880639E+02  0.00000000000E+00 0. -1.
          2   -1    0    0  502    0 -0.00000000000E+00 -0.00000000000E+00 -0.70720424112E+03  0.70720424112E+03  0.00000000000E+00 0. -1.
         24    2    1    2    0    0 -0.65742118075E+01 -0.63020595545E+02 -0.87141312934E+02  0.13919488104E+03  0.88129397846E+02 0.  0.
         23    2    1    2    0    0 -0.67448113986E+02  0.61925428753E+00 -0.33158941422E+03  0.35054901171E+03  0.91561118574E+02 0.  0.
        -11    1    3    3    0    0  0.37777708428E+02 -0.33479329087E+02 -0.22081565689E+02  0.55096427048E+02  0.00000000000E+00 0.  1.
         12    1    3    3    0    0 -0.44351920236E+02 -0.29541266458E+02 -0.65059747245E+02  0.84098453994E+02  0.00000000000E+00 0. -1.
        -13    1    4    4    0    0 -0.76570454452E+02 -0.20294729865E+02 -0.30678261977E+03  0.31684457759E+03  0.00000000000E+00 0. -1.
         13    1    4    4    0    0  0.91223404657E+01  0.20913984153E+02 -0.24806794450E+02  0.33704434124E+02  0.00000000000E+00 0.  1.
          1    1    1    2  501    0  0.74022325794E+02  0.62401341257E+02 -0.24370363333E+03  0.26223022901E+03  0.00000000000E+00 0. -1.
<scales pt_clust_5="13000.00000" pt_clust_6="13000.00000" pt_clust_7="13000.00000" pt_clust_8="13000.00000" pt_clust_9="13000.00000"></scales>
<clustering>
<clus scale="   88.129">  5  6 -1 -1</clus>
<clus scale="   91.561">  7  8 -1 -1</clus>
<clus scale="   96.816">  7  9 -1 -1</clus>
<clus scale="  108.543">  2  5  1 -1</clus>
<clus scale="  211.036">  1  5  2 -1</clus>
</clustering>
</event>
<event>
 9    2  0.3707658E-005  0.5126007E+03  0.7546771E-02  0.1048352E+00
         21   -1    0    0  501  502  0.00000000000E+00  0.00000000000E+00  0.29362421903E+03  0.29362421903E+03  0.00000000000E+00 0.  1.
          2   -1    0    0  502    0 -0.00000000000E+00 -0.00000000000E+00 -0.47661843167E+03  0.47661843167E+03  0.00000000000E+00 0. -1.
         24    2    1    2    0    0 -0.13383660253E+03  0.55384972061E+02  0.90081954466E+02  0.18944140276E+03  0.82423026215E+02 0.  0.
         23    2    1    2    0    0 -0.16261036781E+03 -0.79531441209E+02 -0.17049588851E+03  0.26617993310E+03  0.94950128617E+02 0.  0.
        -13    1    3    3    0    0 -0.33738705441E+02  0.23764227940E+02  0.71904848420E+02  0.82905645168E+02  0.00000000000E+00 0.  1.
         14    1    3    3    0    0 -0.10009789709E+03  0.31620744121E+02  0.18177106047E+02  0.10653575759E+03  0.00000000000E+00 0. -1.
        -11    1    4    4    0    0 -0.37136086198E+02 -0.49477263871E+02 -0.10405108608E+03  0.12105253840E+03  0.00000000000E+00 0. -1.
         11    1    4    4    0    0 -0.12547428162E+03 -0.30054177338E+02 -0.66444802428E+02  0.14512739470E+03  0.00000000000E+00 0.  1.
          1    1    1    2  501    0  0.29644697035E+03  0.24146469148E+02 -0.10258027859E+03  0.31462131485E+03  0.00000000000E+00 0. -1.
<scales pt_clust_5="13000.00000" pt_clust_6="13000.00000" pt_clust_7="13000.00000" pt_clust_8="13000.00000" pt_clust_9="13000.00000"></scales>
<clustering>
<clus scale="   82.423">  5  6 -1 -1</clus>
<clus scale="   94.950">  7  8 -1 -1</clus>
<clus scale="  166.653">  2  5  1 -1</clus>
<clus scale="  236.661">  7  9 -1 -1</clus>
<clus scale="  512.601">  1  5  2 -1</clus>
</clustering>
</event>
<event>
 9    2  0.3707658E-005  0.2040345E+03  0.7546771E-02  0.1185628E+00
          2   -1    0    0  502    0 -0.00000000000E+00  0.00000000000E+00  0.83137025465E+03  0.83137025465E+03  0.00000000000E+00 0. -1.
         21   -1    0    0  501  502  0.00000000000E+00 -0.00000000000E+00 -0.41651076344E+02  0.41651076344E+02  0.00000000000E+00 0.  1.
         24    2    1    2    0    0 -0.15782862380E+02  0.11240697478E+02  0.55881856556E+03  0.56488959473E+03  0.80290802657E+02 0.  0.
         23    2    1    2    0    0  0.57791444531E+02 -0.37185764269E+02  0.23308311681E+03  0.25870875791E+03  0.88768518925E+02 0.  0.
        -11    1    3    3    0    0  0.54732977944E+01  0.41298920649E+02  0.20703156030E+03  0.21118149728E+03  0.00000000000E+00 0.  1.
         12    1    3    3    0    0 -0.21256160174E+02 -0.30058223171E+02  0.35178700526E+03  0.35370809744E+03  0.00000000000E+00 0. -1.
        -11    1    4    4    0    0  0.81727853936E+02 -0.31430219342E+02  0.18585784285E+03  0.20545179130E+03  0.00000000000E+00 0.  1.
         11    1    4    4    0    0 -0.23936409405E+02 -0.57555449265E+01  0.47225273960E+02  0.53256966616E+02  0.00000000000E+00 0. -1.
          1    1    1    2  501    0 -0.42008582152E+02  0.25945066790E+02 -0.21825040691E+01  0.49422978352E+02  0.00000000000E+00 0. -1.
<scales pt_clust_5="13000.00000" pt_clust_6="13000.00000" pt_clust_7="13000.00000" pt_clust_8="13000.00000" pt_clust_9="13000.00000"></scales>
<clustering>
<clus scale="   80.291">  5  6 -1 -1</clus>
<clus scale="   82.596">  1  5  2 -1</clus>
<clus scale="   88.769">  7  8 -1 -1</clus>
<clus scale="   51.069">  7  9 -1 -1</clus>
<clus scale="  204.034">  2  5  1 -1</clus>
</clustering>
</event>
<event>
 9    2  0.3707658E-005  0.5545617E+03  0.7546771E-02  0.1029354E+00
          2   -1    0    0  502    0 -0.00000000000E+00  0.00000000000E+00  0.10449580795E+04  0.10449580795E+04  0.00000000000E+00 0. -1.
         21   -1    0    0  501  502  0.00000000000E+00 -0.00000000000E+00 -0.16088926503E+03  0.16088926503E+03  0.00000000000E+00 0.  1.
         24    2    1    2    0    0 -0.20241227445E+03  0.66260985678E+02  0.43752939418E+03  0.49385284623E+03  0.84246162473E+02 0.  0.
         23    2    1    2    0    0  0.35469617694E+03 -0.46601162379E+01  0.39856560319E+03  0.54086138870E+03  0.88574302806E+02 0.  0.
        -11    1    3    3    0    0 -0.75951322350E+02  0.51234852275E+01  0.83580663344E+02  0.11305123065E+03  0.00000000000E+00 0.  1.
         12    1    3    3    0    0 -0.12646095210E+03  0.61137500451E+02  0.35394873084E+03  0.38080161558E+03  0.00000000000E+00 0. -1.
        -13    1    4    4    0    0  0.94981318947E+02 -0.11743528727E+02  0.16872054790E+03  0.19397418565E+03  0.00000000000E+00 0. -1.
         13    1    4    4    0    0  0.25971485799E+03  0.70834124895E+01  0.22984505529E+03  0.34688720305E+03  0.00000000000E+00 0.  1.
          1    1    1    2  501    0 -0.15228390250E+03 -0.61600869440E+02  0.47973817100E+02  0.17113310960E+03  0.00000000000E+00 0. -1.
<scales pt_clust_5="13000.00000" pt_clust_6="13000.00000" pt_clust_7="13000.00000" pt_clust_8="13000.00000" pt_clust_9="13000.00000"></scales>
<clustering>
<clus scale="   84.246">  5  6 -1 -1</clus>
<clus scale="   88.574">  7  8 -1 -1</clus>
<clus scale="  164.271">  7  9 -1 -1</clus>
<clus scale="  229.039">  1  5  2 -1</clus>
<clus scale="  554.562">  2  5  1 -1</clus>
</clustering>
</event>
<event>
 9    2  0.3707658E-005  0.3575177E+03  0.7546771E-02  0.1071278E+00
         21   -1    0    0  501  502  0.00000000000E+00  0.00000000000E+00  0.27991648401E+03  0.27991648401E+03  0.00000000000E+00 0. -1.
          2   -1    0    0  502    0 -0.00000000000E+00 -0.00000000000E+00 -0.36750651892E+03  0.36750651892E+03  0.00000000000E+00 0. -1.
         24    2    1    2    0    0 -0.47177193439E+02 -0.24086166554E+03 -0.12647977500E+03  0.28779633849E+03  0.81176163101E+02 0.  0.
         23    2    1    2    0    0  0.77839454553E+02  0.39823194758E+02 -0.52651874282E+02  0.13660983064E+03  0.90802854778E+02 0.  0.
        -11    1    3    3    0    0  0.22756890594E+02 -0.43187971913E+02 -0.22578958795E+02  0.53785559101E+02  0.00000000000E+00 0.  1.
         12    1    3    3    0    0 -0.69934084033E+02 -0.19767369363E+03 -0.10390081621E+03  0.23401077939E+03  0.00000000000E+00 0. -1.
        -11    1    4    4    0    0  0.53796275766E+02 -0.11969172097E+00  0.13703140026E+02  0.55514229338E+02  0.00000000000E+00 0. -1.
         11    1    4    4    0    0  0.24043178787E+02  0.39942886479E+02 -0.66355014308E+02  0.81095601301E+02  0.00000000000E+00 0.  1.
          1    1    1    2  501    0 -0.30662261114E+02  0.20103847078E+03  0.91541614372E+02  0.22301683379E+03  0.00000000000E+00 0. -1.
<scales pt_clust_5="13000.00000" pt_clust_6="13000.00000" pt_clust_7="13000.00000" pt_clust_8="13000.00000" pt_clust_9="13000.00000"></scales>
<clustering>
<clus scale="   81.176">  5  6 -1 -1</clus>
<clus scale="   90.803">  7  8 -1 -1</clus>
<clus scale="  203.363">  7  9 -1 -1</clus>
<clus scale="  258.514">  2  5  1 -1</clus>
<clus scale="  357.518">  1  5  2 -1</clus>
</clustering>
</event>
<event>
 9    2  0.3707658E-005  0.4365964E+03  0.7546771E-02  0.1083044E+00
          2   -1    0    0  502    0 -0.00000000000E+00  0.00000000000E+00  0.18569529301E+04  0.18569529301E+04  0.00000000000E+00 0. -1.
         21   -1    0    0  501  502  0.00000000000E+00 -0.00000000000E+00 -0.42025531588E+02  0.42025531588E+02  0.00000000000E+00 0.  1.
         24    2    1    2    0    0 -0.31975599811E+00 -0.64538921151E+02  0.18779673958E+03  0.21429135832E+03  0.80546857591E+02 0.  0.
         23    2    1    2    0    0 -0.48719206512E+02  0.21184155982E+03  0.57488515323E+03  0.62105018625E+03  0.89218758547E+02 0.  0.
        -13    1    3    3    0    0  0.11464579264E+02 -0.74870937226E+02  0.18275277649E+03  0.19782737711E+03  0.00000000000E+00 0.  1.
         14    1    3    3    0    0 -0.11784335262E+02  0.10332016075E+02  0.50439630887E+01  0.16463981213E+02  0.00000000000E+00 0. -1.
        -11    1    4    4    0    0 -0.71851748678E+02  0.18883783122E+03  0.48356689934E+03  0.52407952300E+03  0.00000000000E+00 0.  1.
         11    1    4    4    0    0  0.23132542166E+02  0.23003728602E+02  0.91318253895E+02  0.96970663249E+02  0.00000000000E+00 0. -1.
          1    1    1    2  501    0  0.49038962510E+02 -0.14730263867E+03  0.10522455057E+04  0.10636369171E+04  0.00000000000E+00 0. -1.
<scales pt_clust_5="13000.00000" pt_clust_6="13000.00000" pt_clust_7="13000.00000" pt_clust_8="13000.00000" pt_clust_9="13000.00000"></scales>
<clustering>
<clus scale="   80.547">  5  6 -1 -1</clus>
<clus scale="   89.219">  7  8 -1 -1</clus>
<clus scale="  103.214">  1  5  2 -1</clus>
<clus scale="  194.758">  7  9 -1 -1</clus>
<clus scale="  436.596">  2  5  1 -1</clus>
</clustering>
</event>
<event>
 9    2  0.3707658E-005  0.4129804E+03  0.7546771E-02  0.1091621E+00
          2   -1    0    0  502    0 -0.00000000000E+00  0.00000000000E+00  0.27880591692E+03  0.27880591692E+03  0.00000000000E+00 0. -1.
         21   -1    0    0  501  502  0.00000000000E+00 -0.00000000000E+00 -0.31238283758E+03  0.31238283758E+03  0.00000000000E+00 0.  1.
         24    2    1    2    0    0 -0.47089806631E+02 -0.31560962075E+02  0.11661139339E+03  0.15174667679E+03  0.78837127246E+02 0.  0.
         23    2    1    2    0    0 -0.11233494501E+03  0.91525835506E+02 -0.19077837654E+03  0.26434327515E+03  0.11173566899E+03 0.  0.
        -13    1    3    3    0    0  0.44534306075E+01 -0.35686490113E+02  0.17583659670E+02  0.40031783724E+02  0.00000000000E+00 0.  1.
         14    1    3    3    0    0 -0.51543237238E+02  0.41255280382E+01  0.99027733719E+02  0.11171489306E+03  0.00000000000E+00 0. -1.
        -11    1    4    4    0    0 -0.10250000301E+03  0.55984948754E+02 -0.19492298348E+03  0.22723453653E+03  0.00000000000E+00 0.  1.
         11    1    4    4    0    0 -0.98349420062E+01  0.35540886752E+02  0.41446069374E+01  0.37108738621E+02  0.00000000000E+00 0. -1.
          1    1    1    2  501    0  0.15942475164E+03 -0.59964873431E+02  0.40590062496E+02  0.17509880255E+03  0.00000000000E+00 0. -1.
<scales pt_clust_5="13000.00000" pt_clust_6="13000.00000" pt_clust_7="13000.00000" pt_clust_8="13000.00000" pt_clust_9="13000.00000"></scales>
<clustering>
<clus scale="   78.837">  5  6 -1 -1</clus>
<clus scale="   97.102">  1  5  2 -1</clus>
<clus scale="  111.736">  7  8 -1 -1</clus>
<clus scale="  149.751">  7  9 -1 -1</clus>
<clus scale="  412.980">  2  5  1 -1</clus>
</clustering>
</event>
<event>
 9    2  0.3707658E-005  0.2305233E+03  0.7546771E-02  0.1156569E+00
         -1   -1    0    0    0  501 -0.00000000000E+00  0.00000000000E+00  0.81994434380E+03  0.81994434380E+03  0.00000000000E+00 0.  1.
         21   -1    0    0  501  502  0.00000000000E+00 -0.00000000000E+00 -0.35865352181E+02  0.35865352181E+02  0.00000000000E+00 0.  1.
         24    2    1    2    0    0 -0.32624981632E+02 -0.69418826795E+02  0.22185056738E+03  0.24815699889E+03  0.80503781968E+02 0.  0.
         23    2    1    2    0    0 -0.13800026863E+02 -0.45118095984E+02  0.20297794210E+03  0.22773836858E+03  0.91862049927E+02 0.  0.
        -13    1    3    3    0    0 -0.94709291332E+01 -0.73026225917E+02  0.10064773624E+03  0.12470964269E+03  0.00000000000E+00 0.  1.
         14    1    3    3    0    0 -0.23154052499E+02  0.36073991218E+01  0.12120283115E+03  0.12344735620E+03  0.00000000000E+00 0. -1.
        -13    1    4    4    0    0  0.14485052780E+02 -0.51096541898E+02  0.53115127349E+02  0.75112516276E+02  0.00000000000E+00 0. -1.
         13    1    4    4    0    0 -0.28285079643E+02  0.59784459135E+01  0.14986281475E+03  0.15262585230E+03  0.00000000000E+00 0.  1.
         -2    1    1    2    0  502  0.46425008495E+02  0.11453692278E+03  0.35925048214E+03  0.37991432851E+03  0.00000000000E+00 0.  1.
<scales pt_clust_5="13000.00000" pt_clust_6="13000.00000" pt_clust_7="13000.00000" pt_clust_8="13000.00000" pt_clust_9="13000.00000"></scales>
<clustering>
<clus scale="   80.504">  5  6 -1 -1</clus>
<clus scale="   91.862">  7  8 -1 -1</clus>
<clus scale="  111.195">  1  5  2 -1</clus>
<clus scale="   75.242">  7  9 -1 -1</clus>
<clus scale="  230.523">  2  5  1 -1</clus>
</clustering>
</event>
<event>
 9    2  0.3707658E-005  0.2134015E+03  0.7546771E-02  0.1156462E+00
          2   -1    0    0  502    0 -0.00000000000E+00  0.00000000000E+00  0.23009979981E+03  0.23009979981E+03  0.00000000000E+00 0. -1.
         21   -1    0    0  501  502  0.00000000000E+00 -0.00000000000E+00 -0.19033832096E+03  0.19033832096E+03  0.00000000000E+00 0. -1.
         24    2    1    2    0    0  0.25974806365E+02 -0.98683225421E+02  0.12746628626E+03  0.18971678567E+03  0.96600906249E+02 0.  0.
         23    2    1    2    0    0  0.53637727325E+02  0.39862810942E+02 -0.27898134757E+02  0.11507171437E+03  0.89426752354E+02 0.  0.
        -13    1    3    3    0    0 -0.19201448976E+02 -0.64900468470E+02  0.11260751961E+03  0.13138196194E+03  0.00000000000E+00 0.  1.
         14    1    3    3    0    0  0.45176255341E+02 -0.33782756951E+02  0.14858766653E+02  0.58334823736E+02  0.00000000000E+00 0. -1.
        -13    1    4    4    0    0  0.13891835626E+02 -0.23797136082E+02  0.12025051317E+02  0.30064740843E+02  0.00000000000E+00 0. -1.
         13    1    4    4    0    0  0.39745891700E+02  0.63659947025E+02 -0.39923186074E+02  0.85006973528E+02  0.00000000000E+00 0.  1.
          1    1    1    2  501    0 -0.79612533690E+02  0.58820414478E+02 -0.59806672651E+02  0.11564962072E+03  0.00000000000E+00 0. -1.
<scales pt_clust_5="13000.00000" pt_clust_6="13000.00000" pt_clust_7="13000.00000" pt_clust_8="13000.00000" pt_clust_9="13000.00000"></scales>
<clustering>
<clus scale="   89.427">  7  8 -1 -1</clus>
<clus scale="   96.601">  5  6 -1 -1</clus>
<clus scale="   98.985">  7  9 -1 -1</clus>
<clus scale="  140.516">  1  5  2 -1</clus>
<clus scale="  213.402">  2  5  1 -1</clus>
</clustering>
</event>
<event>
 9    2  0.3707658E-005  0.2179980E+03  0.7546771E-02  0.1167358E+00
         21   -1    0    0  501  502  0.00000000000E+00  0.00000000000E+00  0.61832806571E+03  0.61832806571E+03  0.00000000000E+00 0.  1.
         -1   -1    0    0    0  501 -0.00000000000E+00 -0.00000000000E+00 -0.45852766222E+02  0.45852766222E+02  0.00000000000E+00 0.  1.
         24    2    1    2    0    0  0.14320104165E+02 -0.24822342586E+02  0.96612594361E+02  0.14076088802E+03  0.98277261521E+02 0.  0.
         23    2    1    2    0    0 -0.57035052037E+02 -0.32663423222E+02  0.41831966756E+03  0.43154839655E+03  0.83203232637E+02 0.  0.
        -13    1    3    3    0    0  0.37976105364E+02 -0.37498468400E+02  0.15876802837E+02  0.55681168983E+02  0.00000000000E+00 0.  1.
         14    1    3    3    0    0 -0.23656001198E+02  0.12676125814E+02  0.80735791524E+02  0.85079719037E+02  0.00000000000E+00 0. -1.
        -11    1    4    4    0    0 -0.62987915682E+02  0.34830627538E+01  0.32925847622E+03  0.33524730187E+03  0.00000000000E+00 0.  1.
         11    1    4    4    0    0  0.59528636452E+01 -0.36146485976E+02  0.89061191335E+02  0.96301094677E+02  0.00000000000E+00 0. -1.
         -2    1    1    2    0  502  0.42714947871E+02  0.57485765808E+02  0.57543037571E+02  0.91871547364E+02  0.00000000000E+00 0.  1.
<scales pt_clust_5="13000.00000" pt_clust_6="13000.00000" pt_clust_7="13000.00000" pt_clust_8="13000.00000" pt_clust_9="13000.00000"></scales>
<clustering>
<clus scale="   83.203">  7  8 -1 -1</clus>
<clus scale="   71.618">  7  9 -1 -1</clus>
<clus scale="   98.277">  5  6 -1 -1</clus>
<clus scale="  102.370">  2  5  1 -1</clus>
<clus scale="  217.998">  1  5  2 -1</clus>
</clustering>
</event>
<event>
 9    2  0.3707658E-005  0.2474543E+03  0.7546771E-02  0.1123465E+00
         21   -1    0    0  501  502  0.00000000000E+00  0.00000000000E+00  0.97624129676E+02  0.97624129676E+02  0.00000000000E+00 0. -1.
          2   -1    0    0  502    0 -0.00000000000E+00 -0.00000000000E+00 -0.89405069941E+03  0.89405069941E+03  0.00000000000E+00 0. -1.
         24    2    1    2    0    0 -0.18214695648E+03  0.14070830288E+02 -0.50936528143E+02  0.20618834157E+03  0.80892523030E+02 0.  0.
         23    2    1    2    0    0  0.13153981107E+03 -0.34004899100E+02 -0.35150422462E+03  0.38776387784E+03  0.91359454769E+02 0.  0.
        -11    1    3    3    0    0 -0.13467072567E+02  0.25660940848E+02 -0.17444858960E+02  0.33825567739E+02  0.00000000000E+00 0.  1.
         12    1    3    3    0    0 -0.16867988391E+03 -0.11590110560E+02 -0.33491669183E+02  0.17236277384E+03  0.00000000000E+00 0. -1.
        -13    1    4    4    0    0  0.80526235490E+02 -0.65379849109E+02 -0.22958958095E+03  0.25193327480E+03  0.00000000000E+00 0. -1.
         13    1    4    4    0    0  0.51013575580E+02  0.31374950009E+02 -0.12191464367E+03  0.13583060304E+03  0.00000000000E+00 0.  1.
          1    1    1    2  501    0  0.50607145408E+02  0.19934068812E+02 -0.39398581698E+03  0.39772260967E+03  0.00000000000E+00 0. -1.
<scales pt_clust_5="13000.00000" pt_clust_6="13000.00000" pt_clust_7="13000.00000" pt_clust_8="13000.00000" pt_clust_9="13000.00000"></scales>
<clustering>
<clus scale="   80.893">  5  6 -1 -1</clus>
<clus scale="   91.359">  7  8 -1 -1</clus>
<clus scale="   54.392">  7  9 -1 -1</clus>
<clus scale="  199.798">  2  5  1 -1</clus>
<clus scale="  247.454">  1  5  2 -1</clus>
</clustering>
</event>
<event>
 9    2  0.3707658E-005  0.2183576E+03  0.7546771E-02  0.1154411E+00
         -1   -1    0    0    0  501 -0.00000000000E+00  0.00000000000E+00  0.18201266486E+03  0.18201266486E+03  0.00000000000E+00 0.  1.
         21   -1    0    0  501  502  0.00000000000E+00 -0.00000000000E+00 -0.17473846793E+03  0.17473846793E+03  0.00000000000E+00 0.  1.
         24    2    1    2    0    0  0.11006427302E+03  0.11443227661E+02  0.13605622726E+02  0.13830172517E+03  0.81836193449E+02 0.  0.
         23    2    1    2    0    0  0.10729862996E+02  0.10820065093E+02  0.67350730489E+01  0.94927705516E+02  0.93454289881E+02 0.  0.
        -11    1    3    3    0    0  0.11781314259E+03  0.25091982252E+02  0.53652737450E+01  0.12057499866E+03  0.00000000000E+00 0.  1.
         12    1    3    3    0    0 -0.77488695606E+01 -0.13648754590E+02  0.82403489807E+01  0.17726726507E+02  0.00000000000E+00 0. -1.
        -11    1    4    4    0    0  0.62941002950E+01 -0.21143085720E+02 -0.35487810429E+02  0.41785529330E+02  0.00000000000E+00 0.  1.
         11    1    4    4    0    0  0.44357627006E+01  0.31963150813E+02  0.42222883478E+02  0.53142176187E+02  0.00000000000E+00 0. -1.
         -2    1    1    2    0  502 -0.12079413602E+03 -0.22263292754E+02 -0.13066498844E+02  0.12352170211E+03  0.00000000000E+00 0.  1.
<scales pt_clust_5="13000.00000" pt_clust_6="13000.00000" pt_clust_7="13000.00000" pt_clust_8="13000.00000" pt_clust_9="13000.00000"></scales>
<clustering>
<clus scale="   81.836">  5  6 -1 -1</clus>
<clus scale="   93.454">  7  8 -1 -1</clus>
<clus scale="  122.829">  7  9 -1 -1</clus>
<clus scale="  137.631">  1  5  2 -1</clus>
<clus scale="  218.358">  2  5  1 -1</clus>
</clustering>
</event>
<event>
 9    2  0.3707658E-005  0.1516526E+03  0.7546771E-02  0.1220628E+00
         21   -1    0    0  501  502  0.00000000000E+00  0.00000000000E+00  0.39734513235E+02  0.39734513235E+02  0.00000000000E+00 0. -1.
          2   -1    0    0  502    0 -0.00000000000E+00 -0.00000000000E+00 -0.40841172312E+03  0.40841172312E+03  0.00000000000E+00 0. -1.
         24    2    1    2    0    0  0.36913604363E+02  0.53249976922E+02 -0.20093412984E+03  0.22201296432E+03  0.68680838399E+02 0.  0.
         23    2    1    2    0    0 -0.38589537458E+01 -0.12951137324E+02 -0.13822368961E+03  0.16623334873E+03  0.91351597570E+02 0.  0.
        -13    1    3    3    0    0 -0.11514503585E+02  0.35076499918E+02 -0.12343348813E+03  0.12883621631E+03  0.00000000000E+00 0.  1.
         14    1    3    3    0    0  0.48428107948E+02  0.18173477004E+02 -0.77500641704E+02  0.93176748013E+02  0.00000000000E+00 0. -1.
        -11    1    4    4    0    0 -0.32739505898E+02  0.26665684552E+02 -0.76806937940E+02  0.87648386721E+02  0.00000000000E+00 0. -1.
         11    1    4    4    0    0  0.28880552152E+02 -0.39616821877E+02 -0.61416751672E+02  0.78584962011E+02  0.00000000000E+00 0.  1.
          1    1    1    2  501    0 -0.33054650617E+02 -0.40298839598E+02 -0.29519390440E+02  0.59899923308E+02  0.00000000000E+00 0. -1.
<scales pt_clust_5="13000.00000" pt_clust_6="13000.00000" pt_clust_7="13000.00000" pt_clust_8="13000.00000" pt_clust_9="13000.00000"></scales>
<clustering>
<clus scale="   68.681">  5  6 -1 -1</clus>
<clus scale="   91.352">  7  8 -1 -1</clus>
<clus scale="   52.121">  7  9 -1 -1</clus>
<clus scale="   94.421">  2  5  1 -1</clus>
<clus scale="  151.653">  1  5  2 -1</clus>
</clustering>
</event>
<event>
 9    2  0.3707658E-005  0.1973020E+03  0.7546771E-02  0.1190910E+00
         21   -1    0    0  501  502  0.00000000000E+00  0.00000000000E+00  0.39903882202E+02  0.39903882202E+02  0.00000000000E+00 0. -1.
          2   -1    0    0  502    0 -0.00000000000E+00 -0.00000000000E+00 -0.52676082031E+03  0.52676082031E+03  0.00000000000E+00 0. -1.
         24    2    1    2    0    0 -0.12464708174E+02  0.73235541266E+01 -0.77718831176E+02  0.11243782295E+03  0.79956512649E+02 0.  0.
         23    2    1    2    0    0 -0.14172489672E+02  0.61260697394E+02 -0.32011399063E+03  0.33873387913E+03  0.91180816871E+02 0.  0.
        -13    1    3    3    0    0  0.27114402273E+02 -0.18065100368E+02 -0.43184131368E+02  0.54096283273E+02  0.00000000000E+00 0.  1.
         14    1    3    3    0    0 -0.39579110447E+02  0.25388654494E+02 -0.34534699808E+02  0.58341539675E+02  0.00000000000E+00 0. -1.
        -11    1    4    4    0    0 -0.42059938786E+02  0.72509162407E+01 -0.19525290037E+03  0.19986322658E+03  0.00000000000E+00 0.  1.
         11    1    4    4    0    0  0.27887449114E+02  0.54009781154E+02 -0.12486109026E+03  0.13887065255E+03  0.00000000000E+00 0. -1.
          1    1    1    2  501    0  0.26637197846E+02 -0.68584251521E+02 -0.89024116300E+02  0.11549300043E+03  0.00000000000E+00 0. -1.
<scales pt_clust_5="13000.00000" pt_clust_6="13000.00000" pt_clust_7="13000.00000" pt_clust_8="13000.00000" pt_clust_9="13000.00000"></scales>
<clustering>
<clus scale="   79.957">  5  6 -1 -1</clus>
<clus scale="   81.253">  2  5  1 -1</clus>
<clus scale="   91.181">  7  8 -1 -1</clus>
<clus scale="   70.921">  7  9 -1 -1</clus>
<clus scale="  197.302">  1  5  2 -1</clus>
</clustering>
</event>
<event>
 9    2  0.3707658E-005  0.2786520E+03  0.7546771E-02  0.1139467E+00
          2   -1    0    0  502    0 -0.00000000000E+00  0.00000000000E+00  0.21817679774E+03  0.21817679774E+03  0.00000000000E+00 0. -1.
         21   -1    0    0  501  502  0.00000000000E+00 -0.00000000000E+00 -0.16142363665E+03  0.16142363665E+03  0.00000000000E+00 0. -1.
         24    2    1    2    0    0  0.42322301423E+02  0.24720325098E+02 -0.30698986141E+01  0.94599140644E+02  0.80853580393E+02 0.  0.
         23    2    1    2    0    0  0.78927667381E+02  0.53471919832E+02  0.12712233733E+02  0.13322839753E+03  0.92192093658E+02 0.  0.
        -13    1    3    3    0    0  0.52555049594E+02  0.56105525827E+01  0.25542942182E+02  0.58702243854E+02  0.00000000000E+00 0.  1.
         14    1    3    3    0    0 -0.10232748172E+02  0.19109772516E+02 -0.28612840796E+02  0.35896896790E+02  0.00000000000E+00 0. -1.
        -13    1    4    4    0    0  0.11464482688E+02 -0.25877671471E+02  0.24318770098E-03  0.28303502330E+02  0.00000000000E+00 0.  1.
         13    1    4    4    0    0  0.67463184693E+02  0.79349591303E+02  0.12711990546E+02  0.10492489520E+03  0.00000000000E+00 0. -1.
          1    1    1    2  501    0 -0.12124996880E+03 -0.78192244930E+02  0.47110825973E+02  0.15177289622E+03  0.00000000000E+00 0. -1.
<scales pt_clust_5="13000.00000" pt_clust_6="13000.00000" pt_clust_7="13000.00000" pt_clust_8="13000.00000" pt_clust_9="13000.00000"></scales>
<clustering>
<clus scale="   80.854">  5  6 -1 -1</clus>
<clus scale="   92.192">  7  8 -1 -1</clus>
<clus scale="   94.549">  1  5  2 -1</clus>
<clus scale="  116.041">  7  9 -1 -1</clus>
<clus scale="  278.652">  2  5  1 -1</clus>
</clustering>
</event>
<event>
 9    2  0.3707658E-005  0.1744386E+03  0.7546771E-02  0.1207089E+00
          2   -1    0    0  502    0 -0.00000000000E+00  0.00000000000E+00  0.78708547519E+03  0.78708547519E+03  0.00000000000E+00 0. -1.
         21   -1    0    0  501  502  0.00000000000E+00 -0.00000000000E+00 -0.62236977888E+02  0.62236977888E+02  0.00000000000E+00 0.  1.
         24    2    1    2    0    0 -0.98334958501E+01 -0.16523495557E+02  0.65695336587E+03  0.66213656516E+03  0.80420037639E+02 0.  0.
         23    2    1    2    0    0  0.41300553193E+02 -0.14597951103E+02 -0.71774288345E+01  0.10003883148E+03  0.89651639409E+02 0.  0.
        -11    1    3    3    0    0 -0.16125051853E+02 -0.16092651112E+02  0.47806723631E+02  0.52957280344E+02  0.00000000000E+00 0.  1.
         12    1    3    3    0    0  0.62915560024E+01 -0.43084444495E+00  0.60914664224E+03  0.60917928482E+03  0.00000000000E+00 0. -1.
        -11    1    4    4    0    0  0.22288019052E+02 -0.47208865303E+02  0.17359836209E+02  0.55016330936E+02  0.00000000000E+00 0. -1.
         11    1    4    4    0    0  0.19012534141E+02  0.32610914200E+02 -0.24537265044E+02  0.45022500544E+02  0.00000000000E+00 0.  1.
          1    1    1    2  501    0 -0.31467057343E+02  0.31121446660E+02  0.75072560269E+02  0.87147056435E+02  0.00000000000E+00 0. -1.
<scales pt_clust_5="13000.00000" pt_clust_6="13000.00000" pt_clust_7="13000.00000" pt_clust_8="13000.00000" pt_clust_9="13000.00000"></scales>
<clustering>
<clus scale="   80.420">  5  6 -1 -1</clus>
<clus scale="   82.687">  1  5  2 -1</clus>
<clus scale="   89.652">  7  8 -1 -1</clus>
<clus scale="   42.986">  7  9 -1 -1</clus>
<clus scale="  174.439">  2  5  1 -1</clus>
</clustering>
</event>
<event>
 9    2  0.3707658E-005  0.1941257E+03  0.7546771E-02  0.1164935E+00
         21   -1    0    0  501  502  0.00000000000E+00  0.00000000000E+00  0.10078410140E+03  0.10078410140E+03  0.00000000000E+00 0.  1.
          4   -1    0    0  502    0 -0.00000000000E+00 -0.00000000000E+00 -0.52361243841E+03  0.52361243841E+03  0.00000000000E+00 0. -1.
         24    2    1    2    0    0 -0.10979776321E+03  0.70433067060E+02  0.62806908114E+01  0.15341954750E+03  0.80509283546E+02 0.  0.
         23    2    1    2    0    0  0.47010946336E+02 -0.26269547937E+01 -0.21936733014E+03  0.24177962545E+03  0.90102340589E+02 0.  0.
        -11    1    3    3    0    0 -0.42399944024E+01  0.41143008542E+02  0.13834576814E+02  0.43613303246E+02  0.00000000000E+00 0.  1.
         12    1    3    3    0    0 -0.10555776881E+03  0.29290058518E+02 -0.75538860029E+01  0.10980624426E+03  0.00000000000E+00 0. -1.
        -13    1    4    4    0    0 -0.24345734230E+02 -0.14427901531E+02 -0.78194654668E+02  0.83158181416E+02  0.00000000000E+00 0.  1.
         13    1    4    4    0    0  0.71356680565E+02  0.11800946738E+02 -0.14117267548E+03  0.15862144403E+03  0.00000000000E+00 0. -1.
          3    1    1    2  501    0  0.62786816876E+02 -0.67806112266E+02 -0.20974169767E+03  0.22919736686E+03  0.00000000000E+00 0. -1.
<scales pt_clust_5="13000.00000" pt_clust_6="13000.00000" pt_clust_7="13000.00000" pt_clust_8="13000.00000" pt_clust_9="13000.00000"></scales>
<clustering>
<clus scale="   80.509">  5  6 -1 -1</clus>
<clus scale="   90.102">  7  8 -1 -1</clus>
<clus scale="   92.411">  7  9 -1 -1</clus>
<clus scale="  153.291">  2  5  1 -1</clus>
<clus scale="  194.126">  1  5  2 -1</clus>
</clustering>
</event>
<event>
 9    2  0.3707658E-005  0.2610475E+03  0.7546771E-02  0.1128538E+00
         21   -1    0    0  501  502  0.00000000000E+00  0.00000000000E+00  0.28840418643E+03  0.28840418643E+03  0.00000000000E+00 0. -1.
          4   -1    0    0  502    0 -0.00000000000E+00 -0.00000000000E+00 -0.14706112397E+03  0.14706112397E+03  0.00000000000E+00 0. -1.
         24    2    1    2    0    0  0.81449065159E+02 -0.93654793942E+02  0.39206878293E+02  0.15514837043E+03  0.84431433117E+02 0.  0.
         23    2    1    2    0    0  0.19220616009E+02 -0.93854802433E+01  0.98452781568E+02  0.13621541233E+03  0.91674255050E+02 0.  0.
        -11    1    3    3    0    0  0.68907813509E+01 -0.53542519698E+02 -0.13203575523E+02  0.55575342463E+02  0.00000000000E+00 0.  1.
         12    1    3    3    0    0  0.74558283808E+02 -0.40112274244E+02  0.52410453816E+02  0.99573027968E+02  0.00000000000E+00 0. -1.
        -13    1    4    4    0    0 -0.36870641978E+02 -0.77769976838E+01  0.45296524810E+02  0.58921143002E+02  0.00000000000E+00 0.  1.
         13    1    4    4    0    0  0.56091257986E+02 -0.16084825595E+01  0.53156256758E+02  0.77294269330E+02  0.00000000000E+00 0. -1.
          3    1    1    2  501    0 -0.10066968117E+03  0.10304027419E+03  0.36834025976E+01  0.14410152763E+03  0.00000000000E+00 0. -1.
<scales pt_clust_5="13000.00000" pt_clust_6="13000.00000" pt_clust_7="13000.00000" pt_clust_8="13000.00000" pt_clust_9="13000.00000"></scales>
<clustering>
<clus scale="   84.431">  5  6 -1 -1</clus>
<clus scale="   91.674">  7  8 -1 -1</clus>
<clus scale="  144.055">  7  9 -1 -1</clus>
<clus scale="  150.113">  2  5  1 -1</clus>
<clus scale="  261.047">  1  5  2 -1</clus>
</clustering>
</event>
<event>
 9    2  0.3707658E-005  0.3820140E+03  0.7546771E-02  0.1094661E+00
         21   -1    0    0  501  502  0.00000000000E+00  0.00000000000E+00  0.28141799865E+03  0.28141799865E+03  0.00000000000E+00 0. -1.
          2   -1    0    0  502    0 -0.00000000000E+00 -0.00000000000E+00 -0.63901155465E+03  0.63901155465E+03  0.00000000000E+00 0. -1.
         24    2    1    2    0    0  0.30081693649E+02 -0.73818967243E+02 -0.50005151377E+03  0.51271765370E+03  0.80459479055E+02 0.  0.
         23    2    1    2    0    0  0.68867872120E+02  0.14383879429E+03 -0.40011487117E+02  0.18864823064E+03  0.92492449793E+02 0.  0.
        -13    1    3    3    0    0  0.30973687710E+02  0.26752701337E+01 -0.81413103021E+02  0.87147115524E+02  0.00000000000E+00 0.  1.
         14    1    3    3    0    0 -0.89199406046E+00 -0.76494237376E+02 -0.41863841075E+03  0.42557053817E+03  0.00000000000E+00 0. -1.
        -13    1    4    4    0    0  0.20576483859E+02  0.66284458443E+02 -0.63765739816E+02  0.94250149567E+02  0.00000000000E+00 0. -1.
         13    1    4    4    0    0  0.48291388261E+02  0.77554335844E+02  0.23754252699E+02  0.94398081069E+02  0.00000000000E+00 0.  1.
          1    1    1    2  501    0 -0.98949565769E+02 -0.70019827045E+02  0.18246944488E+03  0.21906366897E+03  0.00000000000E+00 0. -1.
<scales pt_clust_5="13000.00000" pt_clust_6="13000.00000" pt_clust_7="13000.00000" pt_clust_8="13000.00000" pt_clust_9="13000.00000"></scales>
<clustering>
<clus scale="   80.459">  5  6 -1 -1</clus>
<clus scale="   92.492">  7  8 -1 -1</clus>
<clus scale="  113.260">  2  5  1 -1</clus>
<clus scale="  124.176">  7  9 -1 -1</clus>
<clus scale="  382.014">  1  5  2 -1</clus>
</clustering>
</event>
<event>
 9    2  0.3707658E-005  0.2182486E+03  0.7546771E-02  0.1161240E+00
         -3   -1    0    0    0  501 -0.00000000000E+00  0.00000000000E+00  0.16252223198E+03  0.16252223198E+03  0.00000000000E+00 0.  1.
         21   -1    0    0  501  502  0.00000000000E+00 -0.00000000000E+00 -0.19152752239E+03  0.19152752239E+03  0.00000000000E+00 0.  1.
         24    2    1    2    0    0 -0.84406595373E+02 -0.17784205046E+02 -0.62744512648E+02  0.13320870340E+03  0.79793066749E+02 0.  0.
         23    2    1    2    0    0  0.11607049838E+03  0.59701501513E+02  0.19320266801E+01  0.15942964987E+03  0.91528414457E+02 0.  0.
        -13    1    3    3    0    0 -0.89436206122E+02 -0.30586783255E+02 -0.32448696487E+02  0.99936500734E+02  0.00000000000E+00 0.  1.
         14    1    3    3    0    0  0.50296107481E+01  0.12802578209E+02 -0.30295816161E+02  0.33272202662E+02  0.00000000000E+00 0. -1.
        -11    1    4    4    0    0  0.85504938018E+02  0.76993680725E+02  0.24559356349E+02  0.11765323320E+03  0.00000000000E+00 0.  1.
         11    1    4    4    0    0  0.30565560365E+02 -0.17292179212E+02 -0.22627329669E+02  0.41776416675E+02  0.00000000000E+00 0. -1.
         -4    1    1    2    0  502 -0.31663903009E+02 -0.41917296467E+02  0.31807195551E+02  0.61411401105E+02  0.00000000000E+00 0.  1.
<scales pt_clust_5="13000.00000" pt_clust_6="13000.00000" pt_clust_7="13000.00000" pt_clust_8="13000.00000" pt_clust_9="13000.00000"></scales>
<clustering>
<clus scale="   79.793">  5  6 -1 -1</clus>
<clus scale="   91.528">  7  8 -1 -1</clus>
<clus scale="   52.533">  7  9 -1 -1</clus>
<clus scale="  117.506">  1  5  2 -1</clus>
<clus scale="  218.249">  2  5  1 -1</clus>
</clustering>
</event>
<event>
 9    2  0.3707658E-005  0.1715806E+03  0.7546771E-02  0.1209349E+00
          2   -1    0    0  502    0 -0.00000000000E+00  0.00000000000E+00  0.78871044451E+03  0.78871044451E+03  0.00000000000E+00 0. -1.
         21   -1    0    0  501  502  0.00000000000E+00 -0.00000000000E+00 -0.31228215443E+02  0.31228215443E+02  0.00000000000E+00 0. -1.
         24    2    1    2    0    0  0.84475280347E+01 -0.15410813079E+02  0.52229773038E+03  0.52881727907E+03  0.80894632668E+02 0.  0.
         23    2    1    2    0    0  0.95187622259E+01  0.58747634181E+02  0.21292247150E+03  0.23919387850E+03  0.91300828514E+02 0.  0.
        -11    1    3    3    0    0 -0.27077840744E+02  0.11142026893E+02  0.10005007083E+03  0.10424668290E+03  0.00000000000E+00 0.  1.
         12    1    3    3    0    0  0.35525368778E+02 -0.26552839972E+02  0.42224765956E+03  0.42457059618E+03  0.00000000000E+00 0. -1.
        -11    1    4    4    0    0  0.40456614239E+02  0.54289923148E+01  0.47336670461E+02  0.62505775442E+02  0.00000000000E+00 0. -1.
         11    1    4    4    0    0 -0.30937852013E+02  0.53318641866E+02  0.16558580104E+03  0.17668810306E+03  0.00000000000E+00 0.  1.
          1    1    1    2  501    0 -0.17966290261E+02 -0.43336821102E+02  0.22262027188E+02  0.51927502380E+02  0.00000000000E+00 0. -1.
<scales pt_clust_5="13000.00000" pt_clust_6="13000.00000" pt_clust_7="13000.00000" pt_clust_8="13000.00000" pt_clust_9="13000.00000"></scales>
<clustering>
<clus scale="   80.895">  5  6 -1 -1</clus>
<clus scale="   82.782">  1  5  2 -1</clus>
<clus scale="   91.301">  7  8 -1 -1</clus>
<clus scale="   48.503">  7  9 -1 -1</clus>
<clus scale="  171.581">  2  5  1 -1</clus>
</clustering>
</event>
<event>
 9    2  0.3707658E-005  0.2007650E+03  0.7546771E-02  0.1158734E+00
         -1   -1    0    0    0  501 -0.00000000000E+00  0.00000000000E+00  0.94889269524E+03  0.94889269524E+03  0.00000000000E+00 0.  1.
         21   -1    0    0  501  502  0.00000000000E+00 -0.00000000000E+00 -0.37864749103E+02  0.37864749103E+02  0.00000000000E+00 0. -1.
         24    2    1    2    0    0 -0.20366460586E+01 -0.13830986374E+03  0.55953401728E+03  0.58196789331E+03  0.80464563720E+02 0.  0.
         23    2    1    2    0    0 -0.22294659636E+02  0.96633187986E+02  0.17050315907E+03  0.21747533244E+03  0.91592401971E+02 0.  0.
        -13    1    3    3    0    0  0.56192097905E+01 -0.14386939014E+03  0.55001062192E+03  0.56854345583E+03  0.00000000000E+00 0.  1.
         14    1    3    3    0    0 -0.76558558491E+01  0.55595263974E+01  0.95233953554E+01  0.13424437480E+02  0.00000000000E+00 0. -1.
        -11    1    4    4    0    0  0.28433212841E+02  0.45826082184E+01  0.48852790370E+02  0.56710166791E+02  0.00000000000E+00 0.  1.
         11    1    4    4    0    0 -0.50727872476E+02  0.92050579768E+02  0.12165036870E+03  0.16076516565E+03  0.00000000000E+00 0. -1.
         -2    1    1    2    0  502  0.24331305694E+02  0.41676675755E+02  0.18099076979E+03  0.18731421860E+03  0.00000000000E+00 0.  1.
<scales pt_clust_5="13000.00000" pt_clust_6="13000.00000" pt_clust_7="13000.00000" pt_clust_8="13000.00000" pt_clust_9="13000.00000"></scales>
<clustering>
<clus scale="   80.465">  5  6 -1 -1</clus>
<clus scale="   91.592">  7  8 -1 -1</clus>
<clus scale="   48.259">  7  9 -1 -1</clus>
<clus scale="  160.026">  1  5  2 -1</clus>
<clus scale="  200.765">  2  5  1 -1</clus>
</clustering>
</event>
<event>
 9    2  0.3707658E-005  0.3480115E+03  0.7546771E-02  0.1113960E+00
         21   -1    0    0  501  502  0.00000000000E+00  0.00000000000E+00  0.67185565913E+02  0.67185565913E+02  0.00000000000E+00 0. -1.
          2   -1    0    0  502    0 -0.00000000000E+00 -0.00000000000E+00 -0.20706319323E+04  0.20706319323E+04  0.00000000000E+00 0. -1.
         24    2    1    2    0    0 -0.33576597583E+02 -0.21175396042E+02 -0.16098625882E+04  0.16124412254E+04  0.82057095763E+02 0.  0.
         23    2    1    2    0    0  0.82468513068E+02 -0.66717077383E+02 -0.22448600891E+02  0.14085471807E+03  0.89910443546E+02 0.  0.
        -13    1    3    3    0    0 -0.11068829261E+02  0.18583509906E+02 -0.12372470826E+03  0.12560123111E+03  0.00000000000E+00 0.  1.
         14    1    3    3    0    0 -0.22507768321E+02 -0.39758905948E+02 -0.14861378800E+04  0.14868399943E+04  0.00000000000E+00 0. -1.
        -13    1    4    4    0    0 -0.32678886229E+00 -0.39270930090E+02 -0.35154642162E+02  0.52708268864E+02  0.00000000000E+00 0.  1.
         13    1    4    4    0    0  0.82795301931E+02 -0.27446147292E+02  0.12706041271E+02  0.88146449207E+02  0.00000000000E+00 0. -1.
          1    1    1    2  501    0 -0.48891915486E+02  0.87892473425E+02 -0.37113517724E+03  0.38452155475E+03  0.00000000000E+00 0. -1.
<scales pt_clust_5="13000.00000" pt_clust_6="13000.00000" pt_clust_7="13000.00000" pt_clust_8="13000.00000" pt_clust_9="13000.00000"></scales>
<clustering>
<clus scale="   82.057">  5  6 -1 -1</clus>
<clus scale="   89.910">  7  8 -1 -1</clus>
<clus scale="   91.155">  2  5  1 -1</clus>
<clus scale="  104.019">  7  9 -1 -1</clus>
<clus scale="  348.012">  1  5  2 -1</clus>
</clustering>
</event>
<event>
 9    2  0.3707658E-005  0.6580121E+03  0.7546771E-02  0.9992017E-01
          4   -1    0    0  502    0 -0.00000000000E+00  0.00000000000E+00  0.45165296931E+03  0.45165296931E+03  0.00000000000E+00 0. -1.
         21   -1    0    0  501  502  0.00000000000E+00 -0.00000000000E+00 -0.55764963520E+03  0.55764963520E+03  0.00000000000E+00 0. -1.
         24    2    1    2    0    0 -0.26994538421E+03 -0.19868393150E+03 -0.51385605640E+02  0.34902815704E+03  0.82670181122E+02 0.  0.
         23    2    1    2    0    0  0.90804134994E+02 -0.18345451771E+03  0.39196641489E+02  0.22793052599E+03  0.92276741239E+02 0.  0.
        -11    1    3    3    0    0 -0.63640906619E+02 -0.96402578312E+01 -0.20273505793E+02  0.67484180394E+02  0.00000000000E+00 0.  1.
         12    1    3    3    0    0 -0.20630447759E+03 -0.18904367367E+03 -0.31112099847E+02  0.28154397664E+03  0.00000000000E+00 0. -1.
        -11    1    4    4    0    0  0.10130362443E+03 -0.14829006632E+03  0.55218893311E+02  0.18788691884E+03  0.00000000000E+00 0. -1.
         11    1    4    4    0    0 -0.10499489440E+02 -0.35164451392E+02 -0.16022251822E+02  0.40043607151E+02  0.00000000000E+00 0.  1.
          3    1    1    2  501    0  0.17914124921E+03  0.38213844921E+03 -0.93807701745E+02  0.43234392148E+03  0.00000000000E+00 0. -1.
<scales pt_clust_5="13000.00000" pt_clust_6="13000.00000" pt_clust_7="13000.00000" pt_clust_8="13000.00000" pt_clust_9="13000.00000"></scales>
<clustering>
<clus scale="   82.670">  5  6 -1 -1</clus>
<clus scale="   92.277">  7  8 -1 -1</clus>
<clus scale="  345.225">  1  5  2 -1</clus>
<clus scale="  272.553">  7  9 -1 -1</clus>
<clus scale="  658.012">  2  5  1 -1</clus>
</clustering>
</event>
<event>
 9    2  0.3707658E-005  0.2315756E+03  0.7546771E-02  0.1161547E+00
         21   -1    0    0  501  502  0.00000000000E+00  0.00000000000E+00  0.10036568423E+03  0.10036568423E+03  0.00000000000E+00 0.  1.
          2   -1    0    0  502    0 -0.00000000000E+00 -0.00000000000E+00 -0.43379073049E+03  0.43379073049E+03  0.00000000000E+00 0. -1.
         24    2    1    2    0    0  0.54757594051E+02 -0.36843187964E+01  0.30922501197E+02  0.10244308890E+03  0.80786243079E+02 0.  0.
         23    2    1    2    0    0  0.40367446131E+02 -0.25241779377E+02 -0.85563164298E+02  0.13572983858E+03  0.93993913966E+02 0.  0.
        -11    1    3    3    0    0  0.48975257602E+02  0.99936114432E+01  0.54895963615E+02  0.74242945443E+02  0.00000000000E+00 0.  1.
         12    1    3    3    0    0  0.57823364491E+01 -0.13677930240E+02 -0.23973462417E+02  0.28200143452E+02  0.00000000000E+00 0. -1.
        -13    1    4    4    0    0  0.29507560234E+02  0.30286603474E+02 -0.14086150864E+02  0.44568981446E+02  0.00000000000E+00 0.  1.
         13    1    4    4    0    0  0.10859885897E+02 -0.55528382851E+02 -0.71477013434E+02  0.91160857133E+02  0.00000000000E+00 0. -1.
          1    1    1    2  501    0 -0.95125040182E+02  0.28926098174E+02 -0.27878438317E+03  0.29598348725E+03  0.00000000000E+00 0. -1.
<scales pt_clust_5="13000.00000" pt_clust_6="13000.00000" pt_clust_7="13000.00000" pt_clust_8="13000.00000" pt_clust_9="13000.00000"></scales>
<clustering>
<clus scale="   80.786">  5  6 -1 -1</clus>
<clus scale="   93.994">  7  8 -1 -1</clus>
<clus scale="   97.665">  2  5  1 -1</clus>
<clus scale="   61.482">  7  9 -1 -1</clus>
<clus scale="  231.576">  1  5  2 -1</clus>
</clustering>
</event>
<event>
 9    2  0.3707658E-005  0.3076149E+03  0.7546771E-02  0.1130610E+00
          2   -1    0    0  502    0 -0.00000000000E+00  0.00000000000E+00  0.20686094028E+03  0.20686094028E+03  0.00000000000E+00 0. -1.
         21   -1    0    0  501  502  0.00000000000E+00 -0.00000000000E+00 -0.21317884533E+03  0.21317884533E+03  0.00000000000E+00 0. -1.
         24    2    1    2    0    0 -0.29472559955E+02 -0.23652569700E+02  0.59382555574E+02  0.10548698476E+03  0.78569333733E+02 0.  0.
         23    2    1    2    0    0 -0.42635273558E+02  0.11243026448E+03 -0.11424616535E+03  0.19030424275E+03  0.93301594782E+02 0.  0.
        -11    1    3    3    0    0  0.11202116037E+01 -0.47335868213E+02  0.41087394349E+02  0.62690615469E+02  0.00000000000E+00 0.  1.
         12    1    3    3    0    0 -0.30592771559E+02  0.23683298513E+02  0.18295161224E+02  0.42796369289E+02  0.00000000000E+00 0. -1.
        -11    1    4    4    0    0 -0.20860906589E+02  0.26417867155E+02  0.12226400687E+02  0.35812930661E+02  0.00000000000E+00 0.  1.
         11    1    4    4    0    0 -0.21774366969E+02  0.86012397322E+02 -0.12647256604E+03  0.15449131209E+03  0.00000000000E+00 0. -1.
          1    1    1    2  501    0  0.72107833514E+02 -0.88777694777E+02  0.48545704729E+02  0.12424855811E+03  0.00000000000E+00 0. -1.
<scales pt_clust_5="13000.00000" pt_clust_6="13000.00000" pt_clust_7="13000.00000" pt_clust_8="13000.00000" pt_clust_9="13000.00000"></scales>
<clustering>
<clus scale="   78.569">  5  6 -1 -1</clus>
<clus scale="   87.185">  1  5  2 -1</clus>
<clus scale="   93.302">  7  8 -1 -1</clus>
<clus scale="  117.194">  7  9 -1 -1</clus>
<clus scale="  307.615">  2  5  1 -1</clus>
</clustering>
</event>
<event>
 9    2  0.3707658E-005  0.4078119E+03  0.7546771E-02  0.1080449E+00
          4   -1    0    0  502    0 -0.00000000000E+00  0.00000000000E+00  0.17190900796E+04  0.17190900796E+04  0.00000000000E+00 0. -1.
         21   -1    0    0  501  502  0.00000000000E+00 -0.00000000000E+00 -0.43338493594E+02  0.43338493594E+02  0.00000000000E+00 0. -1.
         24    2    1    2    0    0  0.96177703638E+02 -0.54721799751E+02  0.49223121051E+03  0.51061748783E+03  0.78702148808E+02 0.  0.
         23    2    1    2    0    0  0.48292003495E+02  0.15510772295E+03  0.31782502576E+03  0.36842143838E+03  0.91274782602E+02 0.  0.
        -11    1    3    3    0    0  0.22481620988E+02  0.19304370345E+02  0.78582596517E+02  0.83983965565E+02  0.00000000000E+00 0.  1.
         12    1    3    3    0    0  0.73696082650E+02 -0.74026170096E+02  0.41364861400E+03  0.42663352226E+03  0.00000000000E+00 0. -1.
        -11    1    4    4    0    0 -0.77213725853E+01  0.78066639498E+02  0.21196805617E+03  0.22601875284E+03  0.00000000000E+00 0.  1.
         11    1    4    4    0    0  0.56013376081E+02  0.77041083448E+02  0.10585696958E+03  0.14240268554E+03  0.00000000000E+00 0. -1.
          3    1    1    2  501    0 -0.14446970713E+03 -0.10038592320E+03  0.86569534975E+03  0.88338964701E+03  0.00000000000E+00 0. -1.
<scales pt_clust_5="13000.00000" pt_clust_6="13000.00000" pt_clust_7="13000.00000" pt_clust_8="13000.00000" pt_clust_9="13000.00000"></scales>
<clustering>
<clus scale="   78.702">  5  6 -1 -1</clus>
<clus scale="   91.275">  7  8 -1 -1</clus>
<clus scale="  135.789">  1  5  2 -1</clus>
<clus scale="  158.735">  7  9 -1 -1</clus>
<clus scale="  407.812">  2  5  1 -1</clus>
</clustering>
</event>
<event>
 9    2  0.3707658E-005  0.1574898E+03  0.7546771E-02  0.1211704E+00
          2   -1    0    0  502    0 -0.00000000000E+00  0.00000000000E+00  0.23541782897E+03  0.23541782897E+03  0.00000000000E+00 0. -1.
         21   -1    0    0  501  502  0.00000000000E+00 -0.00000000000E+00 -0.19454420114E+03  0.19454420114E+03  0.00000000000E+00 0. -1.
         24    2    1    2    0    0  0.57383134627E+02  0.17143154690E+02  0.18841420032E+03  0.21415829972E+03  0.82323475183E+02 0.  0.
         23    2    1    2    0    0 -0.66255152735E+02 -0.45449067341E+02 -0.13943469510E+03  0.18505242725E+03  0.91361937631E+02 0.  0.
        -13    1    3    3    0    0 -0.19569788160E+01 -0.27483369384E+02  0.50392769771E+02  0.57433410172E+02  0.00000000000E+00 0.  1.
         14    1    3    3    0    0  0.59340113443E+02  0.44626524074E+02  0.13802143055E+03  0.15672488955E+03  0.00000000000E+00 0. -1.
        -13    1    4    4    0    0 -0.75127788077E+02 -0.14470287119E+02 -0.13106042386E+03  0.15175772946E+03  0.00000000000E+00 0.  1.
         13    1    4    4    0    0  0.88726353420E+01 -0.30978780222E+02 -0.83742712467E+01  0.33294697789E+02  0.00000000000E+00 0. -1.
          1    1    1    2  501    0  0.88720181080E+01  0.28305912651E+02 -0.81058773890E+01  0.30751303136E+02  0.00000000000E+00 0. -1.
<scales pt_clust_5="13000.00000" pt_clust_6="13000.00000" pt_clust_7="13000.00000" pt_clust_8="13000.00000" pt_clust_9="13000.00000"></scales>
<clustering>
<clus scale="   82.323">  5  6 -1 -1</clus>
<clus scale="   91.362">  7  8 -1 -1</clus>
<clus scale="   29.664">  7  9 -1 -1</clus>
<clus scale="  101.803">  1  5  2 -1</clus>
<clus scale="  157.490">  2  5  1 -1</clus>
</clustering>
</event>
<event>
 9    2  0.3707658E-005  0.3038122E+03  0.7546771E-02  0.1095785E+00
          2   -1    0    0  502    0 -0.00000000000E+00  0.00000000000E+00  0.11868972244E+04  0.11868972244E+04  0.00000000000E+00 0. -1.
         21   -1    0    0  501  502  0.00000000000E+00 -0.00000000000E+00 -0.66250529950E+02  0.66250529950E+02  0.00000000000E+00 0. -1.
         24    2    1    2    0    0  0.30391203824E+02 -0.20079478636E+03  0.70620941596E+03  0.73927995167E+03  0.80999606505E+02 0.  0.
         23    2    1    2    0    0  0.67333918864E+02  0.50288617756E+02  0.15087868340E+03  0.19501761930E+03  0.90579760584E+02 0.  0.
        -13    1    3    3    0    0  0.35232376819E+02 -0.26220361690E+02  0.13408463200E+03  0.14109399803E+03  0.00000000000E+00 0.  1.
         14    1    3    3    0    0 -0.48411729942E+01 -0.17457442467E+03  0.57212478396E+03  0.59818595363E+03  0.00000000000E+00 0. -1.
        -11    1    4    4    0    0  0.10085885131E+02  0.28270010591E+02  0.12481492223E+03  0.12837321913E+03  0.00000000000E+00 0.  1.
         11    1    4    4    0    0  0.57248033733E+02  0.22018607165E+02  0.26063761164E+02  0.66644400168E+02  0.00000000000E+00 0. -1.
          1    1    1    2  501    0 -0.97725122688E+02  0.15050616861E+03  0.26355859509E+03  0.31885018338E+03  0.00000000000E+00 0. -1.
<scales pt_clust_5="13000.00000" pt_clust_6="13000.00000" pt_clust_7="13000.00000" pt_clust_8="13000.00000" pt_clust_9="13000.00000"></scales>
<clustering>
<clus scale="   81.000">  5  6 -1 -1</clus>
<clus scale="   90.580">  7  8 -1 -1</clus>
<clus scale="  179.450">  7  9 -1 -1</clus>
<clus scale="  218.639">  1  5  2 -1</clus>
<clus scale="  303.812">  2  5  1 -1</clus>
</clustering>
</event>
<event>
 9    2  0.3707658E-005  0.2198195E+03  0.7546771E-02  0.1170152E+00
         21   -1    0    0  501  502  0.00000000000E+00  0.00000000000E+00  0.62056286111E+03  0.62056286111E+03  0.00000000000E+00 0.  1.
         -1   -1    0    0    0  501 -0.00000000000E+00 -0.00000000000E+00 -0.11733480812E+03  0.11733480812E+03  0.00000000000E+00 0.  1.
         24    2    1    2    0    0  0.37568062391E+02  0.35678336198E+02 -0.74560207731E+02  0.11970686776E+03  0.78014143752E+02 0.  0.
         23    2    1    2    0    0  0.39328871428E+02 -0.32434577870E+02  0.17152897463E+03  0.20470529032E+03  0.99414811669E+02 0.  0.
        -13    1    3    3    0    0  0.59540882569E+02  0.38913172666E+02 -0.60852919809E+02  0.93607849849E+02  0.00000000000E+00 0.  1.
         14    1    3    3    0    0 -0.21972820178E+02 -0.32348364682E+01 -0.13707287922E+02  0.26099017907E+02  0.00000000000E+00 0. -1.
        -13    1    4    4    0    0  0.51416155130E+02  0.14670137487E+02  0.13067807270E+03  0.14119345816E+03  0.00000000000E+00 0.  1.
         13    1    4    4    0    0 -0.12087283702E+02 -0.47104715357E+02  0.40850901921E+02  0.63511832157E+02  0.00000000000E+00 0. -1.
         -2    1    1    2    0  502 -0.76896933819E+02 -0.32437583273E+01  0.40625928610E+03  0.41348551116E+03  0.00000000000E+00 0.  1.
<scales pt_clust_5="13000.00000" pt_clust_6="13000.00000" pt_clust_7="13000.00000" pt_clust_8="13000.00000" pt_clust_9="13000.00000"></scales>
<clustering>
<clus scale="   78.014">  5  6 -1 -1</clus>
<clus scale="   93.651">  2  5  1 -1</clus>
<clus scale="   99.415">  7  8 -1 -1</clus>
<clus scale="   70.248">  7  9 -1 -1</clus>
<clus scale="  219.819">  1  5  2 -1</clus>
</clustering>
</event>
<event>
 9    2  0.3707658E-005  0.1559900E+03  0.7546771E-02  0.1221240E+00
         21   -1    0    0  501  502  0.00000000000E+00  0.00000000000E+00  0.44713697505E+02  0.44713697505E+02  0.00000000000E+00 0. -1.
          2   -1    0    0  502    0 -0.00000000000E+00 -0.00000000000E+00 -0.60110042916E+03  0.60110042916E+03  0.00000000000E+00 0. -1.
         24    2    1    2    0    0 -0.27177930566E+01 -0.11530477392E+02 -0.44739206710E+03  0.45551772659E+03  0.84831593345E+02 0.  0.
         23    2    1    2    0    0  0.11913985112E+02  0.43724518864E+02 -0.32447842065E+02  0.10674735886E+03  0.91040428256E+02 0.  0.
        -13    1    3    3    0    0  0.27786592443E+02  0.57804194124E+01 -0.58231006911E+02  0.64779303285E+02  0.00000000000E+00 0.  1.
         14    1    3    3    0    0 -0.30504385500E+02 -0.17310896804E+02 -0.38916106019E+03  0.39073842331E+03  0.00000000000E+00 0. -1.
        -11    1    4    4    0    0 -0.10847794054E+02  0.18860096788E+02  0.29241977959E+02  0.36448198332E+02  0.00000000000E+00 0. -1.
         11    1    4    4    0    0  0.22761779166E+02  0.24864422076E+02 -0.61689820023E+02  0.70299160525E+02  0.00000000000E+00 0.  1.
          1    1    1    2  501    0 -0.91961920557E+01 -0.32194041473E+02 -0.76546822496E+02  0.83549041220E+02  0.00000000000E+00 0. -1.
<scales pt_clust_5="13000.00000" pt_clust_6="13000.00000" pt_clust_7="13000.00000" pt_clust_8="13000.00000" pt_clust_9="13000.00000"></scales>
<clustering>
<clus scale="   84.832">  5  6 -1 -1</clus>
<clus scale="   85.655">  2  5  1 -1</clus>
<clus scale="   91.040">  7  8 -1 -1</clus>
<clus scale="   39.813">  7  9 -1 -1</clus>
<clus scale="  155.990">  1  5  2 -1</clus>
</clustering>
</event>
<event>
 9    2  0.3707658E-005  0.3265313E+03  0.7546771E-02  0.1097845E+00
         21   -1    0    0  501  502  0.00000000000E+00  0.00000000000E+00  0.13705655331E+03  0.13705655331E+03  0.00000000000E+00 0. -1.
          2   -1    0    0  502    0 -0.00000000000E+00 -0.00000000000E+00 -0.75131808265E+03  0.75131808265E+03  0.00000000000E+00 0. -1.
         24    2    1    2    0    0  0.14337343425E+03 -0.29338343919E+02 -0.52351127915E+03  0.54946712913E+03  0.80208394336E+02 0.  0.
         23    2    1    2    0    0  0.65806819758E+02  0.29380398169E+02 -0.23912021308E+02  0.11930848753E+03  0.92027089001E+02 0.  0.
        -13    1    3    3    0    0  0.45411195514E+02  0.19539319824E+02 -0.93814603688E+02  0.10604311181E+03  0.00000000000E+00 0.  1.
         14    1    3    3    0    0  0.97962238738E+02 -0.48877663743E+02 -0.42969667546E+03  0.44342401732E+03  0.00000000000E+00 0. -1.
        -13    1    4    4    0    0  0.41665337651E+02 -0.23585338301E+02  0.13951689579E+02  0.49869010281E+02  0.00000000000E+00 0.  1.
         13    1    4    4    0    0  0.24141482108E+02  0.52965736470E+02 -0.37863710887E+02  0.69439477247E+02  0.00000000000E+00 0. -1.
          1    1    1    2  501    0 -0.20918025401E+03 -0.42054250125E-01 -0.66838228881E+02  0.21959901930E+03  0.00000000000E+00 0. -1.
<scales pt_clust_5="13000.00000" pt_clust_6="13000.00000" pt_clust_7="13000.00000" pt_clust_8="13000.00000" pt_clust_9="13000.00000"></scales>
<clustering>
<clus scale="   80.208">  5  6 -1 -1</clus>
<clus scale="   92.027">  7  8 -1 -1</clus>
<clus scale="  166.883">  2  5  1 -1</clus>
<clus scale="  115.277">  7  9 -1 -1</clus>
<clus scale="  326.531">  1  5  2 -1</clus>
</clustering>
</event>
<event>
 9    2  0.3707658E-005  0.2698507E+03  0.7546771E-02  0.1116260E+00
         21   -1    0    0  501  502  0.00000000000E+00  0.00000000000E+00  0.37939953680E+03  0.37939953680E+03  0.00000000000E+00 0. -1.
          2   -1    0    0  502    0 -0.00000000000E+00 -0.00000000000E+00 -0.13856093764E+03  0.13856093764E+03  0.00000000000E+00 0. -1.
         24    2    1    2    0    0  0.16069906736E+03  0.41761006943E+02  0.13264478010E+03  0.22722811041E+03  0.80435095088E+02 0.  0.
         23    2    1    2    0    0 -0.22734714664E+02 -0.46029241693E+02 -0.17421784629E+02  0.10409994367E+03  0.88869124842E+02 0.  0.
        -13    1    3    3    0    0  0.15993250449E+02 -0.20516089276E+02  0.27326388844E+02  0.37728311735E+02  0.00000000000E+00 0.  1.
         14    1    3    3    0    0  0.14470581691E+03  0.62277096220E+02  0.10531839126E+03  0.18949979868E+03  0.00000000000E+00 0. -1.
        -13    1    4    4    0    0 -0.47348332337E+02  0.22873036039E+00 -0.20532097767E+02  0.51608952047E+02  0.00000000000E+00 0.  1.
         13    1    4    4    0    0  0.24613617673E+02 -0.46257972053E+02  0.31103131382E+01  0.52490991620E+02  0.00000000000E+00 0. -1.
          1    1    1    2  501    0 -0.13796435269E+03  0.42682347498E+01  0.12561560369E+03  0.18663242037E+03  0.00000000000E+00 0. -1.
<scales pt_clust_5="13000.00000" pt_clust_6="13000.00000" pt_clust_7="13000.00000" pt_clust_8="13000.00000" pt_clust_9="13000.00000"></scales>
<clustering>
<clus scale="   80.435">  5  6 -1 -1</clus>
<clus scale="   88.869">  7  8 -1 -1</clus>
<clus scale="  138.030">  7  9 -1 -1</clus>
<clus scale="  184.494">  2  5  1 -1</clus>
<clus scale="  269.851">  1  5  2 -1</clus>
</clustering>
</event>
<event>
 9    2  0.3707658E-005  0.4181423E+03  0.7546771E-02  0.1063401E+00
          2   -1    0    0  502    0 -0.00000000000E+00  0.00000000000E+00  0.10877069389E+04  0.10877069389E+04  0.00000000000E+00 0. -1.
         21   -1    0    0  501  502  0.00000000000E+00 -0.00000000000E+00 -0.10050779034E+03  0.10050779034E+03  0.00000000000E+00 0.  1.
         24    2    1    2    0    0  0.17809807512E+03  0.47800999002E+02  0.53927265892E+03  0.57544961501E+03  0.79519801880E+02 0.  0.
         23    2    1    2    0    0 -0.70374319828E+02  0.12495557658E+03  0.71281153488E+02  0.18461683254E+03  0.91847324423E+02 0.  0.
        -13    1    3    3    0    0  0.58520560319E+02  0.43988014714E+02  0.13169516891E+03  0.15067587376E+03  0.00000000000E+00 0.  1.
         14    1    3    3    0    0  0.11957751480E+03  0.38129842882E+01  0.40757749001E+03  0.42477374126E+03  0.00000000000E+00 0. -1.
        -11    1    4    4    0    0 -0.89336923158E+02  0.90925064421E+02  0.37017380095E+02  0.13273560038E+03  0.00000000000E+00 0.  1.
         11    1    4    4    0    0  0.18962603331E+02  0.34030512163E+02  0.34263773394E+02  0.51881232159E+02  0.00000000000E+00 0. -1.
          1    1    1    2  501    0 -0.10772375529E+03 -0.17275657559E+03  0.37664533613E+03  0.42814828167E+03  0.00000000000E+00 0. -1.
<scales pt_clust_5="13000.00000" pt_clust_6="13000.00000" pt_clust_7="13000.00000" pt_clust_8="13000.00000" pt_clust_9="13000.00000"></scales>
<clustering>
<clus scale="   79.520">  5  6 -1 -1</clus>
<clus scale="   91.847">  7  8 -1 -1</clus>
<clus scale="  200.816">  1  5  2 -1</clus>
<clus scale="  139.212">  7  9 -1 -1</clus>
<clus scale="  418.142">  2  5  1 -1</clus>
</clustering>
</event>
<event>
 9    2  0.3707658E-005  0.1915445E+03  0.7546771E-02  0.1187117E+00
         21   -1    0    0  501  502  0.00000000000E+00  0.00000000000E+00  0.45655087673E+03  0.45655087673E+03  0.00000000000E+00 0. -1.
         -1   -1    0    0    0  501 -0.00000000000E+00 -0.00000000000E+00 -0.46938485471E+02  0.46938485471E+02  0.00000000000E+00 0.  1.
         24    2    1    2    0    0  0.17983922918E+02  0.52899685587E+02  0.18172789909E+03  0.20579718629E+03  0.78775975775E+02 0.  0.
         23    2    1    2    0    0  0.19103823917E+02  0.27113084940E+02  0.15769827351E+03  0.18498170744E+03  0.90826269085E+02 0.  0.
        -11    1    3    3    0    0  0.49203056434E+02  0.30179292065E+02  0.10160159629E+03  0.11685296231E+03  0.00000000000E+00 0.  1.
         12    1    3    3    0    0 -0.31219133516E+02  0.22720393522E+02  0.80126302801E+02  0.88944223983E+02  0.00000000000E+00 0. -1.
        -13    1    4    4    0    0 -0.97590189784E+01 -0.18730310481E+02  0.11239616480E+03  0.11436328451E+03  0.00000000000E+00 0. -1.
         13    1    4    4    0    0  0.28862842896E+02  0.45843395420E+02  0.45302108715E+02  0.70618422934E+02  0.00000000000E+00 0.  1.
         -2    1    1    2    0  502 -0.37087746836E+02 -0.80012770527E+02  0.70186218656E+02  0.11271046847E+03  0.00000000000E+00 0.  1.
<scales pt_clust_5="13000.00000" pt_clust_6="13000.00000" pt_clust_7="13000.00000" pt_clust_8="13000.00000" pt_clust_9="13000.00000"></scales>
<clustering>
<clus scale="   78.776">  5  6 -1 -1</clus>
<clus scale="   90.826">  7  8 -1 -1</clus>
<clus scale="   88.190">  7  9 -1 -1</clus>
<clus scale="   96.579">  2  5  1 -1</clus>
<clus scale="  191.544">  1  5  2 -1</clus>
</clustering>
</event>
<event>
 9    2  0.3707658E-005  0.6139590E+03  0.7546771E-02  0.1038049E+00
         21   -1    0    0  501  502  0.00000000000E+00  0.00000000000E+00  0.13431944917E+03  0.13431944917E+03  0.00000000000E+00 0. -1.
          2   -1    0    0  502    0 -0.00000000000E+00 -0.00000000000E+00 -0.10437781059E+04  0.10437781059E+04  0.00000000000E+00 0. -1.
         24    2    1    2    0    0 -0.83210775864E+02  0.58670175742E+02 -0.11500110409E+03  0.17405152303E+03  0.81868528666E+02 0.  0.
         23    2    1    2    0    0  0.16317445001E+03 -0.16999559460E+03 -0.63083642761E+02  0.25993896037E+03  0.89801524576E+02 0.  0.
        -11    1    3    3    0    0 -0.71190008994E+02  0.79420437502E+02 -0.94715702872E+02  0.14264181590E+03  0.00000000000E+00 0.  1.
         12    1    3    3    0    0 -0.12020766870E+02 -0.20750261760E+02 -0.20285401223E+02  0.31409707131E+02  0.00000000000E+00 0. -1.
        -11    1    4    4    0    0  0.15995732545E+03 -0.13127053942E+03 -0.30367917696E+02  0.20914232214E+03  0.00000000000E+00 0. -1.
         11    1    4    4    0    0  0.32171245570E+01 -0.38725055175E+02 -0.32715725064E+02  0.50796638228E+02  0.00000000000E+00 0.  1.
          1    1    1    2  501    0 -0.79963674146E+02  0.11132541885E+03 -0.73137390989E+03  0.74410707169E+03  0.00000000000E+00 0. -1.
<scales pt_clust_5="13000.00000" pt_clust_6="13000.00000" pt_clust_7="13000.00000" pt_clust_8="13000.00000" pt_clust_9="13000.00000"></scales>
<clustering>
<clus scale="   81.869">  5  6 -1 -1</clus>
<clus scale="   89.802">  7  8 -1 -1</clus>
<clus scale="  130.647">  2  5  1 -1</clus>
<clus scale="  217.713">  7  9 -1 -1</clus>
<clus scale="  613.959">  1  5  2 -1</clus>
</clustering>
</event>
<event>
 9    2  0.3707658E-005  0.3225109E+03  0.7546771E-02  0.1109662E+00
         21   -1    0    0  501  502  0.00000000000E+00  0.00000000000E+00  0.18601378644E+03  0.18601378644E+03  0.00000000000E+00 0. -1.
          2   -1    0    0  502    0 -0.00000000000E+00 -0.00000000000E+00 -0.27337175809E+03  0.27337175809E+03  0.00000000000E+00 0. -1.
         24    2    1    2    0    0  0.77964230560E+02  0.59559440326E+02 -0.36837700750E+02  0.13294167713E+03  0.81796852897E+02 0.  0.
         23    2    1    2    0    0  0.80048927367E+02 -0.72860036908E+01 -0.92023781144E+02  0.15491191230E+03  0.95228187291E+02 0.  0.
        -11    1    3    3    0    0 -0.65575490235E+01  0.37192226311E+02  0.74939924571E+00  0.37773333800E+02  0.00000000000E+00 0.  1.
         12    1    3    3    0    0  0.84521779584E+02  0.22367214016E+02 -0.37587099996E+02  0.95168343334E+02  0.00000000000E+00 0. -1.
        -11    1    4    4    0    0  0.28573266764E+02 -0.18180195336E+02 -0.96340051564E+02  0.10211932536E+03  0.00000000000E+00 0.  1.
         11    1    4    4    0    0  0.51475660603E+02  0.10894191645E+02  0.43162704192E+01  0.52792586946E+02  0.00000000000E+00 0. -1.
          1    1    1    2  501    0 -0.15801315793E+03 -0.52273436635E+02  0.41503510241E+02  0.17153195509E+03  0.00000000000E+00 0. -1.
<scales pt_clust_5="13000.00000" pt_clust_6="13000.00000" pt_clust_7="13000.00000" pt_clust_8="13000.00000" pt_clust_9="13000.00000"></scales>
<clustering>
<clus scale="   81.797">  5  6 -1 -1</clus>
<clus scale="   95.228">  7  8 -1 -1</clus>
<clus scale="  127.736">  2  5  1 -1</clus>
<clus scale="  134.905">  7  9 -1 -1</clus>
<clus scale="  322.511">  1  5  2 -1</clus>
</clustering>
</event>
<event>
 9    2  0.3707658E-005  0.2059466E+03  0.7546771E-02  0.1184608E+00
         -3   -1    0    0    0  501 -0.00000000000E+00  0.00000000000E+00  0.79196518159E+03  0.79196518159E+03  0.00000000000E+00 0.  1.
         21   -1    0    0  501  502  0.00000000000E+00 -0.00000000000E+00 -0.26409560592E+02  0.26409560592E+02  0.00000000000E+00 0.  1.
         24    2    1    2    0    0 -0.16173595528E+01  0.13645407097E+01  0.25231066356E+03  0.26535179199E+03  0.82136622422E+02 0.  0.
         23    2    1    2    0    0 -0.62499023654E+02  0.52860174239E+02  0.30099262527E+03  0.32476370544E+03  0.90413372471E+02 0.  0.
        -13    1    3    3    0    0 -0.31643397177E+02 -0.41333851049E+01  0.41543398836E+02  0.52385527049E+02  0.00000000000E+00 0.  1.
         14    1    3    3    0    0  0.30026037624E+02  0.54979258146E+01  0.21076726473E+03  0.21296626494E+03  0.00000000000E+00 0. -1.
        -11    1    4    4    0    0  0.19079703822E+01 -0.20671947491E+02  0.87932752634E+02  0.90350089927E+02  0.00000000000E+00 0. -1.
         11    1    4    4    0    0 -0.64406994037E+02  0.73532121731E+02  0.21305987264E+03  0.23441361551E+03  0.00000000000E+00 0.  1.
         -4    1    1    2    0  502  0.64116383207E+02 -0.54224714949E+02  0.21225233216E+03  0.22825924475E+03  0.00000000000E+00 0.  1.
<scales pt_clust_5="13000.00000" pt_clust_6="13000.00000" pt_clust_7="13000.00000" pt_clust_8="13000.00000" pt_clust_9="13000.00000"></scales>
<clustering>
<clus scale="   82.137">  5  6 -1 -1</clus>
<clus scale="   82.164">  1  5  2 -1</clus>
<clus scale="   90.413">  7  8 -1 -1</clus>
<clus scale="   83.097">  7  9 -1 -1</clus>
<clus scale="  205.947">  2  5  1 -1</clus>
</clustering>
</event>
<event>
 9    2  0.3707658E-005  0.3143526E+03  0.7546771E-02  0.1118463E+00
         -3   -1    0    0    0  501 -0.00000000000E+00  0.00000000000E+00  0.91151470134E+03  0.91151470134E+03  0.00000000000E+00 0.  1.
         21   -1    0    0  501  502  0.00000000000E+00 -0.00000000000E+00 -0.50611779392E+02  0.50611779392E+02  0.00000000000E+00 0.  1.
         24    2    1    2    0    0 -0.14088815173E+02 -0.77516085253E+02  0.16529255570E+03  0.19878428519E+03  0.77371344058E+02 0.  0.
         23    2    1    2    0    0 -0.38418716800E+02 -0.40653521322E+02  0.57955541636E+03  0.58958993448E+03  0.92752917001E+02 0.  0.
        -11    1    3    3    0    0 -0.77437890154E+01 -0.64143523499E+02  0.47815277028E+02  0.80378222128E+02  0.00000000000E+00 0.  1.
         12    1    3    3    0    0 -0.63450261579E+01 -0.13372561754E+02  0.11747727867E+03  0.11840606306E+03  0.00000000000E+00 0. -1.
        -13    1    4    4    0    0 -0.28968872457E+02 -0.70917356561E+02  0.41178947095E+03  0.41885443225E+03  0.00000000000E+00 0.  1.
         13    1    4    4    0    0 -0.94498443432E+01  0.30263835239E+02  0.16776594541E+03  0.17073550223E+03  0.00000000000E+00 0. -1.
         -4    1    1    2    0  502  0.52507531973E+02  0.11816960657E+03  0.11605494989E+03  0.17375226107E+03  0.00000000000E+00 0.  1.
<scales pt_clust_5="13000.00000" pt_clust_6="13000.00000" pt_clust_7="13000.00000" pt_clust_8="13000.00000" pt_clust_9="13000.00000"></scales>
<clustering>
<clus scale="   77.371">  5  6 -1 -1</clus>
<clus scale="   92.753">  7  8 -1 -1</clus>
<clus scale="  110.425">  1  5  2 -1</clus>
<clus scale="  114.162">  7  9 -1 -1</clus>
<clus scale="  314.353">  2  5  1 -1</clus>
</clustering>
</event>
<event>
 9    2  0.3707658E-005  0.1537723E+03  0.7546771E-02  0.1219225E+00
         21   -1    0    0  501  502  0.00000000000E+00  0.00000000000E+00  0.65985269540E+02  0.65985269540E+02  0.00000000000E+00 0.  1.
          2   -1    0    0  502    0 -0.00000000000E+00 -0.00000000000E+00 -0.84862953407E+03  0.84862953407E+03  0.00000000000E+00 0. -1.
         24    2    1    2    0    0 -0.36447648288E+02 -0.22905295308E+02 -0.75207019388E+03  0.75783247018E+03  0.82748974164E+02 0.  0.
         23    2    1    2    0    0  0.40139717621E+02  0.48350680076E+02  0.58702856350E+01  0.11218087507E+03  0.92742133276E+02 0.  0.
        -13    1    3    3    0    0 -0.24699365852E+02  0.25049475054E+02 -0.16601701861E+03  0.16970322726E+03  0.00000000000E+00 0.  1.
         14    1    3    3    0    0 -0.11748282436E+02 -0.47954770362E+02 -0.58605317526E+03  0.58812924292E+03  0.00000000000E+00 0. -1.
        -11    1    4    4    0    0  0.33913178221E+02 -0.20369162540E+02 -0.11169385196E+02  0.41106709979E+02  0.00000000000E+00 0. -1.
         11    1    4    4    0    0  0.62265394001E+01  0.68719842616E+02  0.17039670831E+02  0.71074165096E+02  0.00000000000E+00 0.  1.
          1    1    1    2  501    0 -0.36920693329E+01 -0.25445384768E+02 -0.36444356284E+02  0.44601458349E+02  0.00000000000E+00 0. -1.
<scales pt_clust_5="13000.00000" pt_clust_6="13000.00000" pt_clust_7="13000.00000" pt_clust_8="13000.00000" pt_clust_9="13000.00000"></scales>
<clustering>
<clus scale="   82.749">  5  6 -1 -1</clus>
<clus scale="   92.742">  7  8 -1 -1</clus>
<clus scale="   25.712">  7  9 -1 -1</clus>
<clus scale="   93.276">  2  5  1 -1</clus>
<clus scale="  153.772">  1  5  2 -1</clus>
</clustering>
</event>
<event>
 9    2  0.3707658E-005  0.4374261E+03  0.7546771E-02  0.1051966E+00
         -1   -1    0    0    0  501 -0.00000000000E+00  0.00000000000E+00  0.12956329528E+03  0.12956329528E+03  0.00000000000E+00 0.  1.
         21   -1    0    0  501  502  0.00000000000E+00 -0.00000000000E+00 -0.89088652247E+03  0.89088652247E+03  0.00000000000E+00 0.  1.
         24    2    1    2    0    0 -0.22247422405E+03  0.51017009690E+02 -0.28122675981E+03  0.37096215853E+03  0.80168054651E+02 0.  0.
         23    2    1    2    0    0 -0.12699904525E+02  0.10321505246E+03 -0.25158507947E+03  0.28711788378E+03  0.91252355267E+02 0.  0.
        -13    1    3    3    0    0 -0.14738564687E+03  0.61891475036E+02 -0.14907096062E+03  0.21857546725E+03  0.00000000000E+00 0.  1.
         14    1    3    3    0    0 -0.75088577181E+02 -0.10874465345E+02 -0.13215579919E+03  0.15238669128E+03  0.00000000000E+00 0. -1.
        -13    1    4    4    0    0  0.12282132586E+02  0.11111892967E+03 -0.19533971401E+03  0.22506859217E+03  0.00000000000E+00 0.  1.
         13    1    4    4    0    0 -0.24982037111E+02 -0.79038772051E+01 -0.56245365458E+02  0.62049291605E+02  0.00000000000E+00 0. -1.
         -2    1    1    2    0  502  0.23517412857E+03 -0.15423206215E+03 -0.22851138792E+03  0.36236977544E+03  0.00000000000E+00 0.  1.
<scales pt_clust_5="13000.00000" pt_clust_6="13000.00000" pt_clust_7="13000.00000" pt_clust_8="13000.00000" pt_clust_9="13000.00000"></scales>
<clustering>
<clus scale="   80.168">  5  6 -1 -1</clus>
<clus scale="   91.252">  7  8 -1 -1</clus>
<clus scale="  241.918">  1  5  2 -1</clus>
<clus scale="  128.458">  7  9 -1 -1</clus>
<clus scale="  437.426">  2  5  1 -1</clus>
</clustering>
</event>
<event>
 9    2  0.4231910E-005  0.2756559E+03  0.7546771E-02  0.1133077E+00
         21   -1    0    0  501  502  0.00000000000E+00  0.00000000000E+00  0.20488869157E+03  0.20488869157E+03  0.00000000000E+00 0. -1.
          2   -1    0    0  502    0 -0.00000000000E+00 -0.00000000000E+00 -0.27245341006E+03  0.27245341006E+03  0.00000000000E+00 0. -1.
         24    2    1    2    0    0  0.70714518417E+02  0.41826718117E+02 -0.15109059366E+03  0.18930951550E+03  0.79118314591E+02 0.  0.
         23    2    1    2    0    0  0.24843449639E+02  0.51702920813E+02 -0.31085441771E+02  0.11192218726E+03  0.90938893224E+02 0.  0.
        -13    1    3    3    0    0  0.27005961330E+02 -0.16802984629E+00 -0.53645768662E+00  0.27011811643E+02  0.00000000000E+00 0.  1.
         14    1    3    3    0    0  0.43708557087E+02  0.41994747963E+02 -0.15055413598E+03  0.16229770386E+03  0.00000000000E+00 0. -1.
        -11    1    4    4    0    0 -0.30023909577E+02  0.24106267967E+02 -0.32653378718E+02  0.50485546875E+02  0.00000000000E+00 0. -1.
         11    1    4    4    0    0  0.54867359216E+02  0.27596652846E+02  0.15679369472E+01  0.61436640386E+02  0.00000000000E+00 0.  1.
          1    1    1    2  501    0 -0.95557968056E+02 -0.93529638930E+02  0.11461131695E+03  0.17611039887E+03  0.00000000000E+00 0. -1.
<scales pt_clust_5="13000.00000" pt_clust_6="13000.00000" pt_clust_7="13000.00000" pt_clust_8="13000.00000" pt_clust_9="13000.00000"></scales>
<clustering>
<clus scale="   79.118">  5  6 -1 -1</clus>
<clus scale="   90.939">  7  8 -1 -1</clus>
<clus scale="  114.060">  2  5  1 -1</clus>
<clus scale="  109.875">  7  9 -1 -1</clus>
<clus scale="  275.656">  1  5  2 -1</clus>
</clustering>
</event>
<event>
 9    2  0.3707658E-005  0.4945125E+03  0.7546771E-02  0.1051039E+00
         21   -1    0    0  501  502  0.00000000000E+00  0.00000000000E+00  0.43803743749E+03  0.43803743749E+03  0.00000000000E+00 0.  1.
         -1   -1    0    0    0  501 -0.00000000000E+00 -0.00000000000E+00 -0.28270851393E+03  0.28270851393E+03  0.00000000000E+00 0.  1.
         24    2    1    2    0    0 -0.49331403040E+02  0.14382394320E+03 -0.59046649481E+02  0.18176586003E+03  0.80208522584E+02 0.  0.
         23    2    1    2    0    0  0.15124783597E+03  0.10922905147E+03  0.16151301132E+03  0.26110021115E+03  0.85322762876E+02 0.  0.
        -13    1    3    3    0    0 -0.34402420405E+02  0.12871588655E+03 -0.77061751482E+02  0.15391497498E+03  0.00000000000E+00 0.  1.
         14    1    3    3    0    0 -0.14928982635E+02  0.15108056643E+02  0.18015102002E+02  0.27850885052E+02  0.00000000000E+00 0. -1.
        -13    1    4    4    0    0  0.15319789200E+03  0.79219348790E+02  0.12115437870E+03  0.21076926440E+03  0.00000000000E+00 0.  1.
         13    1    4    4    0    0 -0.19500560336E+01  0.30009702680E+02  0.40358632627E+02  0.50330946752E+02  0.00000000000E+00 0. -1.
         -2    1    1    2    0  502 -0.10191643293E+03 -0.25305299467E+03  0.52862561711E+02  0.27787988024E+03  0.00000000000E+00 0.  1.
<scales pt_clust_5="13000.00000" pt_clust_6="13000.00000" pt_clust_7="13000.00000" pt_clust_8="13000.00000" pt_clust_9="13000.00000"></scales>
<clustering>
<clus scale="   80.209">  5  6 -1 -1</clus>
<clus scale="   85.323">  7  8 -1 -1</clus>
<clus scale="  171.908">  2  5  1 -1</clus>
<clus scale="  205.047">  7  9 -1 -1</clus>
<clus scale="  494.513">  1  5  2 -1</clus>
</clustering>
</event>
<event>
 9    2  0.3707658E-005  0.2766786E+03  0.7546771E-02  0.1140987E+00
          2   -1    0    0  502    0 -0.00000000000E+00  0.00000000000E+00  0.31387236147E+03  0.31387236147E+03  0.00000000000E+00 0. -1.
         21   -1    0    0  501  502  0.00000000000E+00 -0.00000000000E+00 -0.19425164766E+03  0.19425164766E+03  0.00000000000E+00 0.  1.
         24    2    1    2    0    0 -0.46685373286E+02  0.97205921518E+01  0.19948847303E+03  0.22014852337E+03  0.79973167246E+02 0.  0.
         23    2    1    2    0    0 -0.30771960481E+02 -0.68470829008E+02 -0.13251777265E+03  0.17741666522E+03  0.90997500253E+02 0.  0.
        -11    1    3    3    0    0 -0.56431904777E+02  0.33191295111E+02  0.16323439311E+03  0.17587407155E+03  0.00000000000E+00 0.  1.
         12    1    3    3    0    0  0.97465314910E+01 -0.23470702959E+02  0.36254079917E+02  0.44274451822E+02  0.00000000000E+00 0. -1.
        -11    1    4    4    0    0  0.22931428894E+02  0.54517676673E+01 -0.45483065788E+02  0.51227741267E+02  0.00000000000E+00 0. -1.
         11    1    4    4    0    0 -0.53703389374E+02 -0.73922596675E+02 -0.87034706859E+02  0.12618892395E+03  0.00000000000E+00 0.  1.
          1    1    1    2  501    0  0.77457333767E+02  0.58750236856E+02  0.52650013433E+02  0.11055882054E+03  0.00000000000E+00 0. -1.
<scales pt_clust_5="13000.00000" pt_clust_6="13000.00000" pt_clust_7="13000.00000" pt_clust_8="13000.00000" pt_clust_9="13000.00000"></scales>
<clustering>
<clus scale="   79.973">  5  6 -1 -1</clus>
<clus scale="   90.998">  7  8 -1 -1</clus>
<clus scale="   93.111">  1  5  2 -1</clus>
<clus scale="   77.934">  7  9 -1 -1</clus>
<clus scale="  276.679">  2  5  1 -1</clus>
</clustering>
</event>
<event>
 9    2  0.3707658E-005  0.4077276E+03  0.7546771E-02  0.1075768E+00
          2   -1    0    0  502    0 -0.00000000000E+00  0.00000000000E+00  0.11883218133E+04  0.11883218133E+04  0.00000000000E+00 0. -1.
         21   -1    0    0  501  502  0.00000000000E+00 -0.00000000000E+00 -0.68006385026E+02  0.68006385026E+02  0.00000000000E+00 0. -1.
         24    2    1    2    0    0  0.13133398463E+03  0.15938049732E+01  0.39885779415E+03  0.42762865942E+03  0.80793407369E+02 0.  0.
         23    2    1    2    0    0 -0.17454927157E+03 -0.11897017216E+03  0.24556374914E+03  0.33664287309E+03  0.91681617808E+02 0.  0.
        -11    1    3    3    0    0  0.27118538530E+02 -0.34208302132E+02  0.12667870035E+03  0.13398923908E+03  0.00000000000E+00 0.  1.
         12    1    3    3    0    0  0.10421544610E+03  0.35802107105E+02  0.27217909379E+03  0.29363942034E+03  0.00000000000E+00 0. -1.
        -13    1    4    4    0    0 -0.11685604037E+03 -0.67907104538E+02  0.88077384382E+02  0.16132059589E+03  0.00000000000E+00 0.  1.
         13    1    4    4    0    0 -0.57693231206E+02 -0.51063067619E+02  0.15748636475E+03  0.17532227721E+03  0.00000000000E+00 0. -1.
          1    1    1    2  501    0  0.43215286943E+02  0.11737636718E+03  0.47589388502E+03  0.49205666584E+03  0.00000000000E+00 0. -1.
<scales pt_clust_5="13000.00000" pt_clust_6="13000.00000" pt_clust_7="13000.00000" pt_clust_8="13000.00000" pt_clust_9="13000.00000"></scales>
<clustering>
<clus scale="   80.793">  5  6 -1 -1</clus>
<clus scale="   91.682">  7  8 -1 -1</clus>
<clus scale="  125.079">  7  9 -1 -1</clus>
<clus scale="  154.204">  1  5  2 -1</clus>
<clus scale="  407.728">  2  5  1 -1</clus>
</clustering>
</event>
<event>
 9    2  0.3707658E-005  0.1743867E+03  0.7546771E-02  0.1199937E+00
          2   -1    0    0  502    0 -0.00000000000E+00  0.00000000000E+00  0.55542612267E+03  0.55542612267E+03  0.00000000000E+00 0. -1.
         21   -1    0    0  501  502  0.00000000000E+00 -0.00000000000E+00 -0.33314951092E+02  0.33314951092E+02  0.00000000000E+00 0. -1.
         24    2    1    2    0    0 -0.34128329220E+02  0.32559921621E+02  0.16141526092E+03  0.18810124787E+03  0.84275154351E+02 0.  0.
         23    2    1    2    0    0  0.42575291516E+02  0.29713875020E+02  0.17236049352E+03  0.20209611215E+03  0.91864732085E+02 0.  0.
        -13    1    3    3    0    0 -0.55756444598E+01 -0.28043495669E+02  0.36608592967E+02  0.46451206007E+02  0.00000000000E+00 0.  1.
         14    1    3    3    0    0 -0.28552684760E+02  0.60603417289E+02  0.12480666795E+03  0.14165004186E+03  0.00000000000E+00 0. -1.
        -11    1    4    4    0    0  0.25576812993E+02  0.41437223926E+02  0.17465841399E+03  0.18131954794E+03  0.00000000000E+00 0.  1.
         11    1    4    4    0    0  0.16998478523E+02 -0.11723348906E+02 -0.22979204641E+01  0.20776564205E+02  0.00000000000E+00 0. -1.
          1    1    1    2  501    0 -0.84469622961E+01 -0.62273796641E+02  0.18833541714E+03  0.19854371375E+03  0.00000000000E+00 0. -1.
<scales pt_clust_5="13000.00000" pt_clust_6="13000.00000" pt_clust_7="13000.00000" pt_clust_8="13000.00000" pt_clust_9="13000.00000"></scales>
<clustering>
<clus scale="   84.275">  5  6 -1 -1</clus>
<clus scale="   91.865">  7  8 -1 -1</clus>
<clus scale="   62.844">  7  9 -1 -1</clus>
<clus scale="   96.577">  1  5  2 -1</clus>
<clus scale="  174.387">  2  5  1 -1</clus>
</clustering>
</event>
<event>
 9    2  0.3707658E-005  0.7090745E+03  0.7546771E-02  0.1017290E+00
          2   -1    0    0  502    0 -0.00000000000E+00  0.00000000000E+00  0.10810435719E+04  0.10810435719E+04  0.00000000000E+00 0. -1.
         21   -1    0    0  501  502  0.00000000000E+00 -0.00000000000E+00 -0.17368809893E+03  0.17368809893E+03  0.00000000000E+00 0.  1.
         24    2    1    2    0    0 -0.11894180462E+03  0.63602607482E+02  0.17141663491E+03  0.23277638192E+03  0.81294136883E+02 0.  0.
         23    2    1    2    0    0  0.31855683109E+03 -0.21932751411E+03  0.22547388419E+03  0.45215631167E+03  0.63433781624E+02 0.  0.
        -11    1    3    3    0    0 -0.18795248107E+01  0.19936677855E+02  0.67060908631E+02  0.69986921663E+02  0.00000000000E+00 0.  1.
         12    1    3    3    0    0 -0.11706227981E+03  0.43665929627E+02  0.10435572628E+03  0.16278946026E+03  0.00000000000E+00 0. -1.
        -13    1    4    4    0    0  0.25619469929E+03 -0.17775783966E+03  0.15085492395E+03  0.34639685562E+03  0.00000000000E+00 0.  1.
         13    1    4    4    0    0  0.62362131799E+02 -0.41569674452E+02  0.74618960233E+02  0.10575945604E+03  0.00000000000E+00 0. -1.
          1    1    1    2  501    0 -0.19961502647E+03  0.15572490663E+03  0.51046495387E+03  0.56979897724E+03  0.00000000000E+00 0. -1.
<scales pt_clust_5="13000.00000" pt_clust_6="13000.00000" pt_clust_7="13000.00000" pt_clust_8="13000.00000" pt_clust_9="13000.00000"></scales>
<clustering>
<clus scale="   63.434">  7  8 -1 -1</clus>
<clus scale="   81.294">  5  6 -1 -1</clus>
<clus scale="  157.484">  1  5  2 -1</clus>
<clus scale="  335.142">  7  9 -1 -1</clus>
<clus scale="  709.074">  2  5  1 -1</clus>
</clustering>
</event>
<event>
 9    2  0.3707658E-005  0.4823518E+03  0.7546771E-02  0.1077831E+00
         21   -1    0    0  501  502  0.00000000000E+00  0.00000000000E+00  0.56919293483E+03  0.56919293483E+03  0.00000000000E+00 0. -1.
         -3   -1    0    0    0  501 -0.00000000000E+00 -0.00000000000E+00 -0.19286557311E+03  0.19286557311E+03  0.00000000000E+00 0.  1.
         24    2    1    2    0    0 -0.19263980891E+02  0.24625458065E+02  0.24764198911E+03  0.26283595115E+03  0.82332668486E+02 0.  0.
         23    2    1    2    0    0 -0.15978947615E+03  0.29783724678E+02  0.22178750504E+03  0.29020459892E+03  0.92786124490E+02 0.  0.
        -11    1    3    3    0    0 -0.16497518633E+02 -0.29518931851E+02  0.91399874007E+02  0.97454976410E+02  0.00000000000E+00 0.  1.
         12    1    3    3    0    0 -0.27664622577E+01  0.54144389916E+02  0.15624211511E+03  0.16538097474E+03  0.00000000000E+00 0. -1.
        -11    1    4    4    0    0 -0.11841531659E+01  0.27523634245E+02  0.44282021896E+02  0.52152182351E+02  0.00000000000E+00 0.  1.
         11    1    4    4    0    0 -0.15860532298E+03  0.22600904329E+01  0.17750548314E+03  0.23805241657E+03  0.00000000000E+00 0. -1.
         -4    1    1    2    0  502  0.17905345704E+03 -0.54409182743E+02 -0.93102132435E+02  0.20901795786E+03  0.00000000000E+00 0.  1.
<scales pt_clust_5="13000.00000" pt_clust_6="13000.00000" pt_clust_7="13000.00000" pt_clust_8="13000.00000" pt_clust_9="13000.00000"></scales>
<clustering>
<clus scale="   82.333">  5  6 -1 -1</clus>
<clus scale="   88.069">  2  5  1 -1</clus>
<clus scale="   92.786">  7  8 -1 -1</clus>
<clus scale="  166.915">  7  9 -1 -1</clus>
<clus scale="  482.352">  1  5  2 -1</clus>
</clustering>
</event>
<event>
 9    2  0.3707658E-005  0.1893963E+03  0.7546771E-02  0.1197839E+00
          4   -1    0    0  502    0 -0.00000000000E+00  0.00000000000E+00  0.65131158351E+03  0.65131158351E+03  0.00000000000E+00 0. -1.
         21   -1    0    0  501  502  0.00000000000E+00 -0.00000000000E+00 -0.36390395000E+02  0.36390395000E+02  0.00000000000E+00 0. -1.
         24    2    1    2    0    0  0.46946815096E+01  0.10449294627E+01  0.36877807667E+03  0.37712610407E+03  0.78763548829E+02 0.  0.
         23    2    1    2    0    0 -0.38416434369E+02 -0.36073899765E+02  0.23885190285E+03  0.26140935021E+03  0.92235937726E+02 0.  0.
        -11    1    3    3    0    0  0.34805450936E+02  0.18832953610E+02  0.13281477503E+03  0.13858522296E+03  0.00000000000E+00 0.  1.
         12    1    3    3    0    0 -0.30110769426E+02 -0.17788024148E+02  0.23596330165E+03  0.23854088111E+03  0.00000000000E+00 0. -1.
        -11    1    4    4    0    0  0.24095458271E+02 -0.87510568672E+01  0.13320603611E+03  0.13565035997E+03  0.00000000000E+00 0.  1.
         11    1    4    4    0    0 -0.62511892640E+02 -0.27322842898E+02  0.10564586674E+03  0.12575899024E+03  0.00000000000E+00 0. -1.
          3    1    1    2  501    0  0.33721752859E+02  0.35028970303E+02  0.72912089866E+01  0.49166524230E+02  0.00000000000E+00 0. -1.
<scales pt_clust_5="13000.00000" pt_clust_6="13000.00000" pt_clust_7="13000.00000" pt_clust_8="13000.00000" pt_clust_9="13000.00000"></scales>
<clustering>
<clus scale="   78.764">  5  6 -1 -1</clus>
<clus scale="   78.910">  1  5  2 -1</clus>
<clus scale="   92.236">  7  8 -1 -1</clus>
<clus scale="   49.030">  7  9 -1 -1</clus>
<clus scale="  189.396">  2  5  1 -1</clus>
</clustering>
</event>
<event>
 9    2  0.3707658E-005  0.2111908E+03  0.7546771E-02  0.1180263E+00
         21   -1    0    0  501  502  0.00000000000E+00  0.00000000000E+00  0.63046380118E+02  0.63046380118E+02  0.00000000000E+00 0.  1.
          2   -1    0    0  502    0 -0.00000000000E+00 -0.00000000000E+00 -0.34981986124E+03  0.34981986124E+03  0.00000000000E+00 0. -1.
         24    2    1    2    0    0  0.59633295595E+01  0.18721571031E+02 -0.10315394193E+03  0.13301328723E+03  0.81643985215E+02 0.  0.
         23    2    1    2    0    0  0.81186091093E+01 -0.99350034849E+02 -0.10971421461E+03  0.16957490928E+03  0.82353504669E+02 0.  0.
        -11    1    3    3    0    0 -0.37802605683E+02  0.83103385112E+01 -0.42296428225E+02  0.57333119252E+02  0.00000000000E+00 0.  1.
         12    1    3    3    0    0  0.43765935242E+02  0.10411232519E+02 -0.60857513706E+02  0.75680167975E+02  0.00000000000E+00 0. -1.
        -11    1    4    4    0    0 -0.11816441094E+02 -0.10361826286E+03 -0.72084713283E+02  0.12677767377E+03  0.00000000000E+00 0.  1.
         11    1    4    4    0    0  0.19935050203E+02  0.42682280098E+01 -0.37629501328E+02  0.42797235508E+02  0.00000000000E+00 0. -1.
          1    1    1    2  501    0 -0.14081938669E+02  0.80628463819E+02 -0.73905324576E+02  0.11027804485E+03  0.00000000000E+00 0. -1.
<scales pt_clust_5="13000.00000" pt_clust_6="13000.00000" pt_clust_7="13000.00000" pt_clust_8="13000.00000" pt_clust_9="13000.00000"></scales>
<clustering>
<clus scale="   81.644">  5  6 -1 -1</clus>
<clus scale="   82.354">  7  8 -1 -1</clus>
<clus scale="   81.849">  7  9 -1 -1</clus>
<clus scale="   83.975">  2  5  1 -1</clus>
<clus scale="  211.191">  1  5  2 -1</clus>
</clustering>
</event>
<event>
 9    2  0.3707658E-005  0.2554647E+03  0.7546771E-02  0.1134072E+00
          2   -1    0    0  502    0 -0.00000000000E+00  0.00000000000E+00  0.86746719281E+03  0.86746719281E+03  0.00000000000E+00 0. -1.
         21   -1    0    0  501  502  0.00000000000E+00 -0.00000000000E+00 -0.49306504781E+02  0.49306504781E+02  0.00000000000E+00 0. -1.
         24    2    1    2    0    0  0.96174201499E+02  0.63036429138E+02  0.42927265732E+03  0.45148224503E+03  0.79612403719E+02 0.  0.
         23    2    1    2    0    0  0.49333824002E+02 -0.37971565069E+02  0.14338965430E+03  0.17881233340E+03  0.86819304706E+02 0.  0.
        -13    1    3    3    0    0  0.98515774921E+02  0.24966810833E+02  0.31920456165E+03  0.33499291295E+03  0.00000000000E+00 0.  1.
         14    1    3    3    0    0 -0.23415734219E+01  0.38069618304E+02  0.11006809567E+03  0.11648933208E+03  0.00000000000E+00 0. -1.
        -13    1    4    4    0    0  0.59282450542E+02 -0.17937217475E+02  0.14365934841E+03  0.15644219731E+03  0.00000000000E+00 0.  1.
         13    1    4    4    0    0 -0.99486265400E+01 -0.20034347594E+02 -0.26969411243E+00  0.22370136085E+02  0.00000000000E+00 0. -1.
          1    1    1    2  501    0 -0.14550802550E+03 -0.25064864068E+02  0.24549837641E+03  0.28647911916E+03  0.00000000000E+00 0. -1.
<scales pt_clust_5="13000.00000" pt_clust_6="13000.00000" pt_clust_7="13000.00000" pt_clust_8="13000.00000" pt_clust_9="13000.00000"></scales>
<clustering>
<clus scale="   79.612">  5  6 -1 -1</clus>
<clus scale="   86.819">  7  8 -1 -1</clus>
<clus scale="  139.861">  1  5  2 -1</clus>
<clus scale="   86.780">  7  9 -1 -1</clus>
<clus scale="  255.465">  2  5  1 -1</clus>
</clustering>
</event>
<event>
 9    2  0.3707658E-005  0.2556947E+03  0.7546771E-02  0.1160144E+00
          2   -1    0    0  502    0 -0.00000000000E+00  0.00000000000E+00  0.71088858820E+03  0.71088858820E+03  0.00000000000E+00 0. -1.
         21   -1    0    0  501  502  0.00000000000E+00 -0.00000000000E+00 -0.38621243260E+02  0.38621243260E+02  0.00000000000E+00 0. -1.
         24    2    1    2    0    0  0.60180093615E+00  0.58290726211E+01  0.13222400342E+03  0.15199282451E+03  0.74728116342E+02 0.  0.
         23    2    1    2    0    0 -0.79291231690E+02  0.61418182527E+02  0.40682724438E+03  0.42881387012E+03  0.91179141640E+02 0.  0.
        -11    1    3    3    0    0 -0.25956172675E+02  0.10244307787E+02  0.11856335767E+03  0.12180286747E+03  0.00000000000E+00 0.  1.
         12    1    3    3    0    0  0.26557973611E+02 -0.44152351657E+01  0.13660645742E+02  0.30189957038E+02  0.00000000000E+00 0. -1.
        -11    1    4    4    0    0  0.63203407804E+01  0.48344334239E+02  0.15750296921E+03  0.16487664077E+03  0.00000000000E+00 0.  1.
         11    1    4    4    0    0 -0.85611572470E+02  0.13073848288E+02  0.24932427517E+03  0.26393722935E+03  0.00000000000E+00 0. -1.
          1    1    1    2  501    0  0.78689430754E+02 -0.67247255148E+02  0.13321609715E+03  0.16870313683E+03  0.00000000000E+00 0. -1.
<scales pt_clust_5="13000.00000" pt_clust_6="13000.00000" pt_clust_7="13000.00000" pt_clust_8="13000.00000" pt_clust_9="13000.00000"></scales>
<clustering>
<clus scale="   74.728">  5  6 -1 -1</clus>
<clus scale="   74.958">  1  5  2 -1</clus>
<clus scale="   91.179">  7  8 -1 -1</clus>
<clus scale="  102.634">  7  9 -1 -1</clus>
<clus scale="  255.695">  2  5  1 -1</clus>
</clustering>
</event>
<event>
 9    2  0.3707658E-005  0.6055527E+03  0.7546771E-02  0.1042033E+00
         21   -1    0    0  501  502  0.00000000000E+00  0.00000000000E+00  0.95893728281E+02  0.95893728281E+02  0.00000000000E+00 0. -1.
          2   -1    0    0  502    0 -0.00000000000E+00 -0.00000000000E+00 -0.13774500082E+04  0.13774500082E+04  0.00000000000E+00 0. -1.
         24    2    1    2    0    0  0.79008576180E+02 -0.44929150044E+02 -0.20664572591E+03  0.23959874024E+03  0.80275255550E+02 0.  0.
         23    2    1    2    0    0  0.55784998892E+02 -0.19317562157E+03 -0.85410355062E+03  0.88215016849E+03  0.90924461573E+02 0.  0.
        -13    1    3    3    0    0  0.73609964119E+02 -0.22287089096E+02 -0.20161249473E+03  0.21578401050E+03  0.00000000000E+00 0.  1.
         14    1    3    3    0    0  0.53986120615E+01 -0.22642060948E+02 -0.50332311773E+01  0.23814729733E+02  0.00000000000E+00 0. -1.
        -11    1    4    4    0    0 -0.70040618617E+01 -0.11574240820E+03 -0.36445846383E+03  0.38245958453E+03  0.00000000000E+00 0.  1.
         11    1    4    4    0    0  0.62789060754E+02 -0.77433213369E+02 -0.48964508679E+03  0.49969058396E+03  0.00000000000E+00 0. -1.
          1    1    1    2  501    0 -0.13479357507E+03  0.23810477161E+03 -0.22080700335E+03  0.35159482771E+03  0.00000000000E+00 0. -1.
<scales pt_clust_5="13000.00000" pt_clust_6="13000.00000" pt_clust_7="13000.00000" pt_clust_8="13000.00000" pt_clust_9="13000.00000"></scales>
<clustering>
<clus scale="   80.275">  5  6 -1 -1</clus>
<clus scale="   90.924">  7  8 -1 -1</clus>
<clus scale="  121.265">  2  5  1 -1</clus>
<clus scale="  254.530">  7  9 -1 -1</clus>
<clus scale="  605.553">  1  5  2 -1</clus>
</clustering>
</event>
<event>
 9    2  0.3707658E-005  0.3776228E+03  0.7546771E-02  0.1099719E+00
         21   -1    0    0  501  502  0.00000000000E+00  0.00000000000E+00  0.91580171781E+02  0.91580171781E+02  0.00000000000E+00 0. -1.
          2   -1    0    0  502    0 -0.00000000000E+00 -0.00000000000E+00 -0.75110084141E+03  0.75110084141E+03  0.00000000000E+00 0. -1.
         24    2    1    2    0    0 -0.49441386435E+02 -0.37544192956E+02 -0.27400228639E+02  0.10635553408E+03  0.81894505205E+02 0.  0.
         23    2    1    2    0    0  0.18155102983E+03 -0.61430421284E+02 -0.35458614117E+03  0.41341028945E+03  0.91881787173E+02 0.  0.
        -13    1    3    3    0    0  0.12380344710E+02  0.16429776549E+02 -0.34063359322E+01  0.20852184947E+02  0.00000000000E+00 0.  1.
         14    1    3    3    0    0 -0.61821731145E+02 -0.53973969505E+02 -0.23993892707E+02  0.85503349134E+02  0.00000000000E+00 0. -1.
        -13    1    4    4    0    0  0.69450107832E+02 -0.58939152519E+02 -0.22078920818E+03  0.23884098398E+03  0.00000000000E+00 0.  1.
         13    1    4    4    0    0  0.11210092200E+03 -0.24912687641E+01 -0.13379693299E+03  0.17456930547E+03  0.00000000000E+00 0. -1.
          1    1    1    2  501    0 -0.13210964340E+03  0.98974614240E+02 -0.27753429982E+03  0.32291518967E+03  0.00000000000E+00 0. -1.
<scales pt_clust_5="13000.00000" pt_clust_6="13000.00000" pt_clust_7="13000.00000" pt_clust_8="13000.00000" pt_clust_9="13000.00000"></scales>
<clustering>
<clus scale="   81.895">  5  6 -1 -1</clus>
<clus scale="   91.882">  7  8 -1 -1</clus>
<clus scale="  102.765">  2  5  1 -1</clus>
<clus scale="  174.534">  7  9 -1 -1</clus>
<clus scale="  377.623">  1  5  2 -1</clus>
</clustering>
</event>
<event>
 9    2  0.3707658E-005  0.2523508E+03  0.7546771E-02  0.1132565E+00
         21   -1    0    0  501  502  0.00000000000E+00  0.00000000000E+00  0.77089954310E+03  0.77089954310E+03  0.00000000000E+00 0. -1.
          2   -1    0    0  502    0 -0.00000000000E+00 -0.00000000000E+00 -0.35344305267E+03  0.35344305267E+03  0.00000000000E+00 0. -1.
         24    2    1    2    0    0 -0.73914895200E+02  0.87704459481E+02 -0.31527587380E+03  0.34937316030E+03  0.97505100355E+02 0.  0.
         23    2    1    2    0    0 -0.36096730023E+01  0.40395327479E+02  0.23382971591E+03  0.25408224367E+03  0.90755926996E+02 0.  0.
        -13    1    3    3    0    0  0.21300895976E+02  0.32200523141E+00 -0.45377379239E+02  0.50129217063E+02  0.00000000000E+00 0.  1.
         14    1    3    3    0    0 -0.95215791177E+02  0.87382454250E+02 -0.26989849456E+03  0.29924394324E+03  0.00000000000E+00 0. -1.
        -11    1    4    4    0    0 -0.11295906464E+02  0.59237754432E+02  0.22304026444E+03  0.23104906105E+03  0.00000000000E+00 0. -1.
         11    1    4    4    0    0  0.76862334620E+01 -0.18842426953E+02  0.10789451467E+02  0.23033182613E+02  0.00000000000E+00 0.  1.
          1    1    1    2  501    0  0.77524568203E+02 -0.12809978696E+03  0.49890264831E+03  0.52088719180E+03  0.00000000000E+00 0. -1.
<scales pt_clust_5="13000.00000" pt_clust_6="13000.00000" pt_clust_7="13000.00000" pt_clust_8="13000.00000" pt_clust_9="13000.00000"></scales>
<clustering>
<clus scale="   90.756">  7  8 -1 -1</clus>
<clus scale="   97.505">  5  6 -1 -1</clus>
<clus scale="  149.732">  7  9 -1 -1</clus>
<clus scale="  150.541">  2  5  1 -1</clus>
<clus scale="  252.351">  1  5  2 -1</clus>
</clustering>
</event>
<event>
 9    2  0.3707658E-005  0.1260632E+03  0.7546771E-02  0.1253678E+00
         21   -1    0    0  501  502  0.00000000000E+00  0.00000000000E+00  0.21436962569E+03  0.21436962569E+03  0.00000000000E+00 0.  1.
          2   -1    0    0  502    0 -0.00000000000E+00 -0.00000000000E+00 -0.52109446747E+02  0.52109446747E+02  0.00000000000E+00 0. -1.
         24    2    1    2    0    0  0.12065178406E+02  0.21052365131E+02  0.80956257539E+02  0.11647152714E+03  0.80143186810E+02 0.  0.
         23    2    1    2    0    0 -0.30816410632E+02 -0.35157927870E+02  0.65340819775E+02  0.12162804171E+03  0.91313891305E+02 0.  0.
        -11    1    3    3    0    0  0.19809402584E+02  0.13081997235E+02  0.95364861265E+02  0.98275163935E+02  0.00000000000E+00 0.  1.
         12    1    3    3    0    0 -0.77442241777E+01  0.79703678961E+01 -0.14408603727E+02  0.18196363204E+02  0.00000000000E+00 0. -1.
        -11    1    4    4    0    0 -0.50166016826E+02 -0.55291885690E+02  0.47092771546E+02  0.88269762655E+02  0.00000000000E+00 0. -1.
         11    1    4    4    0    0  0.19349606194E+02  0.20133957820E+02  0.18248048229E+02  0.33358279055E+02  0.00000000000E+00 0.  1.
          1    1    1    2  501    0  0.18751232225E+02  0.14105562739E+02  0.15963101630E+02  0.28379503586E+02  0.00000000000E+00 0. -1.
<scales pt_clust_5="13000.00000" pt_clust_6="13000.00000" pt_clust_7="13000.00000" pt_clust_8="13000.00000" pt_clust_9="13000.00000"></scales>
<clustering>
<clus scale="   80.143">  5  6 -1 -1</clus>
<clus scale="   83.736">  2  5  1 -1</clus>
<clus scale="   91.314">  7  8 -1 -1</clus>
<clus scale="   27.548">  7  9 -1 -1</clus>
<clus scale="  126.063">  1  5  2 -1</clus>
</clustering>
</event>
<event>
 9    2  0.3707658E-005  0.4268170E+03  0.7546771E-02  0.1077665E+00
         21   -1    0    0  501  502  0.00000000000E+00  0.00000000000E+00  0.28960136124E+03  0.28960136124E+03  0.00000000000E+00 0. -1.
          2   -1    0    0  502    0 -0.00000000000E+00 -0.00000000000E+00 -0.77217706763E+03  0.77217706763E+03  0.00000000000E+00 0. -1.
         24    2    1    2    0    0 -0.37473703616E+02  0.92570123426E+02 -0.60454032022E+03  0.61787742686E+03  0.79561357702E+02 0.  0.
         23    2    1    2    0    0  0.16260675403E+02  0.11391649006E+03 -0.69043079460E+02  0.16181829603E+03  0.90425869301E+02 0.  0.
        -11    1    3    3    0    0 -0.32848640218E+02  0.14206348187E+02 -0.81948901301E+02  0.89423016710E+02  0.00000000000E+00 0.  1.
         12    1    3    3    0    0 -0.46250633978E+01  0.78363775240E+02 -0.52259141892E+03  0.52845441015E+03  0.00000000000E+00 0. -1.
        -11    1    4    4    0    0  0.39444650324E+01  0.36513361540E+02 -0.74697613597E+02  0.83237718928E+02  0.00000000000E+00 0.  1.
         11    1    4    4    0    0  0.12316210370E+02  0.77403128517E+02  0.56545341364E+01  0.78580577106E+02  0.00000000000E+00 0. -1.
          1    1    1    2  501    0  0.21213028214E+02 -0.20648661348E+03  0.19100769329E+03  0.28208270597E+03  0.00000000000E+00 0. -1.
<scales pt_clust_5="13000.00000" pt_clust_6="13000.00000" pt_clust_7="13000.00000" pt_clust_8="13000.00000" pt_clust_9="13000.00000"></scales>
<clustering>
<clus scale="   79.561">  5  6 -1 -1</clus>
<clus scale="   90.426">  7  8 -1 -1</clus>
<clus scale="  127.685">  2  5  1 -1</clus>
<clus scale="  180.611">  7  9 -1 -1</clus>
<clus scale="  426.817">  1  5  2 -1</clus>
</clustering>
</event>
<event>
 9    2  0.3707658E-005  0.3052604E+03  0.7546771E-02  0.1133273E+00
         21   -1    0    0  501  502  0.00000000000E+00  0.00000000000E+00  0.79991062913E+02  0.79991062913E+02  0.00000000000E+00 0.  1.
          2   -1    0    0  502    0 -0.00000000000E+00 -0.00000000000E+00 -0.48132768934E+03  0.48132768934E+03  0.00000000000E+00 0. -1.
         24    2    1    2    0    0 -0.75128177924E+01  0.20152604918E+02 -0.11961282649E+03  0.14592471062E+03  0.80772662412E+02 0.  0.
         23    2    1    2    0    0  0.38358456673E+02  0.70442186745E+02 -0.58154077703E+01  0.12335926531E+03  0.93542591891E+02 0.  0.
        -11    1    3    3    0    0 -0.39229361495E+02  0.43339858347E+00 -0.90279808806E+02  0.98435636412E+02  0.00000000000E+00 0.  1.
         12    1    3    3    0    0  0.31716543702E+02  0.19719206334E+02 -0.29333017679E+02  0.47489074207E+02  0.00000000000E+00 0. -1.
        -13    1    4    4    0    0  0.13280932335E+02  0.68998712812E+02 -0.40065441938E+02  0.80885382926E+02  0.00000000000E+00 0.  1.
         13    1    4    4    0    0  0.25077524338E+02  0.14434739329E+01  0.34250034168E+02  0.42473882380E+02  0.00000000000E+00 0. -1.
          1    1    1    2  501    0 -0.30845638880E+02 -0.90594791663E+02 -0.27590839217E+03  0.29203477633E+03  0.00000000000E+00 0. -1.
<scales pt_clust_5="13000.00000" pt_clust_6="13000.00000" pt_clust_7="13000.00000" pt_clust_8="13000.00000" pt_clust_9="13000.00000"></scales>
<clustering>
<clus scale="   80.773">  5  6 -1 -1</clus>
<clus scale="   83.587">  2  5  1 -1</clus>
<clus scale="   93.543">  7  8 -1 -1</clus>
<clus scale="   82.877">  7  9 -1 -1</clus>
<clus scale="  305.260">  1  5  2 -1</clus>
</clustering>
</event>
<event>
 9    2  0.3707658E-005  0.1824458E+03  0.7546771E-02  0.1196951E+00
         -1   -1    0    0    0  501 -0.00000000000E+00  0.00000000000E+00  0.21775983894E+03  0.21775983894E+03  0.00000000000E+00 0.  1.
         21   -1    0    0  501  502  0.00000000000E+00 -0.00000000000E+00 -0.85237713516E+02  0.85237713516E+02  0.00000000000E+00 0.  1.
         24    2    1    2    0    0  0.37878297346E+02  0.23040139626E+02  0.41603108476E+02  0.99152656416E+02  0.78325073864E+02 0.  0.
         23    2    1    2    0    0  0.20766104597E+02  0.35856789661E+02  0.54985711226E+02  0.11329537026E+03  0.89974841032E+02 0.  0.
        -11    1    3    3    0    0 -0.24432105389E+02  0.96543376542E+01  0.12128206398E+02  0.28934882058E+02  0.00000000000E+00 0.  1.
         12    1    3    3    0    0  0.62310402735E+02  0.13385801972E+02  0.29474902078E+02  0.70217774359E+02  0.00000000000E+00 0. -1.
        -13    1    4    4    0    0  0.14878610312E+02 -0.20378854662E+02  0.50649201698E+02  0.56586326924E+02  0.00000000000E+00 0.  1.
         13    1    4    4    0    0  0.58874942845E+01  0.56235644323E+02  0.43365095280E+01  0.56709043337E+02  0.00000000000E+00 0. -1.
         -2    1    1    2    0  502 -0.58644401943E+02 -0.58896929287E+02  0.35933305722E+02  0.90549525779E+02  0.00000000000E+00 0.  1.
<scales pt_clust_5="13000.00000" pt_clust_6="13000.00000" pt_clust_7="13000.00000" pt_clust_8="13000.00000" pt_clust_9="13000.00000"></scales>
<clustering>
<clus scale="   78.325">  5  6 -1 -1</clus>
<clus scale="   89.975">  7  8 -1 -1</clus>
<clus scale="   83.115">  7  9 -1 -1</clus>
<clus scale="   90.002">  1  5  2 -1</clus>
<clus scale="  182.446">  2  5  1 -1</clus>
</clustering>
</event>
<event>
 9    2  0.3707658E-005  0.4115942E+03  0.7546771E-02  0.1077935E+00
          2   -1    0    0  502    0 -0.00000000000E+00  0.00000000000E+00  0.74557063174E+03  0.74557063174E+03  0.00000000000E+00 0. -1.
         21   -1    0    0  501  502  0.00000000000E+00 -0.00000000000E+00 -0.11994761450E+03  0.11994761450E+03  0.00000000000E+00 0.  1.
         24    2    1    2    0    0  0.79025203005E+02  0.86455931365E+02  0.34984750731E+02  0.14561312307E+03  0.79117874389E+02 0.  0.
         23    2    1    2    0    0  0.20785485585E+02  0.12488841118E+03  0.35571788651E+03  0.38851986456E+03  0.91560464822E+02 0.  0.
        -13    1    3    3    0    0  0.28838855977E+02  0.75644789224E+02 -0.41473818219E+01  0.81061794495E+02  0.00000000000E+00 0.  1.
         14    1    3    3    0    0  0.50186347029E+02  0.10811142141E+02  0.39132132553E+02  0.64551328574E+02  0.00000000000E+00 0. -1.
        -13    1    4    4    0    0 -0.34764501490E+02  0.50152516754E+02  0.11073391812E+03  0.12643514592E+03  0.00000000000E+00 0. -1.
         13    1    4    4    0    0  0.55549987076E+02  0.74735894422E+02  0.24498396839E+03  0.26208471865E+03  0.00000000000E+00 0.  1.
          1    1    1    2  501    0 -0.99810688591E+02 -0.21134434254E+03  0.23492038001E+03  0.33138525861E+03  0.00000000000E+00 0. -1.
<scales pt_clust_5="13000.00000" pt_clust_6="13000.00000" pt_clust_7="13000.00000" pt_clust_8="13000.00000" pt_clust_9="13000.00000"></scales>
<clustering>
<clus scale="   79.118">  5  6 -1 -1</clus>
<clus scale="   91.560">  7  8 -1 -1</clus>
<clus scale="  141.348">  1  5  2 -1</clus>
<clus scale="  185.964">  7  9 -1 -1</clus>
<clus scale="  411.594">  2  5  1 -1</clus>
</clustering>
</event>
<event>
 9    2  0.3707658E-005  0.3530584E+03  0.7546771E-02  0.1108174E+00
         21   -1    0    0  501  502  0.00000000000E+00  0.00000000000E+00  0.45963082828E+02  0.45963082828E+02  0.00000000000E+00 0. -1.
          2   -1    0    0  502    0 -0.00000000000E+00 -0.00000000000E+00 -0.12603512201E+04  0.12603512201E+04  0.00000000000E+00 0. -1.
         24    2    1    2    0    0 -0.56164202733E+02 -0.15978584423E+02 -0.12299360902E+03  0.15923441971E+03  0.82573844115E+02 0.  0.
         23    2    1    2    0    0 -0.36784770282E+02 -0.13883961916E+03 -0.52588872810E+03  0.55344279058E+03  0.95448462170E+02 0.  0.
        -13    1    3    3    0    0  0.20291719286E+02 -0.11187205850E+02 -0.18403584198E+02  0.29590528174E+02  0.00000000000E+00 0.  1.
         14    1    3    3    0    0 -0.76455922019E+02 -0.47913785728E+01 -0.10459002482E+03  0.12964389153E+03  0.00000000000E+00 0. -1.
        -11    1    4    4    0    0 -0.78836170508E+01 -0.12018136087E+03 -0.48631621064E+03  0.50100815128E+03  0.00000000000E+00 0. -1.
         11    1    4    4    0    0 -0.28901153231E+02 -0.18658258287E+02 -0.39572517461E+02  0.52434639301E+02  0.00000000000E+00 0.  1.
          1    1    1    2  501    0  0.92948973015E+02  0.15481820358E+03 -0.56550580012E+03  0.59363709260E+03  0.00000000000E+00 0. -1.
<scales pt_clust_5="13000.00000" pt_clust_6="13000.00000" pt_clust_7="13000.00000" pt_clust_8="13000.00000" pt_clust_9="13000.00000"></scales>
<clustering>
<clus scale="   82.574">  5  6 -1 -1</clus>
<clus scale="   95.448">  7  8 -1 -1</clus>
<clus scale="  101.134">  2  5  1 -1</clus>
<clus scale="  159.856">  7  9 -1 -1</clus>
<clus scale="  353.058">  1  5  2 -1</clus>
</clustering>
</event>
<event>
 9    2  0.3707658E-005  0.2859352E+03  0.7546771E-02  0.1101322E+00
         21   -1    0    0  501  502  0.00000000000E+00  0.00000000000E+00  0.54166321329E+03  0.54166321329E+03  0.00000000000E+00 0. -1.
          2   -1    0    0  502    0 -0.00000000000E+00 -0.00000000000E+00 -0.12257814360E+03  0.12257814360E+03  0.00000000000E+00 0. -1.
         24    2    1    2    0    0 -0.77890009562E+02  0.19767901504E+03  0.15434403484E+03  0.27456615490E+03  0.80128932016E+02 0.  0.
         23    2    1    2    0    0 -0.73913192871E+01 -0.50087355819E+02  0.88473685540E+02  0.14446838855E+03  0.10237259128E+03 0.  0.
        -11    1    3    3    0    0 -0.55499221904E+01  0.60155545562E+02  0.76872109671E+01  0.60898148664E+02  0.00000000000E+00 0.  1.
         12    1    3    3    0    0 -0.72340087371E+02  0.13752346948E+03  0.14665682387E+03  0.21366800623E+03  0.00000000000E+00 0. -1.
        -11    1    4    4    0    0  0.30100434789E+02  0.18722983469E+02  0.22085452280E+02  0.41765458059E+02  0.00000000000E+00 0.  1.
         11    1    4    4    0    0 -0.37491754077E+02 -0.68810339288E+02  0.66388233261E+02  0.10270293049E+03  0.00000000000E+00 0. -1.
          1    1    1    2  501    0  0.85281328849E+02 -0.14759165922E+03  0.17626734932E+03  0.24520681344E+03  0.00000000000E+00 0. -1.
<scales pt_clust_5="13000.00000" pt_clust_6="13000.00000" pt_clust_7="13000.00000" pt_clust_8="13000.00000" pt_clust_9="13000.00000"></scales>
<clustering>
<clus scale="   80.129">  5  6 -1 -1</clus>
<clus scale="  102.373">  7  8 -1 -1</clus>
<clus scale="  170.459">  7  9 -1 -1</clus>
<clus scale="  227.078">  2  5  1 -1</clus>
<clus scale="  285.935">  1  5  2 -1</clus>
</clustering>
</event>
<event>
 9    2  0.3707658E-005  0.2142421E+03  0.7546771E-02  0.1161186E+00
          4   -1    0    0  502    0 -0.00000000000E+00  0.00000000000E+00  0.51609947381E+02  0.51609947381E+02  0.00000000000E+00 0. -1.
         21   -1    0    0  501  502  0.00000000000E+00 -0.00000000000E+00 -0.11246214282E+04  0.11246214282E+04  0.00000000000E+00 0.  1.
         24    2    1    2    0    0  0.21618435226E+01 -0.66222957523E+02 -0.55132397751E+02  0.13604990253E+03  0.10526082380E+03 0.  0.
         23    2    1    2    0    0 -0.70896514238E+02  0.83535726966E+02 -0.67250896572E+03  0.68761274939E+03  0.92403737706E+02 0.  0.
        -13    1    3    3    0    0  0.33716125981E+02 -0.10176788534E+02 -0.62062885562E+02  0.71359273681E+02  0.00000000000E+00 0.  1.
         14    1    3    3    0    0 -0.31554282458E+02 -0.56046168989E+02  0.69304878107E+01  0.64690628851E+02  0.00000000000E+00 0. -1.
        -11    1    4    4    0    0 -0.17627915435E+02  0.87100969099E+02 -0.45956107660E+03  0.46807446560E+03  0.00000000000E+00 0.  1.
         11    1    4    4    0    0 -0.53268598803E+02 -0.35652421333E+01 -0.21294788911E+03  0.21953828379E+03  0.00000000000E+00 0. -1.
          3    1    1    2  501    0  0.68734670715E+02 -0.17312769443E+02 -0.34537011731E+03  0.35256872362E+03  0.00000000000E+00 0. -1.
<scales pt_clust_5="13000.00000" pt_clust_6="13000.00000" pt_clust_7="13000.00000" pt_clust_8="13000.00000" pt_clust_9="13000.00000"></scales>
<clustering>
<clus scale="   92.404">  7  8 -1 -1</clus>
<clus scale="   70.882">  7  9 -1 -1</clus>
<clus scale="  105.261">  5  6 -1 -1</clus>
<clus scale="  124.378">  1  5  2 -1</clus>
<clus scale="  214.242">  2  5  1 -1</clus>
</clustering>
</event>
<event>
 9    2  0.3707658E-005  0.1790453E+03  0.7546771E-02  0.1193040E+00
         21   -1    0    0  501  502  0.00000000000E+00  0.00000000000E+00  0.56827083209E+02  0.56827083209E+02  0.00000000000E+00 0.  1.
          2   -1    0    0  502    0 -0.00000000000E+00 -0.00000000000E+00 -0.35856459852E+03  0.35856459852E+03  0.00000000000E+00 0. -1.
         24    2    1    2    0    0  0.37621670994E+02  0.48400409409E+02 -0.13893327041E+03  0.17339491070E+03  0.83697978893E+02 0.  0.
         23    2    1    2    0    0  0.36364196210E+01 -0.81113586247E+02 -0.88119962049E+02  0.15061775765E+03  0.91257568388E+02 0.  0.
        -13    1    3    3    0    0  0.56090553260E+02  0.31875054297E+02 -0.13313496069E+03  0.14794285048E+03  0.00000000000E+00 0.  1.
         14    1    3    3    0    0 -0.18468882266E+02  0.16525355112E+02 -0.57983097217E+01  0.25452060218E+02  0.00000000000E+00 0. -1.
        -11    1    4    4    0    0 -0.19028113740E+02 -0.86744541362E+02 -0.90922360840E+02  0.12709665719E+03  0.00000000000E+00 0. -1.
         11    1    4    4    0    0  0.22664533361E+02  0.56309551153E+01  0.28023987918E+01  0.23521100463E+02  0.00000000000E+00 0.  1.
          1    1    1    2  501    0 -0.41258090615E+02  0.32713176838E+02 -0.74684282853E+02  0.91379013375E+02  0.00000000000E+00 0. -1.
<scales pt_clust_5="13000.00000" pt_clust_6="13000.00000" pt_clust_7="13000.00000" pt_clust_8="13000.00000" pt_clust_9="13000.00000"></scales>
<clustering>
<clus scale="   83.698">  5  6 -1 -1</clus>
<clus scale="   91.258">  7  8 -1 -1</clus>
<clus scale="   52.653">  7  9 -1 -1</clus>
<clus scale="  103.747">  2  5  1 -1</clus>
<clus scale="  179.045">  1  5  2 -1</clus>
</clustering>
</event>
<event>
 9    2  0.3707658E-005  0.4063547E+03  0.7546771E-02  0.1093459E+00
         21   -1    0    0  501  502  0.00000000000E+00  0.00000000000E+00  0.12993504113E+03  0.12993504113E+03  0.00000000000E+00 0.  1.
          2   -1    0    0  502    0 -0.00000000000E+00 -0.00000000000E+00 -0.51115884971E+03  0.51115884971E+03  0.00000000000E+00 0. -1.
         24    2    1    2    0    0  0.21582159681E+02  0.49302433262E+02 -0.23982032436E+02  0.10003396713E+03  0.80840195186E+02 0.  0.
         23    2    1    2    0    0 -0.13595072221E+03  0.11101235854E+03 -0.12132120869E+03  0.23374979581E+03  0.95466165445E+02 0.  0.
        -13    1    3    3    0    0  0.29805130394E+02 -0.58082255760E+01  0.13132674450E+02  0.33083960168E+02  0.00000000000E+00 0.  1.
         14    1    3    3    0    0 -0.82229707128E+01  0.55110658838E+02 -0.37114706886E+02  0.66950006961E+02  0.00000000000E+00 0. -1.
        -13    1    4    4    0    0 -0.14854213714E+03  0.86412383666E+02 -0.10892778545E+03  0.20346284427E+03  0.00000000000E+00 0.  1.
         13    1    4    4    0    0  0.12591414930E+02  0.24599974871E+02 -0.12393423244E+02  0.30286951535E+02  0.00000000000E+00 0. -1.
          1    1    1    2  501    0  0.11436856253E+03 -0.16031479180E+03 -0.23592056745E+03  0.30731012790E+03  0.00000000000E+00 0. -1.
<scales pt_clust_5="13000.00000" pt_clust_6="13000.00000" pt_clust_7="13000.00000" pt_clust_8="13000.00000" pt_clust_9="13000.00000"></scales>
<clustering>
<clus scale="   80.840">  5  6 -1 -1</clus>
<clus scale="   95.466">  7  8 -1 -1</clus>
<clus scale="   97.117">  2  5  1 -1</clus>
<clus scale="  182.390">  7  9 -1 -1</clus>
<clus scale="  406.355">  1  5  2 -1</clus>
</clustering>
</event>
<event>
 9    2  0.3707658E-005  0.1761568E+03  0.7546771E-02  0.1199774E+00
         21   -1    0    0  501  502  0.00000000000E+00  0.00000000000E+00  0.30651151964E+02  0.30651151964E+02  0.00000000000E+00 0.  1.
          2   -1    0    0  502    0 -0.00000000000E+00 -0.00000000000E+00 -0.60271681749E+03  0.60271681749E+03  0.00000000000E+00 0. -1.
         24    2    1    2    0    0  0.24592679342E+02  0.40503766524E+02 -0.16689802751E+03  0.19156252670E+03  0.81215116016E+02 0.  0.
         23    2    1    2    0    0  0.49902753344E+01  0.32841994782E+02 -0.24617963275E+03  0.26423309770E+03  0.90062305489E+02 0.  0.
        -13    1    3    3    0    0 -0.37055615575E+01  0.35599972630E+02 -0.18270959162E+02  0.40186032230E+02  0.00000000000E+00 0.  1.
         14    1    3    3    0    0  0.28298240900E+02  0.49037938938E+01 -0.14862706834E+03  0.15137649447E+03  0.00000000000E+00 0. -1.
        -11    1    4    4    0    0 -0.42013495858E+02  0.13178156684E+02 -0.13337918936E+03  0.14045926742E+03  0.00000000000E+00 0. -1.
         11    1    4    4    0    0  0.47003771192E+02  0.19663838098E+02 -0.11280044339E+03  0.12377383029E+03  0.00000000000E+00 0.  1.
          1    1    1    2  501    0 -0.29582954677E+02 -0.73345761306E+02 -0.15898800527E+03  0.17757234506E+03  0.00000000000E+00 0. -1.
<scales pt_clust_5="13000.00000" pt_clust_6="13000.00000" pt_clust_7="13000.00000" pt_clust_8="13000.00000" pt_clust_9="13000.00000"></scales>
<clustering>
<clus scale="   81.215">  5  6 -1 -1</clus>
<clus scale="   90.062">  7  8 -1 -1</clus>
<clus scale="   79.087">  7  9 -1 -1</clus>
<clus scale="   94.028">  2  5  1 -1</clus>
<clus scale="  176.157">  1  5  2 -1</clus>
</clustering>
</event>
<event>
 9    2  0.3707658E-005  0.5593551E+03  0.7546771E-02  0.1043848E+00
          2   -1    0    0  502    0 -0.00000000000E+00  0.00000000000E+00  0.11993176719E+04  0.11993176719E+04  0.00000000000E+00 0. -1.
         21   -1    0    0  501  502  0.00000000000E+00 -0.00000000000E+00 -0.10593018777E+03  0.10593018777E+03  0.00000000000E+00 0.  1.
         24    2    1    2    0    0 -0.51990612191E+02  0.10274952450E+03  0.31006005281E+03  0.34270953259E+03  0.89733487838E+02 0.  0.
         23    2    1    2    0    0  0.12248873953E+03 -0.19516174078E+02 -0.16006786195E+02  0.15579613290E+03  0.92907725512E+02 0.  0.
        -13    1    3    3    0    0 -0.75953335263E+02  0.72076359033E+02  0.25113270058E+03  0.27208738296E+03  0.00000000000E+00 0.  1.
         14    1    3    3    0    0  0.23962723072E+02  0.30673165468E+02  0.58927352231E+02  0.70622149627E+02  0.00000000000E+00 0. -1.
        -13    1    4    4    0    0  0.65163822641E+02 -0.14797079809E+02  0.38020946438E+02  0.76882180771E+02  0.00000000000E+00 0. -1.
         13    1    4    4    0    0  0.57324916887E+02 -0.47190942691E+01 -0.54027732633E+02  0.78913952127E+02  0.00000000000E+00 0.  1.
          1    1    1    2  501    0 -0.70498127337E+02 -0.83233350423E+02  0.79933421752E+03  0.80674219418E+03  0.00000000000E+00 0. -1.
<scales pt_clust_5="13000.00000" pt_clust_6="13000.00000" pt_clust_7="13000.00000" pt_clust_8="13000.00000" pt_clust_9="13000.00000"></scales>
<clustering>
<clus scale="   89.733">  5  6 -1 -1</clus>
<clus scale="   92.908">  7  8 -1 -1</clus>
<clus scale="  109.077">  7  9 -1 -1</clus>
<clus scale="  145.988">  1  5  2 -1</clus>
<clus scale="  559.355">  2  5  1 -1</clus>
</clustering>
</event>
<event>
 9    2  0.3707658E-005  0.2603635E+03  0.7546771E-02  0.1152889E+00
          2   -1    0    0  502    0 -0.00000000000E+00  0.00000000000E+00  0.12768493750E+03  0.12768493750E+03  0.00000000000E+00 0. -1.
         21   -1    0    0  501  502  0.00000000000E+00 -0.00000000000E+00 -0.29115111045E+03  0.29115111045E+03  0.00000000000E+00 0. -1.
         24    2    1    2    0    0 -0.23000602922E+02 -0.20554012913E+02  0.35321340078E+02  0.91260681854E+02  0.78290611224E+02 0.  0.
         23    2    1    2    0    0 -0.26959988932E+02 -0.91044763815E+02 -0.67420604919E+02  0.14811057219E+03  0.91516193128E+02 0.  0.
        -11    1    3    3    0    0 -0.34525962083E+02  0.13911190845E+02  0.39975819770E+02  0.54622609373E+02  0.00000000000E+00 0.  1.
         12    1    3    3    0    0  0.11525359160E+02 -0.34465203758E+02 -0.46544796925E+01  0.36638072480E+02  0.00000000000E+00 0. -1.
        -13    1    4    4    0    0 -0.40804644173E+02 -0.38456152047E+02  0.63868228715E+01  0.56433023335E+02  0.00000000000E+00 0.  1.
         13    1    4    4    0    0  0.13844655241E+02 -0.52588611768E+02 -0.73807427791E+02  0.91677548852E+02  0.00000000000E+00 0. -1.
          1    1    1    2  501    0  0.49960591855E+02  0.11159877673E+03 -0.13136690811E+03  0.17946479391E+03  0.00000000000E+00 0. -1.
<scales pt_clust_5="13000.00000" pt_clust_6="13000.00000" pt_clust_7="13000.00000" pt_clust_8="13000.00000" pt_clust_9="13000.00000"></scales>
<clustering>
<clus scale="   78.291">  5  6 -1 -1</clus>
<clus scale="   84.148">  1  5  2 -1</clus>
<clus scale="   91.516">  7  8 -1 -1</clus>
<clus scale="  111.855">  7  9 -1 -1</clus>
<clus scale="  260.363">  2  5  1 -1</clus>
</clustering>
</event>
<event>
 9    2  0.3707658E-005  0.3545303E+03  0.7546771E-02  0.1076759E+00
         21   -1    0    0  501  502  0.00000000000E+00  0.00000000000E+00  0.73109307664E+02  0.73109307664E+02  0.00000000000E+00 0.  1.
         -1   -1    0    0    0  501 -0.00000000000E+00 -0.00000000000E+00 -0.11653693970E+04  0.11653693970E+04  0.00000000000E+00 0.  1.
         24    2    1    2    0    0  0.19162805182E+03  0.93710601401E+02 -0.39441712307E+03  0.45574214550E+03  0.81443533504E+02 0.  0.
         23    2    1    2    0    0 -0.94280573996E+01  0.63528897583E+02 -0.23005746934E+03  0.25667157350E+03  0.93963015866E+02 0.  0.
        -11    1    3    3    0    0  0.62901072955E+02  0.71637350124E+02 -0.19957972640E+03  0.22117984109E+03  0.00000000000E+00 0.  1.
         12    1    3    3    0    0  0.12872697886E+03  0.22073251277E+02 -0.19483739667E+03  0.23456230441E+03  0.00000000000E+00 0. -1.
        -13    1    4    4    0    0 -0.39202457087E+02  0.68301674435E+02 -0.12831563729E+03  0.15055515316E+03  0.00000000000E+00 0. -1.
         13    1    4    4    0    0  0.29774399688E+02 -0.47727768520E+01 -0.10174183205E+03  0.10611642033E+03  0.00000000000E+00 0.  1.
         -2    1    1    2    0  502 -0.18219999442E+03 -0.15723949898E+03 -0.46778549688E+03  0.52606498562E+03  0.00000000000E+00 0.  1.
<scales pt_clust_5="13000.00000" pt_clust_6="13000.00000" pt_clust_7="13000.00000" pt_clust_8="13000.00000" pt_clust_9="13000.00000"></scales>
<clustering>
<clus scale="   81.444">  5  6 -1 -1</clus>
<clus scale="   93.963">  7  8 -1 -1</clus>
<clus scale="  228.333">  2  5  1 -1</clus>
<clus scale="  108.484">  7  9 -1 -1</clus>
<clus scale="  354.530">  1  5  2 -1</clus>
</clustering>
</event>
<event>
 9    2  0.3707658E-005  0.2115268E+03  0.7546771E-02  0.1168011E+00
          2   -1    0    0  502    0 -0.00000000000E+00  0.00000000000E+00  0.75827724569E+02  0.75827724569E+02  0.00000000000E+00 0. -1.
         21   -1    0    0  501  502  0.00000000000E+00 -0.00000000000E+00 -0.36872862218E+03  0.36872862218E+03  0.00000000000E+00 0.  1.
         24    2    1    2    0    0 -0.72976928360E+02  0.22845760522E+02 -0.16122301158E+03  0.19539247222E+03  0.79610287587E+02 0.  0.
         23    2    1    2    0    0  0.63090775177E+02  0.35641527527E+02 -0.14635136566E+03  0.18805896563E+03  0.93256034274E+02 0.  0.
        -11    1    3    3    0    0 -0.74430681496E+02  0.44587202344E+02 -0.11293560672E+03  0.14241627796E+03  0.00000000000E+00 0.  1.
         12    1    3    3    0    0  0.14537531358E+01 -0.21741441822E+02 -0.48287404854E+02  0.52976194260E+02  0.00000000000E+00 0. -1.
        -13    1    4    4    0    0 -0.10983476575E+02 -0.18392556284E+02 -0.97434137592E+01  0.23534166568E+02  0.00000000000E+00 0. -1.
         13    1    4    4    0    0  0.74074251752E+02  0.54034083811E+02 -0.13660795190E+03  0.16452479907E+03  0.00000000000E+00 0.  1.
          1    1    1    2  501    0  0.98861531834E+01 -0.58487288049E+02  0.14673479619E+02  0.61104908904E+02  0.00000000000E+00 0. -1.
<scales pt_clust_5="13000.00000" pt_clust_6="13000.00000" pt_clust_7="13000.00000" pt_clust_8="13000.00000" pt_clust_9="13000.00000"></scales>
<clustering>
<clus scale="   79.610">  5  6 -1 -1</clus>
<clus scale="   93.256">  7  8 -1 -1</clus>
<clus scale="   59.317">  7  9 -1 -1</clus>
<clus scale="  110.387">  1  5  2 -1</clus>
<clus scale="  211.527">  2  5  1 -1</clus>
</clustering>
</event>
<event>
 9    2  0.3707658E-005  0.7003053E+03  0.7546771E-02  0.1020685E+00
          2   -1    0    0  502    0 -0.00000000000E+00  0.00000000000E+00  0.15858234868E+03  0.15858234868E+03  0.00000000000E+00 0. -1.
         21   -1    0    0  501  502  0.00000000000E+00 -0.00000000000E+00 -0.11407406389E+04  0.11407406389E+04  0.00000000000E+00 0. -1.
         24    2    1    2    0    0  0.10190662188E+03 -0.68774740957E+02 -0.13251040825E+03  0.19826483563E+03  0.81455584060E+02 0.  0.
         23    2    1    2    0    0  0.73804097069E+02 -0.15850375112E+03  0.86236557705E+01  0.19598367866E+03  0.88117824534E+02 0.  0.
        -13    1    3    3    0    0  0.75627616421E+02 -0.82345745385E+01 -0.97149091094E+02  0.12339080389E+03  0.00000000000E+00 0.  1.
         14    1    3    3    0    0  0.26279005464E+02 -0.60540166419E+02 -0.35361317151E+02  0.74874031739E+02  0.00000000000E+00 0. -1.
        -13    1    4    4    0    0  0.72234954243E+02 -0.82546276784E+02  0.35663573712E+02  0.11534152295E+03  0.00000000000E+00 0. -1.
         13    1    4    4    0    0  0.15691428253E+01 -0.75957474332E+02 -0.27039917942E+02  0.80642155715E+02  0.00000000000E+00 0.  1.
          1    1    1    2  501    0 -0.17571071895E+03  0.22727849207E+03 -0.85827153775E+03  0.90507447330E+03  0.00000000000E+00 0. -1.
<scales pt_clust_5="13000.00000" pt_clust_6="13000.00000" pt_clust_7="13000.00000" pt_clust_8="13000.00000" pt_clust_9="13000.00000"></scales>
<clustering>
<clus scale="   81.456">  5  6 -1 -1</clus>
<clus scale="   88.118">  7  8 -1 -1</clus>
<clus scale="  147.479">  1  5  2 -1</clus>
<clus scale="  265.645">  7  9 -1 -1</clus>
<clus scale="  700.305">  2  5  1 -1</clus>
</clustering>
</event>
<event>
 9    2  0.3707658E-005  0.6475269E+03  0.7546771E-02  0.1020448E+00
         21   -1    0    0  501  502  0.00000000000E+00  0.00000000000E+00  0.27444828117E+03  0.27444828117E+03  0.00000000000E+00 0. -1.
          2   -1    0    0  502    0 -0.00000000000E+00 -0.00000000000E+00 -0.93524407930E+03  0.93524407930E+03  0.00000000000E+00 0. -1.
         24    2    1    2    0    0 -0.10753744980E+03  0.13197978443E+03 -0.51186063336E+03  0.54525821983E+03  0.79512588307E+02 0.  0.
         23    2    1    2    0    0 -0.25789001409E+02  0.21338320755E+03 -0.17675374569E+03  0.29318568978E+03  0.92295699894E+02 0.  0.
        -13    1    3    3    0    0 -0.89927617325E+02  0.11656041452E+03 -0.32318644028E+03  0.35513769410E+03  0.00000000000E+00 0.  1.
         14    1    3    3    0    0 -0.17609832478E+02  0.15419369907E+02 -0.18867419308E+03  0.19012052572E+03  0.00000000000E+00 0. -1.
        -11    1    4    4    0    0  0.33098421776E+02  0.56509257585E+02 -0.61274181755E+02  0.89684597711E+02  0.00000000000E+00 0. -1.
         11    1    4    4    0    0 -0.58887423185E+02  0.15687394997E+03 -0.11547956393E+03  0.20350109207E+03  0.00000000000E+00 0.  1.
          1    1    1    2  501    0  0.13332645121E+03 -0.34536299199E+03  0.27818580914E+02  0.37124845087E+03  0.00000000000E+00 0. -1.
<scales pt_clust_5="13000.00000" pt_clust_6="13000.00000" pt_clust_7="13000.00000" pt_clust_8="13000.00000" pt_clust_9="13000.00000"></scales>
<clustering>
<clus scale="   79.513">  5  6 -1 -1</clus>
<clus scale="   92.296">  7  8 -1 -1</clus>
<clus scale="  187.897">  2  5  1 -1</clus>
<clus scale="  302.688">  7  9 -1 -1</clus>
<clus scale="  647.527">  1  5  2 -1</clus>
</clustering>
</event>
<event>
 9    2  0.3707658E-005  0.2365145E+03  0.7546771E-02  0.1145247E+00
          4   -1    0    0  502    0 -0.00000000000E+00  0.00000000000E+00  0.67204014120E+03  0.67204014120E+03  0.00000000000E+00 0. -1.
         21   -1    0    0  501  502  0.00000000000E+00 -0.00000000000E+00 -0.51357879866E+02  0.51357879866E+02  0.00000000000E+00 0. -1.
         24    2    1    2    0    0 -0.11328515345E+01 -0.10859973295E+03  0.24278560541E+03  0.27758978118E+03  0.79473587251E+02 0.  0.
         23    2    1    2    0    0  0.13728847650E+02 -0.25182477243E+02  0.10810552310E+03  0.14440552883E+03  0.91342838881E+02 0.  0.
        -11    1    3    3    0    0 -0.21380699971E+02 -0.44324391698E+01  0.82645485999E+02  0.85481326640E+02  0.00000000000E+00 0.  1.
         12    1    3    3    0    0  0.20247848436E+02 -0.10416729378E+03  0.16014011941E+03  0.19210845454E+03  0.00000000000E+00 0. -1.
        -11    1    4    4    0    0  0.24256186953E+02  0.10585329400E+02 -0.35379268431E+01  0.26700725278E+02  0.00000000000E+00 0. -1.
         11    1    4    4    0    0 -0.10527339303E+02 -0.35767806642E+02  0.11164344994E+03  0.11770480355E+03  0.00000000000E+00 0.  1.
          3    1    1    2  501    0 -0.12595996116E+02  0.13378221019E+03  0.26979113282E+03  0.30140271106E+03  0.00000000000E+00 0. -1.
<scales pt_clust_5="13000.00000" pt_clust_6="13000.00000" pt_clust_7="13000.00000" pt_clust_8="13000.00000" pt_clust_9="13000.00000"></scales>
<clustering>
<clus scale="   79.474">  5  6 -1 -1</clus>
<clus scale="   91.343">  7  8 -1 -1</clus>
<clus scale="  134.374">  7  9 -1 -1</clus>
<clus scale="  134.578">  1  5  2 -1</clus>
<clus scale="  236.514">  2  5  1 -1</clus>
</clustering>
</event>
<event>
 9    2  0.3707658E-005  0.4536732E+03  0.7546771E-02  0.1074724E+00
         21   -1    0    0  501  502  0.00000000000E+00  0.00000000000E+00  0.22949971952E+03  0.22949971952E+03  0.00000000000E+00 0. -1.
          2   -1    0    0  502    0 -0.00000000000E+00 -0.00000000000E+00 -0.15724088567E+04  0.15724088567E+04  0.00000000000E+00 0. -1.
         24    2    1    2    0    0  0.39972311253E+02  0.73046296480E+02 -0.13433080609E+04  0.13482352339E+04  0.79549685151E+02 0.  0.
         23    2    1    2    0    0  0.94690764636E+02 -0.21343450667E+03 -0.44819691343E+02  0.25395424782E+03  0.89237468077E+02 0.  0.
        -11    1    3    3    0    0  0.29417796262E+02  0.46102254223E+02 -0.32899092687E+03  0.33350540407E+03  0.00000000000E+00 0.  1.
         12    1    3    3    0    0  0.10554514991E+02  0.26944042257E+02 -0.10143171340E+04  0.10147298298E+04  0.00000000000E+00 0. -1.
        -13    1    4    4    0    0  0.95339040859E+02 -0.13853463387E+03 -0.58018601411E+02  0.17789754243E+03  0.00000000000E+00 0.  1.
         13    1    4    4    0    0 -0.64827622312E+00 -0.74899872800E+02  0.13198910069E+02  0.76056705388E+02  0.00000000000E+00 0. -1.
          1    1    1    2  501    0 -0.13466307589E+03  0.14038821019E+03  0.45218615031E+02  0.19971909451E+03  0.00000000000E+00 0. -1.
<scales pt_clust_5="13000.00000" pt_clust_6="13000.00000" pt_clust_7="13000.00000" pt_clust_8="13000.00000" pt_clust_9="13000.00000"></scales>
<clustering>
<clus scale="   79.550">  5  6 -1 -1</clus>
<clus scale="   89.237">  7  8 -1 -1</clus>
<clus scale="  115.159">  2  5  1 -1</clus>
<clus scale="  204.866">  7  9 -1 -1</clus>
<clus scale="  453.673">  1  5  2 -1</clus>
</clustering>
</event>
<event>
 9    2  0.3707658E-005  0.4368881E+03  0.7546771E-02  0.1057544E+00
          2   -1    0    0  502    0 -0.00000000000E+00  0.00000000000E+00  0.12343876750E+04  0.12343876750E+04  0.00000000000E+00 0. -1.
         21   -1    0    0  501  502  0.00000000000E+00 -0.00000000000E+00 -0.85991121191E+02  0.85991121191E+02  0.00000000000E+00 0. -1.
         24    2    1    2    0    0 -0.11827184114E+03  0.14877003196E+03  0.46662316386E+03  0.51063426247E+03  0.83002542941E+02 0.  0.
         23    2    1    2    0    0 -0.12909437218E+03 -0.64260388069E+02  0.22057326879E+03  0.27961485604E+03  0.93472704084E+02 0.  0.
        -13    1    3    3    0    0 -0.72103482937E+02  0.32219349903E+02  0.22443263326E+03  0.23792226805E+03  0.00000000000E+00 0.  1.
         14    1    3    3    0    0 -0.46168358207E+02  0.11655068206E+03  0.24219053060E+03  0.27271199442E+03  0.00000000000E+00 0. -1.
        -13    1    4    4    0    0 -0.10415263594E+03 -0.88371681804E+02  0.18459702641E+03  0.22963751409E+03  0.00000000000E+00 0. -1.
         13    1    4    4    0    0 -0.24941736247E+02  0.24111293736E+02  0.35976242379E+02  0.49977341950E+02  0.00000000000E+00 0.  1.
          1    1    1    2  501    0  0.24736621333E+03 -0.84509643892E+02  0.46120012113E+03  0.53012967766E+03  0.00000000000E+00 0. -1.
<scales pt_clust_5="13000.00000" pt_clust_6="13000.00000" pt_clust_7="13000.00000" pt_clust_8="13000.00000" pt_clust_9="13000.00000"></scales>
<clustering>
<clus scale="   83.003">  5  6 -1 -1</clus>
<clus scale="   93.473">  7  8 -1 -1</clus>
<clus scale="  207.389">  1  5  2 -1</clus>
<clus scale="  169.368">  7  9 -1 -1</clus>
<clus scale="  436.888">  2  5  1 -1</clus>
</clustering>
</event>
<event>
 9    2  0.3707658E-005  0.2692596E+03  0.7546771E-02  0.1110681E+00
         21   -1    0    0  501  502  0.00000000000E+00  0.00000000000E+00  0.26966797965E+03  0.26966797965E+03  0.00000000000E+00 0.  1.
          2   -1    0    0  502    0 -0.00000000000E+00 -0.00000000000E+00 -0.31234586080E+03  0.31234586080E+03  0.00000000000E+00 0. -1.
         24    2    1    2    0    0 -0.42056995391E+02 -0.19331440829E+03  0.14090756781E+03  0.25612375396E+03  0.81272279167E+02 0.  0.
         23    2    1    2    0    0 -0.16660642240E+02  0.37022149285E+02 -0.97608180067E+02  0.13809466067E+03  0.88851347494E+02 0.  0.
        -11    1    3    3    0    0  0.55129269404E+01 -0.14682256271E+03  0.10447253487E+03  0.18028246678E+03  0.00000000000E+00 0.  1.
         12    1    3    3    0    0 -0.47569922331E+02 -0.46491845576E+02  0.36435032943E+02  0.75841287181E+02  0.00000000000E+00 0. -1.
        -13    1    4    4    0    0  0.29855985466E+02  0.13376341888E+02 -0.68805053137E+01  0.33431239041E+02  0.00000000000E+00 0. -1.
         13    1    4    4    0    0 -0.46516627705E+02  0.23645807397E+02 -0.90727674753E+02  0.10466342163E+03  0.00000000000E+00 0.  1.
          1    1    1    2  501    0  0.58717637630E+02  0.15629225900E+03 -0.85977268903E+02  0.18779542583E+03  0.00000000000E+00 0. -1.
<scales pt_clust_5="13000.00000" pt_clust_6="13000.00000" pt_clust_7="13000.00000" pt_clust_8="13000.00000" pt_clust_9="13000.00000"></scales>
<clustering>
<clus scale="   81.272">  5  6 -1 -1</clus>
<clus scale="   88.851">  7  8 -1 -1</clus>
<clus scale="  166.958">  7  9 -1 -1</clus>
<clus scale="  213.880">  2  5  1 -1</clus>
<clus scale="  269.260">  1  5  2 -1</clus>
</clustering>
</event>
<event>
 9    2  0.3707658E-005  0.2412880E+03  0.7546771E-02  0.1161836E+00
         21   -1    0    0  501  502  0.00000000000E+00  0.00000000000E+00  0.12077630299E+03  0.12077630299E+03  0.00000000000E+00 0.  1.
          4   -1    0    0  502    0 -0.00000000000E+00 -0.00000000000E+00 -0.22142747907E+03  0.22142747907E+03  0.00000000000E+00 0. -1.
         24    2    1    2    0    0 -0.22907377513E+02 -0.20346208930E+02 -0.24883943462E+02  0.89299483341E+02  0.80102877104E+02 0.  0.
         23    2    1    2    0    0  0.38535411239E+02 -0.78704948100E+02  0.37002256817E+00  0.12699858490E+03  0.91918751489E+02 0.  0.
        -13    1    3    3    0    0 -0.50482807707E+02 -0.14739616398E+01 -0.58458606229E+01  0.50841523613E+02  0.00000000000E+00 0.  1.
         14    1    3    3    0    0  0.27575430194E+02 -0.18872247291E+02 -0.19038082839E+02  0.38457959728E+02  0.00000000000E+00 0. -1.
        -13    1    4    4    0    0 -0.12890096256E+02 -0.74270999350E+02  0.38980242196E+00  0.75382278235E+02  0.00000000000E+00 0.  1.
         13    1    4    4    0    0  0.51425507495E+02 -0.44339487497E+01 -0.19779853789E-01  0.51616306666E+02  0.00000000000E+00 0. -1.
          3    1    1    2  501    0 -0.15628033726E+02  0.99051157030E+02 -0.76137255183E+02  0.12590571383E+03  0.00000000000E+00 0. -1.
<scales pt_clust_5="13000.00000" pt_clust_6="13000.00000" pt_clust_7="13000.00000" pt_clust_8="13000.00000" pt_clust_9="13000.00000"></scales>
<clustering>
<clus scale="   80.103">  5  6 -1 -1</clus>
<clus scale="   85.762">  2  5  1 -1</clus>
<clus scale="   91.919">  7  8 -1 -1</clus>
<clus scale="   91.501">  7  9 -1 -1</clus>
<clus scale="  241.288">  1  5  2 -1</clus>
</clustering>
</event>
<event>
 9    2  0.3707658E-005  0.2584430E+03  0.7546771E-02  0.1116093E+00
          2   -1    0    0  502    0 -0.00000000000E+00  0.00000000000E+00  0.22952085277E+03  0.22952085277E+03  0.00000000000E+00 0. -1.
         21   -1    0    0  501  502  0.00000000000E+00 -0.00000000000E+00 -0.28517348166E+03  0.28517348166E+03  0.00000000000E+00 0. -1.
         24    2    1    2    0    0 -0.41435239701E+02  0.19033729628E+03  0.76592860783E+02  0.22438127579E+03  0.80841357967E+02 0.  0.
         23    2    1    2    0    0  0.28866996316E+02 -0.38642777980E+02 -0.22593829397E+02  0.10271595251E+03  0.87826636090E+02 0.  0.
        -13    1    3    3    0    0  0.15638149111E+02  0.16983393708E+02 -0.63009890744E+01  0.23930938820E+02  0.00000000000E+00 0.  1.
         14    1    3    3    0    0 -0.57073388812E+02  0.17335390257E+03  0.82893849858E+02  0.20045033697E+03  0.00000000000E+00 0. -1.
        -13    1    4    4    0    0  0.24078607818E+02  0.22587872451E+02 -0.24747644745E+02  0.41260601749E+02  0.00000000000E+00 0. -1.
         13    1    4    4    0    0  0.47883884972E+01 -0.61230650431E+02  0.21538153480E+01  0.61455350761E+02  0.00000000000E+00 0.  1.
          1    1    1    2  501    0  0.12568243385E+02 -0.15169451830E+03 -0.10965166028E+03  0.18759710612E+03  0.00000000000E+00 0. -1.
<scales pt_clust_5="13000.00000" pt_clust_6="13000.00000" pt_clust_7="13000.00000" pt_clust_8="13000.00000" pt_clust_9="13000.00000"></scales>
<clustering>
<clus scale="   80.841">  5  6 -1 -1</clus>
<clus scale="   87.827">  7  8 -1 -1</clus>
<clus scale="  152.214">  7  9 -1 -1</clus>
<clus scale="  210.904">  1  5  2 -1</clus>
<clus scale="  258.443">  2  5  1 -1</clus>
</clustering>
</event>
<event>
 9    2  0.3707658E-005  0.2297044E+03  0.7546771E-02  0.1153844E+00
         21   -1    0    0  501  502  0.00000000000E+00  0.00000000000E+00  0.42454394241E+03  0.42454394241E+03  0.00000000000E+00 0. -1.
          2   -1    0    0  502    0 -0.00000000000E+00 -0.00000000000E+00 -0.73398397180E+02  0.73398397180E+02  0.00000000000E+00 0. -1.
         24    2    1    2    0    0 -0.35867664325E+02  0.76833361834E+02  0.88086359269E+02  0.14870851093E+03  0.84647266343E+02 0.  0.
         23    2    1    2    0    0 -0.28467295330E+01 -0.10490779499E+03  0.80889028306E+02  0.16089120356E+03  0.91264424420E+02 0.  0.
        -13    1    3    3    0    0  0.19790361335E+01  0.74703929024E+02  0.32650130592E+02  0.81551361872E+02  0.00000000000E+00 0.  1.
         14    1    3    3    0    0 -0.37846700459E+02  0.21294328098E+01  0.55436228678E+02  0.67157149059E+02  0.00000000000E+00 0. -1.
        -13    1    4    4    0    0  0.35139983543E+02 -0.87526872646E+02  0.40041390254E+02  0.10246504190E+03  0.00000000000E+00 0. -1.
         13    1    4    4    0    0 -0.37986713076E+02 -0.17380922343E+02  0.40847638051E+02  0.58426161659E+02  0.00000000000E+00 0.  1.
          1    1    1    2  501    0  0.38714393858E+02  0.28074433155E+02  0.18217015766E+03  0.18834262510E+03  0.00000000000E+00 0. -1.
<scales pt_clust_5="13000.00000" pt_clust_6="13000.00000" pt_clust_7="13000.00000" pt_clust_8="13000.00000" pt_clust_9="13000.00000"></scales>
<clustering>
<clus scale="   84.647">  5  6 -1 -1</clus>
<clus scale="   91.264">  7  8 -1 -1</clus>
<clus scale="   47.822">  7  9 -1 -1</clus>
<clus scale="  119.812">  2  5  1 -1</clus>
<clus scale="  229.704">  1  5  2 -1</clus>
</clustering>
</event>
<event>
 9    2  0.3707658E-005  0.3646251E+03  0.7546771E-02  0.1098889E+00
         -1   -1    0    0    0  501 -0.00000000000E+00  0.00000000000E+00  0.47426583820E+03  0.47426583820E+03  0.00000000000E+00 0.  1.
         21   -1    0    0  501  502  0.00000000000E+00 -0.00000000000E+00 -0.25248336197E+03  0.25248336197E+03  0.00000000000E+00 0.  1.
         24    2    1    2    0    0 -0.31421328461E+01 -0.83712740959E+02  0.32705430852E+03  0.34723157302E+03  0.81163714693E+02 0.  0.
         23    2    1    2    0    0  0.11618690121E+03 -0.71758928794E+02 -0.86846149903E+02  0.18641126909E+03  0.92510364925E+02 0.  0.
        -13    1    3    3    0    0  0.29763811459E+02 -0.31866350290E+02  0.21574318553E+03  0.22010559024E+03  0.00000000000E+00 0.  1.
         14    1    3    3    0    0 -0.32905944305E+02 -0.51846390669E+02  0.11131112299E+03  0.12712598278E+03  0.00000000000E+00 0. -1.
        -11    1    4    4    0    0  0.11417282151E+03 -0.23414945312E+02 -0.62307761995E+02  0.13215880614E+03  0.00000000000E+00 0.  1.
         11    1    4    4    0    0  0.20140797028E+01 -0.48343983482E+02 -0.24538387908E+02  0.54252462958E+02  0.00000000000E+00 0. -1.
         -2    1    1    2    0  502 -0.11304476836E+03  0.15547166975E+03 -0.18425682382E+02  0.19310635805E+03  0.00000000000E+00 0.  1.
<scales pt_clust_5="13000.00000" pt_clust_6="13000.00000" pt_clust_7="13000.00000" pt_clust_8="13000.00000" pt_clust_9="13000.00000"></scales>
<clustering>
<clus scale="   81.164">  5  6 -1 -1</clus>
<clus scale="   92.510">  7  8 -1 -1</clus>
<clus scale="  116.642">  1  5  2 -1</clus>
<clus scale="  153.852">  7  9 -1 -1</clus>
<clus scale="  364.625">  2  5  1 -1</clus>
</clustering>
</event>
<event>
 9    2  0.3707658E-005  0.4540868E+03  0.7546771E-02  0.1061033E+00
          2   -1    0    0  502    0 -0.00000000000E+00  0.00000000000E+00  0.56685899428E+03  0.56685899428E+03  0.00000000000E+00 0. -1.
         21   -1    0    0  501  502  0.00000000000E+00 -0.00000000000E+00 -0.44384403295E+03  0.44384403295E+03  0.00000000000E+00 0. -1.
         24    2    1    2    0    0 -0.12476512273E+03  0.83320858015E+02  0.43074491873E+03  0.46216631051E+03  0.74483637992E+02 0.  0.
         23    2    1    2    0    0 -0.11210757777E+03 -0.14927198695E+03 -0.12872256873E+03  0.24439551127E+03  0.91156081225E+02 0.  0.
        -11    1    3    3    0    0 -0.44189012537E+02  0.33266107058E+02  0.70310774291E+02  0.89458972100E+02  0.00000000000E+00 0.  1.
         12    1    3    3    0    0 -0.80576110193E+02  0.50054750957E+02  0.36043414444E+03  0.37270733841E+03  0.00000000000E+00 0. -1.
        -13    1    4    4    0    0 -0.80406510548E+02 -0.35939253644E+02 -0.71990288812E+02  0.11375165306E+03  0.00000000000E+00 0. -1.
         13    1    4    4    0    0 -0.31701067225E+02 -0.11333273331E+03 -0.56732279918E+02  0.13064385820E+03  0.00000000000E+00 0.  1.
          1    1    1    2  501    0  0.23687270050E+03  0.65951128934E+02 -0.17900738868E+03  0.30414120545E+03  0.00000000000E+00 0. -1.
<scales pt_clust_5="13000.00000" pt_clust_6="13000.00000" pt_clust_7="13000.00000" pt_clust_8="13000.00000" pt_clust_9="13000.00000"></scales>
<clustering>
<clus scale="   74.484">  5  6 -1 -1</clus>
<clus scale="   91.156">  7  8 -1 -1</clus>
<clus scale="  167.501">  1  5  2 -1</clus>
<clus scale="  203.796">  7  9 -1 -1</clus>
<clus scale="  454.087">  2  5  1 -1</clus>
</clustering>
</event>
<event>
 9    2  0.3707658E-005  0.1916255E+03  0.7546771E-02  0.1179332E+00
          2   -1    0    0  502    0 -0.00000000000E+00  0.00000000000E+00  0.13031905878E+04  0.13031905878E+04  0.00000000000E+00 0. -1.
         21   -1    0    0  501  502  0.00000000000E+00 -0.00000000000E+00 -0.62348677027E+02  0.62348677027E+02  0.00000000000E+00 0. -1.
         24    2    1    2    0    0 -0.65387946445E+02 -0.49528852486E+02  0.11459872256E+04  0.11517221412E+04  0.80302418269E+02 0.  0.
         23    2    1    2    0    0  0.42984247428E+02 -0.28677283374E+02  0.78436891332E+02  0.13082513993E+03  0.91065027356E+02 0.  0.
        -11    1    3    3    0    0  0.14102965409E+02 -0.22002610760E+02  0.15666111718E+03  0.15882604997E+03  0.00000000000E+00 0.  1.
         12    1    3    3    0    0 -0.79490911854E+02 -0.27526241726E+02  0.98932610846E+03  0.99289609120E+03  0.00000000000E+00 0. -1.
        -13    1    4    4    0    0  0.14350940162E+02 -0.25618940346E+02 -0.15055015481E+02  0.32998986032E+02  0.00000000000E+00 0. -1.
         13    1    4    4    0    0  0.28633307267E+02 -0.30583430274E+01  0.93491906813E+02  0.97826153899E+02  0.00000000000E+00 0.  1.
          1    1    1    2  501    0  0.22403699017E+02  0.78206135860E+02  0.16417793857E+02  0.82991983775E+02  0.00000000000E+00 0. -1.
<scales pt_clust_5="13000.00000" pt_clust_6="13000.00000" pt_clust_7="13000.00000" pt_clust_8="13000.00000" pt_clust_9="13000.00000"></scales>
<clustering>
<clus scale="   80.302">  5  6 -1 -1</clus>
<clus scale="   91.065">  7  8 -1 -1</clus>
<clus scale="   81.352">  7  9 -1 -1</clus>
<clus scale="  114.792">  1  5  2 -1</clus>
<clus scale="  191.626">  2  5  1 -1</clus>
</clustering>
</event>
<event>
 9    2  0.3707658E-005  0.2800026E+03  0.7546771E-02  0.1120998E+00
          2   -1    0    0  502    0 -0.00000000000E+00  0.00000000000E+00  0.10373315000E+04  0.10373315000E+04  0.00000000000E+00 0. -1.
         21   -1    0    0  501  502  0.00000000000E+00 -0.00000000000E+00 -0.45608781710E+02  0.45608781710E+02  0.00000000000E+00 0. -1.
         24    2    1    2    0    0 -0.79851104503E+02  0.94216073149E+02  0.24616099873E+03  0.28653353077E+03  0.79078186807E+02 0.  0.
         23    2    1    2    0    0  0.86557926396E+02  0.87739403306E+01  0.17354683888E+03  0.21515555907E+03  0.92758571903E+02 0.  0.
        -11    1    3    3    0    0 -0.31549439803E+02  0.62803099020E+02  0.62519619824E+02  0.94065398853E+02  0.00000000000E+00 0.  1.
         12    1    3    3    0    0 -0.48301664700E+02  0.31412974130E+02  0.18364137891E+03  0.19246813192E+03  0.00000000000E+00 0. -1.
        -13    1    4    4    0    0  0.69398331845E+02 -0.28667323334E+01  0.18040612833E+03  0.19331507379E+03  0.00000000000E+00 0. -1.
         13    1    4    4    0    0  0.17159594551E+02  0.11640672664E+02 -0.68592894494E+01  0.21840485273E+02  0.00000000000E+00 0.  1.
          1    1    1    2  501    0 -0.67068218939E+01 -0.10299001348E+03  0.57201488072E+03  0.58125119191E+03  0.00000000000E+00 0. -1.
<scales pt_clust_5="13000.00000" pt_clust_6="13000.00000" pt_clust_7="13000.00000" pt_clust_8="13000.00000" pt_clust_9="13000.00000"></scales>
<clustering>
<clus scale="   79.078">  5  6 -1 -1</clus>
<clus scale="   92.759">  7  8 -1 -1</clus>
<clus scale="  103.208">  7  9 -1 -1</clus>
<clus scale="  146.650">  1  5  2 -1</clus>
<clus scale="  280.003">  2  5  1 -1</clus>
</clustering>
</event>
<event>
 9    2  0.3707658E-005  0.2021953E+03  0.7546771E-02  0.1176317E+00
         -1   -1    0    0    0  501 -0.00000000000E+00  0.00000000000E+00  0.72689357782E+03  0.72689357782E+03  0.00000000000E+00 0.  1.
         21   -1    0    0  501  502  0.00000000000E+00 -0.00000000000E+00 -0.32397872223E+02  0.32397872223E+02  0.00000000000E+00 0.  1.
         24    2    1    2    0    0  0.45462958679E+01  0.67655063804E+02  0.24736175237E+03  0.26856573668E+03  0.79635682451E+02 0.  0.
         23    2    1    2    0    0 -0.58415899476E+02 -0.48712491618E+02  0.16926671473E+03  0.20705167954E+03  0.91836012183E+02 0.  0.
        -13    1    3    3    0    0  0.63300251255E+01  0.30830496436E+02  0.17994802316E+02  0.36254677477E+02  0.00000000000E+00 0.  1.
         14    1    3    3    0    0 -0.17837292576E+01  0.36824567368E+02  0.22936695005E+03  0.23231105920E+03  0.00000000000E+00 0. -1.
        -13    1    4    4    0    0 -0.38593156763E+02 -0.19947051996E+02  0.16642550753E+03  0.17200222728E+03  0.00000000000E+00 0. -1.
         13    1    4    4    0    0 -0.19822742712E+02 -0.28765439622E+02  0.28412071974E+01  0.35049452259E+02  0.00000000000E+00 0.  1.
         -2    1    1    2    0  502  0.53869603608E+02 -0.18942572186E+02  0.27786723850E+03  0.28367403383E+03  0.00000000000E+00 0.  1.
<scales pt_clust_5="13000.00000" pt_clust_6="13000.00000" pt_clust_7="13000.00000" pt_clust_8="13000.00000" pt_clust_9="13000.00000"></scales>
<clustering>
<clus scale="   79.636">  5  6 -1 -1</clus>
<clus scale="   91.836">  7  8 -1 -1</clus>
<clus scale="   57.103">  7  9 -1 -1</clus>
<clus scale="  104.593">  1  5  2 -1</clus>
<clus scale="  202.195">  2  5  1 -1</clus>
</clustering>
</event>
<event>
 9    2  0.3707658E-005  0.3036511E+03  0.7546771E-02  0.1109161E+00
          2   -1    0    0  502    0 -0.00000000000E+00  0.00000000000E+00  0.16233166997E+04  0.16233166997E+04  0.00000000000E+00 0. -1.
         21   -1    0    0  501  502  0.00000000000E+00 -0.00000000000E+00 -0.50071894997E+02  0.50071894997E+02  0.00000000000E+00 0. -1.
         24    2    1    2    0    0  0.91974586107E+01 -0.13216617848E+03  0.14178462492E+03  0.21007652276E+03  0.80478404375E+02 0.  0.
         23    2    1    2    0    0 -0.49464090010E+02 -0.30033874450E+02  0.29866248039E+03  0.31825273438E+03  0.93470829320E+02 0.  0.
        -11    1    3    3    0    0 -0.11111352448E+02 -0.36372872941E+02  0.32806680174E+00  0.38033612332E+02  0.00000000000E+00 0.  1.
         12    1    3    3    0    0  0.20308811059E+02 -0.95793305542E+02  0.14145655812E+03  0.17204291042E+03  0.00000000000E+00 0. -1.
        -13    1    4    4    0    0 -0.76706681851E+02 -0.30792854029E+02  0.22167625205E+03  0.23658502831E+03  0.00000000000E+00 0. -1.
         13    1    4    4    0    0  0.27242591841E+02  0.75897957859E+00  0.76986228338E+02  0.81667706065E+02  0.00000000000E+00 0.  1.
          1    1    1    2  501    0  0.40266631400E+02  0.16220005293E+03  0.11327976994E+04  0.11450593376E+04  0.00000000000E+00 0. -1.
<scales pt_clust_5="13000.00000" pt_clust_6="13000.00000" pt_clust_7="13000.00000" pt_clust_8="13000.00000" pt_clust_9="13000.00000"></scales>
<clustering>
<clus scale="   80.478">  5  6 -1 -1</clus>
<clus scale="   93.471">  7  8 -1 -1</clus>
<clus scale="  155.014">  1  5  2 -1</clus>
<clus scale="   75.126">  7  9 -1 -1</clus>
<clus scale="  303.651">  2  5  1 -1</clus>
</clustering>
</event>
<event>
 9    2  0.3707658E-005  0.4715182E+03  0.7546771E-02  0.1069501E+00
         21   -1    0    0  501  502  0.00000000000E+00  0.00000000000E+00  0.36058768653E+03  0.36058768653E+03  0.00000000000E+00 0.  1.
         -1   -1    0    0    0  501 -0.00000000000E+00 -0.00000000000E+00 -0.46934912379E+03  0.46934912379E+03  0.00000000000E+00 0.  1.
         24    2    1    2    0    0  0.19593525021E+02  0.79889218145E+02 -0.29894563504E+03  0.32150843881E+03  0.85046987686E+02 0.  0.
         23    2    1    2    0    0  0.83488645419E+02  0.14471506547E+03 -0.96309647119E+01  0.19062478871E+03  0.91281161808E+02 0.  0.
        -13    1    3    3    0    0 -0.21543870361E+02  0.59872060683E+02 -0.23094779499E+03  0.23955309643E+03  0.00000000000E+00 0.  1.
         14    1    3    3    0    0  0.41137395382E+02  0.20017157462E+02 -0.67997840056E+02  0.81955342376E+02  0.00000000000E+00 0. -1.
        -13    1    4    4    0    0 -0.13773186659E+02  0.14544023239E+02 -0.19336304882E+02  0.27841012359E+02  0.00000000000E+00 0. -1.
         13    1    4    4    0    0  0.97261832078E+02  0.13017104223E+03  0.97053401697E+01  0.16278377635E+03  0.00000000000E+00 0.  1.
         -2    1    1    2    0  502 -0.10308217044E+03 -0.22460428361E+03  0.19981516250E+03  0.31780358281E+03  0.00000000000E+00 0.  1.
<scales pt_clust_5="13000.00000" pt_clust_6="13000.00000" pt_clust_7="13000.00000" pt_clust_8="13000.00000" pt_clust_9="13000.00000"></scales>
<clustering>
<clus scale="   85.047">  5  6 -1 -1</clus>
<clus scale="   91.281">  7  8 -1 -1</clus>
<clus scale="  118.318">  2  5  1 -1</clus>
<clus scale="  217.257">  7  9 -1 -1</clus>
<clus scale="  471.518">  1  5  2 -1</clus>
</clustering>
</event>
<event>
 9    2  0.3707658E-005  0.2331981E+03  0.7546771E-02  0.1153883E+00
          4   -1    0    0  502    0 -0.00000000000E+00  0.00000000000E+00  0.41247005103E+02  0.41247005103E+02  0.00000000000E+00 0. -1.
         21   -1    0    0  501  502  0.00000000000E+00 -0.00000000000E+00 -0.77987883829E+03  0.77987883829E+03  0.00000000000E+00 0. -1.
         24    2    1    2    0    0  0.72337414488E+02 -0.34316964377E+02 -0.34644560808E+03  0.36484591443E+03  0.81716744557E+02 0.  0.
         23    2    1    2    0    0 -0.33525984742E+02 -0.40849689856E+02 -0.75782930180E+02  0.12876290951E+03  0.89689160691E+02 0.  0.
        -11    1    3    3    0    0  0.24474347019E+02  0.26581273957E+02 -0.90841866721E+02  0.97764014527E+02  0.00000000000E+00 0.  1.
         12    1    3    3    0    0  0.47863067469E+02 -0.60898238335E+02 -0.25560374136E+03  0.26708189990E+03  0.00000000000E+00 0. -1.
        -11    1    4    4    0    0  0.24185743773E+02 -0.26526096013E+02 -0.55186630197E+02  0.65834247349E+02  0.00000000000E+00 0.  1.
         11    1    4    4    0    0 -0.57711728515E+02 -0.14323593843E+02 -0.20596299983E+02  0.62928662164E+02  0.00000000000E+00 0. -1.
          3    1    1    2  501    0 -0.38811429746E+02  0.75166654234E+02 -0.31640329493E+03  0.32751701945E+03  0.00000000000E+00 0. -1.
<scales pt_clust_5="13000.00000" pt_clust_6="13000.00000" pt_clust_7="13000.00000" pt_clust_8="13000.00000" pt_clust_9="13000.00000"></scales>
<clustering>
<clus scale="   81.717">  5  6 -1 -1</clus>
<clus scale="   89.689">  7  8 -1 -1</clus>
<clus scale="   84.595">  7  9 -1 -1</clus>
<clus scale="  114.403">  1  5  2 -1</clus>
<clus scale="  233.198">  2  5  1 -1</clus>
</clustering>
</event>
<event>
 9    2  0.3707658E-005  0.2369141E+03  0.7546771E-02  0.1165075E+00
          4   -1    0    0  502    0 -0.00000000000E+00  0.00000000000E+00  0.29303560436E+03  0.29303560436E+03  0.00000000000E+00 0. -1.
         21   -1    0    0  501  502  0.00000000000E+00 -0.00000000000E+00 -0.90641933135E+02  0.90641933135E+02  0.00000000000E+00 0.  1.
         24    2    1    2    0    0 -0.14770690170E+02  0.17971861785E+02  0.83967989610E+02  0.11881354914E+03  0.80776698848E+02 0.  0.
         23    2    1    2    0    0 -0.34374857217E+02 -0.93148647604E+02  0.28062633769E+02  0.13745788814E+03  0.90823225223E+02 0.  0.
        -11    1    3    3    0    0 -0.29589344219E+02  0.19604445338E+02  0.20539781402E+01  0.35553936414E+02  0.00000000000E+00 0.  1.
         12    1    3    3    0    0  0.14818654049E+02 -0.16325835530E+01  0.81914011470E+02  0.83259612730E+02  0.00000000000E+00 0. -1.
        -11    1    4    4    0    0  0.18100335426E+02 -0.48760688360E+02  0.42570902422E+02  0.67212414069E+02  0.00000000000E+00 0. -1.
         11    1    4    4    0    0 -0.52475192643E+02 -0.44387959244E+02 -0.14508268653E+02  0.70245474076E+02  0.00000000000E+00 0.  1.
          3    1    1    2  501    0  0.49145547387E+02  0.75176785819E+02  0.90363047848E+02  0.12740610021E+03  0.00000000000E+00 0. -1.
<scales pt_clust_5="13000.00000" pt_clust_6="13000.00000" pt_clust_7="13000.00000" pt_clust_8="13000.00000" pt_clust_9="13000.00000"></scales>
<clustering>
<clus scale="   80.777">  5  6 -1 -1</clus>
<clus scale="   84.060">  1  5  2 -1</clus>
<clus scale="   90.823">  7  8 -1 -1</clus>
<clus scale="   94.614">  7  9 -1 -1</clus>
<clus scale="  236.914">  2  5  1 -1</clus>
</clustering>
</event>
<event>
 9    2  0.3707658E-005  0.2814673E+03  0.7546771E-02  0.1106304E+00
         21   -1    0    0  501  502  0.00000000000E+00  0.00000000000E+00  0.60293039981E+02  0.60293039981E+02  0.00000000000E+00 0.  1.
          2   -1    0    0  502    0 -0.00000000000E+00 -0.00000000000E+00 -0.99993647476E+03  0.99993647476E+03  0.00000000000E+00 0. -1.
         24    2    1    2    0    0 -0.16395016509E+03  0.10213877825E+03 -0.41673632734E+03  0.46638130430E+03  0.80810691249E+02 0.  0.
         23    2    1    2    0    0  0.95149442984E+02 -0.10292723591E+03 -0.18480663450E+03  0.24881764537E+03  0.90051630204E+02 0.  0.
        -11    1    3    3    0    0 -0.16300430595E+03  0.11303202955E+03 -0.39787521791E+03  0.44457995062E+03  0.00000000000E+00 0.  1.
         12    1    3    3    0    0 -0.94585913400E+00 -0.10893251302E+02 -0.18861109430E+02  0.21801353682E+02  0.00000000000E+00 0. -1.
        -11    1    4    4    0    0  0.10859020107E+03 -0.84086038428E+02 -0.12908779240E+03  0.18848329309E+03  0.00000000000E+00 0.  1.
         11    1    4    4    0    0 -0.13440758091E+02 -0.18841197484E+02 -0.55718842095E+02  0.60334352281E+02  0.00000000000E+00 0. -1.
          1    1    1    2  501    0  0.68800722102E+02  0.78845766014E+00 -0.33810047294E+03  0.34503056507E+03  0.00000000000E+00 0. -1.
<scales pt_clust_5="13000.00000" pt_clust_6="13000.00000" pt_clust_7="13000.00000" pt_clust_8="13000.00000" pt_clust_9="13000.00000"></scales>
<clustering>
<clus scale="   80.811">  5  6 -1 -1</clus>
<clus scale="   90.052">  7  8 -1 -1</clus>
<clus scale="   68.805">  7  9 -1 -1</clus>
<clus scale="  209.386">  2  5  1 -1</clus>
<clus scale="  281.467">  1  5  2 -1</clus>
</clustering>
</event>
<event>
 9    2  0.3707658E-005  0.1804519E+03  0.7546771E-02  0.1195833E+00
         21   -1    0    0  501  502  0.00000000000E+00  0.00000000000E+00  0.20639442440E+03  0.20639442440E+03  0.00000000000E+00 0. -1.
          2   -1    0    0  502    0 -0.00000000000E+00 -0.00000000000E+00 -0.92727590750E+02  0.92727590750E+02  0.00000000000E+00 0. -1.
         24    2    1    2    0    0  0.44265697690E+02 -0.31632497446E+02  0.50938889585E+02  0.10807838439E+03  0.78269405350E+02 0.  0.
         23    2    1    2    0    0 -0.44179406832E+02 -0.36546707226E+02  0.59361181892E+02  0.12278129500E+03  0.90906626206E+02 0.  0.
        -13    1    3    3    0    0  0.21601068528E+02  0.24513534114E+02  0.28974119625E+02  0.43669430089E+02  0.00000000000E+00 0.  1.
         14    1    3    3    0    0  0.22664629162E+02 -0.56146031560E+02  0.21964769961E+02  0.64408954303E+02  0.00000000000E+00 0. -1.
        -11    1    4    4    0    0  0.27686226906E+02 -0.28025057823E+01  0.19194213012E+02  0.33805310413E+02  0.00000000000E+00 0.  1.
         11    1    4    4    0    0 -0.71865633738E+02 -0.33744201444E+02  0.40166968879E+02  0.88975984583E+02  0.00000000000E+00 0. -1.
          1    1    1    2  501    0 -0.86290858312E-01  0.68179204673E+02  0.33667621715E+01  0.68262335760E+02  0.00000000000E+00 0. -1.
<scales pt_clust_5="13000.00000" pt_clust_6="13000.00000" pt_clust_7="13000.00000" pt_clust_8="13000.00000" pt_clust_9="13000.00000"></scales>
<clustering>
<clus scale="   78.269">  5  6 -1 -1</clus>
<clus scale="   90.907">  7  8 -1 -1</clus>
<clus scale="   68.179">  7  9 -1 -1</clus>
<clus scale="   95.321">  2  5  1 -1</clus>
<clus scale="  180.452">  1  5  2 -1</clus>
</clustering>
</event>
<event>
 9    2  0.3707658E-005  0.2971447E+03  0.7546771E-02  0.1118208E+00
         -1   -1    0    0    0  501 -0.00000000000E+00  0.00000000000E+00  0.79404661308E+03  0.79404661308E+03  0.00000000000E+00 0.  1.
         21   -1    0    0  501  502  0.00000000000E+00 -0.00000000000E+00 -0.57905134590E+02  0.57905134590E+02  0.00000000000E+00 0.  1.
         24    2    1    2    0    0 -0.58066336944E+02 -0.85991792486E+02  0.21627957858E+03  0.25316015005E+03  0.80913024915E+02 0.  0.
         23    2    1    2    0    0 -0.23277061329E+02 -0.51407788373E+02  0.34676700237E+03  0.36329799512E+03  0.92485117933E+02 0.  0.
        -13    1    3    3    0    0 -0.59702758370E+02 -0.18348988363E+02  0.12268859160E+03  0.13767205686E+03  0.00000000000E+00 0.  1.
         14    1    3    3    0    0  0.16364214257E+01 -0.67642804123E+02  0.93590986976E+02  0.11548809319E+03  0.00000000000E+00 0. -1.
        -11    1    4    4    0    0  0.19840853168E+02 -0.60570148790E+02  0.22224867761E+03  0.23120743301E+03  0.00000000000E+00 0.  1.
         11    1    4    4    0    0 -0.43117914497E+02  0.91623604170E+01  0.12451832475E+03  0.13209056211E+03  0.00000000000E+00 0. -1.
         -2    1    1    2    0  502  0.81343398273E+02  0.13739958086E+03  0.17309489755E+03  0.23549360250E+03  0.00000000000E+00 0.  1.
<scales pt_clust_5="13000.00000" pt_clust_6="13000.00000" pt_clust_7="13000.00000" pt_clust_8="13000.00000" pt_clust_9="13000.00000"></scales>
<clustering>
<clus scale="   80.913">  5  6 -1 -1</clus>
<clus scale="   92.485">  7  8 -1 -1</clus>
<clus scale="  131.580">  1  5  2 -1</clus>
<clus scale="  121.862">  7  9 -1 -1</clus>
<clus scale="  297.145">  2  5  1 -1</clus>
</clustering>
</event>
<event>
 9    2  0.3707658E-005  0.3469175E+03  0.7546771E-02  0.1069000E+00
          2   -1    0    0  502    0 -0.00000000000E+00  0.00000000000E+00  0.44723203150E+03  0.44723203150E+03  0.00000000000E+00 0. -1.
         21   -1    0    0  501  502  0.00000000000E+00 -0.00000000000E+00 -0.54369274483E+03  0.54369274483E+03  0.00000000000E+00 0. -1.
         24    2    1    2    0    0 -0.16178705245E+03 -0.24097377977E+03  0.32628778720E+03  0.44405361591E+03  0.80476585742E+02 0.  0.
         23    2    1    2    0    0  0.52844717494E+02  0.46218296453E+02 -0.90349144823E+02  0.14651199379E+03  0.91510115624E+02 0.  0.
        -13    1    3    3    0    0 -0.85466039583E+02 -0.85782344037E+02  0.18314191759E+03  0.21955413102E+03  0.00000000000E+00 0.  1.
         14    1    3    3    0    0 -0.76321012862E+02 -0.15519143573E+03  0.14314586961E+03  0.22449948489E+03  0.00000000000E+00 0. -1.
        -13    1    4    4    0    0 -0.23012309326E+02 -0.44492711957E+01 -0.25194118424E+02  0.34410841284E+02  0.00000000000E+00 0.  1.
         13    1    4    4    0    0  0.75857026819E+02  0.50667567649E+02 -0.65155026399E+02  0.11210115251E+03  0.00000000000E+00 0. -1.
          1    1    1    2  501    0  0.10894233495E+03  0.19475548332E+03 -0.33239935571E+03  0.40035916663E+03  0.00000000000E+00 0. -1.
<scales pt_clust_5="13000.00000" pt_clust_6="13000.00000" pt_clust_7="13000.00000" pt_clust_8="13000.00000" pt_clust_9="13000.00000"></scales>
<clustering>
<clus scale="   80.477">  5  6 -1 -1</clus>
<clus scale="   91.510">  7  8 -1 -1</clus>
<clus scale="  223.155">  7  9 -1 -1</clus>
<clus scale="  301.197">  1  5  2 -1</clus>
<clus scale="  346.918">  2  5  1 -1</clus>
</clustering>
</event>
<event>
 9    2  0.3707658E-005  0.1779102E+03  0.7546771E-02  0.1198945E+00
         21   -1    0    0  501  502  0.00000000000E+00  0.00000000000E+00  0.41068840560E+02  0.41068840560E+02  0.00000000000E+00 0.  1.
          2   -1    0    0  502    0 -0.00000000000E+00 -0.00000000000E+00 -0.49034625732E+03  0.49034625732E+03  0.00000000000E+00 0. -1.
         24    2    1    2    0    0 -0.75296765297E+01  0.47169588137E+02 -0.23621935241E+03  0.25384391333E+03  0.79721288277E+02 0.  0.
         23    2    1    2    0    0  0.61765030895E+02 -0.52988302442E+02 -0.16197667540E+03  0.20284073964E+03  0.91023310471E+02 0.  0.
        -13    1    3    3    0    0 -0.18715205880E+02 -0.14030753857E+02 -0.27769938065E+02  0.36308269652E+02  0.00000000000E+00 0.  1.
         14    1    3    3    0    0  0.11185529351E+02  0.61200341994E+02 -0.20844941435E+03  0.21753564367E+03  0.00000000000E+00 0. -1.
        -13    1    4    4    0    0  0.25271350498E+02 -0.26013490207E+02 -0.15214378013E+03  0.15640675389E+03  0.00000000000E+00 0. -1.
         13    1    4    4    0    0  0.36493680397E+02 -0.26974812235E+02 -0.98328952676E+01  0.46433985758E+02  0.00000000000E+00 0.  1.
          1    1    1    2  501    0 -0.54235354365E+02  0.58187143051E+01 -0.51081388948E+02  0.74730444908E+02  0.00000000000E+00 0. -1.
<scales pt_clust_5="13000.00000" pt_clust_6="13000.00000" pt_clust_7="13000.00000" pt_clust_8="13000.00000" pt_clust_9="13000.00000"></scales>
<clustering>
<clus scale="   79.721">  5  6 -1 -1</clus>
<clus scale="   91.023">  7  8 -1 -1</clus>
<clus scale="   54.547">  7  9 -1 -1</clus>
<clus scale="   92.936">  2  5  1 -1</clus>
<clus scale="  177.910">  1  5  2 -1</clus>
</clustering>
</event>
<event>
 9    2  0.4173776E-005  0.2766028E+03  0.7546771E-02  0.1139047E+00
         21   -1    0    0  501  502  0.00000000000E+00  0.00000000000E+00  0.31533427412E+03  0.31533427412E+03  0.00000000000E+00 0. -1.
          2   -1    0    0  502    0 -0.00000000000E+00 -0.00000000000E+00 -0.15945127114E+03  0.15945127114E+03  0.00000000000E+00 0. -1.
         24    2    1    2    0    0 -0.55613982918E+02  0.43002789040E+01 -0.67945525733E+02  0.11896491626E+03  0.80153910323E+02 0.  0.
         23    2    1    2    0    0 -0.70679447364E+02 -0.39210576956E+01  0.21145732466E+02  0.11701005503E+03  0.90737269104E+02 0.  0.
        -13    1    3    3    0    0  0.18361686947E+02 -0.11648455846E+02 -0.11835325189E+02  0.24757079664E+02  0.00000000000E+00 0.  1.
         14    1    3    3    0    0 -0.73975669864E+02  0.15948734750E+02 -0.56110200543E+02  0.94207836601E+02  0.00000000000E+00 0. -1.
        -11    1    4    4    0    0 -0.18549362639E+02  0.35916726861E+02 -0.13749289466E+02  0.42698162531E+02  0.00000000000E+00 0.  1.
         11    1    4    4    0    0 -0.52130084725E+02 -0.39837784557E+02  0.34895021932E+02  0.74311892504E+02  0.00000000000E+00 0. -1.
          1    1    1    2  501    0  0.12629343028E+03 -0.37922120841E+00  0.20268279624E+03  0.23881057396E+03  0.00000000000E+00 0. -1.
<scales pt_clust_5="13000.00000" pt_clust_6="13000.00000" pt_clust_7="13000.00000" pt_clust_8="13000.00000" pt_clust_9="13000.00000"></scales>
<clustering>
<clus scale="   80.154">  5  6 -1 -1</clus>
<clus scale="   90.737">  7  8 -1 -1</clus>
<clus scale="   97.653">  2  5  1 -1</clus>
<clus scale="  111.074">  7  9 -1 -1</clus>
<clus scale="  276.603">  1  5  2 -1</clus>
</clustering>
</event>
<event>
 9    2  0.3707658E-005  0.2423049E+03  0.7546771E-02  0.1148315E+00
          2   -1    0    0  502    0 -0.00000000000E+00  0.00000000000E+00  0.24275641255E+03  0.24275641255E+03  0.00000000000E+00 0. -1.
         21   -1    0    0  501  502  0.00000000000E+00 -0.00000000000E+00 -0.25492396462E+03  0.25492396462E+03  0.00000000000E+00 0. -1.
         24    2    1    2    0    0 -0.26608315227E+02  0.79148470567E+02 -0.17182520864E+03  0.20750416224E+03  0.81003655412E+02 0.  0.
         23    2    1    2    0    0 -0.89657487709E+01 -0.29507015165E+01  0.18201107028E+03  0.20316305994E+03  0.89766964565E+02 0.  0.
        -13    1    3    3    0    0  0.10208787906E+02  0.76771102890E+02 -0.97413424445E+02  0.12444837022E+03  0.00000000000E+00 0.  1.
         14    1    3    3    0    0 -0.36817103133E+02  0.23773676773E+01 -0.74411784190E+02  0.83055792011E+02  0.00000000000E+00 0. -1.
        -11    1    4    4    0    0 -0.17321144474E+02 -0.43547080692E+02  0.75392242226E+02  0.88771394438E+02  0.00000000000E+00 0.  1.
         11    1    4    4    0    0  0.83553957026E+01  0.40596379175E+02  0.10661882806E+03  0.11439166550E+03  0.00000000000E+00 0. -1.
          1    1    1    2  501    0  0.35574063998E+02 -0.76197769051E+02 -0.22353413720E+02  0.87013154997E+02  0.00000000000E+00 0. -1.
<scales pt_clust_5="13000.00000" pt_clust_6="13000.00000" pt_clust_7="13000.00000" pt_clust_8="13000.00000" pt_clust_9="13000.00000"></scales>
<clustering>
<clus scale="   81.004">  5  6 -1 -1</clus>
<clus scale="   89.767">  7  8 -1 -1</clus>
<clus scale="   84.093">  7  9 -1 -1</clus>
<clus scale="  116.336">  1  5  2 -1</clus>
<clus scale="  242.305">  2  5  1 -1</clus>
</clustering>
</event>
<event>
 9    2  0.3707658E-005  0.1532785E+03  0.7546771E-02  0.1226229E+00
         -3   -1    0    0    0  501 -0.00000000000E+00  0.00000000000E+00  0.11876745944E+02  0.11876745944E+02  0.00000000000E+00 0.  1.
         21   -1    0    0  501  502  0.00000000000E+00 -0.00000000000E+00 -0.11608200604E+04  0.11608200604E+04  0.00000000000E+00 0.  1.
         24    2    1    2    0    0 -0.13206646720E+02 -0.58620490165E+01 -0.37563506050E+03  0.38434412382E+03  0.80062024093E+02 0.  0.
         23    2    1    2    0    0 -0.70614751597E+01 -0.40586241715E+02 -0.44125726395E+03  0.45245671583E+03  0.91170166527E+02 0.  0.
        -13    1    3    3    0    0  0.45437113779E+01 -0.35437761014E+02 -0.93249088653E+02  0.99859264735E+02  0.00000000000E+00 0.  1.
         14    1    3    3    0    0 -0.17750358098E+02  0.29575711997E+02 -0.28238597185E+03  0.28448485909E+03  0.00000000000E+00 0. -1.
        -13    1    4    4    0    0 -0.45348869692E+02 -0.40275423336E+02 -0.30208525684E+03  0.30811382979E+03  0.00000000000E+00 0.  1.
         13    1    4    4    0    0  0.38287394532E+02 -0.31081837928E+00 -0.13917200711E+03  0.14434288604E+03  0.00000000000E+00 0. -1.
         -4    1    1    2    0  502  0.20268121880E+02  0.46448290732E+02 -0.33205099005E+03  0.33589596674E+03  0.00000000000E+00 0.  1.
<scales pt_clust_5="13000.00000" pt_clust_6="13000.00000" pt_clust_7="13000.00000" pt_clust_8="13000.00000" pt_clust_9="13000.00000"></scales>
<clustering>
<clus scale="   80.062">  5  6 -1 -1</clus>
<clus scale="   81.355">  1  5  2 -1</clus>
<clus scale="   91.170">  7  8 -1 -1</clus>
<clus scale="   48.020">  7  9 -1 -1</clus>
<clus scale="  153.278">  2  5  1 -1</clus>
</clustering>
</event>
<event>
 9    2  0.3707658E-005  0.7098903E+03  0.7546771E-02  0.9716797E-01
          2   -1    0    0  502    0 -0.00000000000E+00  0.00000000000E+00  0.13037170145E+04  0.13037170145E+04  0.00000000000E+00 0. -1.
         21   -1    0    0  501  502  0.00000000000E+00 -0.00000000000E+00 -0.48147744072E+03  0.48147744072E+03  0.00000000000E+00 0.  1.
         24    2    1    2    0    0 -0.47057615921E+03 -0.47307140809E+03  0.83910463329E+03  0.10751038330E+04  0.80704321046E+02 0.  0.
         23    2    1    2    0    0  0.17605263406E+03  0.11057144261E+03  0.64770517152E+02  0.23594433758E+03  0.90851178659E+02 0.  0.
        -11    1    3    3    0    0 -0.38913128265E+03 -0.34336905915E+03  0.64606218581E+03  0.82868680082E+03  0.00000000000E+00 0.  1.
         12    1    3    3    0    0 -0.81444876561E+02 -0.12970234894E+03  0.19304244748E+03  0.24641703222E+03  0.00000000000E+00 0. -1.
        -11    1    4    4    0    0  0.73582291239E+02  0.49983455431E+02  0.75152732957E+02  0.11645012955E+03  0.00000000000E+00 0. -1.
         11    1    4    4    0    0  0.10247034282E+03  0.60587987180E+02 -0.10382215805E+02  0.11949420803E+03  0.00000000000E+00 0.  1.
          1    1    1    2  501    0  0.29452352515E+03  0.36249996548E+03 -0.81635576653E+02  0.47414628462E+03  0.00000000000E+00 0. -1.
<scales pt_clust_5="13000.00000" pt_clust_6="13000.00000" pt_clust_7="13000.00000" pt_clust_8="13000.00000" pt_clust_9="13000.00000"></scales>
<clustering>
<clus scale="   80.704">  5  6 -1 -1</clus>
<clus scale="   90.851">  7  8 -1 -1</clus>
<clus scale="  467.066">  7  9 -1 -1</clus>
<clus scale="  672.125">  1  5  2 -1</clus>
<clus scale="  709.890">  2  5  1 -1</clus>
</clustering>
</event>
<event>
 9    2  0.3707658E-005  0.3282479E+03  0.7546771E-02  0.1124711E+00
         21   -1    0    0  501  502  0.00000000000E+00  0.00000000000E+00  0.97189679308E+02  0.97189679308E+02  0.00000000000E+00 0. -1.
          2   -1    0    0  502    0 -0.00000000000E+00 -0.00000000000E+00 -0.51581370899E+03  0.51581370899E+03  0.00000000000E+00 0. -1.
         24    2    1    2    0    0  0.29180259230E+02 -0.12724869578E+02 -0.20552666292E+03  0.22165042495E+03  0.76643929142E+02 0.  0.
         23    2    1    2    0    0  0.18948259051E+02 -0.57941272944E+02  0.43429822293E+02  0.12095278455E+03  0.95011572951E+02 0.  0.
        -13    1    3    3    0    0 -0.23520364537E+02  0.35849645710E+01 -0.34205527662E+02  0.41666265030E+02  0.00000000000E+00 0.  1.
         14    1    3    3    0    0  0.52700623767E+02 -0.16309834149E+02 -0.17132113526E+03  0.17998415992E+03  0.00000000000E+00 0. -1.
        -11    1    4    4    0    0 -0.52122791731E+01 -0.49655554980E+02  0.68763545738E+02  0.84978039617E+02  0.00000000000E+00 0. -1.
         11    1    4    4    0    0  0.24160538224E+02 -0.82857179637E+01 -0.25333723445E+02  0.35974744934E+02  0.00000000000E+00 0.  1.
          1    1    1    2  501    0 -0.48128518281E+02  0.70666142522E+02 -0.25652718905E+03  0.27040017880E+03  0.00000000000E+00 0. -1.
<scales pt_clust_5="13000.00000" pt_clust_6="13000.00000" pt_clust_7="13000.00000" pt_clust_8="13000.00000" pt_clust_9="13000.00000"></scales>
<clustering>
<clus scale="   76.644">  5  6 -1 -1</clus>
<clus scale="   82.992">  2  5  1 -1</clus>
<clus scale="   95.012">  7  8 -1 -1</clus>
<clus scale="   63.748">  7  9 -1 -1</clus>
<clus scale="  328.248">  1  5  2 -1</clus>
</clustering>
</event>
<event>
 9    2  0.3707658E-005  0.5964455E+03  0.7546771E-02  0.1036025E+00
         21   -1    0    0  501  502  0.00000000000E+00  0.00000000000E+00  0.50994456081E+03  0.50994456081E+03  0.00000000000E+00 0. -1.
         -1   -1    0    0    0  501 -0.00000000000E+00 -0.00000000000E+00 -0.39281351069E+03  0.39281351069E+03  0.00000000000E+00 0.  1.
         24    2    1    2    0    0 -0.58523986747E+02  0.11457022892E+03 -0.18109402116E+03  0.23591071405E+03  0.79419305735E+02 0.  0.
         23    2    1    2    0    0 -0.17017956747E+03 -0.25016686756E+03  0.23408230210E+03  0.39334039418E+03  0.91529201529E+02 0.  0.
        -13    1    3    3    0    0 -0.43244836784E+02  0.11736290154E+03 -0.18144085811E+03  0.22037457103E+03  0.00000000000E+00 0.  1.
         14    1    3    3    0    0 -0.15279149963E+02 -0.27926726167E+01  0.34683695125E+00  0.15536143016E+02  0.00000000000E+00 0. -1.
        -13    1    4    4    0    0 -0.16037176149E+02 -0.12145730368E+02 -0.68329881913E+01  0.21246164657E+02  0.00000000000E+00 0.  1.
         13    1    4    4    0    0 -0.15414239132E+03 -0.23802113719E+03  0.24091529029E+03  0.37209422953E+03  0.00000000000E+00 0. -1.
         -2    1    1    2    0  502  0.22870355422E+03  0.13559663864E+03  0.64142769172E+02  0.27350696327E+03  0.00000000000E+00 0.  1.
<scales pt_clust_5="13000.00000" pt_clust_6="13000.00000" pt_clust_7="13000.00000" pt_clust_8="13000.00000" pt_clust_9="13000.00000"></scales>
<clustering>
<clus scale="   79.419">  5  6 -1 -1</clus>
<clus scale="   91.529">  7  8 -1 -1</clus>
<clus scale="  151.191">  2  5  1 -1</clus>
<clus scale="  280.132">  7  9 -1 -1</clus>
<clus scale="  596.445">  1  5  2 -1</clus>
</clustering>
</event>
<event>
 9    2  0.3707658E-005  0.3124089E+03  0.7546771E-02  0.1117978E+00
          2   -1    0    0  502    0 -0.00000000000E+00  0.00000000000E+00  0.11266964626E+04  0.11266964626E+04  0.00000000000E+00 0. -1.
         21   -1    0    0  501  502  0.00000000000E+00 -0.00000000000E+00 -0.13786992379E+03  0.13786992379E+03  0.00000000000E+00 0. -1.
         24    2    1    2    0    0 -0.48866875935E+02 -0.62022174499E+02  0.94177465806E+03  0.94863413087E+03  0.82051727450E+02 0.  0.
         23    2    1    2    0    0  0.12068867276E+03  0.11158551376E+01 -0.69415084376E+02  0.16615741050E+03  0.90679822787E+02 0.  0.
        -13    1    3    3    0    0  0.11268852195E+02 -0.42799497977E+02  0.24171301926E+03  0.24573149521E+03  0.00000000000E+00 0.  1.
         14    1    3    3    0    0 -0.60135728129E+02 -0.19222676522E+02  0.70006163880E+03  0.70290263566E+03  0.00000000000E+00 0. -1.
        -11    1    4    4    0    0  0.10984641105E+03  0.23639439104E+02 -0.81091691674E+02  0.13856738274E+03  0.00000000000E+00 0. -1.
         11    1    4    4    0    0  0.10842261707E+02 -0.22523583967E+02  0.11676607298E+02  0.27590027757E+02  0.00000000000E+00 0.  1.
          1    1    1    2  501    0 -0.71821796823E+02  0.60906319361E+02  0.11646696511E+03  0.14977484502E+03  0.00000000000E+00 0. -1.
<scales pt_clust_5="13000.00000" pt_clust_6="13000.00000" pt_clust_7="13000.00000" pt_clust_8="13000.00000" pt_clust_9="13000.00000"></scales>
<clustering>
<clus scale="   82.052">  5  6 -1 -1</clus>
<clus scale="   90.680">  7  8 -1 -1</clus>
<clus scale="   94.170">  7  9 -1 -1</clus>
<clus scale="  113.874">  1  5  2 -1</clus>
<clus scale="  312.409">  2  5  1 -1</clus>
</clustering>
</event>
<event>
 9    2  0.3707658E-005  0.2458158E+03  0.7546771E-02  0.1156059E+00
         21   -1    0    0  501  502  0.00000000000E+00  0.00000000000E+00  0.93964787932E+02  0.93964787932E+02  0.00000000000E+00 0. -1.
          2   -1    0    0  502    0 -0.00000000000E+00 -0.00000000000E+00 -0.30901964749E+03  0.30901964749E+03  0.00000000000E+00 0. -1.
         24    2    1    2    0    0  0.43588304860E+02 -0.16297432859E+02 -0.39224332254E+02  0.10075641057E+03  0.80297941389E+02 0.  0.
         23    2    1    2    0    0 -0.68612867566E+02  0.10321584312E+03 -0.97832669106E+02  0.18279308581E+03  0.92091504541E+02 0.  0.
        -13    1    3    3    0    0  0.10532646573E+02  0.32002458425E+02 -0.19854566041E+02  0.39106237121E+02  0.00000000000E+00 0.  1.
         14    1    3    3    0    0  0.33055658287E+02 -0.48299891284E+02 -0.19369766214E+02  0.61650173447E+02  0.00000000000E+00 0. -1.
        -13    1    4    4    0    0 -0.50206504586E+02  0.56127802102E+01 -0.12981456707E+02  0.52160469923E+02  0.00000000000E+00 0.  1.
         13    1    4    4    0    0 -0.18406362981E+02  0.97603062912E+02 -0.84851212398E+02  0.13063261589E+03  0.00000000000E+00 0. -1.
          1    1    1    2  501    0  0.25024562706E+02 -0.86918410263E+02 -0.77997858203E+02  0.11943493905E+03  0.00000000000E+00 0. -1.
<scales pt_clust_5="13000.00000" pt_clust_6="13000.00000" pt_clust_7="13000.00000" pt_clust_8="13000.00000" pt_clust_9="13000.00000"></scales>
<clustering>
<clus scale="   80.298">  5  6 -1 -1</clus>
<clus scale="   92.092">  7  8 -1 -1</clus>
<clus scale="   90.449">  7  9 -1 -1</clus>
<clus scale="   92.808">  2  5  1 -1</clus>
<clus scale="  245.816">  1  5  2 -1</clus>
</clustering>
</event>
<event>
 9    2  0.3707658E-005  0.3031125E+03  0.7546771E-02  0.1131606E+00
          2   -1    0    0  502    0 -0.00000000000E+00  0.00000000000E+00  0.63748512997E+03  0.63748512997E+03  0.00000000000E+00 0. -1.
         21   -1    0    0  501  502  0.00000000000E+00 -0.00000000000E+00 -0.16261938777E+03  0.16261938777E+03  0.00000000000E+00 0. -1.
         24    2    1    2    0    0  0.38996332469E+02  0.21674857941E+02  0.48865239291E+03  0.49667861797E+03  0.76928376041E+02 0.  0.
         23    2    1    2    0    0 -0.60071935353E+02  0.37194139963E+02  0.11280467629E+03  0.16223417188E+03  0.92752304925E+02 0.  0.
        -11    1    3    3    0    0 -0.19216129872E+02  0.21426323141E+02  0.11659666849E+03  0.12009633664E+03  0.00000000000E+00 0.  1.
         12    1    3    3    0    0  0.58212462341E+02  0.24853479983E+00  0.37205572442E+03  0.37658228134E+03  0.00000000000E+00 0. -1.
        -13    1    4    4    0    0 -0.25999823841E+02  0.66403096635E+02  0.62544095073E+02  0.94853180816E+02  0.00000000000E+00 0. -1.
         13    1    4    4    0    0 -0.34072111512E+02 -0.29208956672E+02  0.50260581213E+02  0.67380991063E+02  0.00000000000E+00 0.  1.
          1    1    1    2  501    0  0.21075602884E+02 -0.58868997904E+02 -0.12659132700E+03  0.14119172789E+03  0.00000000000E+00 0. -1.
<scales pt_clust_5="13000.00000" pt_clust_6="13000.00000" pt_clust_7="13000.00000" pt_clust_8="13000.00000" pt_clust_9="13000.00000"></scales>
<clustering>
<clus scale="   76.928">  5  6 -1 -1</clus>
<clus scale="   88.930">  1  5  2 -1</clus>
<clus scale="   92.752">  7  8 -1 -1</clus>
<clus scale="   62.201">  7  9 -1 -1</clus>
<clus scale="  303.113">  2  5  1 -1</clus>
</clustering>
</event>
<event>
 9    2  0.3707658E-005  0.2721452E+03  0.7546771E-02  0.1139405E+00
          2   -1    0    0  502    0 -0.00000000000E+00  0.00000000000E+00  0.27267346267E+03  0.27267346267E+03  0.00000000000E+00 0. -1.
         21   -1    0    0  501  502  0.00000000000E+00 -0.00000000000E+00 -0.15524846430E+03  0.15524846430E+03  0.00000000000E+00 0.  1.
         24    2    1    2    0    0 -0.19681715348E+02  0.65646058208E+02 -0.44812617278E+02  0.11108747559E+03  0.75069845406E+02 0.  0.
         23    2    1    2    0    0 -0.12011266403E+02  0.75700166054E+02  0.33912163182E+02  0.12331281962E+03  0.90450157598E+02 0.  0.
        -13    1    3    3    0    0 -0.19085099849E+02  0.80586070617E+02 -0.48111223827E+02  0.95776018250E+02  0.00000000000E+00 0.  1.
         14    1    3    3    0    0 -0.59661549851E+00 -0.14940012409E+02  0.32986065489E+01  0.15311457344E+02  0.00000000000E+00 0. -1.
        -13    1    4    4    0    0  0.39192892058E+02  0.26298980168E+02  0.17122345017E+02  0.50208503709E+02  0.00000000000E+00 0.  1.
         13    1    4    4    0    0 -0.51204158462E+02  0.49401185886E+02  0.16789818165E+02  0.73104315911E+02  0.00000000000E+00 0. -1.
          1    1    1    2  501    0  0.31692981751E+02 -0.14134622426E+03  0.12832545247E+03  0.19352163176E+03  0.00000000000E+00 0. -1.
<scales pt_clust_5="13000.00000" pt_clust_6="13000.00000" pt_clust_7="13000.00000" pt_clust_8="13000.00000" pt_clust_9="13000.00000"></scales>
<clustering>
<clus scale="   75.070">  5  6 -1 -1</clus>
<clus scale="   90.450">  7  8 -1 -1</clus>
<clus scale="  101.648">  1  5  2 -1</clus>
<clus scale="   98.983">  7  9 -1 -1</clus>
<clus scale="  272.145">  2  5  1 -1</clus>
</clustering>
</event>
<event>
 9    2  0.3707658E-005  0.1791284E+03  0.7546771E-02  0.1194890E+00
          2   -1    0    0  502    0 -0.00000000000E+00  0.00000000000E+00  0.13464348389E+04  0.13464348389E+04  0.00000000000E+00 0. -1.
         21   -1    0    0  501  502  0.00000000000E+00 -0.00000000000E+00 -0.10155805228E+03  0.10155805228E+03  0.00000000000E+00 0. -1.
         24    2    1    2    0    0 -0.52709389995E+02 -0.11863865516E+02  0.12639437362E+04  0.12678526111E+04  0.83531096034E+02 0.  0.
         23    2    1    2    0    0 -0.11464368218E+02 -0.16989257577E+02  0.22910077231E+02  0.98208328199E+02  0.93273455373E+02 0.  0.
        -13    1    3    3    0    0  0.13603879764E+02 -0.15668310590E+02  0.10638340399E+03  0.10838814579E+03  0.00000000000E+00 0.  1.
         14    1    3    3    0    0 -0.66313269759E+02  0.38044450737E+01  0.11575603322E+04  0.11594644653E+04  0.00000000000E+00 0. -1.
        -13    1    4    4    0    0 -0.43577054117E+02  0.13176111786E+02  0.28630329684E+02  0.53779785655E+02  0.00000000000E+00 0. -1.
         13    1    4    4    0    0  0.32112685899E+02 -0.30165369362E+02 -0.57202524531E+01  0.44428542544E+02  0.00000000000E+00 0.  1.
          1    1    1    2  501    0  0.64173758214E+02  0.28853123093E+02 -0.41977026855E+02  0.81931951881E+02  0.00000000000E+00 0. -1.
<scales pt_clust_5="13000.00000" pt_clust_6="13000.00000" pt_clust_7="13000.00000" pt_clust_8="13000.00000" pt_clust_9="13000.00000"></scales>
<clustering>
<clus scale="   83.531">  5  6 -1 -1</clus>
<clus scale="   93.273">  7  8 -1 -1</clus>
<clus scale="   70.362">  7  9 -1 -1</clus>
<clus scale="   99.481">  1  5  2 -1</clus>
<clus scale="  179.128">  2  5  1 -1</clus>
</clustering>
</event>
<event>
 9    2  0.3707658E-005  0.2089150E+03  0.7546771E-02  0.1179197E+00
         -3   -1    0    0    0  501 -0.00000000000E+00  0.00000000000E+00  0.48309650166E+03  0.48309650166E+03  0.00000000000E+00 0.  1.
         21   -1    0    0  501  502  0.00000000000E+00 -0.00000000000E+00 -0.46499492087E+02  0.46499492087E+02  0.00000000000E+00 0.  1.
         24    2    1    2    0    0  0.10409437483E+02 -0.33951338229E+02  0.10354397009E+03  0.13644230953E+03  0.81449986684E+02 0.  0.
         23    2    1    2    0    0  0.11725122165E+02 -0.61497186784E+02  0.20703237335E+03  0.23352421341E+03  0.88044148941E+02 0.  0.
        -13    1    3    3    0    0 -0.11979094950E+02 -0.45548100064E+02  0.10057283374E+03  0.11105414455E+03  0.00000000000E+00 0.  1.
         14    1    3    3    0    0  0.22388532433E+02  0.11596761836E+02  0.29711363476E+01  0.25388164974E+02  0.00000000000E+00 0. -1.
        -11    1    4    4    0    0  0.38862390107E+02 -0.52529809125E+02  0.18839227464E+03  0.19940239556E+03  0.00000000000E+00 0.  1.
         11    1    4    4    0    0 -0.27137267942E+02 -0.89673776596E+01  0.18640098704E+02  0.34121817846E+02  0.00000000000E+00 0. -1.
         -4    1    1    2    0  502 -0.22134559648E+02  0.95448525013E+02  0.12602066614E+03  0.15962947081E+03  0.00000000000E+00 0.  1.
<scales pt_clust_5="13000.00000" pt_clust_6="13000.00000" pt_clust_7="13000.00000" pt_clust_8="13000.00000" pt_clust_9="13000.00000"></scales>
<clustering>
<clus scale="   81.450">  5  6 -1 -1</clus>
<clus scale="   88.044">  7  8 -1 -1</clus>
<clus scale="   88.855">  1  5  2 -1</clus>
<clus scale="   84.053">  7  9 -1 -1</clus>
<clus scale="  208.915">  2  5  1 -1</clus>
</clustering>
</event>
<event>
 9    2  0.5273310E-005  0.5824952E+03  0.7546771E-02  0.1033438E+00
         -1   -1    0    0    0  501 -0.00000000000E+00  0.00000000000E+00  0.23039132767E+03  0.23039132767E+03  0.00000000000E+00 0.  1.
         21   -1    0    0  501  502  0.00000000000E+00 -0.00000000000E+00 -0.67736360454E+03  0.67736360454E+03  0.00000000000E+00 0.  1.
         24    2    1    2    0    0 -0.15204423179E+03 -0.32155925061E+02 -0.26923453168E+01  0.17516681956E+03  0.80775701874E+02 0.  0.
         23    2    1    2    0    0 -0.53417464260E+02 -0.16092919363E+02  0.10330337186E+03  0.14574065911E+03  0.86350133405E+02 0.  0.
        -11    1    3    3    0    0 -0.15767973716E+03 -0.18263226904E+02  0.39174452113E+01  0.15878221357E+03  0.00000000000E+00 0.  1.
         12    1    3    3    0    0  0.56355053651E+01 -0.13892698157E+02 -0.66097905281E+01  0.16384605996E+02  0.00000000000E+00 0. -1.
        -13    1    4    4    0    0  0.19561132113E+02  0.13790758517E+02  0.24945028072E+02  0.34569890592E+02  0.00000000000E+00 0. -1.
         13    1    4    4    0    0 -0.72978596372E+02 -0.29883677879E+02  0.78358343791E+02  0.11117076852E+03  0.00000000000E+00 0.  1.
         -2    1    1    2    0  502  0.20546169605E+03  0.48248844424E+02 -0.54758330342E+03  0.58684745353E+03  0.00000000000E+00 0.  1.
<scales pt_clust_5="13000.00000" pt_clust_6="13000.00000" pt_clust_7="13000.00000" pt_clust_8="13000.00000" pt_clust_9="13000.00000"></scales>
<clustering>
<clus scale="   80.776">  5  6 -1 -1</clus>
<clus scale="   86.350">  7  8 -1 -1</clus>
<clus scale="  175.146">  1  5  2 -1</clus>
<clus scale="  189.892">  7  9 -1 -1</clus>
<clus scale="  582.495">  2  5  1 -1</clus>
</clustering>
</event>
<event>
 9    2  0.3707658E-005  0.4437949E+03  0.7546771E-02  0.1068385E+00
          2   -1    0    0  502    0 -0.00000000000E+00  0.00000000000E+00  0.14151976215E+04  0.14151976215E+04  0.00000000000E+00 0. -1.
         21   -1    0    0  501  502  0.00000000000E+00 -0.00000000000E+00 -0.63078217406E+02  0.63078217406E+02  0.00000000000E+00 0. -1.
         24    2    1    2    0    0  0.12170998174E+03  0.79904165941E+01  0.44448088291E+03  0.46794837603E+03  0.80840960785E+02 0.  0.
         23    2    1    2    0    0  0.13735313736E+03 -0.36784281895E+02  0.23529360335E+03  0.28922381229E+03  0.89824084089E+02 0.  0.
        -11    1    3    3    0    0  0.11765072901E+02  0.19956201017E+02  0.24785690881E+02  0.33926352174E+02  0.00000000000E+00 0.  1.
         12    1    3    3    0    0  0.10994490884E+03 -0.11965784423E+02  0.41969519203E+03  0.43402202386E+03  0.00000000000E+00 0. -1.
        -11    1    4    4    0    0  0.77731066388E+02  0.10565679767E+02  0.62157471552E+02  0.10008648031E+03  0.00000000000E+00 0. -1.
         11    1    4    4    0    0  0.59622070973E+02 -0.47349961663E+02  0.17313613179E+03  0.18913733198E+03  0.00000000000E+00 0.  1.
          1    1    1    2  501    0 -0.25906311910E+03  0.28793865301E+02  0.67234491787E+03  0.72110365063E+03  0.00000000000E+00 0. -1.
<scales pt_clust_5="13000.00000" pt_clust_6="13000.00000" pt_clust_7="13000.00000" pt_clust_8="13000.00000" pt_clust_9="13000.00000"></scales>
<clustering>
<clus scale="   80.841">  5  6 -1 -1</clus>
<clus scale="   89.824">  7  8 -1 -1</clus>
<clus scale="  146.330">  1  5  2 -1</clus>
<clus scale="  174.110">  7  9 -1 -1</clus>
<clus scale="  443.795">  2  5  1 -1</clus>
</clustering>
</event>
<event>
 9    2  0.3707658E-005  0.1920776E+03  0.7546771E-02  0.1194364E+00
          2   -1    0    0  502    0 -0.00000000000E+00  0.00000000000E+00  0.40270024614E+03  0.40270024614E+03  0.00000000000E+00 0. -1.
         21   -1    0    0  501  502  0.00000000000E+00 -0.00000000000E+00 -0.71416350752E+02  0.71416350752E+02  0.00000000000E+00 0.  1.
         24    2    1    2    0    0 -0.37251649891E+01 -0.53463729564E+01 -0.10261062467E+02  0.82266158044E+02  0.81363202976E+02 0.  0.
         23    2    1    2    0    0  0.92741069001E+01  0.62047616729E+02  0.11541624536E+03  0.15865520644E+03  0.88964313280E+02 0.  0.
        -11    1    3    3    0    0  0.24276882332E+01 -0.42687627162E+02  0.10426430667E+01  0.42769314788E+02  0.00000000000E+00 0.  1.
         12    1    3    3    0    0 -0.61528532223E+01  0.37341254206E+02 -0.11303705534E+02  0.39496843256E+02  0.00000000000E+00 0. -1.
        -13    1    4    4    0    0 -0.31977604028E+02  0.56856530381E+02  0.84971992179E+02  0.10712362793E+03  0.00000000000E+00 0.  1.
         13    1    4    4    0    0  0.41251710928E+02  0.51910863482E+01  0.30444253178E+02  0.51531578508E+02  0.00000000000E+00 0. -1.
          1    1    1    2  501    0 -0.55489419110E+01 -0.56701243773E+02  0.22612871250E+03  0.23319523241E+03  0.00000000000E+00 0. -1.
<scales pt_clust_5="13000.00000" pt_clust_6="13000.00000" pt_clust_7="13000.00000" pt_clust_8="13000.00000" pt_clust_9="13000.00000"></scales>
<clustering>
<clus scale="   81.363">  5  6 -1 -1</clus>
<clus scale="   81.624">  1  5  2 -1</clus>
<clus scale="   88.964">  7  8 -1 -1</clus>
<clus scale="   60.565">  7  9 -1 -1</clus>
<clus scale="  192.078">  2  5  1 -1</clus>
</clustering>
</event>
<event>
 9    2  0.3707658E-005  0.3002835E+03  0.7546771E-02  0.1100713E+00
         21   -1    0    0  501  502  0.00000000000E+00  0.00000000000E+00  0.68098529322E+02  0.68098529322E+02  0.00000000000E+00 0. -1.
          2   -1    0    0  502    0 -0.00000000000E+00 -0.00000000000E+00 -0.92692453959E+03  0.92692453959E+03  0.00000000000E+00 0. -1.
         24    2    1    2    0    0  0.17800485906E+03 -0.40380882332E+02 -0.39692364281E+03  0.44409296740E+03  0.79710977730E+02 0.  0.
         23    2    1    2    0    0 -0.55849980277E+01 -0.50795340296E+02 -0.15232726017E+03  0.18503604703E+03  0.91779004735E+02 0.  0.
        -11    1    3    3    0    0  0.17248619756E+03 -0.15351790012E+02 -0.35434978128E+03  0.39439945905E+03  0.00000000000E+00 0.  1.
         12    1    3    3    0    0  0.55186614984E+01 -0.25029092320E+02 -0.42573861529E+02  0.49693508354E+02  0.00000000000E+00 0. -1.
        -13    1    4    4    0    0  0.39676102550E+02 -0.35623268392E+02 -0.10527503490E+03  0.11800865789E+03  0.00000000000E+00 0. -1.
         13    1    4    4    0    0 -0.45261100578E+02 -0.15172071904E+02 -0.47052225270E+02  0.67027389135E+02  0.00000000000E+00 0.  1.
          1    1    1    2  501    0 -0.17241986103E+03  0.91176222629E+02 -0.30957510729E+03  0.36589405448E+03  0.00000000000E+00 0. -1.
<scales pt_clust_5="13000.00000" pt_clust_6="13000.00000" pt_clust_7="13000.00000" pt_clust_8="13000.00000" pt_clust_9="13000.00000"></scales>
<clustering>
<clus scale="   79.711">  5  6 -1 -1</clus>
<clus scale="   91.779">  7  8 -1 -1</clus>
<clus scale="  195.043">  7  9 -1 -1</clus>
<clus scale="  199.174">  2  5  1 -1</clus>
<clus scale="  300.283">  1  5  2 -1</clus>
</clustering>
</event>
<event>
 9    2  0.3707658E-005  0.1813665E+03  0.7546771E-02  0.1202377E+00
         21   -1    0    0  501  502  0.00000000000E+00  0.00000000000E+00  0.42871348171E+02  0.42871348171E+02  0.00000000000E+00 0.  1.
          2   -1    0    0  502    0 -0.00000000000E+00 -0.00000000000E+00 -0.67690812036E+03  0.67690812036E+03  0.00000000000E+00 0. -1.
         24    2    1    2    0    0  0.18769758229E+02 -0.96191306577E+00 -0.46426440946E+03  0.47135148942E+03  0.79231026644E+02 0.  0.
         23    2    1    2    0    0  0.91630927401E+01  0.38334942803E+02 -0.33573075795E+02  0.10445842234E+03  0.90724200036E+02 0.  0.
        -13    1    3    3    0    0 -0.15004102596E+02  0.22773319824E+02 -0.73214217557E+02  0.78128540515E+02  0.00000000000E+00 0.  1.
         14    1    3    3    0    0  0.33773860826E+02 -0.23735232889E+02 -0.39105019191E+03  0.39322294890E+03  0.00000000000E+00 0. -1.
        -11    1    4    4    0    0  0.25042773932E+02  0.16826154536E+01  0.23773835711E+02  0.34571187214E+02  0.00000000000E+00 0.  1.
         11    1    4    4    0    0 -0.15879681192E+02  0.36652327349E+02 -0.57346911506E+02  0.69887235130E+02  0.00000000000E+00 0. -1.
          1    1    1    2  501    0 -0.27932850969E+02 -0.37373029737E+02 -0.13619928693E+03  0.14396955677E+03  0.00000000000E+00 0. -1.
<scales pt_clust_5="13000.00000" pt_clust_6="13000.00000" pt_clust_7="13000.00000" pt_clust_8="13000.00000" pt_clust_9="13000.00000"></scales>
<clustering>
<clus scale="   79.231">  5  6 -1 -1</clus>
<clus scale="   81.430">  2  5  1 -1</clus>
<clus scale="   90.724">  7  8 -1 -1</clus>
<clus scale="   41.002">  7  9 -1 -1</clus>
<clus scale="  181.366">  1  5  2 -1</clus>
</clustering>
</event>
<event>
 9    2  0.3707658E-005  0.1790941E+03  0.7546771E-02  0.1216626E+00
         21   -1    0    0  501  502  0.00000000000E+00  0.00000000000E+00  0.97021563942E+02  0.97021563942E+02  0.00000000000E+00 0. -1.
          2   -1    0    0  502    0 -0.00000000000E+00 -0.00000000000E+00 -0.44160183357E+03  0.44160183357E+03  0.00000000000E+00 0. -1.
         24    2    1    2    0    0 -0.26711469181E+02  0.16809800825E+02 -0.35383596101E+03  0.35929024661E+03  0.53791467884E+02 0.  0.
         23    2    1    2    0    0 -0.28640417690E+02 -0.48495924339E+02 -0.20328089850E+02  0.10902638085E+03  0.91111976604E+02 0.  0.
        -13    1    3    3    0    0 -0.34286033847E+02 -0.51042172528E+01 -0.14114622906E+03  0.14534043872E+03  0.00000000000E+00 0.  1.
         14    1    3    3    0    0  0.75745646661E+01  0.21914018078E+02 -0.21268973195E+03  0.21394980789E+03  0.00000000000E+00 0. -1.
        -13    1    4    4    0    0  0.26436282842E+02 -0.15426889714E+01  0.12820983235E+02  0.29421668050E+02  0.00000000000E+00 0.  1.
         13    1    4    4    0    0 -0.55076700532E+02 -0.46953235368E+02 -0.33149073085E+02  0.79604712796E+02  0.00000000000E+00 0. -1.
          1    1    1    2  501    0  0.55351886871E+02  0.31686123514E+02  0.29583781231E+02  0.70306770054E+02  0.00000000000E+00 0. -1.
<scales pt_clust_5="13000.00000" pt_clust_6="13000.00000" pt_clust_7="13000.00000" pt_clust_8="13000.00000" pt_clust_9="13000.00000"></scales>
<clustering>
<clus scale="   53.791">  5  6 -1 -1</clus>
<clus scale="   62.367">  2  5  1 -1</clus>
<clus scale="   91.112">  7  8 -1 -1</clus>
<clus scale="   60.597">  7  9 -1 -1</clus>
<clus scale="  179.094">  1  5  2 -1</clus>
</clustering>
</event>
<event>
 9    2  0.3707658E-005  0.6707381E+03  0.7546771E-02  0.9998916E-01
         21   -1    0    0  501  502  0.00000000000E+00  0.00000000000E+00  0.11128452317E+03  0.11128452317E+03  0.00000000000E+00 0.  1.
          2   -1    0    0  502    0 -0.00000000000E+00 -0.00000000000E+00 -0.22004143553E+04  0.22004143553E+04  0.00000000000E+00 0. -1.
         24    2    1    2    0    0 -0.28155768111E+03  0.12736990470E+03 -0.66556577815E+03  0.73803304664E+03  0.78848921834E+02 0.  0.
         23    2    1    2    0    0 -0.51006591370E+02  0.14218953978E+03 -0.78479976559E+03  0.80471778055E+03  0.94023915451E+02 0.  0.
        -11    1    3    3    0    0 -0.19086040636E+03  0.87909669037E+02 -0.35980057499E+03  0.41666804340E+03  0.00000000000E+00 0.  1.
         12    1    3    3    0    0 -0.90697274750E+02  0.39460235658E+02 -0.30576520315E+03  0.32136500324E+03  0.00000000000E+00 0. -1.
        -13    1    4    4    0    0 -0.65493518950E+02  0.63099067871E+02 -0.52301332699E+03  0.53086140715E+03  0.00000000000E+00 0.  1.
         13    1    4    4    0    0  0.14486927580E+02  0.79090471909E+02 -0.26178643860E+03  0.27385637340E+03  0.00000000000E+00 0. -1.
          1    1    1    2  501    0  0.33256427248E+03 -0.26955944447E+03 -0.63876428838E+03  0.76894805127E+03  0.00000000000E+00 0. -1.
<scales pt_clust_5="13000.00000" pt_clust_6="13000.00000" pt_clust_7="13000.00000" pt_clust_8="13000.00000" pt_clust_9="13000.00000"></scales>
<clustering>
<clus scale="   78.849">  5  6 -1 -1</clus>
<clus scale="   94.024">  7  8 -1 -1</clus>
<clus scale="  318.928">  2  5  1 -1</clus>
<clus scale="  290.034">  7  9 -1 -1</clus>
<clus scale="  670.738">  1  5  2 -1</clus>
</clustering>
</event>
<event>
 9    2  0.3707658E-005  0.1753356E+03  0.7546771E-02  0.1185809E+00
          2   -1    0    0  502    0 -0.00000000000E+00  0.00000000000E+00  0.51394318425E+03  0.51394318425E+03  0.00000000000E+00 0. -1.
         21   -1    0    0  501  502  0.00000000000E+00 -0.00000000000E+00 -0.60949009747E+02  0.60949009747E+02  0.00000000000E+00 0. -1.
         24    2    1    2    0    0  0.25585376074E+02 -0.98249141813E+02  0.34600663335E+03  0.36949283231E+03  0.80603085999E+02 0.  0.
         23    2    1    2    0    0  0.22795143513E+02  0.53355913359E+02  0.49090528627E+02  0.11760334415E+03  0.89745164189E+02 0.  0.
        -13    1    3    3    0    0 -0.20225534081E+02 -0.20029892964E+02  0.32784278388E+02  0.43417482083E+02  0.00000000000E+00 0.  1.
         14    1    3    3    0    0  0.45810910154E+02 -0.78219248849E+02  0.31322235496E+03  0.32607535023E+03  0.00000000000E+00 0. -1.
        -11    1    4    4    0    0 -0.22402106589E+01  0.49669680698E+02  0.69249364701E+02  0.85250045372E+02  0.00000000000E+00 0.  1.
         11    1    4    4    0    0  0.25035354172E+02  0.36862326603E+01 -0.20158836073E+02  0.32353298774E+02  0.00000000000E+00 0. -1.
          1    1    1    2  501    0 -0.48380519586E+02  0.44893228454E+02  0.57897012534E+02  0.87796017545E+02  0.00000000000E+00 0. -1.
<scales pt_clust_5="13000.00000" pt_clust_6="13000.00000" pt_clust_7="13000.00000" pt_clust_8="13000.00000" pt_clust_9="13000.00000"></scales>
<clustering>
<clus scale="   80.603">  5  6 -1 -1</clus>
<clus scale="   89.745">  7  8 -1 -1</clus>
<clus scale="   66.001">  7  9 -1 -1</clus>
<clus scale="  129.632">  1  5  2 -1</clus>
<clus scale="  175.336">  2  5  1 -1</clus>
</clustering>
</event>
<event>
 9    2  0.3707658E-005  0.1242737E+03  0.7546771E-02  0.1256709E+00
         21   -1    0    0  501  502  0.00000000000E+00  0.00000000000E+00  0.24764495576E+03  0.24764495576E+03  0.00000000000E+00 0. -1.
          2   -1    0    0  502    0 -0.00000000000E+00 -0.00000000000E+00 -0.43083230202E+02  0.43083230202E+02  0.00000000000E+00 0. -1.
         24    2    1    2    0    0  0.16307866286E+01 -0.18786055820E+02  0.81628236542E+02  0.11592376463E+03  0.80122249388E+02 0.  0.
         23    2    1    2    0    0 -0.75851976016E+01 -0.69566674641E+01  0.11261637268E+03  0.14643920140E+03  0.93037959278E+02 0.  0.
        -13    1    3    3    0    0  0.89347243394E+01  0.30645401634E+02  0.37629452390E+02  0.49345168228E+02  0.00000000000E+00 0.  1.
         14    1    3    3    0    0 -0.73039377109E+01 -0.49431457454E+02  0.43998784152E+02  0.66578596403E+02  0.00000000000E+00 0. -1.
        -13    1    4    4    0    0 -0.31901728567E+02  0.30721619961E+02  0.33628348403E+02  0.55609388010E+02  0.00000000000E+00 0. -1.
         13    1    4    4    0    0  0.24316530965E+02 -0.37678287425E+02  0.78988024274E+02  0.90829813388E+02  0.00000000000E+00 0.  1.
          1    1    1    2  501    0  0.59544109730E+01  0.25742723284E+02  0.10317116337E+02  0.28365219929E+02  0.00000000000E+00 0. -1.
<scales pt_clust_5="13000.00000" pt_clust_6="13000.00000" pt_clust_7="13000.00000" pt_clust_8="13000.00000" pt_clust_9="13000.00000"></scales>
<clustering>
<clus scale="   80.122">  5  6 -1 -1</clus>
<clus scale="   82.311">  2  5  1 -1</clus>
<clus scale="   93.038">  7  8 -1 -1</clus>
<clus scale="   20.283">  7  9 -1 -1</clus>
<clus scale="  124.274">  1  5  2 -1</clus>
</clustering>
</event>
<event>
 9    2  0.3707658E-005  0.3064955E+03  0.7546771E-02  0.1119946E+00
         21   -1    0    0  501  502  0.00000000000E+00  0.00000000000E+00  0.46079995833E+02  0.46079995833E+02  0.00000000000E+00 0.  1.
          2   -1    0    0  502    0 -0.00000000000E+00 -0.00000000000E+00 -0.13378447227E+04  0.13378447227E+04  0.00000000000E+00 0. -1.
         24    2    1    2    0    0 -0.13827511926E+00  0.79140887877E+02 -0.77226908906E+03  0.78075376768E+03  0.83148064142E+02 0.  0.
         23    2    1    2    0    0  0.42286405661E+01  0.37446592449E+02 -0.33991580931E+02  0.10384784814E+03  0.90602534747E+02 0.  0.
        -13    1    3    3    0    0 -0.28892651270E+02  0.77414835279E+01 -0.10887512080E+03  0.11290929011E+03  0.00000000000E+00 0.  1.
         14    1    3    3    0    0  0.28754376150E+02  0.71399404349E+02 -0.66339396826E+03  0.66784447756E+03  0.00000000000E+00 0. -1.
        -13    1    4    4    0    0  0.26178838861E+02 -0.19213281876E+02 -0.27841741583E+02  0.42774342531E+02  0.00000000000E+00 0. -1.
         13    1    4    4    0    0 -0.21950198294E+02  0.56659874325E+02 -0.61498393478E+01  0.61073505612E+02  0.00000000000E+00 0.  1.
          1    1    1    2  501    0 -0.40903654468E+01 -0.11658748033E+03 -0.48550405684E+03  0.49932310268E+03  0.00000000000E+00 0. -1.
<scales pt_clust_5="13000.00000" pt_clust_6="13000.00000" pt_clust_7="13000.00000" pt_clust_8="13000.00000" pt_clust_9="13000.00000"></scales>
<clustering>
<clus scale="   83.148">  5  6 -1 -1</clus>
<clus scale="   90.603">  7  8 -1 -1</clus>
<clus scale="  114.791">  2  5  1 -1</clus>
<clus scale="   47.351">  7  9 -1 -1</clus>
<clus scale="  306.495">  1  5  2 -1</clus>
</clustering>
</event>
<event>
 9    2  0.3707658E-005  0.2239002E+03  0.7546771E-02  0.1139881E+00
         21   -1    0    0  501  502  0.00000000000E+00  0.00000000000E+00  0.19361389161E+03  0.19361389161E+03  0.00000000000E+00 0.  1.
         -1   -1    0    0    0  501 -0.00000000000E+00 -0.00000000000E+00 -0.40770529914E+03  0.40770529914E+03  0.00000000000E+00 0.  1.
         24    2    1    2    0    0  0.15920442557E+03  0.19710491602E+02 -0.30924333034E+03  0.35803909503E+03  0.82619632117E+02 0.  0.
         23    2    1    2    0    0 -0.47571343435E+02 -0.15172264955E+01  0.16550838361E+02  0.10554458687E+03  0.92738313955E+02 0.  0.
        -13    1    3    3    0    0  0.10375816322E+03 -0.11345583409E+02 -0.25099317321E+03  0.27183092483E+03  0.00000000000E+00 0.  1.
         14    1    3    3    0    0  0.55446262345E+02  0.31056075011E+02 -0.58250157135E+02  0.86208170201E+02  0.00000000000E+00 0. -1.
        -13    1    4    4    0    0 -0.22705171555E+02 -0.11820005531E+02 -0.37359993650E+02  0.45288038947E+02  0.00000000000E+00 0. -1.
         13    1    4    4    0    0 -0.24866171880E+02  0.10302779036E+02  0.53910832011E+02  0.60256547926E+02  0.00000000000E+00 0.  1.
         -2    1    1    2    0  502 -0.11163308213E+03 -0.18193265107E+02  0.78601084443E+02  0.13773550885E+03  0.00000000000E+00 0.  1.
<scales pt_clust_5="13000.00000" pt_clust_6="13000.00000" pt_clust_7="13000.00000" pt_clust_8="13000.00000" pt_clust_9="13000.00000"></scales>
<clustering>
<clus scale="   82.620">  5  6 -1 -1</clus>
<clus scale="   92.738">  7  8 -1 -1</clus>
<clus scale="  113.106">  7  9 -1 -1</clus>
<clus scale="  180.445">  2  5  1 -1</clus>
<clus scale="  223.900">  1  5  2 -1</clus>
</clustering>
</event>
<event>
 9    2  0.3707658E-005  0.1768568E+03  0.7546771E-02  0.1206220E+00
         21   -1    0    0  501  502  0.00000000000E+00  0.00000000000E+00  0.27557118034E+02  0.27557118034E+02  0.00000000000E+00 0.  1.
          2   -1    0    0  502    0 -0.00000000000E+00 -0.00000000000E+00 -0.63855608303E+03  0.63855608303E+03  0.00000000000E+00 0. -1.
         24    2    1    2    0    0 -0.42777323306E+01  0.37149593328E+01 -0.27195365139E+03  0.28371283363E+03  0.80635498039E+02 0.  0.
         23    2    1    2    0    0  0.57114389572E+02 -0.11708877892E+02 -0.13414915847E+03  0.17065039820E+03  0.87900002101E+02 0.  0.
        -13    1    3    3    0    0 -0.20590811498E+02  0.12225770327E+02 -0.20316830075E+02  0.31404212496E+02  0.00000000000E+00 0.  1.
         14    1    3    3    0    0  0.16313079167E+02 -0.85108109940E+01 -0.25163682131E+03  0.25230862113E+03  0.00000000000E+00 0. -1.
        -13    1    4    4    0    0  0.68261055003E+02 -0.31645733210E+02 -0.70816702722E+02  0.10332487331E+03  0.00000000000E+00 0.  1.
         13    1    4    4    0    0 -0.11146665431E+02  0.19936855318E+02 -0.63332455746E+02  0.67325524885E+02  0.00000000000E+00 0. -1.
          1    1    1    2  501    0 -0.52836657241E+02  0.79939185592E+01 -0.20489615514E+03  0.21174996924E+03  0.00000000000E+00 0. -1.
<scales pt_clust_5="13000.00000" pt_clust_6="13000.00000" pt_clust_7="13000.00000" pt_clust_8="13000.00000" pt_clust_9="13000.00000"></scales>
<clustering>
<clus scale="   80.635">  5  6 -1 -1</clus>
<clus scale="   80.834">  2  5  1 -1</clus>
<clus scale="   87.900">  7  8 -1 -1</clus>
<clus scale="   56.229">  7  9 -1 -1</clus>
<clus scale="  176.857">  1  5  2 -1</clus>
</clustering>
</event>
<event>
 9    2  0.3707658E-005  0.1464245E+03  0.7546771E-02  0.1228585E+00
          2   -1    0    0  502    0 -0.00000000000E+00  0.00000000000E+00  0.20504340278E+03  0.20504340278E+03  0.00000000000E+00 0. -1.
         21   -1    0    0  501  502  0.00000000000E+00 -0.00000000000E+00 -0.13785204085E+03  0.13785204085E+03  0.00000000000E+00 0. -1.
         24    2    1    2    0    0  0.24592769910E+02 -0.17626887076E+02  0.15024054557E+03  0.17455861010E+03  0.83564198962E+02 0.  0.
         23    2    1    2    0    0 -0.26968793205E+01 -0.23641813235E+02 -0.74300694284E+02  0.12080714053E+03  0.92236454512E+02 0.  0.
        -13    1    3    3    0    0 -0.53300268121E+01 -0.39697624934E+02  0.34073740116E+02  0.52586408669E+02  0.00000000000E+00 0.  1.
         14    1    3    3    0    0  0.29922796722E+02  0.22070737858E+02  0.11616680545E+03  0.12197220143E+03  0.00000000000E+00 0. -1.
        -13    1    4    4    0    0 -0.21315551291E+02  0.30329443094E+02 -0.38352818295E+02  0.53340102328E+02  0.00000000000E+00 0.  1.
         13    1    4    4    0    0  0.18618671970E+02 -0.53971256329E+02 -0.35947875988E+02  0.67467038202E+02  0.00000000000E+00 0. -1.
          1    1    1    2  501    0 -0.21895890590E+02  0.41268700311E+02 -0.87484893572E+01  0.47529692994E+02  0.00000000000E+00 0. -1.
<scales pt_clust_5="13000.00000" pt_clust_6="13000.00000" pt_clust_7="13000.00000" pt_clust_8="13000.00000" pt_clust_9="13000.00000"></scales>
<clustering>
<clus scale="   83.564">  5  6 -1 -1</clus>
<clus scale="   88.873">  1  5  2 -1</clus>
<clus scale="   92.236">  7  8 -1 -1</clus>
<clus scale="   34.937">  7  9 -1 -1</clus>
<clus scale="  146.424">  2  5  1 -1</clus>
</clustering>
</event>
<event>
 9    2  0.3707658E-005  0.1700114E+03  0.7546771E-02  0.1196861E+00
          2   -1    0    0  502    0 -0.00000000000E+00  0.00000000000E+00  0.12715467665E+04  0.12715467665E+04  0.00000000000E+00 0. -1.
         21   -1    0    0  501  502  0.00000000000E+00 -0.00000000000E+00 -0.18134029578E+02  0.18134029578E+02  0.00000000000E+00 0. -1.
         24    2    1    2    0    0 -0.65148659521E+02 -0.41668118823E+02  0.75237085482E+03  0.76058077043E+03  0.80253505903E+02 0.  0.
         23    2    1    2    0    0 -0.36096631788E+01  0.42525977283E+02  0.30744612787E+03  0.32365475576E+03  0.91694007278E+02 0.  0.
        -11    1    3    3    0    0  0.54941331629E+01 -0.37981984325E+02  0.19515241023E+03  0.19889012004E+03  0.00000000000E+00 0.  1.
         12    1    3    3    0    0 -0.70642792684E+02 -0.36861344972E+01  0.55721844459E+03  0.56169065039E+03  0.00000000000E+00 0. -1.
        -11    1    4    4    0    0  0.18500346459E+02  0.66176917186E+02  0.21364787868E+03  0.22442607525E+03  0.00000000000E+00 0. -1.
         11    1    4    4    0    0 -0.22110009638E+02 -0.23650939903E+02  0.93798249197E+02  0.99228680516E+02  0.00000000000E+00 0.  1.
          1    1    1    2  501    0  0.68758322700E+02 -0.85785846041E+00  0.19359575425E+03  0.20544526990E+03  0.00000000000E+00 0. -1.
<scales pt_clust_5="13000.00000" pt_clust_6="13000.00000" pt_clust_7="13000.00000" pt_clust_8="13000.00000" pt_clust_9="13000.00000"></scales>
<clustering>
<clus scale="   80.254">  5  6 -1 -1</clus>
<clus scale="   91.694">  7  8 -1 -1</clus>
<clus scale="   68.764">  7  9 -1 -1</clus>
<clus scale="  111.450">  1  5  2 -1</clus>
<clus scale="  170.011">  2  5  1 -1</clus>
</clustering>
</event>
<event>
 9    2  0.3707658E-005  0.1482664E+03  0.7546771E-02  0.1225578E+00
          4   -1    0    0  502    0 -0.00000000000E+00  0.00000000000E+00  0.32819101724E+03  0.32819101724E+03  0.00000000000E+00 0. -1.
         21   -1    0    0  501  502  0.00000000000E+00 -0.00000000000E+00 -0.47941791320E+02  0.47941791320E+02  0.00000000000E+00 0. -1.
         24    2    1    2    0    0 -0.43213131675E+00 -0.40474513962E+01  0.16444951299E+03  0.18800388289E+03  0.91023343472E+02 0.  0.
         23    2    1    2    0    0  0.30373158511E+02 -0.15499729649E+02  0.41441606024E+02  0.10562022638E+03  0.90969528603E+02 0.  0.
        -13    1    3    3    0    0  0.16662734971E+02 -0.33340515799E+02  0.14322159784E+03  0.14799210391E+03  0.00000000000E+00 0.  1.
         14    1    3    3    0    0 -0.17094866288E+02  0.29293064403E+02  0.21227915152E+02  0.40011778981E+02  0.00000000000E+00 0. -1.
        -11    1    4    4    0    0  0.25400330273E+02 -0.49224942700E+02  0.44969996836E+02  0.71348247191E+02  0.00000000000E+00 0. -1.
         11    1    4    4    0    0  0.49728282377E+01  0.33725213051E+02 -0.35283908122E+01  0.34271979192E+02  0.00000000000E+00 0.  1.
          3    1    1    2  501    0 -0.29941027194E+02  0.19547181045E+02  0.74358106905E+02  0.82508699291E+02  0.00000000000E+00 0. -1.
<scales pt_clust_5="13000.00000" pt_clust_6="13000.00000" pt_clust_7="13000.00000" pt_clust_8="13000.00000" pt_clust_9="13000.00000"></scales>
<clustering>
<clus scale="   90.970">  7  8 -1 -1</clus>
<clus scale="   35.757">  7  9 -1 -1</clus>
<clus scale="   91.023">  5  6 -1 -1</clus>
<clus scale="   91.114">  1  5  2 -1</clus>
<clus scale="  148.266">  2  5  1 -1</clus>
</clustering>
</event>
<event>
 9    2  0.3707658E-005  0.3843199E+03  0.7546771E-02  0.1102907E+00
         21   -1    0    0  501  502  0.00000000000E+00  0.00000000000E+00  0.38485485938E+02  0.38485485938E+02  0.00000000000E+00 0. -1.
          2   -1    0    0  502    0 -0.00000000000E+00 -0.00000000000E+00 -0.16127649511E+04  0.16127649511E+04  0.00000000000E+00 0. -1.
         24    2    1    2    0    0  0.21395790225E+02  0.37811651281E+02 -0.13945861593E+03  0.16585060423E+03  0.78550725984E+02 0.  0.
         23    2    1    2    0    0 -0.14574947753E+03  0.99012216615E+02 -0.70516461890E+03  0.73268287085E+03  0.92307747491E+02 0.  0.
        -13    1    3    3    0    0  0.70741061053E+01 -0.21585033276E+02 -0.15049239946E+02  0.27247683602E+02  0.00000000000E+00 0.  1.
         14    1    3    3    0    0  0.14321684120E+02  0.59396684557E+02 -0.12440937599E+03  0.13860292063E+03  0.00000000000E+00 0. -1.
        -11    1    4    4    0    0 -0.11194290435E+03  0.70357202874E+02 -0.64230255197E+03  0.65576971423E+03  0.00000000000E+00 0. -1.
         11    1    4    4    0    0 -0.33806573180E+02  0.28655013741E+02 -0.62862066928E+02  0.76913156619E+02  0.00000000000E+00 0.  1.
          1    1    1    2  501    0  0.12435368730E+03 -0.13682386790E+03 -0.72965623037E+03  0.75271696200E+03  0.00000000000E+00 0. -1.
<scales pt_clust_5="13000.00000" pt_clust_6="13000.00000" pt_clust_7="13000.00000" pt_clust_8="13000.00000" pt_clust_9="13000.00000"></scales>
<clustering>
<clus scale="   78.551">  5  6 -1 -1</clus>
<clus scale="   89.765">  2  5  1 -1</clus>
<clus scale="   92.308">  7  8 -1 -1</clus>
<clus scale="  179.220">  7  9 -1 -1</clus>
<clus scale="  384.320">  1  5  2 -1</clus>
</clustering>
</event>
<event>
 9    2  0.3707658E-005  0.2439104E+03  0.7546771E-02  0.1152650E+00
         21   -1    0    0  501  502  0.00000000000E+00  0.00000000000E+00  0.28715678276E+02  0.28715678276E+02  0.00000000000E+00 0.  1.
          2   -1    0    0  502    0 -0.00000000000E+00 -0.00000000000E+00 -0.11329883169E+04  0.11329883169E+04  0.00000000000E+00 0. -1.
         24    2    1    2    0    0 -0.34454689961E+02  0.54014564242E+02 -0.49169664120E+03  0.50235459240E+03  0.80559609733E+02 0.  0.
         23    2    1    2    0    0  0.55455872851E+02 -0.99040164229E+02 -0.22215638817E+03  0.26578133291E+03  0.91662141325E+02 0.  0.
        -11    1    3    3    0    0 -0.36540965449E+02 -0.10671604641E+02 -0.19504543017E+03  0.19872555228E+03  0.00000000000E+00 0.  1.
         12    1    3    3    0    0  0.20862754883E+01  0.64686168882E+02 -0.29665121104E+03  0.30362904011E+03  0.00000000000E+00 0. -1.
        -13    1    4    4    0    0  0.76634924799E+02 -0.90413219791E+02 -0.15690341799E+03  0.19663708854E+03  0.00000000000E+00 0.  1.
         13    1    4    4    0    0 -0.21179051948E+02 -0.86269444375E+01 -0.65252970181E+02  0.69144244368E+02  0.00000000000E+00 0. -1.
          1    1    1    2  501    0 -0.21001182890E+02  0.45025599987E+02 -0.39041960926E+03  0.39356806988E+03  0.00000000000E+00 0. -1.
<scales pt_clust_5="13000.00000" pt_clust_6="13000.00000" pt_clust_7="13000.00000" pt_clust_8="13000.00000" pt_clust_9="13000.00000"></scales>
<clustering>
<clus scale="   80.560">  5  6 -1 -1</clus>
<clus scale="   91.662">  7  8 -1 -1</clus>
<clus scale="   49.683">  7  9 -1 -1</clus>
<clus scale="  102.930">  2  5  1 -1</clus>
<clus scale="  243.910">  1  5  2 -1</clus>
</clustering>
</event>
<event>
 9    2  0.3707658E-005  0.5000482E+03  0.7546771E-02  0.1015515E+00
          2   -1    0    0  502    0 -0.00000000000E+00  0.00000000000E+00  0.18021956128E+04  0.18021956128E+04  0.00000000000E+00 0. -1.
         21   -1    0    0  501  502  0.00000000000E+00 -0.00000000000E+00 -0.14804294222E+03  0.14804294222E+03  0.00000000000E+00 0. -1.
         24    2    1    2    0    0 -0.31323593868E+03 -0.34819076851E+03  0.11321776630E+04  0.12273926920E+04  0.72890296203E+02 0.  0.
         23    2    1    2    0    0  0.19704221069E+03  0.17874616781E+03  0.38122128973E+03  0.47379955360E+03  0.91545179854E+02 0.  0.
        -11    1    3    3    0    0 -0.24484365697E+03 -0.22228295942E+03  0.78577777248E+03  0.85252849696E+03  0.00000000000E+00 0.  1.
         12    1    3    3    0    0 -0.68392281705E+02 -0.12590780909E+03  0.34639989054E+03  0.37486419508E+03  0.00000000000E+00 0. -1.
        -13    1    4    4    0    0  0.59006363960E+02  0.62107855821E+02  0.20138595527E+03  0.21885026781E+03  0.00000000000E+00 0. -1.
         13    1    4    4    0    0  0.13803584673E+03  0.11663831199E+03  0.17983533446E+03  0.25494928579E+03  0.00000000000E+00 0.  1.
          1    1    1    2  501    0  0.11619372799E+03  0.16944460070E+03  0.14075371781E+03  0.24904630936E+03  0.00000000000E+00 0. -1.
<scales pt_clust_5="13000.00000" pt_clust_6="13000.00000" pt_clust_7="13000.00000" pt_clust_8="13000.00000" pt_clust_9="13000.00000"></scales>
<clustering>
<clus scale="   72.890">  5  6 -1 -1</clus>
<clus scale="   91.545">  7  8 -1 -1</clus>
<clus scale="  205.457">  7  9 -1 -1</clus>
<clus scale="  473.990">  1  5  2 -1</clus>
<clus scale="  500.048">  2  5  1 -1</clus>
</clustering>
</event>
<event>
 9    2  0.3707658E-005  0.5013386E+03  0.7546771E-02  0.1058190E+00
          2   -1    0    0  502    0 -0.00000000000E+00  0.00000000000E+00  0.18418204391E+04  0.18418204391E+04  0.00000000000E+00 0. -1.
         21   -1    0    0  501  502  0.00000000000E+00 -0.00000000000E+00 -0.97414537863E+02  0.97414537863E+02  0.00000000000E+00 0. -1.
         24    2    1    2    0    0  0.66024282151E+02 -0.85953333931E+02  0.11661440324E+04  0.11739068550E+04  0.80113784542E+02 0.  0.
         23    2    1    2    0    0 -0.12668498642E+03 -0.88993741280E+02  0.24362381910E+02  0.18129829242E+03  0.91140404937E+02 0.  0.
        -13    1    3    3    0    0  0.33841655949E+02 -0.44019548287E+02  0.24352071007E+03  0.24977052377E+03  0.00000000000E+00 0.  1.
         14    1    3    3    0    0  0.32182626202E+02 -0.41933785644E+02  0.92262332230E+03  0.92413633120E+03  0.00000000000E+00 0. -1.
        -13    1    4    4    0    0 -0.19280095451E+02 -0.38402845241E+02  0.43381556070E+02  0.61061117008E+02  0.00000000000E+00 0.  1.
         13    1    4    4    0    0 -0.10740489097E+03 -0.50590896039E+02 -0.19019174160E+02  0.12023717542E+03  0.00000000000E+00 0. -1.
          1    1    1    2  501    0  0.60660704269E+02  0.17494707521E+03  0.55389948691E+03  0.58402982952E+03  0.00000000000E+00 0. -1.
<scales pt_clust_5="13000.00000" pt_clust_6="13000.00000" pt_clust_7="13000.00000" pt_clust_8="13000.00000" pt_clust_9="13000.00000"></scales>
<clustering>
<clus scale="   80.114">  5  6 -1 -1</clus>
<clus scale="   91.140">  7  8 -1 -1</clus>
<clus scale="  134.779">  1  5  2 -1</clus>
<clus scale="  155.001">  7  9 -1 -1</clus>
<clus scale="  501.339">  2  5  1 -1</clus>
</clustering>
</event>
<event>
 9    2  0.3707658E-005  0.1531578E+03  0.7546771E-02  0.1212632E+00
         21   -1    0    0  501  502  0.00000000000E+00  0.00000000000E+00  0.24762420262E+03  0.24762420262E+03  0.00000000000E+00 0.  1.
          2   -1    0    0  502    0 -0.00000000000E+00 -0.00000000000E+00 -0.29986489183E+03  0.29986489183E+03  0.00000000000E+00 0. -1.
         24    2    1    2    0    0 -0.66499892032E+02  0.31161625205E+02 -0.26441029111E+03  0.28581514818E+03  0.79901278819E+02 0.  0.
         23    2    1    2    0    0  0.81695762202E+02 -0.47720282460E+02  0.18698473584E+03  0.22791922692E+03  0.89623990339E+02 0.  0.
        -13    1    3    3    0    0 -0.37154318097E+02 -0.13360022136E+02 -0.44315723526E+02  0.59353322539E+02  0.00000000000E+00 0.  1.
         14    1    3    3    0    0 -0.29345573935E+02  0.44521647342E+02 -0.22009456758E+03  0.22646182564E+03  0.00000000000E+00 0. -1.
        -13    1    4    4    0    0  0.60091756294E+02  0.15015693440E+02  0.70346167854E+02  0.93728723216E+02  0.00000000000E+00 0.  1.
         13    1    4    4    0    0  0.21604005908E+02 -0.62735975900E+02  0.11663856799E+03  0.13419050371E+03  0.00000000000E+00 0. -1.
          1    1    1    2  501    0 -0.15195870170E+02  0.16558657254E+02  0.25184866054E+02  0.33754719351E+02  0.00000000000E+00 0. -1.
<scales pt_clust_5="13000.00000" pt_clust_6="13000.00000" pt_clust_7="13000.00000" pt_clust_8="13000.00000" pt_clust_9="13000.00000"></scales>
<clustering>
<clus scale="   79.901">  5  6 -1 -1</clus>
<clus scale="   89.624">  7  8 -1 -1</clus>
<clus scale="   22.475">  7  9 -1 -1</clus>
<clus scale="  108.524">  2  5  1 -1</clus>
<clus scale="  153.158">  1  5  2 -1</clus>
</clustering>
</event>
<event>
 9    2  0.7323376E-005  0.7332109E+03  0.7546771E-02  0.9751496E-01
         21   -1    0    0  501  502  0.00000000000E+00  0.00000000000E+00  0.34773218403E+03  0.34773218403E+03  0.00000000000E+00 0. -1.
          2   -1    0    0  502    0 -0.00000000000E+00 -0.00000000000E+00 -0.12566843343E+04  0.12566843343E+04  0.00000000000E+00 0. -1.
         24    2    1    2    0    0  0.27369410570E+03 -0.46242593740E+03 -0.18513353024E+03  0.57411964082E+03  0.81195608736E+02 0.  0.
         23    2    1    2    0    0  0.68276035436E+02 -0.31096680773E+02 -0.20507936724E+03  0.23682440512E+03  0.91649503111E+02 0.  0.
        -11    1    3    3    0    0  0.64997691553E+02 -0.62030365866E+02 -0.12455058603E+02  0.90706089550E+02  0.00000000000E+00 0.  1.
         12    1    3    3    0    0  0.20869641415E+03 -0.40039557153E+03 -0.17267847164E+03  0.48341355127E+03  0.00000000000E+00 0. -1.
        -13    1    4    4    0    0  0.56701960823E+02  0.67525929823E+01 -0.47275985013E+02  0.74133181721E+02  0.00000000000E+00 0.  1.
         13    1    4    4    0    0  0.11574074613E+02 -0.37849273755E+02 -0.15780338223E+03  0.16269122340E+03  0.00000000000E+00 0. -1.
          1    1    1    2  501    0 -0.34197014114E+03  0.49352261817E+03 -0.51873925277E+03  0.79347247239E+03  0.00000000000E+00 0. -1.
<scales pt_clust_5="13000.00000" pt_clust_6="13000.00000" pt_clust_7="13000.00000" pt_clust_8="13000.00000" pt_clust_9="13000.00000"></scales>
<clustering>
<clus scale="   81.196">  5  6 -1 -1</clus>
<clus scale="   91.650">  7  8 -1 -1</clus>
<clus scale="  543.451">  2  5  1 -1</clus>
<clus scale="  201.531">  7  9 -1 -1</clus>
<clus scale="  733.211">  1  5  2 -1</clus>
</clustering>
</event>
<event>
 9    2  0.3707658E-005  0.5891296E+03  0.7546771E-02  0.1007305E+00
         21   -1    0    0  501  502  0.00000000000E+00  0.00000000000E+00  0.13601458871E+03  0.13601458871E+03  0.00000000000E+00 0.  1.
          2   -1    0    0  502    0 -0.00000000000E+00 -0.00000000000E+00 -0.19048835685E+04  0.19048835685E+04  0.00000000000E+00 0. -1.
         24    2    1    2    0    0  0.36254634708E+03  0.40998339646E+02 -0.10323335282E+04  0.10977342492E+04  0.78659078252E+02 0.  0.
         23    2    1    2    0    0 -0.20394532514E+03  0.83195465857E+02 -0.75623841278E+02  0.25223515480E+03  0.96893894333E+02 0.  0.
        -11    1    3    3    0    0  0.14837601119E+03  0.49869744080E+02 -0.37591270700E+03  0.40720117307E+03  0.00000000000E+00 0.  1.
         12    1    3    3    0    0  0.21417033589E+03 -0.88714044340E+01 -0.65642082125E+03  0.69053307608E+03  0.00000000000E+00 0. -1.
        -13    1    4    4    0    0 -0.15421537577E+03  0.78484531579E+02 -0.15006610657E+02  0.17368765697E+03  0.00000000000E+00 0.  1.
         13    1    4    4    0    0 -0.49729949374E+02  0.47109342777E+01 -0.60617230621E+02  0.78547497826E+02  0.00000000000E+00 0. -1.
          1    1    1    2  501    0 -0.15860102194E+03 -0.12419380550E+03 -0.66091161030E+03  0.69092875328E+03  0.00000000000E+00 0. -1.
<scales pt_clust_5="13000.00000" pt_clust_6="13000.00000" pt_clust_7="13000.00000" pt_clust_8="13000.00000" pt_clust_9="13000.00000"></scales>
<clustering>
<clus scale="   78.659">  5  6 -1 -1</clus>
<clus scale="   96.894">  7  8 -1 -1</clus>
<clus scale="  201.441">  7  9 -1 -1</clus>
<clus scale="  373.240">  2  5  1 -1</clus>
<clus scale="  589.130">  1  5  2 -1</clus>
</clustering>
</event>
<event>
 9    2  0.3707658E-005  0.1827885E+03  0.7546771E-02  0.1184449E+00
          2   -1    0    0  502    0 -0.00000000000E+00  0.00000000000E+00  0.31346339296E+03  0.31346339296E+03  0.00000000000E+00 0. -1.
         21   -1    0    0  501  502  0.00000000000E+00 -0.00000000000E+00 -0.79673317313E+02  0.79673317313E+02  0.00000000000E+00 0. -1.
         24    2    1    2    0    0  0.62531962821E+02 -0.59399049084E+02  0.15329312574E+03  0.19340839106E+03  0.80433388136E+02 0.  0.
         23    2    1    2    0    0  0.68535317686E+01  0.16975940882E+02  0.71284644864E+02  0.11788130624E+03  0.92083376897E+02 0.  0.
        -13    1    3    3    0    0  0.23740990183E+02  0.16796107151E+02  0.20924746728E+02  0.35827208319E+02  0.00000000000E+00 0.  1.
         14    1    3    3    0    0  0.38790972638E+02 -0.76195156235E+02  0.13236837901E+03  0.15758118274E+03  0.00000000000E+00 0. -1.
        -11    1    4    4    0    0  0.19364857795E-01 -0.36094536648E+02  0.12040287887E+02  0.38049763248E+02  0.00000000000E+00 0.  1.
         11    1    4    4    0    0  0.68341669108E+01  0.53070477530E+02  0.59244356977E+02  0.79831542991E+02  0.00000000000E+00 0. -1.
          1    1    1    2  501    0 -0.69385494590E+02  0.42423108202E+02  0.92123050473E+01  0.81847012977E+02  0.00000000000E+00 0. -1.
<scales pt_clust_5="13000.00000" pt_clust_6="13000.00000" pt_clust_7="13000.00000" pt_clust_8="13000.00000" pt_clust_9="13000.00000"></scales>
<clustering>
<clus scale="   80.433">  5  6 -1 -1</clus>
<clus scale="   92.083">  7  8 -1 -1</clus>
<clus scale="   81.327">  7  9 -1 -1</clus>
<clus scale="  117.932">  1  5  2 -1</clus>
<clus scale="  182.789">  2  5  1 -1</clus>
</clustering>
</event>
<event>
 9    2  0.3707658E-005  0.2778207E+03  0.7546771E-02  0.1131642E+00
          2   -1    0    0  502    0 -0.00000000000E+00  0.00000000000E+00  0.70792782167E+03  0.70792782167E+03  0.00000000000E+00 0. -1.
         21   -1    0    0  501  502  0.00000000000E+00 -0.00000000000E+00 -0.55275556803E+02  0.55275556803E+02  0.00000000000E+00 0. -1.
         24    2    1    2    0    0  0.28328680797E+02  0.77867847367E+02  0.23157055258E+03  0.25872925494E+03  0.80311834336E+02 0.  0.
         23    2    1    2    0    0 -0.79228432912E+02  0.46105757233E+02  0.28658697079E+03  0.31460818426E+03  0.91887607129E+02 0.  0.
        -11    1    3    3    0    0  0.20800389526E+02 -0.12684176738E+01  0.95815331332E+01  0.22936234761E+02  0.00000000000E+00 0.  1.
         12    1    3    3    0    0  0.75282912711E+01  0.79136265041E+02  0.22198901944E+03  0.23579302018E+03  0.00000000000E+00 0. -1.
        -11    1    4    4    0    0 -0.42257867063E+02 -0.16490102869E+02  0.17973234680E+03  0.18536819390E+03  0.00000000000E+00 0.  1.
         11    1    4    4    0    0 -0.36970565849E+02  0.62595860103E+02  0.10685462399E+03  0.12923999036E+03  0.00000000000E+00 0. -1.
          1    1    1    2  501    0  0.50899752115E+02 -0.12397360460E+03  0.13449474149E+03  0.18986593926E+03  0.00000000000E+00 0. -1.
<scales pt_clust_5="13000.00000" pt_clust_6="13000.00000" pt_clust_7="13000.00000" pt_clust_8="13000.00000" pt_clust_9="13000.00000"></scales>
<clustering>
<clus scale="   80.312">  5  6 -1 -1</clus>
<clus scale="   91.888">  7  8 -1 -1</clus>
<clus scale="  115.395">  1  5  2 -1</clus>
<clus scale="  114.228">  7  9 -1 -1</clus>
<clus scale="  277.821">  2  5  1 -1</clus>
</clustering>
</event>
<event>
 9    2  0.3707658E-005  0.2816344E+03  0.7546771E-02  0.1139510E+00
         21   -1    0    0  501  502  0.00000000000E+00  0.00000000000E+00  0.38369184599E+03  0.38369184599E+03  0.00000000000E+00 0. -1.
          2   -1    0    0  502    0 -0.00000000000E+00 -0.00000000000E+00 -0.11108921685E+03  0.11108921685E+03  0.00000000000E+00 0. -1.
         24    2    1    2    0    0 -0.25539560659E+01  0.37707908551E+02 -0.14477492199E+02  0.92620741351E+02  0.83310232800E+02 0.  0.
         23    2    1    2    0    0  0.10426158980E+03  0.42569936429E+02  0.11180118001E+03  0.18418857463E+03  0.93505339836E+02 0.  0.
        -11    1    3    3    0    0 -0.23886186247E+02 -0.19227759609E+02 -0.57189923279E+01  0.31192362947E+02  0.00000000000E+00 0.  1.
         12    1    3    3    0    0  0.21332230181E+02  0.56935668160E+02 -0.87584998707E+01  0.61428378404E+02  0.00000000000E+00 0. -1.
        -11    1    4    4    0    0  0.21264949110E+02 -0.13325835337E+02 -0.95956773506E+01  0.26867321636E+02  0.00000000000E+00 0.  1.
         11    1    4    4    0    0  0.82996640686E+02  0.55895771766E+02  0.12139685736E+03  0.15732125299E+03  0.00000000000E+00 0. -1.
          1    1    1    2  501    0 -0.10170763373E+03 -0.80277844980E+02  0.17527894134E+03  0.21797174686E+03  0.00000000000E+00 0. -1.
<scales pt_clust_5="13000.00000" pt_clust_6="13000.00000" pt_clust_7="13000.00000" pt_clust_8="13000.00000" pt_clust_9="13000.00000"></scales>
<clustering>
<clus scale="   83.310">  5  6 -1 -1</clus>
<clus scale="   91.482">  2  5  1 -1</clus>
<clus scale="   93.505">  7  8 -1 -1</clus>
<clus scale="  122.198">  7  9 -1 -1</clus>
<clus scale="  281.634">  1  5  2 -1</clus>
</clustering>
</event>
<event>
 9    2  0.3707658E-005  0.2133688E+03  0.7546771E-02  0.1162443E+00
          2   -1    0    0  502    0 -0.00000000000E+00  0.00000000000E+00  0.10858367759E+04  0.10858367759E+04  0.00000000000E+00 0. -1.
         21   -1    0    0  501  502  0.00000000000E+00 -0.00000000000E+00 -0.26113491980E+02  0.26113491980E+02  0.00000000000E+00 0. -1.
         24    2    1    2    0    0  0.74095669033E+02 -0.18109520718E+02  0.34350069270E+03  0.36462100680E+03  0.95590950413E+02 0.  0.
         23    2    1    2    0    0  0.11273957315E+02  0.43490894714E+02  0.20446303025E+03  0.22787759298E+03  0.90025033234E+02 0.  0.
        -13    1    3    3    0    0  0.15966288018E+02 -0.49194833628E+02  0.10309171498E+03  0.11533843985E+03  0.00000000000E+00 0.  1.
         14    1    3    3    0    0  0.58129381016E+02  0.31085312910E+02  0.24040897772E+03  0.24928256695E+03  0.00000000000E+00 0. -1.
        -11    1    4    4    0    0 -0.36187788871E+02  0.37168704757E+02  0.12108335657E+03  0.13172793141E+03  0.00000000000E+00 0.  1.
         11    1    4    4    0    0  0.47461746186E+02  0.63221899575E+01  0.83379673681E+02  0.96149661570E+02  0.00000000000E+00 0. -1.
          1    1    1    2  501    0 -0.85369626348E+02 -0.25381373997E+02  0.51175956098E+03  0.51945166811E+03  0.00000000000E+00 0. -1.
<scales pt_clust_5="13000.00000" pt_clust_6="13000.00000" pt_clust_7="13000.00000" pt_clust_8="13000.00000" pt_clust_9="13000.00000"></scales>
<clustering>
<clus scale="   90.025">  7  8 -1 -1</clus>
<clus scale="   89.063">  7  9 -1 -1</clus>
<clus scale="   95.591">  5  6 -1 -1</clus>
<clus scale="  122.294">  1  5  2 -1</clus>
<clus scale="  213.369">  2  5  1 -1</clus>
</clustering>
</event>
<event>
 9    2  0.4639997E-005  0.2269422E+03  0.7546771E-02  0.1159699E+00
         21   -1    0    0  501  502  0.00000000000E+00  0.00000000000E+00  0.51680403719E+02  0.51680403719E+02  0.00000000000E+00 0. -1.
          4   -1    0    0  502    0 -0.00000000000E+00 -0.00000000000E+00 -0.67464995464E+03  0.67464995464E+03  0.00000000000E+00 0. -1.
         24    2    1    2    0    0 -0.27453031835E+02 -0.68820563585E+02 -0.37434811619E+03  0.38970684638E+03  0.79025154795E+02 0.  0.
         23    2    1    2    0    0 -0.37293086857E+02 -0.32014137756E+02 -0.14735638509E+03  0.17973403764E+03  0.90414272747E+02 0.  0.
        -11    1    3    3    0    0 -0.31389350120E+02 -0.27450713928E+01 -0.53392579668E+02  0.61996727990E+02  0.00000000000E+00 0.  1.
         12    1    3    3    0    0  0.39363182850E+01 -0.66075492192E+02 -0.32095553652E+03  0.32771011839E+03  0.00000000000E+00 0. -1.
        -11    1    4    4    0    0 -0.14479137448E+02  0.18866581720E+02 -0.11017672104E+03  0.11271425459E+03  0.00000000000E+00 0.  1.
         11    1    4    4    0    0 -0.22813949409E+02 -0.50880719476E+02 -0.37179664043E+02  0.67019783052E+02  0.00000000000E+00 0. -1.
          3    1    1    2  501    0  0.64746118692E+02  0.10083470134E+03 -0.10126504965E+03  0.15688947434E+03  0.00000000000E+00 0. -1.
<scales pt_clust_5="13000.00000" pt_clust_6="13000.00000" pt_clust_7="13000.00000" pt_clust_8="13000.00000" pt_clust_9="13000.00000"></scales>
<clustering>
<clus scale="   79.025">  5  6 -1 -1</clus>
<clus scale="   90.414">  7  8 -1 -1</clus>
<clus scale="  108.328">  2  5  1 -1</clus>
<clus scale="   87.964">  7  9 -1 -1</clus>
<clus scale="  226.942">  1  5  2 -1</clus>
</clustering>
</event>
<event>
 9    2  0.3707658E-005  0.1548732E+03  0.7546771E-02  0.1213832E+00
         21   -1    0    0  501  502  0.00000000000E+00  0.00000000000E+00  0.57050818724E+02  0.57050818724E+02  0.00000000000E+00 0. -1.
          2   -1    0    0  502    0 -0.00000000000E+00 -0.00000000000E+00 -0.34674838694E+03  0.34674838694E+03  0.00000000000E+00 0. -1.
         24    2    1    2    0    0  0.63380367121E+02  0.34249439917E+01 -0.39767112045E+02  0.10977380513E+03  0.80250008812E+02 0.  0.
         23    2    1    2    0    0 -0.85043753448E+02 -0.18717749086E+02 -0.21998392159E+03  0.25402581144E+03  0.92484555388E+02 0.  0.
        -13    1    3    3    0    0  0.40008750293E+02 -0.21819202639E+02 -0.55611310936E+02  0.71898509080E+02  0.00000000000E+00 0.  1.
         14    1    3    3    0    0  0.23371616828E+02  0.25244146631E+02  0.15844198891E+02  0.37875296049E+02  0.00000000000E+00 0. -1.
        -13    1    4    4    0    0 -0.75492128018E+02 -0.39157527315E+02 -0.97051314464E+02  0.12904003633E+03  0.00000000000E+00 0.  1.
         13    1    4    4    0    0 -0.95516254301E+01  0.20439778228E+02 -0.12293260713E+03  0.12498577510E+03  0.00000000000E+00 0. -1.
          1    1    1    2  501    0  0.21663386327E+02  0.15292805095E+02 -0.29946534579E+02  0.39999589099E+02  0.00000000000E+00 0. -1.
<scales pt_clust_5="13000.00000" pt_clust_6="13000.00000" pt_clust_7="13000.00000" pt_clust_8="13000.00000" pt_clust_9="13000.00000"></scales>
<clustering>
<clus scale="   80.250">  5  6 -1 -1</clus>
<clus scale="   92.485">  7  8 -1 -1</clus>
<clus scale="   26.517">  7  9 -1 -1</clus>
<clus scale="  102.318">  2  5  1 -1</clus>
<clus scale="  154.873">  1  5  2 -1</clus>
</clustering>
</event>
<event>
 9    2  0.3707658E-005  0.2542779E+03  0.7546771E-02  0.1148839E+00
         21   -1    0    0  501  502  0.00000000000E+00  0.00000000000E+00  0.47205619420E+02  0.47205619420E+02  0.00000000000E+00 0.  1.
          2   -1    0    0  502    0 -0.00000000000E+00 -0.00000000000E+00 -0.82315180037E+03  0.82315180037E+03  0.00000000000E+00 0. -1.
         24    2    1    2    0    0 -0.56822126171E+02 -0.20219448391E+02 -0.74470547960E+02  0.12421713997E+03  0.79034519246E+02 0.  0.
         23    2    1    2    0    0  0.27172881632E+02 -0.94828287051E+02 -0.32762053563E+03  0.35386143390E+03  0.90288036405E+02 0.  0.
        -11    1    3    3    0    0 -0.15174087940E+02  0.22979768940E+02  0.12943061378E+01  0.27568060391E+02  0.00000000000E+00 0.  1.
         12    1    3    3    0    0 -0.41648038231E+02 -0.43199217331E+02 -0.75764854098E+02  0.96649079577E+02  0.00000000000E+00 0. -1.
        -11    1    4    4    0    0 -0.26063318660E+02 -0.58672727128E+01 -0.39767728694E+02  0.47908180034E+02  0.00000000000E+00 0. -1.
         11    1    4    4    0    0  0.53236200292E+02 -0.88961014338E+02 -0.28785280693E+03  0.30595325387E+03  0.00000000000E+00 0.  1.
          1    1    1    2  501    0  0.29649244539E+02  0.11504773544E+03 -0.37385509736E+03  0.39227884592E+03  0.00000000000E+00 0. -1.
<scales pt_clust_5="13000.00000" pt_clust_6="13000.00000" pt_clust_7="13000.00000" pt_clust_8="13000.00000" pt_clust_9="13000.00000"></scales>
<clustering>
<clus scale="   79.035">  5  6 -1 -1</clus>
<clus scale="   90.288">  7  8 -1 -1</clus>
<clus scale="   99.419">  2  5  1 -1</clus>
<clus scale="  104.348">  7  9 -1 -1</clus>
<clus scale="  254.278">  1  5  2 -1</clus>
</clustering>
</event>
<event>
 9    2  0.3707658E-005  0.4304272E+03  0.7546771E-02  0.1070098E+00
         21   -1    0    0  501  502  0.00000000000E+00  0.00000000000E+00  0.47935107331E+02  0.47935107331E+02  0.00000000000E+00 0. -1.
          2   -1    0    0  502    0 -0.00000000000E+00 -0.00000000000E+00 -0.18098413127E+04  0.18098413127E+04  0.00000000000E+00 0. -1.
         24    2    1    2    0    0  0.10787867064E+03 -0.77846922931E+02 -0.35692378808E+03  0.38834008161E+03  0.75600777118E+02 0.  0.
         23    2    1    2    0    0  0.34365907097E+02 -0.24543787252E+02 -0.66301213482E+02  0.11933088222E+03  0.89780819106E+02 0.  0.
        -11    1    3    3    0    0  0.11967578779E+03 -0.68764835809E+02 -0.32617692738E+03  0.35417832342E+03  0.00000000000E+00 0.  1.
         12    1    3    3    0    0 -0.11797117156E+02 -0.90820871224E+01 -0.30746860702E+02  0.34161758191E+02  0.00000000000E+00 0. -1.
        -11    1    4    4    0    0  0.59044103248E+02 -0.38501314519E+02 -0.51881221334E+02  0.87522674063E+02  0.00000000000E+00 0. -1.
         11    1    4    4    0    0 -0.24678196151E+02  0.13957527267E+02 -0.14419992148E+02  0.31808208158E+02  0.00000000000E+00 0.  1.
          1    1    1    2  501    0 -0.14224457773E+03  0.10239071018E+03 -0.13386812038E+04  0.13501054562E+04  0.00000000000E+00 0. -1.
<scales pt_clust_5="13000.00000" pt_clust_6="13000.00000" pt_clust_7="13000.00000" pt_clust_8="13000.00000" pt_clust_9="13000.00000"></scales>
<clustering>
<clus scale="   75.601">  5  6 -1 -1</clus>
<clus scale="   89.781">  7  8 -1 -1</clus>
<clus scale="  153.015">  2  5  1 -1</clus>
<clus scale="   50.822">  7  9 -1 -1</clus>
<clus scale="  430.427">  1  5  2 -1</clus>
</clustering>
</event>
<event>
 9    2  0.3707658E-005  0.2698913E+03  0.7546771E-02  0.1112775E+00
         21   -1    0    0  501  502  0.00000000000E+00  0.00000000000E+00  0.97108083297E+02  0.97108083297E+02  0.00000000000E+00 0.  1.
          2   -1    0    0  502    0 -0.00000000000E+00 -0.00000000000E+00 -0.59318371073E+03  0.59318371073E+03  0.00000000000E+00 0. -1.
         24    2    1    2    0    0  0.17593086029E+03  0.48846194921E+02 -0.27816548719E+03  0.34341120421E+03  0.84956450917E+02 0.  0.
         23    2    1    2    0    0 -0.54503392878E+02  0.92940299575E+01 -0.21768393165E+02  0.10898039953E+03  0.91355709796E+02 0.  0.
        -11    1    3    3    0    0  0.11465453369E+03  0.61083940476E+02 -0.13577990544E+03  0.18791778149E+03  0.00000000000E+00 0.  1.
         12    1    3    3    0    0  0.61276326603E+02 -0.12237745556E+02 -0.14238558176E+03  0.15549342272E+03  0.00000000000E+00 0. -1.
        -13    1    4    4    0    0 -0.72988309884E+02 -0.13678223826E+02 -0.35992284285E+01  0.74346093590E+02  0.00000000000E+00 0.  1.
         13    1    4    4    0    0  0.18484917006E+02  0.22972253783E+02 -0.18169164736E+02  0.34634305938E+02  0.00000000000E+00 0. -1.
          1    1    1    2  501    0 -0.12142746742E+03 -0.58140224878E+02 -0.19614174708E+03  0.23790019029E+03  0.00000000000E+00 0. -1.
<scales pt_clust_5="13000.00000" pt_clust_6="13000.00000" pt_clust_7="13000.00000" pt_clust_8="13000.00000" pt_clust_9="13000.00000"></scales>
<clustering>
<clus scale="   84.956">  5  6 -1 -1</clus>
<clus scale="   91.356">  7  8 -1 -1</clus>
<clus scale="  134.629">  7  9 -1 -1</clus>
<clus scale="  201.383">  2  5  1 -1</clus>
<clus scale="  269.891">  1  5  2 -1</clus>
</clustering>
</event>
<event>
 9    2  0.3707658E-005  0.3875119E+03  0.7546771E-02  0.1102404E+00
         -1   -1    0    0    0  501 -0.00000000000E+00  0.00000000000E+00  0.98030281000E+03  0.98030281000E+03  0.00000000000E+00 0.  1.
         21   -1    0    0  501  502  0.00000000000E+00 -0.00000000000E+00 -0.84652040772E+02  0.84652040772E+02  0.00000000000E+00 0. -1.
         24    2    1    2    0    0  0.18734163278E+02  0.32362280423E+02 -0.38779394131E+00  0.88711737851E+02  0.80444614366E+02 0.  0.
         23    2    1    2    0    0 -0.84095792669E+02  0.14828628741E+03  0.50038634302E+03  0.53641732131E+03  0.91083066173E+02 0.  0.
        -13    1    3    3    0    0  0.40959951591E+02  0.43099881569E+02  0.12660508578E+02  0.60791495318E+02  0.00000000000E+00 0.  1.
         14    1    3    3    0    0 -0.22225788313E+02 -0.10737601145E+02 -0.13048302519E+02  0.27920242533E+02  0.00000000000E+00 0. -1.
        -11    1    4    4    0    0 -0.22184652123E+02  0.12470343185E+03  0.34395267925E+03  0.36653315030E+03  0.00000000000E+00 0.  1.
         11    1    4    4    0    0 -0.61911140546E+02  0.23582855560E+02  0.15643366377E+03  0.16988417101E+03  0.00000000000E+00 0. -1.
         -2    1    1    2    0  502  0.65361629390E+02 -0.18064856783E+03  0.39565222015E+03  0.43982579161E+03  0.00000000000E+00 0.  1.
<scales pt_clust_5="13000.00000" pt_clust_6="13000.00000" pt_clust_7="13000.00000" pt_clust_8="13000.00000" pt_clust_9="13000.00000"></scales>
<clustering>
<clus scale="   80.445">  5  6 -1 -1</clus>
<clus scale="   88.711">  1  5  2 -1</clus>
<clus scale="   91.083">  7  8 -1 -1</clus>
<clus scale="  181.823">  7  9 -1 -1</clus>
<clus scale="  387.512">  2  5  1 -1</clus>
</clustering>
</event>
<event>
 9    2  0.3707658E-005  0.1456720E+03  0.7546771E-02  0.1230204E+00
         21   -1    0    0  501  502  0.00000000000E+00  0.00000000000E+00  0.40595813417E+03  0.40595813417E+03  0.00000000000E+00 0.  1.
          2   -1    0    0  502    0 -0.00000000000E+00 -0.00000000000E+00 -0.40373774754E+02  0.40373774754E+02  0.00000000000E+00 0. -1.
         24    2    1    2    0    0  0.18323879956E+01 -0.33708577072E+02  0.54698029087E+02  0.10300898704E+03  0.80494417264E+02 0.  0.
         23    2    1    2    0    0  0.25656358715E+02  0.45002602422E+02  0.17318911693E+03  0.20245522232E+03  0.91160100115E+02 0.  0.
        -13    1    3    3    0    0 -0.49249542136E+01  0.23242746655E+02  0.35133752580E+02  0.42412981697E+02  0.00000000000E+00 0.  1.
         14    1    3    3    0    0  0.67573422092E+01 -0.56951323728E+02  0.19564276507E+02  0.60596005341E+02  0.00000000000E+00 0. -1.
        -13    1    4    4    0    0  0.58956926129E+02  0.17285706628E+02  0.10557280782E+03  0.12214881310E+03  0.00000000000E+00 0.  1.
         13    1    4    4    0    0 -0.33300567414E+02  0.27716895795E+02  0.67616309114E+02  0.80306409214E+02  0.00000000000E+00 0. -1.
          1    1    1    2  501    0 -0.27488746710E+02 -0.11294025350E+02  0.13769721340E+03  0.14086769957E+03  0.00000000000E+00 0. -1.
<scales pt_clust_5="13000.00000" pt_clust_6="13000.00000" pt_clust_7="13000.00000" pt_clust_8="13000.00000" pt_clust_9="13000.00000"></scales>
<clustering>
<clus scale="   80.494">  5  6 -1 -1</clus>
<clus scale="   87.287">  2  5  1 -1</clus>
<clus scale="   91.160">  7  8 -1 -1</clus>
<clus scale="   30.962">  7  9 -1 -1</clus>
<clus scale="  145.672">  1  5  2 -1</clus>
</clustering>
</event>
<event>
 9    2  0.3707658E-005  0.2064905E+03  0.7546771E-02  0.1164060E+00
         21   -1    0    0  501  502  0.00000000000E+00  0.00000000000E+00  0.38133576577E+02  0.38133576577E+02  0.00000000000E+00 0. -1.
          2   -1    0    0  502    0 -0.00000000000E+00 -0.00000000000E+00 -0.85497608180E+03  0.85497608180E+03  0.00000000000E+00 0. -1.
         24    2    1    2    0    0 -0.38362501644E+02  0.95549453010E+02 -0.48631668784E+03  0.50338454730E+03  0.79313946298E+02 0.  0.
         23    2    1    2    0    0  0.82851969173E+02 -0.30988852307E+02 -0.20532768258E+03  0.24200254395E+03  0.92633775047E+02 0.  0.
        -11    1    3    3    0    0 -0.34706611297E+02  0.91028768040E+00 -0.11103357653E+03  0.11633500165E+03  0.00000000000E+00 0.  1.
         12    1    3    3    0    0 -0.36558903474E+01  0.94639165330E+02 -0.37528311132E+03  0.38704954565E+03  0.00000000000E+00 0. -1.
        -11    1    4    4    0    0  0.88181025988E+02 -0.54605799375E+02 -0.16164889989E+03  0.19206262913E+03  0.00000000000E+00 0.  1.
         11    1    4    4    0    0 -0.53290568151E+01  0.23616947068E+02 -0.43678782690E+02  0.49939914823E+02  0.00000000000E+00 0. -1.
          1    1    1    2  501    0 -0.44489467529E+02 -0.64560600703E+02 -0.12519813480E+03  0.14772256714E+03  0.00000000000E+00 0. -1.
<scales pt_clust_5="13000.00000" pt_clust_6="13000.00000" pt_clust_7="13000.00000" pt_clust_8="13000.00000" pt_clust_9="13000.00000"></scales>
<clustering>
<clus scale="   79.314">  5  6 -1 -1</clus>
<clus scale="   92.634">  7  8 -1 -1</clus>
<clus scale="   78.405">  7  9 -1 -1</clus>
<clus scale="  129.970">  2  5  1 -1</clus>
<clus scale="  206.491">  1  5  2 -1</clus>
</clustering>
</event>
<event>
 9    2  0.3707658E-005  0.2688748E+03  0.7546771E-02  0.1132943E+00
         21   -1    0    0  501  502  0.00000000000E+00  0.00000000000E+00  0.12092770645E+03  0.12092770645E+03  0.00000000000E+00 0.  1.
          2   -1    0    0  502    0 -0.00000000000E+00 -0.00000000000E+00 -0.31874609995E+03  0.31874609995E+03  0.00000000000E+00 0. -1.
         24    2    1    2    0    0  0.93621223062E+02 -0.11371748816E+02 -0.52284666384E+02  0.13393904931E+03  0.79446412836E+02 0.  0.
         23    2    1    2    0    0 -0.80817063205E+01  0.21172540927E+02 -0.18826497058E+03  0.20961491721E+03  0.89337136188E+02 0.  0.
        -13    1    3    3    0    0  0.26006284291E+02  0.31747351546E+02 -0.63682378568E+01  0.41530417843E+02  0.00000000000E+00 0.  1.
         14    1    3    3    0    0  0.67614938770E+02 -0.43119100362E+02 -0.45916428528E+02  0.92408631467E+02  0.00000000000E+00 0. -1.
        -13    1    4    4    0    0 -0.13062642179E+02 -0.33025659475E+02 -0.97687133443E+02  0.10394278640E+03  0.00000000000E+00 0. -1.
         13    1    4    4    0    0  0.49809358585E+01  0.54198200402E+02 -0.90577837135E+02  0.10567213081E+03  0.00000000000E+00 0.  1.
          1    1    1    2  501    0 -0.85539516741E+02 -0.98007921109E+01  0.42731243471E+02  0.96119839882E+02  0.00000000000E+00 0. -1.
<scales pt_clust_5="13000.00000" pt_clust_6="13000.00000" pt_clust_7="13000.00000" pt_clust_8="13000.00000" pt_clust_9="13000.00000"></scales>
<clustering>
<clus scale="   79.446">  5  6 -1 -1</clus>
<clus scale="   89.337">  7  8 -1 -1</clus>
<clus scale="   86.099">  7  9 -1 -1</clus>
<clus scale="  123.313">  2  5  1 -1</clus>
<clus scale="  268.875">  1  5  2 -1</clus>
</clustering>
</event>
<event>
 9    2  0.3707658E-005  0.1504680E+03  0.7546771E-02  0.1208871E+00
         21   -1    0    0  501  502  0.00000000000E+00  0.00000000000E+00  0.14745367199E+03  0.14745367199E+03  0.00000000000E+00 0. -1.
          2   -1    0    0  502    0 -0.00000000000E+00 -0.00000000000E+00 -0.22348869346E+03  0.22348869346E+03  0.00000000000E+00 0. -1.
         24    2    1    2    0    0  0.78548373441E+02  0.44184358984E+02  0.85161065608E+02  0.15043204443E+03  0.85177980411E+02 0.  0.
         23    2    1    2    0    0 -0.32964040917E+02 -0.29237901223E+02 -0.13036141258E+03  0.16348308961E+03  0.88267433617E+02 0.  0.
        -11    1    3    3    0    0  0.34735114075E+02  0.55968895737E+02  0.16115961273E+02  0.67814228947E+02  0.00000000000E+00 0.  1.
         12    1    3    3    0    0  0.43813259365E+02 -0.11784536753E+02  0.69045104334E+02  0.82617815483E+02  0.00000000000E+00 0. -1.
        -13    1    4    4    0    0 -0.47682013826E+02  0.15791559652E+02 -0.55150117786E+02  0.74595464276E+02  0.00000000000E+00 0.  1.
         13    1    4    4    0    0  0.14717972908E+02 -0.45029460874E+02 -0.75211294791E+02  0.88887625333E+02  0.00000000000E+00 0. -1.
          1    1    1    2  501    0 -0.45584332523E+02 -0.14946457762E+02 -0.30834674497E+02  0.57027231412E+02  0.00000000000E+00 0. -1.
<scales pt_clust_5="13000.00000" pt_clust_6="13000.00000" pt_clust_7="13000.00000" pt_clust_8="13000.00000" pt_clust_9="13000.00000"></scales>
<clustering>
<clus scale="   85.178">  5  6 -1 -1</clus>
<clus scale="   88.267">  7  8 -1 -1</clus>
<clus scale="   47.972">  7  9 -1 -1</clus>
<clus scale="  124.006">  2  5  1 -1</clus>
<clus scale="  150.468">  1  5  2 -1</clus>
</clustering>
</event>
<event>
 9    2  0.3707658E-005  0.1633125E+03  0.7546771E-02  0.1205738E+00
          2   -1    0    0  502    0 -0.00000000000E+00  0.00000000000E+00  0.16228801580E+03  0.16228801580E+03  0.00000000000E+00 0. -1.
         21   -1    0    0  501  502  0.00000000000E+00 -0.00000000000E+00 -0.12272809670E+03  0.12272809670E+03  0.00000000000E+00 0.  1.
         24    2    1    2    0    0 -0.34591877684E+02 -0.55404437116E+02 -0.29285944064E+02  0.10778542469E+03  0.80584003384E+02 0.  0.
         23    2    1    2    0    0  0.33138800913E+01  0.67010449855E+02  0.16449952631E+02  0.11511511726E+03  0.92084239089E+02 0.  0.
        -13    1    3    3    0    0 -0.28715377627E+02 -0.62225598391E+02 -0.50243005443E+02  0.84976217869E+02  0.00000000000E+00 0.  1.
         14    1    3    3    0    0 -0.58765000570E+01  0.68211612749E+01  0.20957061378E+02  0.22809206818E+02  0.00000000000E+00 0. -1.
        -11    1    4    4    0    0  0.44570517281E+02  0.14125431708E+02  0.43367585352E+01  0.46956003943E+02  0.00000000000E+00 0.  1.
         11    1    4    4    0    0 -0.41256637190E+02  0.52885018147E+02  0.12113194096E+02  0.68159113314E+02  0.00000000000E+00 0. -1.
          1    1    1    2  501    0  0.31277997593E+02 -0.11606012740E+02  0.52395910527E+02  0.62115570553E+02  0.00000000000E+00 0. -1.
<scales pt_clust_5="13000.00000" pt_clust_6="13000.00000" pt_clust_7="13000.00000" pt_clust_8="13000.00000" pt_clust_9="13000.00000"></scales>
<clustering>
<clus scale="   80.584">  5  6 -1 -1</clus>
<clus scale="   92.084">  7  8 -1 -1</clus>
<clus scale="   33.362">  7  9 -1 -1</clus>
<clus scale="  103.731">  1  5  2 -1</clus>
<clus scale="  163.312">  2  5  1 -1</clus>
</clustering>
</event>
<event>
 9    2  0.3707658E-005  0.2189010E+03  0.7546771E-02  0.1173623E+00
         -1   -1    0    0    0  501 -0.00000000000E+00  0.00000000000E+00  0.22459326842E+03  0.22459326842E+03  0.00000000000E+00 0.  1.
         21   -1    0    0  501  502  0.00000000000E+00 -0.00000000000E+00 -0.11492106841E+03  0.11492106841E+03  0.00000000000E+00 0.  1.
         24    2    1    2    0    0  0.14139319547E+02 -0.35616945555E+02 -0.13005736459E+02  0.88580990850E+02  0.78796926280E+02 0.  0.
         23    2    1    2    0    0 -0.61664327712E+02  0.59737489767E+02  0.14628650603E+03  0.19264276688E+03  0.91325991860E+02 0.  0.
        -13    1    3    3    0    0 -0.31278103239E+02 -0.59588282046E+01 -0.12854118435E+02  0.34337381038E+02  0.00000000000E+00 0.  1.
         14    1    3    3    0    0  0.45417422787E+02 -0.29658117350E+02 -0.15161802412E+00  0.54243609811E+02  0.00000000000E+00 0. -1.
        -11    1    4    4    0    0 -0.26472981573E+02  0.73366807458E+02  0.59805820439E+02  0.98286536963E+02  0.00000000000E+00 0. -1.
         11    1    4    4    0    0 -0.35191346139E+02 -0.13629317690E+02  0.86480685595E+02  0.94356229921E+02  0.00000000000E+00 0.  1.
         -2    1    1    2    0  502  0.47525008165E+02 -0.24120544213E+02 -0.23608569570E+02  0.58290579095E+02  0.00000000000E+00 0.  1.
<scales pt_clust_5="13000.00000" pt_clust_6="13000.00000" pt_clust_7="13000.00000" pt_clust_8="13000.00000" pt_clust_9="13000.00000"></scales>
<clustering>
<clus scale="   78.797">  5  6 -1 -1</clus>
<clus scale="   87.621">  1  5  2 -1</clus>
<clus scale="   91.326">  7  8 -1 -1</clus>
<clus scale="   56.012">  7  9 -1 -1</clus>
<clus scale="  218.901">  2  5  1 -1</clus>
</clustering>
</event>
<event>
 9    2  0.3707658E-005  0.3174628E+03  0.7546771E-02  0.1102943E+00
         21   -1    0    0  501  502  0.00000000000E+00  0.00000000000E+00  0.85830154464E+03  0.85830154464E+03  0.00000000000E+00 0. -1.
          4   -1    0    0  502    0 -0.00000000000E+00 -0.00000000000E+00 -0.21171907099E+03  0.21171907099E+03  0.00000000000E+00 0. -1.
         24    2    1    2    0    0  0.13615355029E+03  0.15023109557E+02 -0.14617298999E+03  0.21606284077E+03  0.80951374794E+02 0.  0.
         23    2    1    2    0    0 -0.33400246610E+02 -0.10590574883E+03  0.60366864875E+03  0.62035186932E+03  0.89938869085E+02 0.  0.
        -11    1    3    3    0    0  0.83580887071E+02  0.41727790479E+02 -0.57898814693E+02  0.10990562281E+03  0.00000000000E+00 0.  1.
         12    1    3    3    0    0  0.52572663221E+02 -0.26704680922E+02 -0.88274175294E+02  0.10615721796E+03  0.00000000000E+00 0. -1.
        -11    1    4    4    0    0  0.20212106884E+02 -0.12231503716E+02  0.40106474568E+02  0.46547483822E+02  0.00000000000E+00 0.  1.
         11    1    4    4    0    0 -0.53612353494E+02 -0.93674245113E+02  0.56356217418E+03  0.57380438550E+03  0.00000000000E+00 0. -1.
          3    1    1    2  501    0 -0.10275330368E+03  0.90882639272E+02  0.18908681489E+03  0.23360590554E+03  0.00000000000E+00 0. -1.
<scales pt_clust_5="13000.00000" pt_clust_6="13000.00000" pt_clust_7="13000.00000" pt_clust_8="13000.00000" pt_clust_9="13000.00000"></scales>
<clustering>
<clus scale="   80.951">  5  6 -1 -1</clus>
<clus scale="   89.939">  7  8 -1 -1</clus>
<clus scale="  137.178">  7  9 -1 -1</clus>
<clus scale="  159.112">  2  5  1 -1</clus>
<clus scale="  317.463">  1  5  2 -1</clus>
</clustering>
</event>
<event>
 9    2  0.3707658E-005  0.1458576E+03  0.7546771E-02  0.1231133E+00
         21   -1    0    0  501  502  0.00000000000E+00  0.00000000000E+00  0.27185510734E+02  0.27185510734E+02  0.00000000000E+00 0. -1.
          4   -1    0    0  502    0 -0.00000000000E+00 -0.00000000000E+00 -0.75629718696E+03  0.75629718696E+03  0.00000000000E+00 0. -1.
         24    2    1    2    0    0 -0.28544529225E+02  0.42856103470E+01 -0.52912206093E+03  0.53595433362E+03  0.80272883080E+02 0.  0.
         23    2    1    2    0    0  0.41940297418E+02  0.28555677550E+02 -0.10017234394E+03  0.14159685575E+03  0.86259815664E+02 0.  0.
        -11    1    3    3    0    0 -0.21315622235E+02 -0.35569165869E+02 -0.19326261719E+03  0.19766122663E+03  0.00000000000E+00 0.  1.
         12    1    3    3    0    0 -0.72289069899E+01  0.39854776216E+02 -0.33585944374E+03  0.33829310699E+03  0.00000000000E+00 0. -1.
        -11    1    4    4    0    0 -0.85720187481E+01  0.19582825546E+02  0.72334191419E+01  0.22567430387E+02  0.00000000000E+00 0. -1.
         11    1    4    4    0    0  0.50512316166E+02  0.89728520036E+01 -0.10740576308E+03  0.11902942536E+03  0.00000000000E+00 0.  1.
          3    1    1    2  501    0 -0.13395768193E+02 -0.32841287897E+02 -0.99817271355E+02  0.10593150833E+03  0.00000000000E+00 0. -1.
<scales pt_clust_5="13000.00000" pt_clust_6="13000.00000" pt_clust_7="13000.00000" pt_clust_8="13000.00000" pt_clust_9="13000.00000"></scales>
<clustering>
<clus scale="   80.273">  5  6 -1 -1</clus>
<clus scale="   85.305">  2  5  1 -1</clus>
<clus scale="   86.260">  7  8 -1 -1</clus>
<clus scale="   40.698">  7  9 -1 -1</clus>
<clus scale="  145.858">  1  5  2 -1</clus>
</clustering>
</event>
<event>
 9    2  0.3707658E-005  0.2975534E+03  0.7546771E-02  0.1130214E+00
         21   -1    0    0  501  502  0.00000000000E+00  0.00000000000E+00  0.10661508903E+03  0.10661508903E+03  0.00000000000E+00 0. -1.
          2   -1    0    0  502    0 -0.00000000000E+00 -0.00000000000E+00 -0.40449843831E+03  0.40449843831E+03  0.00000000000E+00 0. -1.
         24    2    1    2    0    0  0.45498075123E+02 -0.28782560028E+02 -0.15015066478E+03  0.17890426150E+03  0.81012357383E+02 0.  0.
         23    2    1    2    0    0 -0.14833925941E+03 -0.17823768820E+02 -0.49225653350E+02  0.18236903672E+03  0.92266342664E+02 0.  0.
        -11    1    3    3    0    0 -0.35289959423E+01  0.23850865791E+02 -0.50981017395E+02  0.56394873402E+02  0.00000000000E+00 0.  1.
         12    1    3    3    0    0  0.49027071066E+02 -0.52633425819E+02 -0.99169647385E+02  0.12250938810E+03  0.00000000000E+00 0. -1.
        -13    1    4    4    0    0 -0.96492370484E+02  0.28412760239E+02 -0.51205735074E+02  0.11287200632E+03  0.00000000000E+00 0.  1.
         13    1    4    4    0    0 -0.51846888930E+02 -0.46236529059E+02  0.19800817232E+01  0.69497030403E+02  0.00000000000E+00 0. -1.
          1    1    1    2  501    0  0.10284118429E+03  0.46606328848E+02 -0.98507031147E+02  0.14984022911E+03  0.00000000000E+00 0. -1.
<scales pt_clust_5="13000.00000" pt_clust_6="13000.00000" pt_clust_7="13000.00000" pt_clust_8="13000.00000" pt_clust_9="13000.00000"></scales>
<clustering>
<clus scale="   81.012">  5  6 -1 -1</clus>
<clus scale="   92.266">  7  8 -1 -1</clus>
<clus scale="   97.270">  2  5  1 -1</clus>
<clus scale="  130.302">  7  9 -1 -1</clus>
<clus scale="  297.553">  1  5  2 -1</clus>
</clustering>
</event>
<event>
 9    2  0.3707658E-005  0.2714707E+03  0.7546771E-02  0.1129049E+00
         21   -1    0    0  501  502  0.00000000000E+00  0.00000000000E+00  0.11448981912E+04  0.11448981912E+04  0.00000000000E+00 0. -1.
         -1   -1    0    0    0  501 -0.00000000000E+00 -0.00000000000E+00 -0.40898145407E+02  0.40898145407E+02  0.00000000000E+00 0.  1.
         24    2    1    2    0    0 -0.47383035482E+02  0.92639671055E+02  0.58963860952E+03  0.60419165553E+03  0.80911099788E+02 0.  0.
         23    2    1    2    0    0  0.90948746974E+02 -0.51514065747E+02  0.50146793727E+03  0.52032231052E+03  0.91322730828E+02 0.  0.
        -11    1    3    3    0    0 -0.44541104605E+02  0.46767365991E+02  0.16686895835E+03  0.17893112021E+03  0.00000000000E+00 0.  1.
         12    1    3    3    0    0 -0.28419308767E+01  0.45872305064E+02  0.42276965117E+03  0.42526053531E+03  0.00000000000E+00 0. -1.
        -13    1    4    4    0    0  0.39043283956E+02 -0.64945199898E+02  0.19512056996E+03  0.20931864187E+03  0.00000000000E+00 0.  1.
         13    1    4    4    0    0  0.51905463018E+02  0.13431134151E+02  0.30634736731E+03  0.31100366865E+03  0.00000000000E+00 0. -1.
         -2    1    1    2    0  502 -0.43565711492E+02 -0.41125605308E+02  0.12893499051E+02  0.61282370610E+02  0.00000000000E+00 0.  1.
<scales pt_clust_5="13000.00000" pt_clust_6="13000.00000" pt_clust_7="13000.00000" pt_clust_8="13000.00000" pt_clust_9="13000.00000"></scales>
<clustering>
<clus scale="   80.911">  5  6 -1 -1</clus>
<clus scale="   91.323">  7  8 -1 -1</clus>
<clus scale="   59.911">  7  9 -1 -1</clus>
<clus scale="  131.810">  2  5  1 -1</clus>
<clus scale="  271.471">  1  5  2 -1</clus>
</clustering>
</event>
<event>
 9    2  0.3877534E-005  0.2617621E+03  0.7546771E-02  0.1144111E+00
          2   -1    0    0  502    0 -0.00000000000E+00  0.00000000000E+00  0.86594192217E+03  0.86594192217E+03  0.00000000000E+00 0. -1.
         21   -1    0    0  501  502  0.00000000000E+00 -0.00000000000E+00 -0.15428049031E+03  0.15428049031E+03  0.00000000000E+00 0. -1.
         24    2    1    2    0    0  0.26452518310E+02 -0.76426808077E+02  0.74890851804E+03  0.75582356870E+03  0.62165150077E+02 0.  0.
         23    2    1    2    0    0  0.63090099965E+02 -0.14284381692E+02  0.36035255749E+02  0.11737264858E+03  0.91068077300E+02 0.  0.
        -13    1    3    3    0    0  0.21207455027E+02 -0.31041242506E+01  0.77710567481E+02  0.80612182915E+02  0.00000000000E+00 0.  1.
         14    1    3    3    0    0  0.52450632833E+01 -0.73322683827E+02  0.67119795056E+03  0.67521138578E+03  0.00000000000E+00 0. -1.
        -11    1    4    4    0    0 -0.22307970100E+01 -0.21137896581E+02  0.46253044771E+02  0.50903155872E+02  0.00000000000E+00 0.  1.
         11    1    4    4    0    0  0.65320896975E+02  0.68535148891E+01 -0.10217789022E+02  0.66469492705E+02  0.00000000000E+00 0. -1.
          1    1    1    2  501    0 -0.89542618275E+02  0.90711189769E+02 -0.73282341929E+02  0.14702619520E+03  0.00000000000E+00 0. -1.
<scales pt_clust_5="13000.00000" pt_clust_6="13000.00000" pt_clust_7="13000.00000" pt_clust_8="13000.00000" pt_clust_9="13000.00000"></scales>
<clustering>
<clus scale="   62.165">  5  6 -1 -1</clus>
<clus scale="   91.068">  7  8 -1 -1</clus>
<clus scale="  102.006">  1  5  2 -1</clus>
<clus scale="  104.386">  7  9 -1 -1</clus>
<clus scale="  261.762">  2  5  1 -1</clus>
</clustering>
</event>
<event>
 9    2  0.3707658E-005  0.2169258E+03  0.7546771E-02  0.1158764E+00
          2   -1    0    0  502    0 -0.00000000000E+00  0.00000000000E+00  0.47915709085E+03  0.47915709085E+03  0.00000000000E+00 0. -1.
         21   -1    0    0  501  502  0.00000000000E+00 -0.00000000000E+00 -0.65987011199E+02  0.65987011199E+02  0.00000000000E+00 0. -1.
         24    2    1    2    0    0  0.91752243471E+02  0.32948945256E+02  0.22370730565E+03  0.25712859683E+03  0.81031163965E+02 0.  0.
         23    2    1    2    0    0 -0.36857888514E+02 -0.39581618600E+02  0.16813721709E+02  0.10672822541E+03  0.90459960119E+02 0.  0.
        -13    1    3    3    0    0  0.26181415672E+02 -0.26808199971E+01  0.60100843567E+01  0.26995822574E+02  0.00000000000E+00 0.  1.
         14    1    3    3    0    0  0.65570827798E+02  0.35629765253E+02  0.21769722129E+03  0.23013277426E+03  0.00000000000E+00 0. -1.
        -13    1    4    4    0    0 -0.65912545953E+02 -0.22369751693E+02  0.14315045470E+01  0.69619815499E+02  0.00000000000E+00 0. -1.
         13    1    4    4    0    0  0.29054657439E+02 -0.17211866907E+02  0.15382217162E+02  0.37108409911E+02  0.00000000000E+00 0.  1.
          1    1    1    2  501    0 -0.54894354956E+02  0.66326733439E+01  0.17264905230E+03  0.18128727981E+03  0.00000000000E+00 0. -1.
<scales pt_clust_5="13000.00000" pt_clust_6="13000.00000" pt_clust_7="13000.00000" pt_clust_8="13000.00000" pt_clust_9="13000.00000"></scales>
<clustering>
<clus scale="   81.031">  5  6 -1 -1</clus>
<clus scale="   90.460">  7  8 -1 -1</clus>
<clus scale="   55.294">  7  9 -1 -1</clus>
<clus scale="  126.768">  1  5  2 -1</clus>
<clus scale="  216.926">  2  5  1 -1</clus>
</clustering>
</event>
<event>
 9    2  0.3707658E-005  0.2424931E+03  0.7546771E-02  0.1158998E+00
          2   -1    0    0  502    0 -0.00000000000E+00  0.00000000000E+00  0.23486869773E+03  0.23486869773E+03  0.00000000000E+00 0. -1.
         21   -1    0    0  501  502  0.00000000000E+00 -0.00000000000E+00 -0.11843526954E+03  0.11843526954E+03  0.00000000000E+00 0. -1.
         24    2    1    2    0    0 -0.36115013761E+02 -0.77310711120E+01  0.42707773895E+02  0.99851029922E+02  0.82354177465E+02 0.  0.
         23    2    1    2    0    0  0.13779538033E+02 -0.10363955077E+02 -0.43064734172E+02  0.13317701172E+03  0.12483692518E+03 0.  0.
        -11    1    3    3    0    0  0.22321702955E+02 -0.72020548500E+01  0.33191166688E+02  0.40642115631E+02  0.00000000000E+00 0.  1.
         12    1    3    3    0    0 -0.58436716716E+02 -0.52901626198E+00  0.95166072078E+01  0.59208914291E+02  0.00000000000E+00 0. -1.
        -13    1    4    4    0    0 -0.35820677056E+02 -0.79835320075E+00  0.28359599193E+02  0.45694913710E+02  0.00000000000E+00 0.  1.
         13    1    4    4    0    0  0.49600215090E+02 -0.95656018759E+01 -0.71424333365E+02  0.87482098013E+02  0.00000000000E+00 0. -1.
          1    1    1    2  501    0  0.22335475727E+02  0.18095026189E+02  0.11679038846E+03  0.12027592563E+03  0.00000000000E+00 0. -1.
<scales pt_clust_5="13000.00000" pt_clust_6="13000.00000" pt_clust_7="13000.00000" pt_clust_8="13000.00000" pt_clust_9="13000.00000"></scales>
<clustering>
<clus scale="   82.354">  5  6 -1 -1</clus>
<clus scale="   90.257">  1  5  2 -1</clus>
<clus scale="  124.837">  7  8 -1 -1</clus>
<clus scale="   13.068">  7  9 -1 -1</clus>
<clus scale="  242.493">  2  5  1 -1</clus>
</clustering>
</event>
<event>
 9    2  0.3707658E-005  0.2760309E+03  0.7546771E-02  0.1147302E+00
          2   -1    0    0  502    0 -0.00000000000E+00  0.00000000000E+00  0.22042568277E+03  0.22042568277E+03  0.00000000000E+00 0. -1.
         21   -1    0    0  501  502  0.00000000000E+00 -0.00000000000E+00 -0.14591429805E+03  0.14591429805E+03  0.00000000000E+00 0. -1.
         24    2    1    2    0    0  0.16587840480E+02 -0.13144943638E+02  0.70631387387E+00  0.80612359661E+02  0.77781152317E+02 0.  0.
         23    2    1    2    0    0  0.82635504248E+01  0.22219224994E+02 -0.83309424871E+02  0.12640122983E+03  0.92058842076E+02 0.  0.
        -13    1    3    3    0    0  0.47154168449E+02  0.17517115677E+00  0.25081972089E+01  0.47221153525E+02  0.00000000000E+00 0.  1.
         14    1    3    3    0    0 -0.30566327969E+02 -0.13320114795E+02 -0.18018833350E+01  0.33391206136E+02  0.00000000000E+00 0. -1.
        -11    1    4    4    0    0  0.33954333473E+02  0.41244445650E+02 -0.77156260527E+02  0.93846095268E+02  0.00000000000E+00 0. -1.
         11    1    4    4    0    0 -0.25690783048E+02 -0.19025220656E+02 -0.61531643440E+01  0.32555134558E+02  0.00000000000E+00 0.  1.
          1    1    1    2  501    0 -0.24851390905E+02 -0.90742813561E+01  0.15711449571E+03  0.15932639133E+03  0.00000000000E+00 0. -1.
<scales pt_clust_5="13000.00000" pt_clust_6="13000.00000" pt_clust_7="13000.00000" pt_clust_8="13000.00000" pt_clust_9="13000.00000"></scales>
<clustering>
<clus scale="   77.781">  5  6 -1 -1</clus>
<clus scale="   80.609">  1  5  2 -1</clus>
<clus scale="   92.059">  7  8 -1 -1</clus>
<clus scale="   23.049">  7  9 -1 -1</clus>
<clus scale="  276.031">  2  5  1 -1</clus>
</clustering>
</event>
<event>
 9    2  0.3707658E-005  0.5750817E+03  0.7546771E-02  0.1044868E+00
          2   -1    0    0  502    0 -0.00000000000E+00  0.00000000000E+00  0.24861735377E+04  0.24861735377E+04  0.00000000000E+00 0. -1.
         21   -1    0    0  501  502  0.00000000000E+00 -0.00000000000E+00 -0.12717249905E+03  0.12717249905E+03  0.00000000000E+00 0. -1.
         24    2    1    2    0    0  0.95506454580E+02 -0.38576220334E+02  0.18215568517E+04  0.18262213867E+04  0.80034878625E+02 0.  0.
         23    2    1    2    0    0 -0.82100219684E+02 -0.49820566739E+02 -0.86504638494E+02  0.15680262447E+03  0.88777675222E+02 0.  0.
        -13    1    3    3    0    0  0.21784976437E+02 -0.41379008805E+01  0.87823312610E+02  0.90579477034E+02  0.00000000000E+00 0.  1.
         14    1    3    3    0    0  0.73721478144E+02 -0.34438319454E+02  0.17337335390E+04  0.17356419097E+04  0.00000000000E+00 0. -1.
        -13    1    4    4    0    0 -0.10599312181E+02 -0.28882102871E+02  0.12234161536E+02  0.33108850682E+02  0.00000000000E+00 0.  1.
         13    1    4    4    0    0 -0.71500907503E+02 -0.20938463868E+02 -0.98738800031E+02  0.12369377379E+03  0.00000000000E+00 0. -1.
          1    1    1    2  501    0 -0.13406234897E+02  0.88396787073E+02  0.62394882549E+03  0.63032202558E+03  0.00000000000E+00 0. -1.
<scales pt_clust_5="13000.00000" pt_clust_6="13000.00000" pt_clust_7="13000.00000" pt_clust_8="13000.00000" pt_clust_9="13000.00000"></scales>
<clustering>
<clus scale="   80.035">  5  6 -1 -1</clus>
<clus scale="   88.778">  7  8 -1 -1</clus>
<clus scale="   89.408">  7  9 -1 -1</clus>
<clus scale="  130.442">  1  5  2 -1</clus>
<clus scale="  575.082">  2  5  1 -1</clus>
</clustering>
</event>
<event>
 9    2  0.3707658E-005  0.1420872E+03  0.7546771E-02  0.1237643E+00
         21   -1    0    0  501  502  0.00000000000E+00  0.00000000000E+00  0.12299331012E+03  0.12299331012E+03  0.00000000000E+00 0.  1.
          2   -1    0    0  502    0 -0.00000000000E+00 -0.00000000000E+00 -0.23792709965E+03  0.23792709965E+03  0.00000000000E+00 0. -1.
         24    2    1    2    0    0  0.22440022724E+02 -0.19397763326E+02 -0.18547182039E+03  0.20228757593E+03  0.75104190110E+02 0.  0.
         23    2    1    2    0    0  0.89532676634E+01  0.42280249911E+02  0.59156791302E+02  0.11815222753E+03  0.92696506836E+02 0.  0.
        -13    1    3    3    0    0  0.19670040219E+02  0.26204109050E+02 -0.10196969625E+03  0.10710455063E+03  0.00000000000E+00 0.  1.
         14    1    3    3    0    0  0.27699825048E+01 -0.45601872375E+02 -0.83502124144E+02  0.95183025293E+02  0.00000000000E+00 0. -1.
        -11    1    4    4    0    0 -0.40334925307E+02  0.20961242167E+02  0.12836642856E+02  0.47234090152E+02  0.00000000000E+00 0. -1.
         11    1    4    4    0    0  0.49288192970E+02  0.21319007744E+02  0.46320148447E+02  0.70918137381E+02  0.00000000000E+00 0.  1.
          1    1    1    2  501    0 -0.31393290387E+02 -0.22882486586E+02  0.11381239562E+02  0.40480606315E+02  0.00000000000E+00 0. -1.
<scales pt_clust_5="13000.00000" pt_clust_6="13000.00000" pt_clust_7="13000.00000" pt_clust_8="13000.00000" pt_clust_9="13000.00000"></scales>
<clustering>
<clus scale="   75.104">  5  6 -1 -1</clus>
<clus scale="   80.749">  2  5  1 -1</clus>
<clus scale="   92.697">  7  8 -1 -1</clus>
<clus scale="   37.855">  7  9 -1 -1</clus>
<clus scale="  142.087">  1  5  2 -1</clus>
</clustering>
</event>
<event>
 9    2  0.3707658E-005  0.3424327E+03  0.7546771E-02  0.1108308E+00
          2   -1    0    0  502    0 -0.00000000000E+00  0.00000000000E+00  0.93455706545E+03  0.93455706545E+03  0.00000000000E+00 0. -1.
         21   -1    0    0  501  502  0.00000000000E+00 -0.00000000000E+00 -0.54894370444E+02  0.54894370444E+02  0.00000000000E+00 0. -1.
         24    2    1    2    0    0 -0.75017937358E+02  0.13643844461E+02  0.22351661792E+03  0.24932455671E+03  0.79932538287E+02 0.  0.
         23    2    1    2    0    0  0.19472340134E+03  0.25068885714E+02  0.43195818500E+03  0.48305046147E+03  0.90577164212E+02 0.  0.
        -13    1    3    3    0    0 -0.33930254430E+01 -0.24410995258E+02  0.26105265901E+02  0.35901172947E+02  0.00000000000E+00 0.  1.
         14    1    3    3    0    0 -0.71624911915E+02  0.38054839720E+02  0.19741135201E+03  0.21342338376E+03  0.00000000000E+00 0. -1.
        -11    1    4    4    0    0  0.35910333306E+02  0.34573360879E+02  0.16411919058E+03  0.17152252924E+03  0.00000000000E+00 0. -1.
         11    1    4    4    0    0  0.15881306803E+03 -0.95044751652E+01  0.26783899442E+03  0.31152793223E+03  0.00000000000E+00 0.  1.
          1    1    1    2  501    0 -0.11970546398E+03 -0.38712730175E+02  0.22418789210E+03  0.25707641772E+03  0.00000000000E+00 0. -1.
<scales pt_clust_5="13000.00000" pt_clust_6="13000.00000" pt_clust_7="13000.00000" pt_clust_8="13000.00000" pt_clust_9="13000.00000"></scales>
<clustering>
<clus scale="   79.933">  5  6 -1 -1</clus>
<clus scale="   90.577">  7  8 -1 -1</clus>
<clus scale="  110.467">  1  5  2 -1</clus>
<clus scale="  149.483">  7  9 -1 -1</clus>
<clus scale="  342.433">  2  5  1 -1</clus>
</clustering>
</event>
<event>
 9    2  0.3707658E-005  0.2876773E+03  0.7546771E-02  0.1104808E+00
          2   -1    0    0  502    0 -0.00000000000E+00  0.00000000000E+00  0.95128896752E+03  0.95128896752E+03  0.00000000000E+00 0. -1.
         21   -1    0    0  501  502  0.00000000000E+00 -0.00000000000E+00 -0.11738076024E+03  0.11738076024E+03  0.00000000000E+00 0.  1.
         24    2    1    2    0    0  0.11555967978E+03  0.14420526145E+03  0.19247593870E+02  0.20470783869E+03  0.85939701705E+02 0.  0.
         23    2    1    2    0    0 -0.14909499469E+02  0.94687444643E+01  0.17594004159E+03  0.19934912380E+03  0.92050120210E+02 0.  0.
        -11    1    3    3    0    0  0.75564853813E+02  0.13958648353E+03  0.33078654667E+02  0.16213769121E+03  0.00000000000E+00 0.  1.
         12    1    3    3    0    0  0.39994825965E+02  0.46187779221E+01 -0.13831060797E+02  0.42570147477E+02  0.00000000000E+00 0. -1.
        -13    1    4    4    0    0 -0.34401972622E+02  0.40364754689E+02  0.13168697565E+03  0.14196573071E+03  0.00000000000E+00 0.  1.
         13    1    4    4    0    0  0.19492473152E+02 -0.30896010225E+02  0.44253065938E+02  0.57383393089E+02  0.00000000000E+00 0. -1.
          1    1    1    2  501    0 -0.10065018031E+03 -0.15367400592E+03  0.63872057183E+03  0.66461276527E+03  0.00000000000E+00 0. -1.
<scales pt_clust_5="13000.00000" pt_clust_6="13000.00000" pt_clust_7="13000.00000" pt_clust_8="13000.00000" pt_clust_9="13000.00000"></scales>
<clustering>
<clus scale="   85.940">  5  6 -1 -1</clus>
<clus scale="   92.050">  7  8 -1 -1</clus>
<clus scale="  183.701">  7  9 -1 -1</clus>
<clus scale="  203.801">  1  5  2 -1</clus>
<clus scale="  287.677">  2  5  1 -1</clus>
</clustering>
</event>
<event>
 9    2  0.3707658E-005  0.3782330E+03  0.7546771E-02  0.1107009E+00
         21   -1    0    0  501  502  0.00000000000E+00  0.00000000000E+00  0.16052493315E+03  0.16052493315E+03  0.00000000000E+00 0.  1.
         -1   -1    0    0    0  501 -0.00000000000E+00 -0.00000000000E+00 -0.41844239350E+03  0.41844239350E+03  0.00000000000E+00 0.  1.
         24    2    1    2    0    0  0.17591581178E+02  0.24872773787E+02 -0.17104340968E+03  0.19088577806E+03  0.79078528481E+02 0.  0.
         23    2    1    2    0    0  0.80056833008E+02  0.13741331096E+03 -0.73723305301E+02  0.19822652969E+03  0.92558720764E+02 0.  0.
        -11    1    3    3    0    0  0.45556029861E+02  0.23661904727E+02 -0.13985549890E+03  0.14897918702E+03  0.00000000000E+00 0.  1.
         12    1    3    3    0    0 -0.27964448682E+02  0.12108690594E+01 -0.31187910778E+02  0.41906591041E+02  0.00000000000E+00 0. -1.
        -13    1    4    4    0    0  0.93430716807E+02  0.11174361150E+03 -0.34862681045E+02  0.14977095875E+03  0.00000000000E+00 0.  1.
         13    1    4    4    0    0 -0.13373883799E+02  0.25669699460E+02 -0.38860624256E+02  0.48455570947E+02  0.00000000000E+00 0. -1.
         -2    1    1    2    0  502 -0.97648414187E+02 -0.16228608475E+03 -0.13150745365E+02  0.18985501889E+03  0.00000000000E+00 0.  1.
<scales pt_clust_5="13000.00000" pt_clust_6="13000.00000" pt_clust_7="13000.00000" pt_clust_8="13000.00000" pt_clust_9="13000.00000"></scales>
<clustering>
<clus scale="   79.079">  5  6 -1 -1</clus>
<clus scale="   84.744">  2  5  1 -1</clus>
<clus scale="   92.559">  7  8 -1 -1</clus>
<clus scale="  176.416">  7  9 -1 -1</clus>
<clus scale="  378.233">  1  5  2 -1</clus>
</clustering>
</event>
<event>
 9    2  0.3707658E-005  0.1847526E+03  0.7546771E-02  0.1204429E+00
          2   -1    0    0  502    0 -0.00000000000E+00  0.00000000000E+00  0.32806800944E+03  0.32806800944E+03  0.00000000000E+00 0. -1.
         21   -1    0    0  501  502  0.00000000000E+00 -0.00000000000E+00 -0.50909485931E+02  0.50909485931E+02  0.00000000000E+00 0.  1.
         24    2    1    2    0    0  0.16613755199E+02  0.35195526618E+02  0.76712662922E+02  0.10637508453E+03  0.62578622550E+02 0.  0.
         23    2    1    2    0    0  0.16357722662E+02 -0.13354676269E+02  0.28451802613E+02  0.96119842086E+02  0.89350973703E+02 0.  0.
        -11    1    3    3    0    0  0.36784120141E+02  0.55286769940E+01  0.32141345213E+02  0.49159982058E+02  0.00000000000E+00 0.  1.
         12    1    3    3    0    0 -0.20170364942E+02  0.29666849624E+02  0.44571317710E+02  0.57215102472E+02  0.00000000000E+00 0. -1.
        -13    1    4    4    0    0 -0.22220717292E+02  0.26748406748E+02  0.19158549030E+02  0.39702487850E+02  0.00000000000E+00 0. -1.
         13    1    4    4    0    0  0.38578439955E+02 -0.40103083017E+02  0.92932535829E+01  0.56417354236E+02  0.00000000000E+00 0.  1.
          1    1    1    2  501    0 -0.32971477861E+02 -0.21840850349E+02  0.17199405797E+03  0.17648256876E+03  0.00000000000E+00 0. -1.
<scales pt_clust_5="13000.00000" pt_clust_6="13000.00000" pt_clust_7="13000.00000" pt_clust_8="13000.00000" pt_clust_9="13000.00000"></scales>
<clustering>
<clus scale="   62.579">  5  6 -1 -1</clus>
<clus scale="   73.694">  1  5  2 -1</clus>
<clus scale="   89.351">  7  8 -1 -1</clus>
<clus scale="   21.132">  7  9 -1 -1</clus>
<clus scale="  184.753">  2  5  1 -1</clus>
</clustering>
</event>
<event>
 9    2  0.3707658E-005  0.4074625E+03  0.7546771E-02  0.1066755E+00
         21   -1    0    0  501  502  0.00000000000E+00  0.00000000000E+00  0.35391107941E+03  0.35391107941E+03  0.00000000000E+00 0.  1.
          2   -1    0    0  502    0 -0.00000000000E+00 -0.00000000000E+00 -0.30431876935E+03  0.30431876935E+03  0.00000000000E+00 0. -1.
         24    2    1    2    0    0 -0.16694722690E+03 -0.70190080107E+02  0.13817415944E+03  0.24124970894E+03  0.79443689557E+02 0.  0.
         23    2    1    2    0    0  0.83207160093E+02 -0.44961997971E+02  0.11050642927E+03  0.17221792344E+03  0.92208077142E+02 0.  0.
        -13    1    3    3    0    0 -0.16635273066E+03 -0.63449580982E+02  0.14646703119E+03  0.23054646288E+03  0.00000000000E+00 0.  1.
         14    1    3    3    0    0 -0.59449624415E+00 -0.67404991246E+01 -0.82928717483E+01  0.10703246053E+02  0.00000000000E+00 0. -1.
        -13    1    4    4    0    0  0.12759538279E+02  0.25188417799E+02  0.78397748282E+01  0.29303997640E+02  0.00000000000E+00 0.  1.
         13    1    4    4    0    0  0.70447621814E+02 -0.70150415770E+02  0.10266665444E+03  0.14291392580E+03  0.00000000000E+00 0. -1.
          1    1    1    2  501    0  0.83740066808E+02  0.11515207808E+03 -0.19908827865E+03  0.24476221639E+03  0.00000000000E+00 0. -1.
<scales pt_clust_5="13000.00000" pt_clust_6="13000.00000" pt_clust_7="13000.00000" pt_clust_8="13000.00000" pt_clust_9="13000.00000"></scales>
<clustering>
<clus scale="   79.444">  5  6 -1 -1</clus>
<clus scale="   92.208">  7  8 -1 -1</clus>
<clus scale="  142.381">  7  9 -1 -1</clus>
<clus scale="  197.761">  2  5  1 -1</clus>
<clus scale="  407.463">  1  5  2 -1</clus>
</clustering>
</event>
<event>
 9    2  0.3707658E-005  0.6792272E+03  0.7546771E-02  0.1033328E+00
         -3   -1    0    0    0  501 -0.00000000000E+00  0.00000000000E+00  0.23900090465E+03  0.23900090465E+03  0.00000000000E+00 0.  1.
         21   -1    0    0  501  502  0.00000000000E+00 -0.00000000000E+00 -0.72676746054E+03  0.72676746054E+03  0.00000000000E+00 0.  1.
         24    2    1    2    0    0 -0.56038620257E+02  0.53653737804E+02 -0.19885149696E+03  0.22764814564E+03  0.79137284706E+02 0.  0.
         23    2    1    2    0    0 -0.23860287484E+03  0.12375227321E+03 -0.27295385033E+03  0.39382200061E+03  0.91356481716E+02 0.  0.
        -13    1    3    3    0    0 -0.14592869152E+02  0.65654572163E+02 -0.13061446779E+03  0.14691362725E+03  0.00000000000E+00 0.  1.
         14    1    3    3    0    0 -0.41445751106E+02 -0.12000834358E+02 -0.68237029168E+02  0.80734518390E+02  0.00000000000E+00 0. -1.
        -11    1    4    4    0    0 -0.11876976377E+03  0.79894851622E+02 -0.20272329836E+03  0.24816562977E+03  0.00000000000E+00 0.  1.
         11    1    4    4    0    0 -0.11983311108E+03  0.43857421591E+02 -0.70230551972E+02  0.14565637085E+03  0.00000000000E+00 0. -1.
         -4    1    1    2    0  502  0.29464149510E+03 -0.17740601102E+03 -0.15961208598E+02  0.34429821893E+03  0.00000000000E+00 0.  1.
<scales pt_clust_5="13000.00000" pt_clust_6="13000.00000" pt_clust_7="13000.00000" pt_clust_8="13000.00000" pt_clust_9="13000.00000"></scales>
<clustering>
<clus scale="   79.137">  5  6 -1 -1</clus>
<clus scale="   91.356">  7  8 -1 -1</clus>
<clus scale="  110.823">  1  5  2 -1</clus>
<clus scale="  288.878">  7  9 -1 -1</clus>
<clus scale="  679.227">  2  5  1 -1</clus>
</clustering>
</event>
<event>
 9    2  0.3707658E-005  0.2488412E+03  0.7546771E-02  0.1127174E+00
          4   -1    0    0  502    0 -0.00000000000E+00  0.00000000000E+00  0.22937660625E+03  0.22937660625E+03  0.00000000000E+00 0. -1.
         21   -1    0    0  501  502  0.00000000000E+00 -0.00000000000E+00 -0.20662311371E+03  0.20662311371E+03  0.00000000000E+00 0.  1.
         24    2    1    2    0    0  0.45274189251E+02  0.15467424193E+03  0.48918219820E+02  0.18578673543E+03  0.78420950655E+02 0.  0.
         23    2    1    2    0    0 -0.14364339966E+00 -0.47006144741E+01 -0.20357859090E+02  0.93488465643E+02  0.91123731112E+02 0.  0.
        -11    1    3    3    0    0  0.40837239386E+02  0.14561125634E+03  0.66744019471E+02  0.16530300127E+03  0.00000000000E+00 0.  1.
         12    1    3    3    0    0  0.44369498651E+01  0.90629855934E+01 -0.17825799652E+02  0.20483734161E+02  0.00000000000E+00 0. -1.
        -11    1    4    4    0    0  0.40730435809E+02 -0.16879802501E+02 -0.24836706868E+02  0.50603934054E+02  0.00000000000E+00 0.  1.
         11    1    4    4    0    0 -0.40874079209E+02  0.12179188027E+02  0.44788477784E+01  0.42884531589E+02  0.00000000000E+00 0. -1.
          3    1    1    2  501    0 -0.45130545852E+02 -0.14997362746E+03 -0.58068681910E+01  0.15672451888E+03  0.00000000000E+00 0. -1.
<scales pt_clust_5="13000.00000" pt_clust_6="13000.00000" pt_clust_7="13000.00000" pt_clust_8="13000.00000" pt_clust_9="13000.00000"></scales>
<clustering>
<clus scale="   78.421">  5  6 -1 -1</clus>
<clus scale="   91.124">  7  8 -1 -1</clus>
<clus scale="  156.617">  7  9 -1 -1</clus>
<clus scale="  179.231">  1  5  2 -1</clus>
<clus scale="  248.841">  2  5  1 -1</clus>
</clustering>
</event>
<event>
 9    2  0.3707658E-005  0.1462469E+03  0.7546771E-02  0.1231167E+00
         21   -1    0    0  501  502  0.00000000000E+00  0.00000000000E+00  0.13948670433E+03  0.13948670433E+03  0.00000000000E+00 0.  1.
         -3   -1    0    0    0  501 -0.00000000000E+00 -0.00000000000E+00 -0.47280162952E+03  0.47280162952E+03  0.00000000000E+00 0.  1.
         24    2    1    2    0    0  0.10127878664E+01  0.31490275143E+02 -0.42917342401E+03  0.43742553976E+03  0.78476823284E+02 0.  0.
         23    2    1    2    0    0 -0.24427371622E+02  0.12220544277E+02  0.36541268473E+02  0.97549067741E+02  0.86223651794E+02 0.  0.
        -13    1    3    3    0    0 -0.11358885881E+02  0.54840259298E+02 -0.33350966992E+03  0.33817921027E+03  0.00000000000E+00 0.  1.
         14    1    3    3    0    0  0.12371673748E+02 -0.23349984155E+02 -0.95663754085E+02  0.99246329489E+02  0.00000000000E+00 0. -1.
        -11    1    4    4    0    0  0.39509120901E+01 -0.34673774057E+02  0.82239749863E+01  0.35854066412E+02  0.00000000000E+00 0. -1.
         11    1    4    4    0    0 -0.28378283712E+02  0.46894318335E+02  0.28317293487E+02  0.61695001329E+02  0.00000000000E+00 0.  1.
         -4    1    1    2    0  502  0.23414583755E+02 -0.43710819421E+02  0.59317230337E+02  0.77313726348E+02  0.00000000000E+00 0.  1.
<scales pt_clust_5="13000.00000" pt_clust_6="13000.00000" pt_clust_7="13000.00000" pt_clust_8="13000.00000" pt_clust_9="13000.00000"></scales>
<clustering>
<clus scale="   78.477">  5  6 -1 -1</clus>
<clus scale="   84.565">  2  5  1 -1</clus>
<clus scale="   86.224">  7  8 -1 -1</clus>
<clus scale="   43.521">  7  9 -1 -1</clus>
<clus scale="  146.247">  1  5  2 -1</clus>
</clustering>
</event>
<event>
 9    2  0.3707658E-005  0.2747945E+03  0.7546771E-02  0.1134104E+00
          2   -1    0    0  502    0 -0.00000000000E+00  0.00000000000E+00  0.86561443766E+03  0.86561443766E+03  0.00000000000E+00 0. -1.
         21   -1    0    0  501  502  0.00000000000E+00 -0.00000000000E+00 -0.10954306304E+03  0.10954306304E+03  0.00000000000E+00 0.  1.
         24    2    1    2    0    0  0.76482870837E+02 -0.15894767338E+02  0.68113570343E+03  0.69032881118E+03  0.80658216585E+02 0.  0.
         23    2    1    2    0    0  0.56976407499E+02 -0.56859325434E+02  0.34586976496E+02  0.12756281861E+03  0.92718497881E+02 0.  0.
        -11    1    3    3    0    0  0.44233015481E+02  0.10016250263E+01  0.11807584015E+03  0.12609308838E+03  0.00000000000E+00 0.  1.
         12    1    3    3    0    0  0.32249855356E+02 -0.16896392365E+02  0.56305986328E+03  0.56423572280E+03  0.00000000000E+00 0. -1.
        -11    1    4    4    0    0  0.63746075809E+02 -0.18230775550E+02 -0.11238224584E+02  0.67247461290E+02  0.00000000000E+00 0.  1.
         11    1    4    4    0    0 -0.67696683094E+01 -0.38628549883E+02  0.45825201080E+02  0.60315357324E+02  0.00000000000E+00 0. -1.
          1    1    1    2  501    0 -0.13345927834E+03  0.72754092772E+02  0.40348694690E+02  0.15726587091E+03  0.00000000000E+00 0. -1.
<scales pt_clust_5="13000.00000" pt_clust_6="13000.00000" pt_clust_7="13000.00000" pt_clust_8="13000.00000" pt_clust_9="13000.00000"></scales>
<clustering>
<clus scale="   80.658">  5  6 -1 -1</clus>
<clus scale="   92.718">  7  8 -1 -1</clus>
<clus scale="  112.285">  1  5  2 -1</clus>
<clus scale="  111.632">  7  9 -1 -1</clus>
<clus scale="  274.795">  2  5  1 -1</clus>
</clustering>
</event>
<event>
 9    2  0.3707658E-005  0.1856990E+03  0.7546771E-02  0.1187340E+00
         21   -1    0    0  501  502  0.00000000000E+00  0.00000000000E+00  0.13391399255E+03  0.13391399255E+03  0.00000000000E+00 0.  1.
          2   -1    0    0  502    0 -0.00000000000E+00 -0.00000000000E+00 -0.17209189683E+03  0.17209189683E+03  0.00000000000E+00 0. -1.
         24    2    1    2    0    0  0.60689086110E+02 -0.34262785576E+02 -0.56074610191E+02  0.11944648687E+03  0.79158054979E+02 0.  0.
         23    2    1    2    0    0 -0.16199816086E+02 -0.36787596653E+02  0.26236069183E+02  0.10231572654E+03  0.90357153908E+02 0.  0.
        -13    1    3    3    0    0  0.56279627809E+02 -0.87930419860E+01 -0.69869725218E+02  0.90147060938E+02  0.00000000000E+00 0.  1.
         14    1    3    3    0    0  0.44094583018E+01 -0.25469743590E+02  0.13795115027E+02  0.29299425927E+02  0.00000000000E+00 0. -1.
        -13    1    4    4    0    0 -0.32260209650E+02 -0.23346596421E+02  0.54276261500E+02  0.67317882123E+02  0.00000000000E+00 0.  1.
         13    1    4    4    0    0  0.16060393564E+02 -0.13441000232E+02 -0.28040192317E+02  0.34997844417E+02  0.00000000000E+00 0. -1.
          1    1    1    2  501    0 -0.44489270024E+02  0.71050382229E+02 -0.83393632679E+01  0.84243675975E+02  0.00000000000E+00 0. -1.
<scales pt_clust_5="13000.00000" pt_clust_6="13000.00000" pt_clust_7="13000.00000" pt_clust_8="13000.00000" pt_clust_9="13000.00000"></scales>
<clustering>
<clus scale="   79.158">  5  6 -1 -1</clus>
<clus scale="   90.357">  7  8 -1 -1</clus>
<clus scale="   83.830">  7  9 -1 -1</clus>
<clus scale="  105.466">  2  5  1 -1</clus>
<clus scale="  185.699">  1  5  2 -1</clus>
</clustering>
</event>
<event>
 9    2  0.3707658E-005  0.3921353E+03  0.7546771E-02  0.1095803E+00
         21   -1    0    0  501  502  0.00000000000E+00  0.00000000000E+00  0.17706856035E+03  0.17706856035E+03  0.00000000000E+00 0. -1.
          2   -1    0    0  502    0 -0.00000000000E+00 -0.00000000000E+00 -0.35321245287E+03  0.35321245287E+03  0.00000000000E+00 0. -1.
         24    2    1    2    0    0  0.52323684527E+02  0.35554468533E+02 -0.72004535921E+02  0.12455312730E+03  0.79542065169E+02 0.  0.
         23    2    1    2    0    0  0.13143044517E+03 -0.99955272946E+02 -0.17098560452E+02  0.19244604426E+03  0.97355537455E+02 0.  0.
        -13    1    3    3    0    0  0.43530516960E+02  0.57607058562E+02 -0.70261831979E+02  0.10074822150E+03  0.00000000000E+00 0.  1.
         14    1    3    3    0    0  0.87931675670E+01 -0.22052590029E+02 -0.17427039415E+01  0.23804905794E+02  0.00000000000E+00 0. -1.
        -11    1    4    4    0    0  0.53235946260E+02 -0.90604407319E+02 -0.36666306502E+02  0.11129978721E+03  0.00000000000E+00 0.  1.
         11    1    4    4    0    0  0.78194498909E+02 -0.93508656271E+01  0.19567746050E+02  0.81146257049E+02  0.00000000000E+00 0. -1.
          1    1    1    2  501    0 -0.18375412970E+03  0.64400804412E+02 -0.87040796145E+02  0.21328184166E+03  0.00000000000E+00 0. -1.
<scales pt_clust_5="13000.00000" pt_clust_6="13000.00000" pt_clust_7="13000.00000" pt_clust_8="13000.00000" pt_clust_9="13000.00000"></scales>
<clustering>
<clus scale="   79.542">  5  6 -1 -1</clus>
<clus scale="   97.356">  7  8 -1 -1</clus>
<clus scale="  101.631">  2  5  1 -1</clus>
<clus scale="  175.135">  7  9 -1 -1</clus>
<clus scale="  392.135">  1  5  2 -1</clus>
</clustering>
</event>
<event>
 9    2  0.3707658E-005  0.2930763E+03  0.7546771E-02  0.1131621E+00
         21   -1    0    0  501  502  0.00000000000E+00  0.00000000000E+00  0.24462994319E+03  0.24462994319E+03  0.00000000000E+00 0.  1.
         -3   -1    0    0    0  501 -0.00000000000E+00 -0.00000000000E+00 -0.15977882742E+03  0.15977882742E+03  0.00000000000E+00 0.  1.
         24    2    1    2    0    0  0.13080064860E+02 -0.55971813169E+02  0.46663615998E+02  0.10885500333E+03  0.79799666202E+02 0.  0.
         23    2    1    2    0    0 -0.11639140625E+03  0.35391392648E+02  0.91628667630E+02  0.17743202758E+03  0.91031871093E+02 0.  0.
        -13    1    3    3    0    0 -0.10699772545E+02 -0.55104756281E+02 -0.38042792270E+00  0.56135229782E+02  0.00000000000E+00 0.  1.
         14    1    3    3    0    0  0.23779837405E+02 -0.86705688851E+00  0.47044043920E+02  0.52719773549E+02  0.00000000000E+00 0. -1.
        -13    1    4    4    0    0 -0.25826247690E+02  0.41873884558E+02  0.67422626771E+02  0.83463931602E+02  0.00000000000E+00 0. -1.
         13    1    4    4    0    0 -0.90565158563E+02 -0.64824919098E+01  0.24206040859E+02  0.93968095974E+02  0.00000000000E+00 0.  1.
         -4    1    1    2    0  502  0.10331134139E+03  0.20580420521E+02 -0.53441167856E+02  0.11812173971E+03  0.00000000000E+00 0.  1.
<scales pt_clust_5="13000.00000" pt_clust_6="13000.00000" pt_clust_7="13000.00000" pt_clust_8="13000.00000" pt_clust_9="13000.00000"></scales>
<clustering>
<clus scale="   79.800">  5  6 -1 -1</clus>
<clus scale="   91.032">  7  8 -1 -1</clus>
<clus scale="   98.346">  2  5  1 -1</clus>
<clus scale="  113.273">  7  9 -1 -1</clus>
<clus scale="  293.076">  1  5  2 -1</clus>
</clustering>
</event>
<event>
 9    2  0.3707658E-005  0.3028919E+03  0.7546771E-02  0.1119882E+00
          2   -1    0    0  502    0 -0.00000000000E+00  0.00000000000E+00  0.10524080956E+04  0.10524080956E+04  0.00000000000E+00 0. -1.
         21   -1    0    0  501  502  0.00000000000E+00 -0.00000000000E+00 -0.54113229373E+02  0.54113229373E+02  0.00000000000E+00 0. -1.
         24    2    1    2    0    0 -0.41183389095E+02 -0.79496771299E+02  0.90725180645E+02  0.14974222539E+03  0.78586687651E+02 0.  0.
         23    2    1    2    0    0 -0.48722683043E+02  0.14940409549E+03  0.47950441869E+03  0.51382311023E+03  0.96923771477E+02 0.  0.
        -13    1    3    3    0    0 -0.35467975344E+02 -0.44181050838E+01  0.56906992565E+02  0.67200466742E+02  0.00000000000E+00 0.  1.
         14    1    3    3    0    0 -0.57154137517E+01 -0.75078666215E+02  0.33818188080E+02  0.82541758643E+02  0.00000000000E+00 0. -1.
        -13    1    4    4    0    0 -0.61038421331E+02  0.11597591585E+03  0.44622268132E+03  0.46507072931E+03  0.00000000000E+00 0. -1.
         13    1    4    4    0    0  0.12315738288E+02  0.33428179640E+02  0.33281737367E+02  0.48752380924E+02  0.00000000000E+00 0.  1.
          1    1    1    2  501    0  0.89906072138E+02 -0.69907324195E+02  0.42806526692E+03  0.44295598938E+03  0.00000000000E+00 0. -1.
<scales pt_clust_5="13000.00000" pt_clust_6="13000.00000" pt_clust_7="13000.00000" pt_clust_8="13000.00000" pt_clust_9="13000.00000"></scales>
<clustering>
<clus scale="   78.587">  5  6 -1 -1</clus>
<clus scale="   96.924">  7  8 -1 -1</clus>
<clus scale="  113.887">  7  9 -1 -1</clus>
<clus scale="  119.129">  1  5  2 -1</clus>
<clus scale="  302.892">  2  5  1 -1</clus>
</clustering>
</event>
<event>
 9    2  0.3707658E-005  0.1364260E+03  0.7546771E-02  0.1237062E+00
         21   -1    0    0  501  502  0.00000000000E+00  0.00000000000E+00  0.58170241558E+02  0.58170241558E+02  0.00000000000E+00 0.  1.
          2   -1    0    0  502    0 -0.00000000000E+00 -0.00000000000E+00 -0.28910686152E+03  0.28910686152E+03  0.00000000000E+00 0. -1.
         24    2    1    2    0    0  0.32503284903E+02  0.35779524670E+02 -0.17880905570E+03  0.20123147971E+03  0.78643449242E+02 0.  0.
         23    2    1    2    0    0 -0.28344491716E+02 -0.57084863641E+02 -0.35079268999E+02  0.11844385892E+03  0.93468180336E+02 0.  0.
        -11    1    3    3    0    0  0.79907143451E+00  0.30487945866E+02 -0.14431023059E+02  0.33740299122E+02  0.00000000000E+00 0.  1.
         12    1    3    3    0    0  0.31704213468E+02  0.52915788035E+01 -0.16437803264E+03  0.16749118059E+03  0.00000000000E+00 0. -1.
        -11    1    4    4    0    0 -0.26495641729E+02 -0.12848811366E+02 -0.60574899367E+02  0.67353020849E+02  0.00000000000E+00 0. -1.
         11    1    4    4    0    0 -0.18488499871E+01 -0.44236052274E+02  0.25495630369E+02  0.51090838073E+02  0.00000000000E+00 0.  1.
          1    1    1    2  501    0 -0.41587931862E+01  0.21305338971E+02 -0.17048295262E+02  0.27601764450E+02  0.00000000000E+00 0. -1.
<scales pt_clust_5="13000.00000" pt_clust_6="13000.00000" pt_clust_7="13000.00000" pt_clust_8="13000.00000" pt_clust_9="13000.00000"></scales>
<clustering>
<clus scale="   78.643">  5  6 -1 -1</clus>
<clus scale="   92.312">  2  5  1 -1</clus>
<clus scale="   93.468">  7  8 -1 -1</clus>
<clus scale="   29.537">  7  9 -1 -1</clus>
<clus scale="  136.426">  1  5  2 -1</clus>
</clustering>
</event>
<event>
 9    2  0.3707658E-005  0.5060023E+03  0.7546771E-02  0.1072879E+00
         21   -1    0    0  501  502  0.00000000000E+00  0.00000000000E+00  0.56280748696E+02  0.56280748696E+02  0.00000000000E+00 0.  1.
          2   -1    0    0  502    0 -0.00000000000E+00 -0.00000000000E+00 -0.15693918564E+04  0.15693918564E+04  0.00000000000E+00 0. -1.
         24    2    1    2    0    0  0.16174158147E+02 -0.29647474619E+02 -0.25991618568E+03  0.27417866799E+03  0.80479452413E+02 0.  0.
         23    2    1    2    0    0 -0.87273960777E+02  0.18071616961E+03 -0.24590468333E+03  0.33045987424E+03  0.91975741448E+02 0.  0.
        -13    1    3    3    0    0  0.43377768245E+02 -0.39147715092E+02 -0.17051115012E+03  0.18024490753E+03  0.00000000000E+00 0.  1.
         14    1    3    3    0    0 -0.27203610097E+02  0.95002404731E+01 -0.89405035557E+02  0.93933760461E+02  0.00000000000E+00 0. -1.
        -11    1    4    4    0    0 -0.33754556517E+02  0.14508148888E+03 -0.12904865037E+03  0.19708262903E+03  0.00000000000E+00 0.  1.
         11    1    4    4    0    0 -0.53519404260E+02  0.35634680727E+02 -0.11685603296E+03  0.13337724522E+03  0.00000000000E+00 0. -1.
          1    1    1    2  501    0  0.71099802629E+02 -0.15106869499E+03 -0.10072902387E+04  0.10210340628E+04  0.00000000000E+00 0. -1.
<scales pt_clust_5="13000.00000" pt_clust_6="13000.00000" pt_clust_7="13000.00000" pt_clust_8="13000.00000" pt_clust_9="13000.00000"></scales>
<clustering>
<clus scale="   80.479">  5  6 -1 -1</clus>
<clus scale="   87.278">  2  5  1 -1</clus>
<clus scale="   91.976">  7  8 -1 -1</clus>
<clus scale="  193.223">  7  9 -1 -1</clus>
<clus scale="  506.002">  1  5  2 -1</clus>
</clustering>
</event>
<event>
 9    2  0.3707658E-005  0.5237669E+03  0.7546771E-02  0.1037985E+00
          2   -1    0    0  502    0 -0.00000000000E+00  0.00000000000E+00  0.56845417932E+03  0.56845417932E+03  0.00000000000E+00 0. -1.
         21   -1    0    0  501  502  0.00000000000E+00 -0.00000000000E+00 -0.26528153427E+03  0.26528153427E+03  0.00000000000E+00 0.  1.
         24    2    1    2    0    0  0.24576268195E+02 -0.19318819838E+03 -0.30047528306E+02  0.21295602185E+03  0.80757292767E+02 0.  0.
         23    2    1    2    0    0  0.70255325013E+02 -0.12445368105E+03  0.19597777517E+03  0.26199720820E+03  0.99049075342E+02 0.  0.
        -11    1    3    3    0    0  0.65405495436E+01 -0.10753752505E+03  0.23605076712E+02  0.11029187517E+03  0.00000000000E+00 0.  1.
         12    1    3    3    0    0  0.18035718651E+02 -0.85650673332E+02 -0.53652605017E+02  0.10266414669E+03  0.00000000000E+00 0. -1.
        -11    1    4    4    0    0  0.24168401810E+02 -0.76571921350E+02  0.17461179040E+03  0.19218909473E+03  0.00000000000E+00 0.  1.
         11    1    4    4    0    0  0.46086923203E+02 -0.47881759696E+02  0.21365984774E+02  0.69808113477E+02  0.00000000000E+00 0. -1.
          1    1    1    2  501    0 -0.94831593208E+02  0.31764187942E+03  0.13724239818E+03  0.35878248354E+03  0.00000000000E+00 0. -1.
<scales pt_clust_5="13000.00000" pt_clust_6="13000.00000" pt_clust_7="13000.00000" pt_clust_8="13000.00000" pt_clust_9="13000.00000"></scales>
<clustering>
<clus scale="   80.757">  5  6 -1 -1</clus>
<clus scale="   99.049">  7  8 -1 -1</clus>
<clus scale="  210.826">  1  5  2 -1</clus>
<clus scale="  232.178">  7  9 -1 -1</clus>
<clus scale="  523.767">  2  5  1 -1</clus>
</clustering>
</event>
<event>
 9    2  0.3707658E-005  0.3919295E+03  0.7546771E-02  0.1060261E+00
         21   -1    0    0  501  502  0.00000000000E+00  0.00000000000E+00  0.28275784839E+03  0.28275784839E+03  0.00000000000E+00 0. -1.
          2   -1    0    0  502    0 -0.00000000000E+00 -0.00000000000E+00 -0.40573643449E+03  0.40573643449E+03  0.00000000000E+00 0. -1.
         24    2    1    2    0    0 -0.25065313281E+03 -0.38259400025E+02 -0.13058434361E+03  0.29649099308E+03  0.81017674018E+02 0.  0.
         23    2    1    2    0    0 -0.17747678621E+02  0.58216825816E+02 -0.43560590005E+02  0.11804108522E+03  0.91279756210E+02 0.  0.
        -13    1    3    3    0    0 -0.19159722949E+03 -0.91334216250E-01 -0.11811008797E+03  0.22507665265E+03  0.00000000000E+00 0.  1.
         14    1    3    3    0    0 -0.59055903320E+02 -0.38168065809E+02 -0.12474255641E+02  0.71414340425E+02  0.00000000000E+00 0. -1.
        -11    1    4    4    0    0  0.29877864216E+02 -0.47103796094E+01 -0.69011461618E+01  0.31024188378E+02  0.00000000000E+00 0.  1.
         11    1    4    4    0    0 -0.47625542837E+02  0.62927205425E+02 -0.36659443843E+02  0.87016896842E+02  0.00000000000E+00 0. -1.
          1    1    1    2  501    0  0.26840081143E+03 -0.19957425791E+02  0.51166347515E+02  0.27396220458E+03  0.00000000000E+00 0. -1.
<scales pt_clust_5="13000.00000" pt_clust_6="13000.00000" pt_clust_7="13000.00000" pt_clust_8="13000.00000" pt_clust_9="13000.00000"></scales>
<clustering>
<clus scale="   81.018">  5  6 -1 -1</clus>
<clus scale="   91.280">  7  8 -1 -1</clus>
<clus scale="  266.185">  2  5  1 -1</clus>
<clus scale="  130.132">  7  9 -1 -1</clus>
<clus scale="  391.929">  1  5  2 -1</clus>
</clustering>
</event>
<event>
 9    2  0.3707658E-005  0.5641668E+03  0.7546771E-02  0.1060470E+00
          2   -1    0    0  502    0 -0.00000000000E+00  0.00000000000E+00  0.62910381736E+03  0.62910381736E+03  0.00000000000E+00 0. -1.
         21   -1    0    0  501  502  0.00000000000E+00 -0.00000000000E+00 -0.42222756241E+03  0.42222756241E+03  0.00000000000E+00 0. -1.
         24    2    1    2    0    0  0.10872409084E+02  0.37315714452E+02  0.43413775243E+03  0.44311104745E+03  0.79756758075E+02 0.  0.
         23    2    1    2    0    0 -0.23691788158E+03  0.56675840073E+01  0.38372932045E+02  0.25678645556E+03  0.91129565573E+02 0.  0.
        -11    1    3    3    0    0  0.39038434016E+02 -0.26780956871E+01  0.22044896230E+03  0.22389487825E+03  0.00000000000E+00 0.  1.
         12    1    3    3    0    0 -0.28166024932E+02  0.39993810139E+02  0.21368879014E+03  0.21921616920E+03  0.00000000000E+00 0. -1.
        -11    1    4    4    0    0 -0.13648999160E+03 -0.29735486194E+02 -0.95430847433E+01  0.14001709686E+03  0.00000000000E+00 0.  1.
         11    1    4    4    0    0 -0.10042788999E+03  0.35403070202E+02  0.47916016789E+02  0.11676935870E+03  0.00000000000E+00 0. -1.
          1    1    1    2  501    0  0.22604547250E+03 -0.42983298459E+02 -0.26563442953E+03  0.35143387676E+03  0.00000000000E+00 0. -1.
<scales pt_clust_5="13000.00000" pt_clust_6="13000.00000" pt_clust_7="13000.00000" pt_clust_8="13000.00000" pt_clust_9="13000.00000"></scales>
<clustering>
<clus scale="   79.757">  5  6 -1 -1</clus>
<clus scale="   88.723">  1  5  2 -1</clus>
<clus scale="   91.130">  7  8 -1 -1</clus>
<clus scale="  231.096">  7  9 -1 -1</clus>
<clus scale="  564.167">  2  5  1 -1</clus>
</clustering>
</event>
<event>
 9    2  0.3707658E-005  0.4728716E+03  0.7546771E-02  0.1043097E+00
         21   -1    0    0  501  502  0.00000000000E+00  0.00000000000E+00  0.23345364463E+03  0.23345364463E+03  0.00000000000E+00 0. -1.
          2   -1    0    0  502    0 -0.00000000000E+00 -0.00000000000E+00 -0.60357928588E+03  0.60357928588E+03  0.00000000000E+00 0. -1.
         24    2    1    2    0    0 -0.11257244181E+03  0.20422759430E+03 -0.18244861078E+02  0.24760301560E+03  0.81196757636E+02 0.  0.
         23    2    1    2    0    0 -0.10224162802E+03 -0.52672604568E+02 -0.28108761697E+03  0.31716961397E+03  0.91425170720E+02 0.  0.
        -13    1    3    3    0    0 -0.94504481202E+01  0.44914906670E+02 -0.34081206172E+02  0.57168071727E+02  0.00000000000E+00 0.  1.
         14    1    3    3    0    0 -0.10312199369E+03  0.15931268763E+03  0.15836345094E+02  0.19043494387E+03  0.00000000000E+00 0. -1.
        -11    1    4    4    0    0 -0.28988316863E+02 -0.65740452275E+02 -0.12303445176E+03  0.14247668546E+03  0.00000000000E+00 0.  1.
         11    1    4    4    0    0 -0.73253311154E+02  0.13067847707E+02 -0.15805316521E+03  0.17469292851E+03  0.00000000000E+00 0. -1.
          1    1    1    2  501    0  0.21481406983E+03 -0.15155498973E+03 -0.70793163198E+02  0.27226030093E+03  0.00000000000E+00 0. -1.
<scales pt_clust_5="13000.00000" pt_clust_6="13000.00000" pt_clust_7="13000.00000" pt_clust_8="13000.00000" pt_clust_9="13000.00000"></scales>
<clustering>
<clus scale="   81.197">  5  6 -1 -1</clus>
<clus scale="   91.425">  7  8 -1 -1</clus>
<clus scale="  246.930">  2  5  1 -1</clus>
<clus scale="  190.133">  7  9 -1 -1</clus>
<clus scale="  472.872">  1  5  2 -1</clus>
</clustering>
</event>
<event>
 9    2  0.3707658E-005  0.3124066E+03  0.7546771E-02  0.1125020E+00
          2   -1    0    0  502    0 -0.00000000000E+00  0.00000000000E+00  0.68691550484E+03  0.68691550484E+03  0.00000000000E+00 0. -1.
         21   -1    0    0  501  502  0.00000000000E+00 -0.00000000000E+00 -0.65993484587E+02  0.65993484587E+02  0.00000000000E+00 0. -1.
         24    2    1    2    0    0  0.59903413103E+02  0.25841951941E+00  0.25189152606E+03  0.26939950842E+03  0.74419544162E+02 0.  0.
         23    2    1    2    0    0  0.97255904245E+02 -0.11389703134E+02  0.88354813644E+02  0.16163715515E+03  0.93442819853E+02 0.  0.
        -13    1    3    3    0    0  0.24148053136E+02  0.35174017671E+02  0.83798550875E+02  0.94034765476E+02  0.00000000000E+00 0.  1.
         14    1    3    3    0    0  0.35755359967E+02 -0.34915598152E+02  0.16809297519E+03  0.17536474294E+03  0.00000000000E+00 0. -1.
        -13    1    4    4    0    0  0.80137124784E+02  0.14537658998E+02  0.16148833568E+02  0.83030639666E+02  0.00000000000E+00 0. -1.
         13    1    4    4    0    0  0.17118779461E+02 -0.25927362132E+02  0.72205980076E+02  0.78606515481E+02  0.00000000000E+00 0.  1.
          1    1    1    2  501    0 -0.15715931735E+03  0.11131283615E+02  0.28067568055E+03  0.32187232586E+03  0.00000000000E+00 0. -1.
<scales pt_clust_5="13000.00000" pt_clust_6="13000.00000" pt_clust_7="13000.00000" pt_clust_8="13000.00000" pt_clust_9="13000.00000"></scales>
<clustering>
<clus scale="   74.420">  5  6 -1 -1</clus>
<clus scale="   93.443">  7  8 -1 -1</clus>
<clus scale="   95.534">  1  5  2 -1</clus>
<clus scale="  115.378">  7  9 -1 -1</clus>
<clus scale="  312.407">  2  5  1 -1</clus>
</clustering>
</event>
<event>
 9    2  0.3707658E-005  0.9041052E+03  0.7546771E-02  0.9998625E-01
         21   -1    0    0  501  502  0.00000000000E+00  0.00000000000E+00  0.94150150497E+03  0.94150150497E+03  0.00000000000E+00 0.  1.
         -3   -1    0    0    0  501 -0.00000000000E+00 -0.00000000000E+00 -0.29490411103E+03  0.29490411103E+03  0.00000000000E+00 0.  1.
         24    2    1    2    0    0 -0.17811721005E+02  0.10068369664E+03  0.10126024184E+02  0.13073744500E+03  0.80841072393E+02 0.  0.
         23    2    1    2    0    0  0.28957430616E+03  0.28286554411E+03  0.18679234841E+03  0.45514826737E+03  0.91664437113E+02 0.  0.
        -13    1    3    3    0    0 -0.13116867812E+02  0.95447239088E+02  0.36814074853E+02  0.10313827504E+03  0.00000000000E+00 0.  1.
         14    1    3    3    0    0 -0.46948531923E+01  0.52364575542E+01 -0.26688050669E+02  0.27599169965E+02  0.00000000000E+00 0. -1.
        -11    1    4    4    0    0  0.20916272302E+03  0.20134188480E+03  0.86516933230E+02  0.30294022350E+03  0.00000000000E+00 0.  1.
         11    1    4    4    0    0  0.80411583141E+02  0.81523659308E+02  0.10027541518E+03  0.15220804387E+03  0.00000000000E+00 0. -1.
         -4    1    1    2    0  502 -0.27176258515E+03 -0.38354924075E+03  0.44967902135E+03  0.65051990363E+03  0.00000000000E+00 0.  1.
<scales pt_clust_5="13000.00000" pt_clust_6="13000.00000" pt_clust_7="13000.00000" pt_clust_8="13000.00000" pt_clust_9="13000.00000"></scales>
<clustering>
<clus scale="   80.841">  5  6 -1 -1</clus>
<clus scale="   91.664">  7  8 -1 -1</clus>
<clus scale="  130.345">  2  5  1 -1</clus>
<clus scale="  440.414">  7  9 -1 -1</clus>
<clus scale="  904.105">  1  5  2 -1</clus>
</clustering>
</event>
<event>
 9    2  0.3707658E-005  0.3201970E+03  0.7546771E-02  0.1124798E+00
          2   -1    0    0  502    0 -0.00000000000E+00  0.00000000000E+00  0.81278384976E+03  0.81278384976E+03  0.00000000000E+00 0. -1.
         21   -1    0    0  501  502  0.00000000000E+00 -0.00000000000E+00 -0.57248755633E+02  0.57248755633E+02  0.00000000000E+00 0. -1.
         24    2    1    2    0    0  0.40475742553E+02  0.51567277925E+01  0.30167231494E+03  0.31458904473E+03  0.79342320889E+02 0.  0.
         23    2    1    2    0    0  0.11234586879E+03 -0.44970972725E+02  0.14944880991E+03  0.21250408542E+03  0.90438138591E+02 0.  0.
        -11    1    3    3    0    0  0.50195756156E+02 -0.74461534990E+01  0.29108137601E+03  0.29547153263E+03  0.00000000000E+00 0.  1.
         12    1    3    3    0    0 -0.97200136024E+01  0.12602881292E+02  0.10590938938E+02  0.19117512099E+02  0.00000000000E+00 0. -1.
        -13    1    4    4    0    0  0.66649578002E+01  0.21461733450E+02  0.42719012282E+02  0.48269469393E+02  0.00000000000E+00 0.  1.
         13    1    4    4    0    0  0.10568091099E+03 -0.66432706175E+02  0.10672979763E+03  0.16423461603E+03  0.00000000000E+00 0. -1.
          1    1    1    2  501    0 -0.15282161135E+03  0.39814244933E+02  0.30441396927E+03  0.34293947524E+03  0.00000000000E+00 0. -1.
<scales pt_clust_5="13000.00000" pt_clust_6="13000.00000" pt_clust_7="13000.00000" pt_clust_8="13000.00000" pt_clust_9="13000.00000"></scales>
<clustering>
<clus scale="   79.342">  5  6 -1 -1</clus>
<clus scale="   89.219">  1  5  2 -1</clus>
<clus scale="   90.438">  7  8 -1 -1</clus>
<clus scale="  133.990">  7  9 -1 -1</clus>
<clus scale="  320.197">  2  5  1 -1</clus>
</clustering>
</event>
<event>
 9    2  0.3707658E-005  0.7770112E+03  0.7546771E-02  0.9953839E-01
         21   -1    0    0  501  502  0.00000000000E+00  0.00000000000E+00  0.89760698470E+02  0.89760698470E+02  0.00000000000E+00 0. -1.
          2   -1    0    0  502    0 -0.00000000000E+00 -0.00000000000E+00 -0.32117427106E+04  0.32117427106E+04  0.00000000000E+00 0. -1.
         24    2    1    2    0    0  0.90710273451E+02  0.20397387048E+03 -0.12904634695E+04  0.13119792019E+04  0.78484180128E+02 0.  0.
         23    2    1    2    0    0  0.90474375896E+02  0.24228448812E+03 -0.89588510605E+03  0.93720090732E+03  0.94063975857E+02 0.  0.
        -13    1    3    3    0    0 -0.14416456165E+02  0.18749699970E+02 -0.12871357978E+03  0.13086852592E+03  0.00000000000E+00 0.  1.
         14    1    3    3    0    0  0.10512672962E+03  0.18522417051E+03 -0.11617498897E+04  0.11811106760E+04  0.00000000000E+00 0. -1.
        -11    1    4    4    0    0  0.49088626886E+02  0.65905259616E+02 -0.42069378982E+03  0.42864491287E+03  0.00000000000E+00 0.  1.
         11    1    4    4    0    0  0.41385749010E+02  0.17637922850E+03 -0.47519131623E+03  0.50855599445E+03  0.00000000000E+00 0. -1.
          1    1    1    2  501    0 -0.18118464935E+03 -0.44625835860E+03 -0.93563343652E+03  0.10523232998E+04  0.00000000000E+00 0. -1.
<scales pt_clust_5="13000.00000" pt_clust_6="13000.00000" pt_clust_7="13000.00000" pt_clust_8="13000.00000" pt_clust_9="13000.00000"></scales>
<clustering>
<clus scale="   78.484">  5  6 -1 -1</clus>
<clus scale="   94.064">  7  8 -1 -1</clus>
<clus scale="  236.629">  2  5  1 -1</clus>
<clus scale="  365.578">  7  9 -1 -1</clus>
<clus scale="  777.011">  1  5  2 -1</clus>
</clustering>
</event>
<event>
 9    2  0.3707658E-005  0.2768864E+03  0.7546771E-02  0.1133146E+00
         21   -1    0    0  501  502  0.00000000000E+00  0.00000000000E+00  0.24151697855E+03  0.24151697855E+03  0.00000000000E+00 0. -1.
         -1   -1    0    0    0  501 -0.00000000000E+00 -0.00000000000E+00 -0.17182995691E+03  0.17182995691E+03  0.00000000000E+00 0.  1.
         24    2    1    2    0    0 -0.73090714949E+02  0.24267698011E+02 -0.34457726156E+02  0.11752234934E+03  0.81810720102E+02 0.  0.
         23    2    1    2    0    0 -0.41773443934E+02  0.51408681111E+02  0.11194302709E+03  0.15805121237E+03  0.89783469010E+02 0.  0.
        -11    1    3    3    0    0 -0.87532529512E+02  0.76572873283E+01 -0.37051608351E+02  0.95359317602E+02  0.00000000000E+00 0.  1.
         12    1    3    3    0    0  0.14441814563E+02  0.16610410683E+02  0.25938821941E+01  0.22163031737E+02  0.00000000000E+00 0. -1.
        -11    1    4    4    0    0 -0.54786171588E+02 -0.34643136782E+01  0.49582866328E+02  0.73972878137E+02  0.00000000000E+00 0.  1.
         11    1    4    4    0    0  0.13012727654E+02  0.54872994789E+02  0.62360160757E+02  0.84078334235E+02  0.00000000000E+00 0. -1.
         -2    1    1    2    0  502  0.11486415888E+03 -0.75676379122E+02 -0.77982792851E+01  0.13777337374E+03  0.00000000000E+00 0.  1.
<scales pt_clust_5="13000.00000" pt_clust_6="13000.00000" pt_clust_7="13000.00000" pt_clust_8="13000.00000" pt_clust_9="13000.00000"></scales>
<clustering>
<clus scale="   81.811">  5  6 -1 -1</clus>
<clus scale="   89.783">  7  8 -1 -1</clus>
<clus scale="  112.357">  2  5  1 -1</clus>
<clus scale="   82.463">  7  9 -1 -1</clus>
<clus scale="  276.886">  1  5  2 -1</clus>
</clustering>
</event>
<event>
 9    2  0.3707658E-005  0.2673434E+03  0.7546771E-02  0.1141834E+00
          2   -1    0    0  502    0 -0.00000000000E+00  0.00000000000E+00  0.30226741078E+03  0.30226741078E+03  0.00000000000E+00 0. -1.
         21   -1    0    0  501  502  0.00000000000E+00 -0.00000000000E+00 -0.32320538949E+03  0.32320538949E+03  0.00000000000E+00 0. -1.
         24    2    1    2    0    0 -0.33393343502E+02 -0.29334983301E+02  0.23471005793E+03  0.25556954342E+03  0.90836796480E+02 0.  0.
         23    2    1    2    0    0  0.59917664234E+01 -0.86168241288E+02 -0.20728009018E+03  0.24171862610E+03  0.89453850362E+02 0.  0.
        -13    1    3    3    0    0  0.13092438330E+02  0.25641075902E+02  0.57877333136E+02  0.64642574251E+02  0.00000000000E+00 0.  1.
         14    1    3    3    0    0 -0.46485781832E+02 -0.54976059203E+02  0.17683272480E+03  0.19092696917E+03  0.00000000000E+00 0. -1.
        -11    1    4    4    0    0 -0.21454250501E+02 -0.13764746684E+02 -0.12943654537E+03  0.13192260001E+03  0.00000000000E+00 0.  1.
         11    1    4    4    0    0  0.27446016924E+02 -0.72403494604E+02 -0.77843544815E+02  0.10979602609E+03  0.00000000000E+00 0. -1.
          1    1    1    2  501    0  0.27401577078E+02  0.11550322459E+03 -0.48367946459E+02  0.12818463075E+03  0.00000000000E+00 0. -1.
<scales pt_clust_5="13000.00000" pt_clust_6="13000.00000" pt_clust_7="13000.00000" pt_clust_8="13000.00000" pt_clust_9="13000.00000"></scales>
<clustering>
<clus scale="   89.454">  7  8 -1 -1</clus>
<clus scale="   90.837">  5  6 -1 -1</clus>
<clus scale="  101.129">  1  5  2 -1</clus>
<clus scale="   95.098">  7  9 -1 -1</clus>
<clus scale="  267.343">  2  5  1 -1</clus>
</clustering>
</event>
<event>
 9    2  0.3707658E-005  0.6530956E+03  0.7546771E-02  0.9832340E-01
         21   -1    0    0  501  502  0.00000000000E+00  0.00000000000E+00  0.17923941052E+04  0.17923941052E+04  0.00000000000E+00 0. -1.
          4   -1    0    0  502    0 -0.00000000000E+00 -0.00000000000E+00 -0.21539403858E+03  0.21539403858E+03  0.00000000000E+00 0. -1.
         24    2    1    2    0    0 -0.44988977384E+03 -0.37220222385E+03  0.76574839823E+03  0.96631651145E+03  0.80384618343E+02 0.  0.
         23    2    1    2    0    0  0.17817748561E+02  0.54845001682E+02  0.20879770956E+03  0.23502720522E+03  0.91191322523E+02 0.  0.
        -13    1    3    3    0    0 -0.58321057609E+02 -0.86237713510E+02  0.12172350939E+03  0.16017147602E+03  0.00000000000E+00 0.  1.
         14    1    3    3    0    0 -0.39156871623E+03 -0.28596451034E+03  0.64402488885E+03  0.80614503544E+03  0.00000000000E+00 0. -1.
        -13    1    4    4    0    0  0.21327985234E+02 -0.21861323783E+02  0.70752940261E+02  0.77063473756E+02  0.00000000000E+00 0.  1.
         13    1    4    4    0    0 -0.35102366738E+01  0.76706325465E+02  0.13804476929E+03  0.15796373146E+03  0.00000000000E+00 0. -1.
          3    1    1    2  501    0  0.43207202528E+03  0.31735722217E+03  0.60245395884E+03  0.80644442711E+03  0.00000000000E+00 0. -1.
<scales pt_clust_5="13000.00000" pt_clust_6="13000.00000" pt_clust_7="13000.00000" pt_clust_8="13000.00000" pt_clust_9="13000.00000"></scales>
<clustering>
<clus scale="   80.385">  5  6 -1 -1</clus>
<clus scale="   91.191">  7  8 -1 -1</clus>
<clus scale="  536.099">  7  9 -1 -1</clus>
<clus scale="  589.404">  2  5  1 -1</clus>
<clus scale="  653.096">  1  5  2 -1</clus>
</clustering>
</event>
<event>
 9    2  0.3707658E-005  0.1496167E+03  0.7546771E-02  0.1230988E+00
         -1   -1    0    0    0  501 -0.00000000000E+00  0.00000000000E+00  0.50303076466E+03  0.50303076466E+03  0.00000000000E+00 0.  1.
         21   -1    0    0  501  502  0.00000000000E+00 -0.00000000000E+00 -0.27240807762E+02  0.27240807762E+02  0.00000000000E+00 0. -1.
         24    2    1    2    0    0  0.46683879057E+01 -0.45899287946E+01  0.11484794818E+03  0.13954879563E+03  0.78999708023E+02 0.  0.
         23    2    1    2    0    0 -0.55579260781E+00 -0.33400012174E+02  0.31618974135E+03  0.33187624342E+03  0.95131586221E+02 0.  0.
        -13    1    3    3    0    0  0.36237201636E+02 -0.14860431747E+02  0.32965639449E+02  0.51192778772E+02  0.00000000000E+00 0.  1.
         14    1    3    3    0    0 -0.31568813730E+02  0.10270502952E+02  0.81882308733E+02  0.88356016856E+02  0.00000000000E+00 0. -1.
        -13    1    4    4    0    0  0.35968385442E+02 -0.24712485830E+02  0.26401861792E+03  0.26760093856E+03  0.00000000000E+00 0.  1.
         13    1    4    4    0    0 -0.36524178050E+02 -0.86875263448E+01  0.52171123423E+02  0.64275304865E+02  0.00000000000E+00 0. -1.
         -2    1    1    2    0  502 -0.41125952978E+01  0.37989940969E+02  0.44752267367E+02  0.58846533368E+02  0.00000000000E+00 0.  1.
<scales pt_clust_5="13000.00000" pt_clust_6="13000.00000" pt_clust_7="13000.00000" pt_clust_8="13000.00000" pt_clust_9="13000.00000"></scales>
<clustering>
<clus scale="   79.000">  5  6 -1 -1</clus>
<clus scale="   79.271">  1  5  2 -1</clus>
<clus scale="   95.132">  7  8 -1 -1</clus>
<clus scale="   37.518">  7  9 -1 -1</clus>
<clus scale="  149.617">  2  5  1 -1</clus>
</clustering>
</event>
<event>
 9    2  0.3707658E-005  0.1620382E+03  0.7546771E-02  0.1212740E+00
         21   -1    0    0  501  502  0.00000000000E+00  0.00000000000E+00  0.85028448750E+03  0.85028448750E+03  0.00000000000E+00 0.  1.
          2   -1    0    0  502    0 -0.00000000000E+00 -0.00000000000E+00 -0.20817590917E+02  0.20817590917E+02  0.00000000000E+00 0. -1.
         24    2    1    2    0    0 -0.17066874765E+02 -0.40769772834E+02  0.18211522655E+03  0.20377865755E+03  0.80039571084E+02 0.  0.
         23    2    1    2    0    0  0.47284833522E+02 -0.65990435053E+01  0.37060012334E+03  0.38492592019E+03  0.92434353782E+02 0.  0.
        -13    1    3    3    0    0 -0.30918356512E+02  0.14382791139E+02  0.78456885565E+02  0.85547018317E+02  0.00000000000E+00 0.  1.
         14    1    3    3    0    0  0.13851481747E+02 -0.55152563973E+02  0.10365834098E+03  0.11823163923E+03  0.00000000000E+00 0. -1.
        -13    1    4    4    0    0  0.75128198832E+02 -0.71208400751E+01  0.28965967602E+03  0.29932871652E+03  0.00000000000E+00 0.  1.
         13    1    4    4    0    0 -0.27843365311E+02  0.52179656976E+00  0.80940447321E+02  0.85597203669E+02  0.00000000000E+00 0. -1.
          1    1    1    2  501    0 -0.30217958757E+02  0.47368816339E+02  0.27675154670E+03  0.28239750068E+03  0.00000000000E+00 0. -1.
<scales pt_clust_5="13000.00000" pt_clust_6="13000.00000" pt_clust_7="13000.00000" pt_clust_8="13000.00000" pt_clust_9="13000.00000"></scales>
<clustering>
<clus scale="   80.040">  5  6 -1 -1</clus>
<clus scale="   91.432">  2  5  1 -1</clus>
<clus scale="   92.434">  7  8 -1 -1</clus>
<clus scale="   50.127">  7  9 -1 -1</clus>
<clus scale="  162.038">  1  5  2 -1</clus>
</clustering>
</event>
<event>
 9    2  0.3707658E-005  0.1974420E+03  0.7546771E-02  0.1188458E+00
         21   -1    0    0  501  502  0.00000000000E+00  0.00000000000E+00  0.54850083368E+02  0.54850083368E+02  0.00000000000E+00 0. -1.
         -3   -1    0    0    0  501 -0.00000000000E+00 -0.00000000000E+00 -0.36518800563E+03  0.36518800563E+03  0.00000000000E+00 0.  1.
         24    2    1    2    0    0 -0.22763944938E+02  0.20971741623E+02 -0.91554789234E+02  0.12533583096E+03  0.79804636177E+02 0.  0.
         23    2    1    2    0    0 -0.51714842782E+02  0.23473709689E+02 -0.14703393480E+03  0.18213922943E+03  0.91270372540E+02 0.  0.
        -11    1    3    3    0    0 -0.37172302849E+02  0.15259592898E+02 -0.99938650770E+02  0.10771429428E+03  0.00000000000E+00 0.  1.
         12    1    3    3    0    0  0.14408357911E+02  0.57121487246E+01  0.83838615365E+01  0.17621536681E+02  0.00000000000E+00 0. -1.
        -13    1    4    4    0    0 -0.61792250493E+02 -0.14220240712E+02 -0.62486203729E+02  0.89022598947E+02  0.00000000000E+00 0. -1.
         13    1    4    4    0    0  0.10077407710E+02  0.37693950401E+02 -0.84547731072E+02  0.93116630482E+02  0.00000000000E+00 0.  1.
         -4    1    1    2    0  502  0.74478787721E+02 -0.44445451312E+02 -0.71749198224E+02  0.11256302860E+03  0.00000000000E+00 0.  1.
<scales pt_clust_5="13000.00000" pt_clust_6="13000.00000" pt_clust_7="13000.00000" pt_clust_8="13000.00000" pt_clust_9="13000.00000"></scales>
<clustering>
<clus scale="   79.805">  5  6 -1 -1</clus>
<clus scale="   85.597">  2  5  1 -1</clus>
<clus scale="   91.270">  7  8 -1 -1</clus>
<clus scale="   75.892">  7  9 -1 -1</clus>
<clus scale="  197.442">  1  5  2 -1</clus>
</clustering>
</event>
<event>
 9    2  0.3707658E-005  0.2943997E+03  0.7546771E-02  0.1103552E+00
          2   -1    0    0  502    0 -0.00000000000E+00  0.00000000000E+00  0.76649691006E+03  0.76649691006E+03  0.00000000000E+00 0. -1.
         21   -1    0    0  501  502  0.00000000000E+00 -0.00000000000E+00 -0.88341499106E+02  0.88341499106E+02  0.00000000000E+00 0. -1.
         24    2    1    2    0    0  0.12556038434E+03  0.12644714672E+03  0.13923707245E+03  0.24075032578E+03  0.82580058086E+02 0.  0.
         23    2    1    2    0    0 -0.25786435728E+02  0.39126517489E+02  0.17320672201E+03  0.20042824059E+03  0.89303339456E+02 0.  0.
        -11    1    3    3    0    0  0.66091088861E+02  0.91251139113E+02  0.39463176783E+02  0.11938234684E+03  0.00000000000E+00 0.  1.
         12    1    3    3    0    0  0.59469295475E+02  0.35196007603E+02  0.99773895665E+02  0.12136797894E+03  0.00000000000E+00 0. -1.
        -13    1    4    4    0    0  0.20449885485E+02 -0.12123825430E+01  0.45895046484E+01  0.20993599994E+02  0.00000000000E+00 0.  1.
         13    1    4    4    0    0 -0.46236321213E+02  0.40338900032E+02  0.16861721736E+03  0.17943464059E+03  0.00000000000E+00 0. -1.
          1    1    1    2  501    0 -0.99773948608E+02 -0.16557366421E+03  0.36571161650E+03  0.41365984279E+03  0.00000000000E+00 0. -1.
<scales pt_clust_5="13000.00000" pt_clust_6="13000.00000" pt_clust_7="13000.00000" pt_clust_8="13000.00000" pt_clust_9="13000.00000"></scales>
<clustering>
<clus scale="   82.580">  5  6 -1 -1</clus>
<clus scale="   89.303">  7  8 -1 -1</clus>
<clus scale="  193.312">  7  9 -1 -1</clus>
<clus scale="  196.402">  1  5  2 -1</clus>
<clus scale="  294.400">  2  5  1 -1</clus>
</clustering>
</event>
<event>
 9    2  0.3707658E-005  0.2756073E+03  0.7546771E-02  0.1122467E+00
         21   -1    0    0  501  502  0.00000000000E+00  0.00000000000E+00  0.13367475433E+03  0.13367475433E+03  0.00000000000E+00 0.  1.
          2   -1    0    0  502    0 -0.00000000000E+00 -0.00000000000E+00 -0.47473180452E+03  0.47473180452E+03  0.00000000000E+00 0. -1.
         24    2    1    2    0    0 -0.12369677294E+03  0.27156402949E+02  0.24849301891E+02  0.15031613445E+03  0.77065495616E+02 0.  0.
         23    2    1    2    0    0  0.98913800180E+01  0.23900570932E+02 -0.33343445146E+02  0.10290516415E+03  0.93854199613E+02 0.  0.
        -13    1    3    3    0    0 -0.13312211712E+03  0.32098036533E+02  0.26695432586E+02  0.13951497460E+03  0.00000000000E+00 0.  1.
         14    1    3    3    0    0  0.94253441863E+01 -0.49416335840E+01 -0.18461306949E+01  0.10801159847E+02  0.00000000000E+00 0. -1.
        -13    1    4    4    0    0  0.86278303472E+01  0.56649615983E+02 -0.16692159451E+01  0.57327172696E+02  0.00000000000E+00 0. -1.
         13    1    4    4    0    0  0.12635496708E+01 -0.32749045050E+02 -0.31674229201E+02  0.45577991453E+02  0.00000000000E+00 0.  1.
          1    1    1    2  501    0  0.11380539292E+03 -0.51056973881E+02 -0.33256290694E+03  0.35518526026E+03  0.00000000000E+00 0. -1.
<scales pt_clust_5="13000.00000" pt_clust_6="13000.00000" pt_clust_7="13000.00000" pt_clust_8="13000.00000" pt_clust_9="13000.00000"></scales>
<clustering>
<clus scale="   77.065">  5  6 -1 -1</clus>
<clus scale="   93.854">  7  8 -1 -1</clus>
<clus scale="  124.734">  7  9 -1 -1</clus>
<clus scale="  148.248">  2  5  1 -1</clus>
<clus scale="  275.607">  1  5  2 -1</clus>
</clustering>
</event>
<event>
 9    2  0.3707658E-005  0.4406880E+03  0.7546771E-02  0.1086576E+00
         21   -1    0    0  501  502  0.00000000000E+00  0.00000000000E+00  0.65682135332E+02  0.65682135332E+02  0.00000000000E+00 0. -1.
          2   -1    0    0  502    0 -0.00000000000E+00 -0.00000000000E+00 -0.11054549747E+04  0.11054549747E+04  0.00000000000E+00 0. -1.
         24    2    1    2    0    0 -0.47184564683E+02 -0.49159794412E+01 -0.11608287079E+03  0.14770705935E+03  0.78048654651E+02 0.  0.
         23    2    1    2    0    0 -0.12917851423E+03  0.80795583398E+02 -0.17774461255E+03  0.25317287020E+03  0.96376034794E+02 0.  0.
        -13    1    3    3    0    0 -0.13308209536E+02 -0.36458889599E+02 -0.26884513073E+02  0.47213728035E+02  0.00000000000E+00 0.  1.
         14    1    3    3    0    0 -0.33876355147E+02  0.31542910157E+02 -0.89198357721E+02  0.10049333132E+03  0.00000000000E+00 0. -1.
        -13    1    4    4    0    0 -0.92308388186E+02  0.28784433018E+02 -0.16008161013E+03  0.18701738961E+03  0.00000000000E+00 0.  1.
         13    1    4    4    0    0 -0.36870126041E+02  0.52011150381E+02 -0.17663002414E+02  0.66155480593E+02  0.00000000000E+00 0. -1.
          1    1    1    2  501    0  0.17636307891E+03 -0.75879603957E+02 -0.74594535608E+03  0.77025718053E+03  0.00000000000E+00 0. -1.
<scales pt_clust_5="13000.00000" pt_clust_6="13000.00000" pt_clust_7="13000.00000" pt_clust_8="13000.00000" pt_clust_9="13000.00000"></scales>
<clustering>
<clus scale="   78.049">  5  6 -1 -1</clus>
<clus scale="   91.335">  2  5  1 -1</clus>
<clus scale="   96.376">  7  8 -1 -1</clus>
<clus scale="  160.771">  7  9 -1 -1</clus>
<clus scale="  440.688">  1  5  2 -1</clus>
</clustering>
</event>
<event>
 9    2  0.3707658E-005  0.2059327E+03  0.7546771E-02  0.1174597E+00
          4   -1    0    0  502    0 -0.00000000000E+00  0.00000000000E+00  0.40593801999E+03  0.40593801999E+03  0.00000000000E+00 0. -1.
         21   -1    0    0  501  502  0.00000000000E+00 -0.00000000000E+00 -0.68021603952E+02  0.68021603952E+02  0.00000000000E+00 0. -1.
         24    2    1    2    0    0 -0.43875112849E+02  0.42679367237E+02  0.37121458604E+02  0.10942444342E+03  0.82759604960E+02 0.  0.
         23    2    1    2    0    0  0.19164338659E+02  0.51891430678E+02  0.15594523789E+03  0.18979051127E+03  0.92959821939E+02 0.  0.
        -13    1    3    3    0    0 -0.34542406673E+01  0.29333480536E+02 -0.21818071381E+02  0.36720744787E+02  0.00000000000E+00 0.  1.
         14    1    3    3    0    0 -0.40420872182E+02  0.13345886701E+02  0.58939529984E+02  0.72703698631E+02  0.00000000000E+00 0. -1.
        -13    1    4    4    0    0  0.50953050582E+02  0.36559789963E+02  0.13473455086E+03  0.14861436943E+03  0.00000000000E+00 0. -1.
         13    1    4    4    0    0 -0.31788711923E+02  0.15331640715E+02  0.21210687028E+02  0.41176141842E+02  0.00000000000E+00 0.  1.
          3    1    1    2  501    0  0.24710774191E+02 -0.94570797915E+02  0.14484971955E+03  0.17474466925E+03  0.00000000000E+00 0. -1.
<scales pt_clust_5="13000.00000" pt_clust_6="13000.00000" pt_clust_7="13000.00000" pt_clust_8="13000.00000" pt_clust_9="13000.00000"></scales>
<clustering>
<clus scale="   82.760">  5  6 -1 -1</clus>
<clus scale="   92.960">  7  8 -1 -1</clus>
<clus scale="   97.746">  7  9 -1 -1</clus>
<clus scale="  102.935">  1  5  2 -1</clus>
<clus scale="  205.933">  2  5  1 -1</clus>
</clustering>
</event>
<event>
 9    2  0.3707658E-005  0.1123792E+04  0.7546771E-02  0.9740500E-01
          2   -1    0    0  502    0 -0.00000000000E+00  0.00000000000E+00  0.22461499349E+04  0.22461499349E+04  0.00000000000E+00 0. -1.
         21   -1    0    0  501  502  0.00000000000E+00 -0.00000000000E+00 -0.18263353298E+03  0.18263353298E+03  0.00000000000E+00 0. -1.
         24    2    1    2    0    0 -0.11002405136E+03 -0.73507999683E+02  0.22809544400E+03  0.27664995566E+03  0.83659718501E+02 0.  0.
         23    2    1    2    0    0 -0.31599473084E+03 -0.23104189512E+03  0.14422624877E+04  0.14972929027E+04  0.92368424000E+02 0.  0.
        -11    1    3    3    0    0 -0.10076430331E+03 -0.91270486453E+02  0.20607336826E+03  0.24688049665E+03  0.00000000000E+00 0.  1.
         12    1    3    3    0    0 -0.92597480524E+01  0.17762486770E+02  0.22022075740E+02  0.29769459017E+02  0.00000000000E+00 0. -1.
        -11    1    4    4    0    0 -0.22326786578E+03 -0.21095853144E+03  0.11192965246E+04  0.11606794354E+04  0.00000000000E+00 0. -1.
         11    1    4    4    0    0 -0.92726865065E+02 -0.20083363682E+02  0.32296596311E+03  0.33661346724E+03  0.00000000000E+00 0.  1.
          1    1    1    2  501    0  0.42601878220E+03  0.30454989480E+03  0.39315847022E+03  0.65484060955E+03  0.00000000000E+00 0. -1.
<scales pt_clust_5="13000.00000" pt_clust_6="13000.00000" pt_clust_7="13000.00000" pt_clust_8="13000.00000" pt_clust_9="13000.00000"></scales>
<clustering>
<clus scale="   83.660">  5  6 -1 -1</clus>
<clus scale="   92.368">  7  8 -1 -1</clus>
<clus scale="  156.549">  1  5  2 -1</clus>
<clus scale="  488.925">  7  9 -1 -1</clus>
<clus scale=" 1123.792">  2  5  1 -1</clus>
</clustering>
</event>
<event>
 9    2  0.3707658E-005  0.2370896E+03  0.7546771E-02  0.1161300E+00
         21   -1    0    0  501  502  0.00000000000E+00  0.00000000000E+00  0.80170966137E+03  0.80170966137E+03  0.00000000000E+00 0. -1.
          2   -1    0    0  502    0 -0.00000000000E+00 -0.00000000000E+00 -0.36690753291E+02  0.36690753291E+02  0.00000000000E+00 0. -1.
         24    2    1    2    0    0  0.30921193725E+02  0.39886934669E+02  0.11818688781E+03  0.14948593612E+03  0.76359785673E+02 0.  0.
         23    2    1    2    0    0  0.17459015627E+02  0.24463102651E+02  0.11547668431E+03  0.15149465661E+03  0.93340804276E+02 0.  0.
        -11    1    3    3    0    0  0.24198446983E+02 -0.19922602573E+02  0.40642004324E+02  0.51324920314E+02  0.00000000000E+00 0.  1.
         12    1    3    3    0    0  0.67227467426E+01  0.59809537243E+02  0.77544883482E+02  0.98161015802E+02  0.00000000000E+00 0. -1.
        -13    1    4    4    0    0  0.24881587622E+02 -0.44251860453E+00  0.12215341225E+03  0.12466252585E+03  0.00000000000E+00 0. -1.
         13    1    4    4    0    0 -0.74225719953E+01  0.24905621255E+02 -0.66767279417E+01  0.26832130760E+02  0.00000000000E+00 0.  1.
          1    1    1    2  501    0 -0.48380209352E+02 -0.64350037320E+02  0.53135533596E+03  0.53741982194E+03  0.00000000000E+00 0. -1.
<scales pt_clust_5="13000.00000" pt_clust_6="13000.00000" pt_clust_7="13000.00000" pt_clust_8="13000.00000" pt_clust_9="13000.00000"></scales>
<clustering>
<clus scale="   76.360">  5  6 -1 -1</clus>
<clus scale="   91.531">  2  5  1 -1</clus>
<clus scale="   93.341">  7  8 -1 -1</clus>
<clus scale="   73.236">  7  9 -1 -1</clus>
<clus scale="  237.090">  1  5  2 -1</clus>
</clustering>
</event>
<event>
 9    2  0.3707658E-005  0.7157758E+03  0.7546771E-02  0.9943284E-01
          2   -1    0    0  502    0 -0.00000000000E+00  0.00000000000E+00  0.49346884449E+03  0.49346884449E+03  0.00000000000E+00 0. -1.
         21   -1    0    0  501  502  0.00000000000E+00 -0.00000000000E+00 -0.54720048473E+03  0.54720048473E+03  0.00000000000E+00 0.  1.
         24    2    1    2    0    0  0.26157197574E+03  0.15254998380E+03 -0.84418783684E+02  0.32423598686E+03  0.79442105290E+02 0.  0.
         23    2    1    2    0    0  0.16122898895E+03 -0.33340906838E+02 -0.15171776030E+03  0.24078325176E+03  0.88610905587E+02 0.  0.
        -13    1    3    3    0    0  0.23616789683E+03  0.15930900976E+03 -0.66841748403E+02  0.29261314976E+03  0.00000000000E+00 0.  1.
         14    1    3    3    0    0  0.25404078910E+02 -0.67590259673E+01 -0.17577035280E+02  0.31622837105E+02  0.00000000000E+00 0. -1.
        -11    1    4    4    0    0  0.10258036020E+03 -0.53822218427E+02 -0.61245923770E+02  0.13103673025E+03  0.00000000000E+00 0.  1.
         11    1    4    4    0    0  0.58648628753E+02  0.20481311588E+02 -0.90471836526E+02  0.10974652151E+03  0.00000000000E+00 0. -1.
          1    1    1    2  501    0 -0.42280096469E+03 -0.11920907696E+03  0.18240490374E+03  0.47565009059E+03  0.00000000000E+00 0. -1.
<scales pt_clust_5="13000.00000" pt_clust_6="13000.00000" pt_clust_7="13000.00000" pt_clust_8="13000.00000" pt_clust_9="13000.00000"></scales>
<clustering>
<clus scale="   79.442">  5  6 -1 -1</clus>
<clus scale="   88.611">  7  8 -1 -1</clus>
<clus scale="  313.054">  1  5  2 -1</clus>
<clus scale="  193.007">  7  9 -1 -1</clus>
<clus scale="  715.776">  2  5  1 -1</clus>
</clustering>
</event>
<event>
 9    2  0.3707658E-005  0.3412455E+03  0.7546771E-02  0.1078004E+00
          2   -1    0    0  502    0 -0.00000000000E+00  0.00000000000E+00  0.23256589190E+03  0.23256589190E+03  0.00000000000E+00 0. -1.
         21   -1    0    0  501  502  0.00000000000E+00 -0.00000000000E+00 -0.40877150809E+03  0.40877150809E+03  0.00000000000E+00 0. -1.
         24    2    1    2    0    0  0.78333932213E+02 -0.22091166404E+03  0.18853264263E+02  0.24827699581E+03  0.79673413555E+02 0.  0.
         23    2    1    2    0    0  0.53760870923E+02  0.35571006618E+02 -0.85004102332E+02  0.14025168104E+03  0.91045641665E+02 0.  0.
        -13    1    3    3    0    0  0.25185488634E+02 -0.13044862112E+02 -0.13300798724E+02  0.31327121028E+02  0.00000000000E+00 0.  1.
         14    1    3    3    0    0  0.53148443579E+02 -0.20786680193E+03  0.32154062987E+02  0.21694987478E+03  0.00000000000E+00 0. -1.
        -11    1    4    4    0    0  0.53412071939E+01 -0.28473292710E+02 -0.10778363059E+02  0.30910030771E+02  0.00000000000E+00 0. -1.
         11    1    4    4    0    0  0.48419663729E+02  0.64044299328E+02 -0.74225739273E+02  0.10934165027E+03  0.00000000000E+00 0.  1.
          1    1    1    2  501    0 -0.13209480314E+03  0.18534065742E+03 -0.11005477812E+03  0.25280872314E+03  0.00000000000E+00 0. -1.
<scales pt_clust_5="13000.00000" pt_clust_6="13000.00000" pt_clust_7="13000.00000" pt_clust_8="13000.00000" pt_clust_9="13000.00000"></scales>
<clustering>
<clus scale="   79.673">  5  6 -1 -1</clus>
<clus scale="   91.046">  7  8 -1 -1</clus>
<clus scale="  227.597">  7  9 -1 -1</clus>
<clus scale="  247.560">  1  5  2 -1</clus>
<clus scale="  341.246">  2  5  1 -1</clus>
</clustering>
</event>
<event>
 9    2  0.3707658E-005  0.6469901E+03  0.7546771E-02  0.1038899E+00
         21   -1    0    0  501  502  0.00000000000E+00  0.00000000000E+00  0.42070904155E+03  0.42070904155E+03  0.00000000000E+00 0. -1.
          4   -1    0    0  502    0 -0.00000000000E+00 -0.00000000000E+00 -0.33960661531E+03  0.33960661531E+03  0.00000000000E+00 0. -1.
         24    2    1    2    0    0 -0.73859613051E+02  0.11503098411E+02  0.15621268614E+02  0.11002033655E+03  0.79201557483E+02 0.  0.
         23    2    1    2    0    0 -0.23611288075E+03 -0.11489471160E+03 -0.85323222663E+02  0.29041376521E+03  0.90055624419E+02 0.  0.
        -13    1    3    3    0    0  0.11492154140E+02  0.17096575090E+02 -0.66262706253E+01  0.21639545952E+02  0.00000000000E+00 0.  1.
         14    1    3    3    0    0 -0.85351767191E+02 -0.55934766792E+01  0.22247539239E+02  0.88380790595E+02  0.00000000000E+00 0. -1.
        -13    1    4    4    0    0 -0.13791510853E+03 -0.10743857872E+03 -0.78667612364E+02  0.19170868158E+03  0.00000000000E+00 0. -1.
         13    1    4    4    0    0 -0.98197772215E+02 -0.74561328802E+01 -0.66556102988E+01  0.98705083627E+02  0.00000000000E+00 0.  1.
          3    1    1    2  501    0  0.30997249380E+03  0.10339161319E+03  0.15080438029E+03  0.35988155510E+03  0.00000000000E+00 0. -1.
<scales pt_clust_5="13000.00000" pt_clust_6="13000.00000" pt_clust_7="13000.00000" pt_clust_8="13000.00000" pt_clust_9="13000.00000"></scales>
<clustering>
<clus scale="   79.202">  5  6 -1 -1</clus>
<clus scale="   90.056">  7  8 -1 -1</clus>
<clus scale="  108.906">  2  5  1 -1</clus>
<clus scale="  303.261">  7  9 -1 -1</clus>
<clus scale="  646.990">  1  5  2 -1</clus>
</clustering>
</event>
<event>
 9    2  0.3707658E-005  0.3568738E+03  0.7546771E-02  0.1089840E+00
          2   -1    0    0  502    0 -0.00000000000E+00  0.00000000000E+00  0.23284181772E+04  0.23284181772E+04  0.00000000000E+00 0. -1.
         21   -1    0    0  501  502  0.00000000000E+00 -0.00000000000E+00 -0.72656714266E+02  0.72656714266E+02  0.00000000000E+00 0. -1.
         24    2    1    2    0    0 -0.95014242829E+02  0.97252854705E+02  0.18658394843E+04  0.18724937406E+04  0.79937494402E+02 0.  0.
         23    2    1    2    0    0 -0.50252124571E+02 -0.12421216792E+02  0.32950517529E+03  0.34983855833E+03  0.10551679343E+03 0.  0.
        -13    1    3    3    0    0 -0.32717000431E+02  0.33783892319E+02  0.26179009350E+03  0.26598083870E+03  0.00000000000E+00 0.  1.
         14    1    3    3    0    0 -0.62297242398E+02  0.63468962385E+02  0.16040493908E+04  0.16065129019E+04  0.00000000000E+00 0. -1.
        -11    1    4    4    0    0  0.17430644147E+02  0.22227175864E+02  0.31606429341E+02  0.42389162270E+02  0.00000000000E+00 0.  1.
         11    1    4    4    0    0 -0.67682768718E+02 -0.34648392656E+02  0.29789874595E+03  0.30744939606E+03  0.00000000000E+00 0. -1.
          1    1    1    2  501    0  0.14526636740E+03 -0.84831637913E+02  0.60416803326E+02  0.17874259261E+03  0.00000000000E+00 0. -1.
<scales pt_clust_5="13000.00000" pt_clust_6="13000.00000" pt_clust_7="13000.00000" pt_clust_8="13000.00000" pt_clust_9="13000.00000"></scales>
<clustering>
<clus scale="   79.937">  5  6 -1 -1</clus>
<clus scale="  105.517">  7  8 -1 -1</clus>
<clus scale="  157.721">  1  5  2 -1</clus>
<clus scale="  134.417">  7  9 -1 -1</clus>
<clus scale="  356.874">  2  5  1 -1</clus>
</clustering>
</event>
<event>
 9    2  0.3707658E-005  0.2748438E+03  0.7546771E-02  0.1140222E+00
          2   -1    0    0  502    0 -0.00000000000E+00  0.00000000000E+00  0.62614991771E+03  0.62614991771E+03  0.00000000000E+00 0. -1.
         21   -1    0    0  501  502  0.00000000000E+00 -0.00000000000E+00 -0.75506690793E+02  0.75506690793E+02  0.00000000000E+00 0.  1.
         24    2    1    2    0    0 -0.24161992710E+02  0.49874601593E+02  0.12722074617E+02  0.97588493165E+02  0.79311947649E+02 0.  0.
         23    2    1    2    0    0  0.55072514742E+02 -0.11982870295E+03  0.18929946002E+03  0.24715619203E+03  0.88656628442E+02 0.  0.
        -13    1    3    3    0    0  0.22747104994E+02  0.35471583898E+02  0.22172940085E+02  0.47616208605E+02  0.00000000000E+00 0.  1.
         14    1    3    3    0    0 -0.46909097704E+02  0.14403017695E+02 -0.94508654678E+01  0.49972284561E+02  0.00000000000E+00 0. -1.
        -13    1    4    4    0    0  0.21238617805E+02  0.10853047508E+02  0.25916544963E+02  0.35221226970E+02  0.00000000000E+00 0.  1.
         13    1    4    4    0    0  0.33833896937E+02 -0.13068175045E+03  0.16338291506E+03  0.21193496506E+03  0.00000000000E+00 0. -1.
          1    1    1    2  501    0 -0.30910522032E+02  0.69954101352E+02  0.34862169228E+03  0.35691192330E+03  0.00000000000E+00 0. -1.
<scales pt_clust_5="13000.00000" pt_clust_6="13000.00000" pt_clust_7="13000.00000" pt_clust_8="13000.00000" pt_clust_9="13000.00000"></scales>
<clustering>
<clus scale="   79.312">  5  6 -1 -1</clus>
<clus scale="   88.657">  7  8 -1 -1</clus>
<clus scale="   76.479">  7  9 -1 -1</clus>
<clus scale="   96.756">  1  5  2 -1</clus>
<clus scale="  274.844">  2  5  1 -1</clus>
</clustering>
</event>
<event>
 9    2  0.3707658E-005  0.1064489E+04  0.7546771E-02  0.9741409E-01
         -3   -1    0    0    0  501 -0.00000000000E+00  0.00000000000E+00  0.39138581039E+03  0.39138581039E+03  0.00000000000E+00 0.  1.
         21   -1    0    0  501  502  0.00000000000E+00 -0.00000000000E+00 -0.10723800366E+04  0.10723800366E+04  0.00000000000E+00 0.  1.
         24    2    1    2    0    0  0.88364958277E+02 -0.12245070020E+03  0.26592961414E+02  0.18555762898E+03  0.10450793389E+03 0.  0.
         23    2    1    2    0    0  0.34415289549E+03  0.21833157541E+03 -0.72303263021E+03  0.83492118039E+03  0.90594154470E+02 0.  0.
        -11    1    3    3    0    0  0.77806341739E+02 -0.69694206826E+02 -0.28782323323E+02  0.10834911821E+03  0.00000000000E+00 0.  1.
         12    1    3    3    0    0  0.10558616538E+02 -0.52756493370E+02  0.55375284737E+02  0.77208510772E+02  0.00000000000E+00 0. -1.
        -11    1    4    4    0    0  0.30954914508E+03  0.22433710280E+03 -0.66711023791E+03  0.76888482781E+03  0.00000000000E+00 0.  1.
         11    1    4    4    0    0  0.34603750406E+02 -0.60055273933E+01 -0.55922392296E+02  0.66036352576E+02  0.00000000000E+00 0. -1.
         -4    1    1    2    0  502 -0.43251785376E+03 -0.95880875212E+02  0.15445442556E+02  0.44328703765E+03  0.00000000000E+00 0.  1.
<scales pt_clust_5="13000.00000" pt_clust_6="13000.00000" pt_clust_7="13000.00000" pt_clust_8="13000.00000" pt_clust_9="13000.00000"></scales>
<clustering>
<clus scale="   90.594">  7  8 -1 -1</clus>
<clus scale="  104.508">  5  6 -1 -1</clus>
<clus scale="  183.642">  1  5  2 -1</clus>
<clus scale="  410.400">  7  9 -1 -1</clus>
<clus scale=" 1064.489">  2  5  1 -1</clus>
</clustering>
</event>
<event>
 9    2  0.3707658E-005  0.2302244E+03  0.7546771E-02  0.1159598E+00
         21   -1    0    0  501  502  0.00000000000E+00  0.00000000000E+00  0.83630331251E+02  0.83630331251E+02  0.00000000000E+00 0. -1.
          2   -1    0    0  502    0 -0.00000000000E+00 -0.00000000000E+00 -0.33441958243E+03  0.33441958243E+03  0.00000000000E+00 0. -1.
         24    2    1    2    0    0 -0.60713869732E+02 -0.27571142315E+02 -0.85491011544E+02  0.13463015312E+03  0.79813678073E+02 0.  0.
         23    2    1    2    0    0 -0.30143993008E+01 -0.54765149554E+02 -0.14121503217E+03  0.17655274922E+03  0.90669067140E+02 0.  0.
        -13    1    3    3    0    0 -0.30724522219E+02 -0.12956784577E+02 -0.94386840133E+02  0.10010369685E+03  0.00000000000E+00 0.  1.
         14    1    3    3    0    0 -0.29989347513E+02 -0.14614357738E+02  0.88958285897E+01  0.34526456271E+02  0.00000000000E+00 0. -1.
        -13    1    4    4    0    0  0.10260612854E+02 -0.30097896112E+02 -0.14485551315E+03  0.14830469721E+03  0.00000000000E+00 0. -1.
         13    1    4    4    0    0 -0.13275012155E+02 -0.24667253443E+02  0.36404809781E+01  0.28248052002E+02  0.00000000000E+00 0.  1.
          1    1    1    2  501    0  0.63728269033E+02  0.82336291869E+02 -0.24083207468E+02  0.10686701135E+03  0.00000000000E+00 0. -1.
<scales pt_clust_5="13000.00000" pt_clust_6="13000.00000" pt_clust_7="13000.00000" pt_clust_8="13000.00000" pt_clust_9="13000.00000"></scales>
<clustering>
<clus scale="   79.814">  5  6 -1 -1</clus>
<clus scale="   90.669">  7  8 -1 -1</clus>
<clus scale="  104.003">  2  5  1 -1</clus>
<clus scale="   87.384">  7  9 -1 -1</clus>
<clus scale="  230.224">  1  5  2 -1</clus>
</clustering>
</event>
<event>
 9    2  0.3707658E-005  0.2740245E+03  0.7546771E-02  0.1140999E+00
         21   -1    0    0  501  502  0.00000000000E+00  0.00000000000E+00  0.35916834039E+02  0.35916834039E+02  0.00000000000E+00 0. -1.
          2   -1    0    0  502    0 -0.00000000000E+00 -0.00000000000E+00 -0.98042198489E+03  0.98042198489E+03  0.00000000000E+00 0. -1.
         24    2    1    2    0    0 -0.20178626931E+02 -0.56589086846E+02 -0.32732533467E+03  0.34106085487E+03  0.74640004496E+02 0.  0.
         23    2    1    2    0    0  0.89031186713E+02 -0.21824203827E+02 -0.20828379453E+03  0.25327645261E+03  0.11119340944E+03 0.  0.
        -11    1    3    3    0    0 -0.26756360923E+02  0.70470412092E+01 -0.15040683920E+03  0.15293064087E+03  0.00000000000E+00 0.  1.
         12    1    3    3    0    0  0.65777339920E+01 -0.63636128056E+02 -0.17691849547E+03  0.18813021400E+03  0.00000000000E+00 0. -1.
        -13    1    4    4    0    0  0.43106185162E+02 -0.28229649734E+02 -0.13802710437E+02  0.53343895047E+02  0.00000000000E+00 0. -1.
         13    1    4    4    0    0  0.45925001551E+02  0.64054459071E+01 -0.19448108409E+03  0.19993255757E+03  0.00000000000E+00 0.  1.
          1    1    1    2  501    0 -0.68852559782E+02  0.78413290673E+02 -0.40889602165E+03  0.42200151145E+03  0.00000000000E+00 0. -1.
<scales pt_clust_5="13000.00000" pt_clust_6="13000.00000" pt_clust_7="13000.00000" pt_clust_8="13000.00000" pt_clust_9="13000.00000"></scales>
<clustering>
<clus scale="   74.640">  5  6 -1 -1</clus>
<clus scale="   95.816">  2  5  1 -1</clus>
<clus scale="  111.193">  7  8 -1 -1</clus>
<clus scale="   91.990">  7  9 -1 -1</clus>
<clus scale="  274.024">  1  5  2 -1</clus>
</clustering>
</event>
<event>
 9    2  0.3707658E-005  0.2280334E+03  0.7546771E-02  0.1166171E+00
         21   -1    0    0  501  502  0.00000000000E+00  0.00000000000E+00  0.46801583512E+02  0.46801583512E+02  0.00000000000E+00 0. -1.
          2   -1    0    0  502    0 -0.00000000000E+00 -0.00000000000E+00 -0.63752411939E+03  0.63752411939E+03  0.00000000000E+00 0. -1.
         24    2    1    2    0    0 -0.43121895957E+02 -0.84693660102E+01 -0.68961757548E+02  0.11491062167E+03  0.80731028090E+02 0.  0.
         23    2    1    2    0    0 -0.24980792464E+01  0.89290782236E+02 -0.23071140171E+03  0.26392690946E+03  0.91927027959E+02 0.  0.
        -11    1    3    3    0    0 -0.23966456393E+02 -0.40684249161E+02 -0.60040728113E+02  0.76383821548E+02  0.00000000000E+00 0.  1.
         12    1    3    3    0    0 -0.19155439564E+02  0.32214883151E+02 -0.89210294347E+01  0.38526800120E+02  0.00000000000E+00 0. -1.
        -11    1    4    4    0    0 -0.25953206318E+02 -0.81347939613E+01 -0.61920682146E+02  0.67630722814E+02  0.00000000000E+00 0.  1.
         11    1    4    4    0    0  0.23455127072E+02  0.97425576197E+02 -0.16879071956E+03  0.19629618665E+03  0.00000000000E+00 0. -1.
          1    1    1    2  501    0  0.45619975203E+02 -0.80821416226E+02 -0.29104937662E+03  0.30548817177E+03  0.00000000000E+00 0. -1.
<scales pt_clust_5="13000.00000" pt_clust_6="13000.00000" pt_clust_7="13000.00000" pt_clust_8="13000.00000" pt_clust_9="13000.00000"></scales>
<clustering>
<clus scale="   80.731">  5  6 -1 -1</clus>
<clus scale="   91.917">  2  5  1 -1</clus>
<clus scale="   91.927">  7  8 -1 -1</clus>
<clus scale="   88.250">  7  9 -1 -1</clus>
<clus scale="  228.033">  1  5  2 -1</clus>
</clustering>
</event>
<event>
 9    2  0.3707658E-005  0.3587799E+03  0.7546771E-02  0.1115210E+00
          2   -1    0    0  502    0 -0.00000000000E+00  0.00000000000E+00  0.20263212317E+03  0.20263212317E+03  0.00000000000E+00 0. -1.
         21   -1    0    0  501  502  0.00000000000E+00 -0.00000000000E+00 -0.30871088044E+03  0.30871088044E+03  0.00000000000E+00 0.  1.
         24    2    1    2    0    0  0.24240824763E+01 -0.86385919942E+01  0.74429716205E+02  0.10971339892E+03  0.80104592879E+02 0.  0.
         23    2    1    2    0    0 -0.67326461208E+02 -0.21720509009E+02 -0.26579201292E+03  0.29024165257E+03  0.92683277144E+02 0.  0.
        -11    1    3    3    0    0  0.24639152398E+02  0.28068269276E+02  0.39763331320E+02  0.54553075887E+02  0.00000000000E+00 0.  1.
         12    1    3    3    0    0 -0.22215069921E+02 -0.36706861271E+02  0.34666384885E+02  0.55160323031E+02  0.00000000000E+00 0. -1.
        -11    1    4    4    0    0 -0.62128019880E+02 -0.50625634940E+02 -0.23209669806E+03  0.24554372934E+03  0.00000000000E+00 0.  1.
         11    1    4    4    0    0 -0.51984413277E+01  0.28905125931E+02 -0.33695314857E+02  0.44697923225E+02  0.00000000000E+00 0. -1.
          1    1    1    2  501    0  0.64902378731E+02  0.30359101003E+02  0.85283539441E+02  0.11138795212E+03  0.00000000000E+00 0. -1.
<scales pt_clust_5="13000.00000" pt_clust_6="13000.00000" pt_clust_7="13000.00000" pt_clust_8="13000.00000" pt_clust_9="13000.00000"></scales>
<clustering>
<clus scale="   80.105">  5  6 -1 -1</clus>
<clus scale="   80.606">  1  5  2 -1</clus>
<clus scale="   92.683">  7  8 -1 -1</clus>
<clus scale="   70.789">  7  9 -1 -1</clus>
<clus scale="  358.780">  2  5  1 -1</clus>
</clustering>
</event>
<event>
 9    2  0.3707658E-005  0.1374513E+03  0.7546771E-02  0.1241739E+00
         21   -1    0    0  501  502  0.00000000000E+00  0.00000000000E+00  0.24509703093E+02  0.24509703093E+02  0.00000000000E+00 0.  1.
         -3   -1    0    0    0  501 -0.00000000000E+00 -0.00000000000E+00 -0.52422388135E+03  0.52422388135E+03  0.00000000000E+00 0.  1.
         24    2    1    2    0    0  0.13944876227E+02 -0.19791934597E+02 -0.25717481394E+03  0.26995375761E+03  0.78421719394E+02 0.  0.
         23    2    1    2    0    0 -0.43647494640E+02  0.10057325880E+02 -0.14979668247E+03  0.18091148066E+03  0.91014637080E+02 0.  0.
        -13    1    3    3    0    0  0.26055611892E+02 -0.42839643270E+02 -0.11561643124E+03  0.12602098682E+03  0.00000000000E+00 0.  1.
         14    1    3    3    0    0 -0.12110735665E+02  0.23047708673E+02 -0.14155838270E+03  0.14393277079E+03  0.00000000000E+00 0. -1.
        -13    1    4    4    0    0  0.23740391231E+02 -0.27294936749E+01 -0.11456967030E+02  0.26501290630E+02  0.00000000000E+00 0. -1.
         13    1    4    4    0    0 -0.67387885871E+02  0.12786819555E+02 -0.13833971544E+03  0.15441019003E+03  0.00000000000E+00 0.  1.
         -4    1    1    2    0  502  0.29702618413E+02  0.97346087166E+01 -0.92742681843E+02  0.97868346174E+02  0.00000000000E+00 0.  1.
<scales pt_clust_5="13000.00000" pt_clust_6="13000.00000" pt_clust_7="13000.00000" pt_clust_8="13000.00000" pt_clust_9="13000.00000"></scales>
<clustering>
<clus scale="   78.422">  5  6 -1 -1</clus>
<clus scale="   82.074">  2  5  1 -1</clus>
<clus scale="   91.015">  7  8 -1 -1</clus>
<clus scale="   34.891">  7  9 -1 -1</clus>
<clus scale="  137.451">  1  5  2 -1</clus>
</clustering>
</event>
<event>
 9    2  0.3707658E-005  0.2077598E+03  0.7546771E-02  0.1171926E+00
         21   -1    0    0  501  502  0.00000000000E+00  0.00000000000E+00  0.27988622711E+02  0.27988622711E+02  0.00000000000E+00 0. -1.
          2   -1    0    0  502    0 -0.00000000000E+00 -0.00000000000E+00 -0.10827509853E+04  0.10827509853E+04  0.00000000000E+00 0. -1.
         24    2    1    2    0    0 -0.30398338246E+02 -0.63298617897E+02 -0.61761330884E+03  0.62673191803E+03  0.80099462062E+02 0.  0.
         23    2    1    2    0    0  0.45536798528E+02 -0.24949548389E+02 -0.13955114937E+03  0.17323216887E+03  0.88536890929E+02 0.  0.
        -11    1    3    3    0    0 -0.40127239249E+02 -0.40199193089E+02 -0.18811779752E+03  0.19650566454E+03  0.00000000000E+00 0.  1.
         12    1    3    3    0    0  0.97289010024E+01 -0.23099424808E+02 -0.42949551132E+03  0.43022625348E+03  0.00000000000E+00 0. -1.
        -13    1    4    4    0    0  0.72286415798E+02 -0.22794172092E+02 -0.10400852982E+03  0.12869605459E+03  0.00000000000E+00 0. -1.
         13    1    4    4    0    0 -0.26749617269E+02 -0.21553762970E+01 -0.35542619551E+02  0.44536114284E+02  0.00000000000E+00 0.  1.
          1    1    1    2  501    0 -0.15138460282E+02  0.88248166285E+02 -0.29759790433E+03  0.31077552106E+03  0.00000000000E+00 0. -1.
<scales pt_clust_5="13000.00000" pt_clust_6="13000.00000" pt_clust_7="13000.00000" pt_clust_8="13000.00000" pt_clust_9="13000.00000"></scales>
<clustering>
<clus scale="   80.099">  5  6 -1 -1</clus>
<clus scale="   88.537">  7  8 -1 -1</clus>
<clus scale="   89.537">  7  9 -1 -1</clus>
<clus scale="  106.521">  2  5  1 -1</clus>
<clus scale="  207.760">  1  5  2 -1</clus>
</clustering>
</event>
<event>
 9    2  0.3707658E-005  0.7222868E+03  0.7546771E-02  0.1013397E+00
         21   -1    0    0  501  502  0.00000000000E+00  0.00000000000E+00  0.62467426956E+03  0.62467426956E+03  0.00000000000E+00 0. -1.
          2   -1    0    0  502    0 -0.00000000000E+00 -0.00000000000E+00 -0.43353531102E+03  0.43353531102E+03  0.00000000000E+00 0. -1.
         24    2    1    2    0    0  0.12387343820E+03  0.79979382000E+02 -0.18004448518E+03  0.24612869864E+03  0.80137315981E+02 0.  0.
         23    2    1    2    0    0  0.11924406596E+03 -0.30314756791E+02  0.50673828050E+03  0.52933044498E+03  0.90933510372E+02 0.  0.
        -13    1    3    3    0    0  0.10718751232E+03  0.29556697620E+02 -0.97000021287E+02  0.14755258487E+03  0.00000000000E+00 0.  1.
         14    1    3    3    0    0  0.16685925880E+02  0.50422684380E+02 -0.83044463891E+02  0.98576113767E+02  0.00000000000E+00 0. -1.
        -11    1    4    4    0    0  0.12626006551E+02 -0.33153980023E+02  0.57164143865E+02  0.67278092843E+02  0.00000000000E+00 0.  1.
         11    1    4    4    0    0  0.10661805941E+03  0.28392232313E+01  0.44957413664E+03  0.46205235214E+03  0.00000000000E+00 0. -1.
          1    1    1    2  501    0 -0.24311750416E+03 -0.49664625209E+02 -0.13555483678E+03  0.28275043696E+03  0.00000000000E+00 0. -1.
<scales pt_clust_5="13000.00000" pt_clust_6="13000.00000" pt_clust_7="13000.00000" pt_clust_8="13000.00000" pt_clust_9="13000.00000"></scales>
<clustering>
<clus scale="   80.137">  5  6 -1 -1</clus>
<clus scale="   90.934">  7  8 -1 -1</clus>
<clus scale="  167.819">  2  5  1 -1</clus>
<clus scale="  128.299">  7  9 -1 -1</clus>
<clus scale="  722.287">  1  5  2 -1</clus>
</clustering>
</event>
<event>
 9    2  0.3707658E-005  0.4789007E+03  0.7546771E-02  0.1076978E+00
          4   -1    0    0  502    0 -0.00000000000E+00  0.00000000000E+00  0.14022972089E+03  0.14022972089E+03  0.00000000000E+00 0. -1.
         21   -1    0    0  501  502  0.00000000000E+00 -0.00000000000E+00 -0.67784279488E+03  0.67784279488E+03  0.00000000000E+00 0. -1.
         24    2    1    2    0    0 -0.38241588888E+02 -0.72596059257E+01  0.75937410624E+01  0.92402914741E+02  0.83459647437E+02 0.  0.
         23    2    1    2    0    0 -0.14106419686E+03  0.12940866402E+03 -0.43050328366E+03  0.48025595570E+03  0.93096701266E+02 0.  0.
        -11    1    3    3    0    0  0.17271494365E+02 -0.15509562263E+02 -0.19282034839E+02  0.30176943297E+02  0.00000000000E+00 0.  1.
         12    1    3    3    0    0 -0.55513083253E+02  0.82499563374E+01  0.26875775901E+02  0.62225971444E+02  0.00000000000E+00 0. -1.
        -13    1    4    4    0    0 -0.41250487559E+02  0.53174756527E+02 -0.64163605259E+02  0.92984545465E+02  0.00000000000E+00 0.  1.
         13    1    4    4    0    0 -0.99813709302E+02  0.76233907490E+02 -0.36633967840E+03  0.38727141024E+03  0.00000000000E+00 0. -1.
          3    1    1    2  501    0  0.17930578575E+03 -0.12214905809E+03 -0.11470353140E+03  0.24541364532E+03  0.00000000000E+00 0. -1.
<scales pt_clust_5="13000.00000" pt_clust_6="13000.00000" pt_clust_7="13000.00000" pt_clust_8="13000.00000" pt_clust_9="13000.00000"></scales>
<clustering>
<clus scale="   83.460">  5  6 -1 -1</clus>
<clus scale="   92.090">  1  5  2 -1</clus>
<clus scale="   93.097">  7  8 -1 -1</clus>
<clus scale="  198.034">  7  9 -1 -1</clus>
<clus scale="  478.901">  2  5  1 -1</clus>
</clustering>
</event>
<event>
 9    2  0.3707658E-005  0.3715865E+03  0.7546771E-02  0.1082699E+00
         21   -1    0    0  501  502  0.00000000000E+00  0.00000000000E+00  0.10159636520E+03  0.10159636520E+03  0.00000000000E+00 0. -1.
          2   -1    0    0  502    0 -0.00000000000E+00 -0.00000000000E+00 -0.71945297512E+03  0.71945297512E+03  0.00000000000E+00 0. -1.
         24    2    1    2    0    0  0.58148199644E+02  0.13683212318E+03 -0.20240684041E+03  0.26366702538E+03  0.80296501607E+02 0.  0.
         23    2    1    2    0    0  0.43776257020E+02  0.80604004133E+02 -0.11678028296E+03  0.17414540841E+03  0.90970449166E+02 0.  0.
        -11    1    3    3    0    0 -0.17118932755E+02  0.48128243492E+02 -0.78952134045E+02  0.94036296985E+02  0.00000000000E+00 0.  1.
         12    1    3    3    0    0  0.75267132398E+02  0.88703879692E+02 -0.12345470637E+03  0.16963072840E+03  0.00000000000E+00 0. -1.
        -13    1    4    4    0    0  0.43472833687E+02  0.51035297734E+02 -0.15735731865E+02  0.68862922831E+02  0.00000000000E+00 0.  1.
         13    1    4    4    0    0  0.30342333366E+00  0.29568706399E+02 -0.10104455110E+03  0.10528248558E+03  0.00000000000E+00 0. -1.
          1    1    1    2  501    0 -0.10192445666E+03 -0.21743612732E+03 -0.29866948655E+03  0.38323690653E+03  0.00000000000E+00 0. -1.
<scales pt_clust_5="13000.00000" pt_clust_6="13000.00000" pt_clust_7="13000.00000" pt_clust_8="13000.00000" pt_clust_9="13000.00000"></scales>
<clustering>
<clus scale="   80.297">  5  6 -1 -1</clus>
<clus scale="   90.970">  7  8 -1 -1</clus>
<clus scale="  168.973">  2  5  1 -1</clus>
<clus scale="  136.049">  7  9 -1 -1</clus>
<clus scale="  371.587">  1  5  2 -1</clus>
</clustering>
</event>
<event>
 9    2  0.3707658E-005  0.3820813E+03  0.7546771E-02  0.1077954E+00
         21   -1    0    0  501  502  0.00000000000E+00  0.00000000000E+00  0.21859377075E+03  0.21859377075E+03  0.00000000000E+00 0. -1.
          2   -1    0    0  502    0 -0.00000000000E+00 -0.00000000000E+00 -0.49917581944E+03  0.49917581944E+03  0.00000000000E+00 0. -1.
         24    2    1    2    0    0 -0.46322931876E+02  0.14972929306E+03 -0.28543912127E+03  0.33565743792E+03  0.81398700637E+02 0.  0.
         23    2    1    2    0    0  0.14080214382E+03 -0.10590999105E+03  0.11597300583E+03  0.22981900291E+03  0.91240704252E+02 0.  0.
        -13    1    3    3    0    0 -0.38425254736E+02  0.10073251334E+03 -0.11284245236E+03  0.15606716022E+03  0.00000000000E+00 0.  1.
         14    1    3    3    0    0 -0.78976771393E+01  0.48996779720E+02 -0.17259666890E+03  0.17959027770E+03  0.00000000000E+00 0. -1.
        -11    1    4    4    0    0  0.28208112499E+02  0.12209402129E+02  0.20580690527E+01  0.30805888388E+02  0.00000000000E+00 0.  1.
         11    1    4    4    0    0  0.11259403132E+03 -0.11811939318E+03  0.11391493677E+03  0.19901311453E+03  0.00000000000E+00 0. -1.
          1    1    1    2  501    0 -0.94479211943E+02 -0.43819302008E+02 -0.11111593325E+03  0.15229314935E+03  0.00000000000E+00 0. -1.
<scales pt_clust_5="13000.00000" pt_clust_6="13000.00000" pt_clust_7="13000.00000" pt_clust_8="13000.00000" pt_clust_9="13000.00000"></scales>
<clustering>
<clus scale="   81.399">  5  6 -1 -1</clus>
<clus scale="   91.241">  7  8 -1 -1</clus>
<clus scale="  104.146">  7  9 -1 -1</clus>
<clus scale="  176.608">  2  5  1 -1</clus>
<clus scale="  382.081">  1  5  2 -1</clus>
</clustering>
</event>
<event>
 9    2  0.3707658E-005  0.2302239E+03  0.7546771E-02  0.1150145E+00
         21   -1    0    0  501  502  0.00000000000E+00  0.00000000000E+00  0.12010733580E+03  0.12010733580E+03  0.00000000000E+00 0.  1.
          2   -1    0    0  502    0 -0.00000000000E+00 -0.00000000000E+00 -0.27730360843E+03  0.27730360843E+03  0.00000000000E+00 0. -1.
         24    2    1    2    0    0  0.70783308679E+02 -0.73035466118E+02 -0.88512254131E+02  0.15715991744E+03  0.80748773487E+02 0.  0.
         23    2    1    2    0    0 -0.30194956991E+01  0.11360856071E+03 -0.67021815926E+02  0.16125182887E+03  0.92704940988E+02 0.  0.
        -11    1    3    3    0    0  0.29069355211E+02 -0.73780323332E+01  0.10022021800E+02  0.31621253841E+02  0.00000000000E+00 0.  1.
         12    1    3    3    0    0  0.41713953468E+02 -0.65657433785E+02 -0.98534275930E+02  0.12553866360E+03  0.00000000000E+00 0. -1.
        -13    1    4    4    0    0 -0.42844109495E+02  0.33445265651E+02 -0.40854334229E+02  0.67994706692E+02  0.00000000000E+00 0. -1.
         13    1    4    4    0    0  0.39824613796E+02  0.80163295061E+02 -0.26167481697E+02  0.93257122181E+02  0.00000000000E+00 0.  1.
          1    1    1    2  501    0 -0.67763812980E+02 -0.40573094594E+02 -0.16622025708E+01  0.78999197919E+02  0.00000000000E+00 0. -1.
<scales pt_clust_5="13000.00000" pt_clust_6="13000.00000" pt_clust_7="13000.00000" pt_clust_8="13000.00000" pt_clust_9="13000.00000"></scales>
<clustering>
<clus scale="   80.749">  5  6 -1 -1</clus>
<clus scale="   92.705">  7  8 -1 -1</clus>
<clus scale="   78.982">  7  9 -1 -1</clus>
<clus scale="  129.865">  2  5  1 -1</clus>
<clus scale="  230.224">  1  5  2 -1</clus>
</clustering>
</event>
<event>
 9    2  0.3895415E-005  0.3858995E+03  0.7546771E-02  0.1103551E+00
          2   -1    0    0  502    0 -0.00000000000E+00  0.00000000000E+00  0.46871361914E+03  0.46871361914E+03  0.00000000000E+00 0. -1.
         21   -1    0    0  501  502  0.00000000000E+00 -0.00000000000E+00 -0.13883313200E+03  0.13883313200E+03  0.00000000000E+00 0. -1.
         24    2    1    2    0    0 -0.51785134637E+01 -0.28486229313E+02 -0.16779700843E+02  0.88806272942E+02  0.82260035809E+02 0.  0.
         23    2    1    2    0    0  0.38546966590E+02  0.30555342827E+02  0.42304594573E+03  0.43535871232E+03  0.90276456396E+02 0.  0.
        -11    1    3    3    0    0 -0.42459877996E+02 -0.58968447250E+01 -0.14124524989E+02  0.45134423928E+02  0.00000000000E+00 0.  1.
         12    1    3    3    0    0  0.37281364532E+02 -0.22589384588E+02 -0.26551758542E+01  0.43671849014E+02  0.00000000000E+00 0. -1.
        -11    1    4    4    0    0  0.66948136690E+02  0.10872753923E+02  0.29844940297E+03  0.30605933398E+03  0.00000000000E+00 0. -1.
         11    1    4    4    0    0 -0.28401170101E+02  0.19682588904E+02  0.12459654277E+03  0.12929937834E+03  0.00000000000E+00 0.  1.
          1    1    1    2  501    0 -0.33368453126E+02 -0.20691135148E+01 -0.76385757750E+02  0.83381765883E+02  0.00000000000E+00 0. -1.
<scales pt_clust_5="13000.00000" pt_clust_6="13000.00000" pt_clust_7="13000.00000" pt_clust_8="13000.00000" pt_clust_9="13000.00000"></scales>
<clustering>
<clus scale="   82.260">  5  6 -1 -1</clus>
<clus scale="   87.207">  1  5  2 -1</clus>
<clus scale="   90.276">  7  8 -1 -1</clus>
<clus scale="   33.489">  7  9 -1 -1</clus>
<clus scale="  385.899">  2  5  1 -1</clus>
</clustering>
</event>
<event>
 9    2  0.3707658E-005  0.6759257E+03  0.7546771E-02  0.1026335E+00
         21   -1    0    0  501  502  0.00000000000E+00  0.00000000000E+00  0.22640105576E+03  0.22640105576E+03  0.00000000000E+00 0. -1.
          2   -1    0    0  502    0 -0.00000000000E+00 -0.00000000000E+00 -0.74501015010E+03  0.74501015010E+03  0.00000000000E+00 0. -1.
         24    2    1    2    0    0 -0.64702274855E+02  0.91214286838E+02 -0.13914988319E+03  0.19625644495E+03  0.81532028671E+02 0.  0.
         23    2    1    2    0    0 -0.89321675679E+02  0.25387515713E+03 -0.24257559831E+03  0.37322538261E+03  0.89572920999E+02 0.  0.
        -13    1    3    3    0    0 -0.30778577612E+02  0.46909346107E+02 -0.12743513061E+03  0.13923907535E+03  0.00000000000E+00 0.  1.
         14    1    3    3    0    0 -0.33923697242E+02  0.44304940732E+02 -0.11714752577E+02  0.57017369597E+02  0.00000000000E+00 0. -1.
        -11    1    4    4    0    0 -0.88257320067E+02  0.11722636255E+03 -0.13351610465E+03  0.19838831826E+03  0.00000000000E+00 0.  1.
         11    1    4    4    0    0 -0.10643556120E+01  0.13664879458E+03 -0.10905949366E+03  0.17483706435E+03  0.00000000000E+00 0. -1.
          1    1    1    2  501    0  0.15402395053E+03 -0.34508944396E+03 -0.13688361283E+03  0.40192937829E+03  0.00000000000E+00 0. -1.
<scales pt_clust_5="13000.00000" pt_clust_6="13000.00000" pt_clust_7="13000.00000" pt_clust_8="13000.00000" pt_clust_9="13000.00000"></scales>
<clustering>
<clus scale="   81.532">  5  6 -1 -1</clus>
<clus scale="   89.573">  7  8 -1 -1</clus>
<clus scale="  138.398">  2  5  1 -1</clus>
<clus scale="  326.886">  7  9 -1 -1</clus>
<clus scale="  675.926">  1  5  2 -1</clus>
</clustering>
</event>
<event>
 9    2  0.3707658E-005  0.3132675E+03  0.7546771E-02  0.1108118E+00
         21   -1    0    0  501  502  0.00000000000E+00  0.00000000000E+00  0.31197671140E+02  0.31197671140E+02  0.00000000000E+00 0.  1.
          2   -1    0    0  502    0 -0.00000000000E+00 -0.00000000000E+00 -0.16833359106E+04  0.16833359106E+04  0.00000000000E+00 0. -1.
         24    2    1    2    0    0  0.11785411829E+03 -0.26206548195E+02 -0.50800221859E+03  0.52828582601E+03  0.80270066018E+02 0.  0.
         23    2    1    2    0    0  0.16900341641E+02 -0.95647474099E+02 -0.48078980136E+03  0.49847208434E+03  0.88777952958E+02 0.  0.
        -13    1    3    3    0    0  0.60271232473E+02 -0.41639602889E+02 -0.38111850275E+03  0.38809508001E+03  0.00000000000E+00 0.  1.
         14    1    3    3    0    0  0.57582885813E+02  0.15433054695E+02 -0.12688371584E+03  0.14019074599E+03  0.00000000000E+00 0. -1.
        -13    1    4    4    0    0  0.35756472380E+02 -0.24958240957E+02 -0.80501619229E+02  0.91552989067E+02  0.00000000000E+00 0.  1.
         13    1    4    4    0    0 -0.18856130739E+02 -0.70689233142E+02 -0.40028818213E+03  0.40691909528E+03  0.00000000000E+00 0. -1.
          1    1    1    2  501    0 -0.13475445993E+03  0.12185402229E+03 -0.66334621954E+03  0.68777567142E+03  0.00000000000E+00 0. -1.
<scales pt_clust_5="13000.00000" pt_clust_6="13000.00000" pt_clust_7="13000.00000" pt_clust_8="13000.00000" pt_clust_9="13000.00000"></scales>
<clustering>
<clus scale="   80.270">  5  6 -1 -1</clus>
<clus scale="   88.778">  7  8 -1 -1</clus>
<clus scale="  144.982">  2  5  1 -1</clus>
<clus scale="  125.652">  7  9 -1 -1</clus>
<clus scale="  313.267">  1  5  2 -1</clus>
</clustering>
</event>
<event>
 9    2  0.3707658E-005  0.2452623E+03  0.7546771E-02  0.1151514E+00
         21   -1    0    0  501  502  0.00000000000E+00  0.00000000000E+00  0.16413909599E+03  0.16413909599E+03  0.00000000000E+00 0.  1.
          4   -1    0    0  502    0 -0.00000000000E+00 -0.00000000000E+00 -0.19417819107E+03  0.19417819107E+03  0.00000000000E+00 0. -1.
         24    2    1    2    0    0 -0.99557844023E+01 -0.65450360006E+02  0.25010090987E+02  0.10695295555E+03  0.80190789886E+02 0.  0.
         23    2    1    2    0    0 -0.82129726741E+02  0.13571295663E+02  0.15915145953E+02  0.12405716322E+03  0.90594789004E+02 0.  0.
        -13    1    3    3    0    0 -0.35178166091E+02 -0.15195544169E+01  0.69024707028E+01  0.35881144309E+02  0.00000000000E+00 0.  1.
         14    1    3    3    0    0  0.25222381688E+02 -0.63930805589E+02  0.18107620284E+02  0.71071811245E+02  0.00000000000E+00 0. -1.
        -13    1    4    4    0    0 -0.59093307447E+02  0.19974194028E+02 -0.32296149619E+02  0.70242641553E+02  0.00000000000E+00 0. -1.
         13    1    4    4    0    0 -0.23036419293E+02 -0.64028983658E+01  0.48211295572E+02  0.53814521666E+02  0.00000000000E+00 0.  1.
          3    1    1    2  501    0  0.92085511143E+02  0.51879064343E+02 -0.70964332012E+02  0.12730716829E+03  0.00000000000E+00 0. -1.
<scales pt_clust_5="13000.00000" pt_clust_6="13000.00000" pt_clust_7="13000.00000" pt_clust_8="13000.00000" pt_clust_9="13000.00000"></scales>
<clustering>
<clus scale="   80.191">  5  6 -1 -1</clus>
<clus scale="   90.595">  7  8 -1 -1</clus>
<clus scale="  103.988">  2  5  1 -1</clus>
<clus scale="   86.172">  7  9 -1 -1</clus>
<clus scale="  245.262">  1  5  2 -1</clus>
</clustering>
</event>
<event>
 9    2  0.3707658E-005  0.3468276E+03  0.7546771E-02  0.1101638E+00
          2   -1    0    0  502    0 -0.00000000000E+00  0.00000000000E+00  0.40369511504E+03  0.40369511504E+03  0.00000000000E+00 0. -1.
         21   -1    0    0  501  502  0.00000000000E+00 -0.00000000000E+00 -0.26906978218E+03  0.26906978218E+03  0.00000000000E+00 0. -1.
         24    2    1    2    0    0  0.63071959479E+02 -0.32906751806E+02  0.27189643245E+03  0.29975986956E+03  0.10424674113E+03 0.  0.
         23    2    1    2    0    0  0.88242686229E+02 -0.25805003273E+02  0.37029899405E+02  0.13483695583E+03  0.91417292343E+02 0.  0.
        -13    1    3    3    0    0  0.64689394056E+02  0.19520321150E+02  0.10542461491E+03  0.12522024625E+03  0.00000000000E+00 0.  1.
         14    1    3    3    0    0 -0.16174345766E+01 -0.52427072956E+02  0.16647181754E+03  0.17453962332E+03  0.00000000000E+00 0. -1.
        -13    1    4    4    0    0  0.11977935535E+02 -0.47493170699E+02  0.23783914301E+02  0.54449488356E+02  0.00000000000E+00 0.  1.
         13    1    4    4    0    0  0.76264750695E+02  0.21688167426E+02  0.13245985103E+02  0.80387467470E+02  0.00000000000E+00 0. -1.
          1    1    1    2  501    0 -0.15131464571E+03  0.58711755079E+02 -0.17430099899E+03  0.23816807183E+03  0.00000000000E+00 0. -1.
<scales pt_clust_5="13000.00000" pt_clust_6="13000.00000" pt_clust_7="13000.00000" pt_clust_8="13000.00000" pt_clust_9="13000.00000"></scales>
<clustering>
<clus scale="   91.417">  7  8 -1 -1</clus>
<clus scale="  104.247">  5  6 -1 -1</clus>
<clus scale="  126.207">  1  5  2 -1</clus>
<clus scale="  143.166">  7  9 -1 -1</clus>
<clus scale="  346.828">  2  5  1 -1</clus>
</clustering>
</event>
<event>
 9    2  0.3707658E-005  0.8971464E+03  0.7546771E-02  0.9962996E-01
          2   -1    0    0  502    0 -0.00000000000E+00  0.00000000000E+00  0.32163088988E+04  0.32163088988E+04  0.00000000000E+00 0. -1.
         21   -1    0    0  501  502  0.00000000000E+00 -0.00000000000E+00 -0.88054192223E+02  0.88054192223E+02  0.00000000000E+00 0.  1.
         24    2    1    2    0    0  0.27098287547E+02  0.12118595871E+03  0.69820871328E+03  0.71399724168E+03  0.82923458999E+02 0.  0.
         23    2    1    2    0    0  0.20850012985E+03  0.11963255192E+03  0.17821291594E+03  0.31347051191E+03  0.93379156131E+02 0.  0.
        -11    1    3    3    0    0 -0.26101781970E+02  0.14163996811E+02  0.15011046920E+03  0.15301985097E+03  0.00000000000E+00 0.  1.
         12    1    3    3    0    0  0.53200069517E+02  0.10702196190E+03  0.54809824408E+03  0.56097739071E+03  0.00000000000E+00 0. -1.
        -13    1    4    4    0    0  0.53982883342E+02  0.42788851202E+02  0.10596515818E+03  0.12638691479E+03  0.00000000000E+00 0. -1.
         13    1    4    4    0    0  0.15451724651E+03  0.76843700721E+02  0.72247757753E+02  0.18708359712E+03  0.00000000000E+00 0.  1.
          1    1    1    2  501    0 -0.23559841740E+03 -0.24081851063E+03  0.22518330774E+04  0.22768953375E+04  0.00000000000E+00 0. -1.
<scales pt_clust_5="13000.00000" pt_clust_6="13000.00000" pt_clust_7="13000.00000" pt_clust_8="13000.00000" pt_clust_9="13000.00000"></scales>
<clustering>
<clus scale="   82.923">  5  6 -1 -1</clus>
<clus scale="   93.379">  7  8 -1 -1</clus>
<clus scale="  149.321">  1  5  2 -1</clus>
<clus scale="  248.754">  7  9 -1 -1</clus>
<clus scale="  897.146">  2  5  1 -1</clus>
</clustering>
</event>
<event>
 9    2  0.3707658E-005  0.1522092E+03  0.7546771E-02  0.1223064E+00
         -1   -1    0    0    0  501 -0.00000000000E+00  0.00000000000E+00  0.13275750285E+03  0.13275750285E+03  0.00000000000E+00 0.  1.
         21   -1    0    0  501  502  0.00000000000E+00 -0.00000000000E+00 -0.12669066645E+03  0.12669066645E+03  0.00000000000E+00 0.  1.
         24    2    1    2    0    0 -0.39676399531E+01  0.36127916052E+02  0.48901229987E+02  0.10132666239E+03  0.80961680633E+02 0.  0.
         23    2    1    2    0    0 -0.89630334668E+01  0.86132237140E+01 -0.56029497952E+02  0.10971610761E+03  0.93508267215E+02 0.  0.
        -13    1    3    3    0    0  0.88383061218E+01  0.60536857641E+02  0.33354035668E+02  0.69680115409E+02  0.00000000000E+00 0.  1.
         14    1    3    3    0    0 -0.12805946075E+02 -0.24408941589E+02  0.15547194319E+02  0.31646546977E+02  0.00000000000E+00 0. -1.
        -13    1    4    4    0    0 -0.35884570462E+02 -0.10730623327E+02 -0.65312947347E+02  0.75290303263E+02  0.00000000000E+00 0.  1.
         13    1    4    4    0    0  0.26921536995E+02  0.19343847041E+02  0.92834493957E+01  0.34425804351E+02  0.00000000000E+00 0. -1.
         -2    1    1    2    0  502  0.12930673420E+02 -0.44741139766E+02  0.13195104362E+02  0.48405399304E+02  0.00000000000E+00 0.  1.
<scales pt_clust_5="13000.00000" pt_clust_6="13000.00000" pt_clust_7="13000.00000" pt_clust_8="13000.00000" pt_clust_9="13000.00000"></scales>
<clustering>
<clus scale="   80.962">  5  6 -1 -1</clus>
<clus scale="   88.745">  1  5  2 -1</clus>
<clus scale="   93.508">  7  8 -1 -1</clus>
<clus scale="   27.639">  7  9 -1 -1</clus>
<clus scale="  152.209">  2  5  1 -1</clus>
</clustering>
</event>
<event>
 9    2  0.3707658E-005  0.1519255E+03  0.7546771E-02  0.1222974E+00
         21   -1    0    0  501  502  0.00000000000E+00  0.00000000000E+00  0.14862206721E+03  0.14862206721E+03  0.00000000000E+00 0. -1.
          2   -1    0    0  502    0 -0.00000000000E+00 -0.00000000000E+00 -0.24629275155E+03  0.24629275155E+03  0.00000000000E+00 0. -1.
         24    2    1    2    0    0 -0.35530893953E+02 -0.20289958493E+02 -0.19497580895E+03  0.21449961749E+03  0.79500899279E+02 0.  0.
         23    2    1    2    0    0  0.21439541621E+02 -0.45170293168E+01  0.16224486100E+02  0.94461592867E+02  0.90441699890E+02 0.  0.
        -11    1    3    3    0    0 -0.10962038965E+02 -0.24301182961E+02 -0.10987272678E+02  0.28834596451E+02  0.00000000000E+00 0.  1.
         12    1    3    3    0    0 -0.24568854987E+02  0.40112244687E+01 -0.18398853628E+03  0.18566502104E+03  0.00000000000E+00 0. -1.
        -13    1    4    4    0    0  0.55799236224E+02 -0.11601989395E+02  0.16655206341E+02  0.59376399515E+02  0.00000000000E+00 0.  1.
         13    1    4    4    0    0 -0.34359694604E+02  0.70849600779E+01 -0.43072024137E+00  0.35085193351E+02  0.00000000000E+00 0. -1.
          1    1    1    2  501    0  0.14091352332E+02  0.24806987809E+02  0.81080638517E+02  0.85953608401E+02  0.00000000000E+00 0. -1.
<scales pt_clust_5="13000.00000" pt_clust_6="13000.00000" pt_clust_7="13000.00000" pt_clust_8="13000.00000" pt_clust_9="13000.00000"></scales>
<clustering>
<clus scale="   79.501">  5  6 -1 -1</clus>
<clus scale="   89.412">  2  5  1 -1</clus>
<clus scale="   90.442">  7  8 -1 -1</clus>
<clus scale="   26.495">  7  9 -1 -1</clus>
<clus scale="  151.926">  1  5  2 -1</clus>
</clustering>
</event>
<event>
 9    2  0.3707658E-005  0.1713132E+03  0.7546771E-02  0.1196739E+00
         -3   -1    0    0    0  501 -0.00000000000E+00  0.00000000000E+00  0.15261209994E+03  0.15261209994E+03  0.00000000000E+00 0.  1.
         21   -1    0    0  501  502  0.00000000000E+00 -0.00000000000E+00 -0.13381873564E+03  0.13381873564E+03  0.00000000000E+00 0.  1.
         24    2    1    2    0    0  0.63212315936E+02  0.39519849587E+02  0.34145351452E+02  0.11443115870E+03  0.79818354138E+02 0.  0.
         23    2    1    2    0    0 -0.47761542116E+02  0.72392484315E+01 -0.47194254607E+02  0.11335609534E+03  0.91042490413E+02 0.  0.
        -13    1    3    3    0    0  0.61843029529E+02 -0.36784744340E+01  0.35092137393E+02  0.71200769534E+02  0.00000000000E+00 0.  1.
         14    1    3    3    0    0  0.13692864079E+01  0.43198324021E+02 -0.94678594100E+00  0.43230389162E+02  0.00000000000E+00 0. -1.
        -11    1    4    4    0    0  0.16051273866E+02  0.26788883755E+02 -0.32390551360E+02  0.44993727373E+02  0.00000000000E+00 0. -1.
         11    1    4    4    0    0 -0.63812815982E+02 -0.19549635323E+02 -0.14803703247E+02  0.68362367971E+02  0.00000000000E+00 0.  1.
         -4    1    1    2    0  502 -0.15450773820E+02 -0.46759098018E+02  0.31842267451E+02  0.58643581537E+02  0.00000000000E+00 0.  1.
<scales pt_clust_5="13000.00000" pt_clust_6="13000.00000" pt_clust_7="13000.00000" pt_clust_8="13000.00000" pt_clust_9="13000.00000"></scales>
<clustering>
<clus scale="   79.818">  5  6 -1 -1</clus>
<clus scale="   91.042">  7  8 -1 -1</clus>
<clus scale="   49.246">  7  9 -1 -1</clus>
<clus scale="  109.218">  1  5  2 -1</clus>
<clus scale="  171.313">  2  5  1 -1</clus>
</clustering>
</event>
<event>
 9    2  0.3707658E-005  0.2132807E+03  0.7546771E-02  0.1149474E+00
          2   -1    0    0  502    0 -0.00000000000E+00  0.00000000000E+00  0.69537050069E+03  0.69537050069E+03  0.00000000000E+00 0. -1.
         21   -1    0    0  501  502  0.00000000000E+00 -0.00000000000E+00 -0.55647666144E+02  0.55647666144E+02  0.00000000000E+00 0. -1.
         24    2    1    2    0    0  0.24734266956E+02 -0.14317029790E+03  0.18357040840E+03  0.24746710462E+03  0.80201963000E+02 0.  0.
         23    2    1    2    0    0 -0.33379090495E+02  0.36140913039E+02  0.18672760022E+03  0.21351699693E+03  0.91115212871E+02 0.  0.
        -11    1    3    3    0    0 -0.68241094072E+01 -0.12204933698E+03  0.16457755918E+03  0.20500824889E+03  0.00000000000E+00 0.  1.
         12    1    3    3    0    0  0.31558376364E+02 -0.21120960915E+02  0.18992849215E+02  0.42458855731E+02  0.00000000000E+00 0. -1.
        -13    1    4    4    0    0  0.10551121914E+02 -0.19705873632E+02  0.94416306129E+02  0.97026215489E+02  0.00000000000E+00 0.  1.
         13    1    4    4    0    0 -0.43930212409E+02  0.55846786671E+02  0.92311294086E+02  0.11649078144E+03  0.00000000000E+00 0. -1.
          1    1    1    2  501    0  0.86448235382E+01  0.10702938486E+03  0.26942482593E+03  0.29003406528E+03  0.00000000000E+00 0. -1.
<scales pt_clust_5="13000.00000" pt_clust_6="13000.00000" pt_clust_7="13000.00000" pt_clust_8="13000.00000" pt_clust_9="13000.00000"></scales>
<clustering>
<clus scale="   80.202">  5  6 -1 -1</clus>
<clus scale="   91.115">  7  8 -1 -1</clus>
<clus scale="  107.378">  7  9 -1 -1</clus>
<clus scale="  165.958">  1  5  2 -1</clus>
<clus scale="  213.281">  2  5  1 -1</clus>
</clustering>
</event>
<event>
 9    2  0.3707658E-005  0.2734229E+03  0.7546771E-02  0.1130198E+00
         -1   -1    0    0    0  501 -0.00000000000E+00  0.00000000000E+00  0.84319680339E+03  0.84319680339E+03  0.00000000000E+00 0.  1.
         21   -1    0    0  501  502  0.00000000000E+00 -0.00000000000E+00 -0.47437496502E+02  0.47437496502E+02  0.00000000000E+00 0.  1.
         24    2    1    2    0    0 -0.88450583160E+02  0.36356297907E+02  0.21960583727E+03  0.25289384644E+03  0.81137462013E+02 0.  0.
         23    2    1    2    0    0  0.28065604007E+01  0.73618515840E+02  0.37675885274E+03  0.39445549393E+03  0.90666095745E+02 0.  0.
        -11    1    3    3    0    0 -0.90304466520E+02  0.44067602152E+02  0.22274765520E+03  0.24436318898E+03  0.00000000000E+00 0.  1.
         12    1    3    3    0    0  0.18538833603E+01 -0.77113042458E+01 -0.31418179272E+01  0.85306574525E+01  0.00000000000E+00 0. -1.
        -13    1    4    4    0    0 -0.24284004202E+02 -0.88591749543E+01  0.49070765705E+02  0.55462941572E+02  0.00000000000E+00 0. -1.
         13    1    4    4    0    0  0.27090564603E+02  0.82477690794E+02  0.32768808704E+03  0.33899255236E+03  0.00000000000E+00 0.  1.
         -2    1    1    2    0  502  0.85644022759E+02 -0.10997481375E+03  0.19939461688E+03  0.24328495953E+03  0.00000000000E+00 0.  1.
<scales pt_clust_5="13000.00000" pt_clust_6="13000.00000" pt_clust_7="13000.00000" pt_clust_8="13000.00000" pt_clust_9="13000.00000"></scales>
<clustering>
<clus scale="   81.137">  5  6 -1 -1</clus>
<clus scale="   90.666">  7  8 -1 -1</clus>
<clus scale="  125.414">  1  5  2 -1</clus>
<clus scale="  110.473">  7  9 -1 -1</clus>
<clus scale="  273.423">  2  5  1 -1</clus>
</clustering>
</event>
<event>
 9    2  0.3707658E-005  0.4044829E+03  0.7546771E-02  0.1086744E+00
         21   -1    0    0  501  502  0.00000000000E+00  0.00000000000E+00  0.11563458296E+03  0.11563458296E+03  0.00000000000E+00 0. -1.
          2   -1    0    0  502    0 -0.00000000000E+00 -0.00000000000E+00 -0.58931610438E+03  0.58931610438E+03  0.00000000000E+00 0. -1.
         24    2    1    2    0    0  0.14512853930E+02  0.78220302408E+02 -0.10451185900E+03  0.15732610098E+03  0.86601008886E+02 0.  0.
         23    2    1    2    0    0 -0.15818491880E+02  0.13650655732E+03 -0.73793111553E+02  0.18244430790E+03  0.94637399033E+02 0.  0.
        -11    1    3    3    0    0  0.49714347128E+02  0.45210222064E+02 -0.75265015543E+02  0.10089748785E+03  0.00000000000E+00 0.  1.
         12    1    3    3    0    0 -0.35201493198E+02  0.33010080344E+02 -0.29246843453E+02  0.56428613129E+02  0.00000000000E+00 0. -1.
        -11    1    4    4    0    0 -0.21110525514E+02 -0.33049132162E+01  0.48976430060E+01  0.21921761925E+02  0.00000000000E+00 0.  1.
         11    1    4    4    0    0  0.52920336340E+01  0.13981147053E+03 -0.78690754559E+02  0.16052254597E+03  0.00000000000E+00 0. -1.
          1    1    1    2  501    0  0.13056379501E+01 -0.21472685973E+03 -0.29537655087E+03  0.36518027847E+03  0.00000000000E+00 0. -1.
<scales pt_clust_5="13000.00000" pt_clust_6="13000.00000" pt_clust_7="13000.00000" pt_clust_8="13000.00000" pt_clust_9="13000.00000"></scales>
<clustering>
<clus scale="   86.601">  5  6 -1 -1</clus>
<clus scale="   94.637">  7  8 -1 -1</clus>
<clus scale="  117.596">  2  5  1 -1</clus>
<clus scale="  158.805">  7  9 -1 -1</clus>
<clus scale="  404.483">  1  5  2 -1</clus>
</clustering>
</event>
<event>
 9    2  0.3707658E-005  0.2030129E+03  0.7546771E-02  0.1153602E+00
          4   -1    0    0  502    0 -0.00000000000E+00  0.00000000000E+00  0.13687871446E+04  0.13687871446E+04  0.00000000000E+00 0. -1.
         21   -1    0    0  501  502  0.00000000000E+00 -0.00000000000E+00 -0.27541241495E+02  0.27541241495E+02  0.00000000000E+00 0. -1.
         24    2    1    2    0    0 -0.13927673009E+03 -0.64632440679E+02  0.78558432531E+03  0.80474235916E+03  0.83019109399E+02 0.  0.
         23    2    1    2    0    0  0.69049798825E+02  0.66518481370E+02  0.33958262678E+03  0.36437358868E+03  0.90879968292E+02 0.  0.
        -13    1    3    3    0    0 -0.37429471425E+02  0.19178826402E+02  0.16287024311E+03  0.16821268919E+03  0.00000000000E+00 0.  1.
         14    1    3    3    0    0 -0.10184725867E+03 -0.83811267081E+02  0.62271408220E+03  0.63652966997E+03  0.00000000000E+00 0. -1.
        -11    1    4    4    0    0  0.34302428221E+02 -0.11283204987E+02  0.17877762005E+03  0.18238806082E+03  0.00000000000E+00 0.  1.
         11    1    4    4    0    0  0.34747370604E+02  0.77801686357E+02  0.16080500673E+03  0.18198552787E+03  0.00000000000E+00 0. -1.
          3    1    1    2  501    0  0.70226931266E+02 -0.18860406907E+01  0.21607895106E+03  0.22721243829E+03  0.00000000000E+00 0. -1.
<scales pt_clust_5="13000.00000" pt_clust_6="13000.00000" pt_clust_7="13000.00000" pt_clust_8="13000.00000" pt_clust_9="13000.00000"></scales>
<clustering>
<clus scale="   83.019">  5  6 -1 -1</clus>
<clus scale="   90.880">  7  8 -1 -1</clus>
<clus scale="   70.252">  7  9 -1 -1</clus>
<clus scale="  174.550">  1  5  2 -1</clus>
<clus scale="  203.013">  2  5  1 -1</clus>
</clustering>
</event>
<event>
 9    2  0.3707658E-005  0.2324893E+03  0.7546771E-02  0.1169349E+00
         21   -1    0    0  501  502  0.00000000000E+00  0.00000000000E+00  0.42368436723E+03  0.42368436723E+03  0.00000000000E+00 0.  1.
          2   -1    0    0  502    0 -0.00000000000E+00 -0.00000000000E+00 -0.48139597388E+03  0.48139597388E+03  0.00000000000E+00 0. -1.
         24    2    1    2    0    0 -0.15391062055E+01 -0.10798935983E+02 -0.44560996880E+03  0.45284544349E+03  0.79885953277E+02 0.  0.
         23    2    1    2    0    0  0.24662623920E+02  0.78720665817E+02  0.34976208788E+03  0.37097953552E+03  0.92125509007E+02 0.  0.
        -11    1    3    3    0    0 -0.29228653056E+02 -0.28813012179E+02 -0.15418072103E+03  0.15954998768E+03  0.00000000000E+00 0.  1.
         12    1    3    3    0    0  0.27689546850E+02  0.18014076196E+02 -0.29142924777E+03  0.29329545581E+03  0.00000000000E+00 0. -1.
        -11    1    4    4    0    0  0.52095427415E+02  0.22959047378E+02  0.11777149343E+03  0.13080969413E+03  0.00000000000E+00 0. -1.
         11    1    4    4    0    0 -0.27432803495E+02  0.55761618439E+02  0.23199059445E+03  0.24016984139E+03  0.00000000000E+00 0.  1.
          1    1    1    2  501    0 -0.23123517714E+02 -0.67921729834E+02  0.38136274269E+02  0.81255362101E+02  0.00000000000E+00 0. -1.
<scales pt_clust_5="13000.00000" pt_clust_6="13000.00000" pt_clust_7="13000.00000" pt_clust_8="13000.00000" pt_clust_9="13000.00000"></scales>
<clustering>
<clus scale="   79.886">  5  6 -1 -1</clus>
<clus scale="   80.627">  2  5  1 -1</clus>
<clus scale="   92.126">  7  8 -1 -1</clus>
<clus scale="   78.946">  7  9 -1 -1</clus>
<clus scale="  232.489">  1  5  2 -1</clus>
</clustering>
</event>
<event>
 9    2  0.3707658E-005  0.1349969E+03  0.7546771E-02  0.1236879E+00
          2   -1    0    0  502    0 -0.00000000000E+00  0.00000000000E+00  0.23569480051E+03  0.23569480051E+03  0.00000000000E+00 0. -1.
         21   -1    0    0  501  502  0.00000000000E+00 -0.00000000000E+00 -0.63636686647E+02  0.63636686647E+02  0.00000000000E+00 0.  1.
         24    2    1    2    0    0  0.22641808164E+02  0.43918955271E+02  0.12276525828E+03  0.15561667387E+03  0.81876214106E+02 0.  0.
         23    2    1    2    0    0  0.61126150065E+01 -0.39154809818E+01  0.30750588685E+02  0.91075374947E+02  0.85419144012E+02 0.  0.
        -13    1    3    3    0    0  0.39501332980E+02  0.91103384685E+01  0.10595420776E+03  0.11344446975E+03  0.00000000000E+00 0.  1.
         14    1    3    3    0    0 -0.16859524816E+02  0.34808616802E+02  0.16811050516E+02  0.42172204118E+02  0.00000000000E+00 0. -1.
        -11    1    4    4    0    0  0.13186599172E+02 -0.38861671962E+02 -0.40685186286E+01  0.41239165720E+02  0.00000000000E+00 0.  1.
         11    1    4    4    0    0 -0.70739841656E+01  0.34946190980E+02  0.34819107313E+02  0.49836209227E+02  0.00000000000E+00 0. -1.
          1    1    1    2  501    0 -0.28754423171E+02 -0.40003474289E+02  0.18542266897E+02  0.52639438340E+02  0.00000000000E+00 0. -1.
<scales pt_clust_5="13000.00000" pt_clust_6="13000.00000" pt_clust_7="13000.00000" pt_clust_8="13000.00000" pt_clust_9="13000.00000"></scales>
<clustering>
<clus scale="   81.876">  5  6 -1 -1</clus>
<clus scale="   85.419">  7  8 -1 -1</clus>
<clus scale="   49.266">  7  9 -1 -1</clus>
<clus scale="   95.631">  1  5  2 -1</clus>
<clus scale="  134.997">  2  5  1 -1</clus>
</clustering>
</event>
<event>
 9    2  0.3707658E-005  0.2490350E+03  0.7546771E-02  0.1156681E+00
          2   -1    0    0  502    0 -0.00000000000E+00  0.00000000000E+00  0.40421591437E+03  0.40421591437E+03  0.00000000000E+00 0. -1.
         21   -1    0    0  501  502  0.00000000000E+00 -0.00000000000E+00 -0.70286979700E+02  0.70286979700E+02  0.00000000000E+00 0. -1.
         24    2    1    2    0    0  0.57701694653E+01  0.33606173716E+02  0.81842461777E+02  0.12014994224E+03  0.81087300497E+02 0.  0.
         23    2    1    2    0    0 -0.59200471481E+00  0.84279523535E+02  0.16842655781E+03  0.20970568294E+03  0.92225698832E+02 0.  0.
        -13    1    3    3    0    0  0.18289347677E+01 -0.26035794222E+02  0.37663997868E+02  0.45823403611E+02  0.00000000000E+00 0.  1.
         14    1    3    3    0    0  0.39412346976E+01  0.59641967938E+02  0.44178463908E+02  0.74326538624E+02  0.00000000000E+00 0. -1.
        -11    1    4    4    0    0 -0.32239507521E+02 -0.93766666184E-02  0.65173819767E+02  0.72711847151E+02  0.00000000000E+00 0.  1.
         11    1    4    4    0    0  0.31647502806E+02  0.84288900201E+02  0.10325273805E+03  0.13699383579E+03  0.00000000000E+00 0. -1.
          1    1    1    2  501    0 -0.51781647505E+01 -0.11788569725E+03  0.83659915083E+02  0.14464726889E+03  0.00000000000E+00 0. -1.
<scales pt_clust_5="13000.00000" pt_clust_6="13000.00000" pt_clust_7="13000.00000" pt_clust_8="13000.00000" pt_clust_9="13000.00000"></scales>
<clustering>
<clus scale="   81.087">  5  6 -1 -1</clus>
<clus scale="   87.965">  1  5  2 -1</clus>
<clus scale="   92.226">  7  8 -1 -1</clus>
<clus scale="  105.277">  7  9 -1 -1</clus>
<clus scale="  249.035">  2  5  1 -1</clus>
</clustering>
</event>
<event>
 9    2  0.3707658E-005  0.3365071E+03  0.7546771E-02  0.1121576E+00
         21   -1    0    0  501  502  0.00000000000E+00  0.00000000000E+00  0.10532148125E+03  0.10532148125E+03  0.00000000000E+00 0. -1.
          2   -1    0    0  502    0 -0.00000000000E+00 -0.00000000000E+00 -0.58035820638E+03  0.58035820638E+03  0.00000000000E+00 0. -1.
         24    2    1    2    0    0 -0.24325360537E+02  0.28993419260E+02 -0.28986274740E+03  0.30158801424E+03  0.74179353436E+02 0.  0.
         23    2    1    2    0    0 -0.59188417339E+02 -0.10492159713E+03 -0.21940510362E+03  0.26614503601E+03  0.90458666827E+02 0.  0.
        -13    1    3    3    0    0  0.21880283280E+01 -0.21193625439E+02 -0.39585354562E+02  0.44955061151E+02  0.00000000000E+00 0.  1.
         14    1    3    3    0    0 -0.26513388865E+02  0.50187044699E+02 -0.25027739284E+03  0.25663295309E+03  0.00000000000E+00 0. -1.
        -13    1    4    4    0    0 -0.80167306523E+02 -0.94637270653E+02 -0.16095475653E+03  0.20319804055E+03  0.00000000000E+00 0. -1.
         13    1    4    4    0    0  0.20978889185E+02 -0.10284326480E+02 -0.58450347091E+02  0.62946995461E+02  0.00000000000E+00 0.  1.
          1    1    1    2  501    0  0.83513777876E+02  0.75928177874E+02  0.34231125890E+02  0.11794663738E+03  0.00000000000E+00 0. -1.
<scales pt_clust_5="13000.00000" pt_clust_6="13000.00000" pt_clust_7="13000.00000" pt_clust_8="13000.00000" pt_clust_9="13000.00000"></scales>
<clustering>
<clus scale="   74.179">  5  6 -1 -1</clus>
<clus scale="   83.276">  2  5  1 -1</clus>
<clus scale="   90.459">  7  8 -1 -1</clus>
<clus scale="  113.228">  7  9 -1 -1</clus>
<clus scale="  336.507">  1  5  2 -1</clus>
</clustering>
</event>
<event>
 9    2  0.3707658E-005  0.1395301E+03  0.7546771E-02  0.1237781E+00
         21   -1    0    0  501  502  0.00000000000E+00  0.00000000000E+00  0.32644140368E+02  0.32644140368E+02  0.00000000000E+00 0.  1.
          2   -1    0    0  502    0 -0.00000000000E+00 -0.00000000000E+00 -0.82707531335E+03  0.82707531335E+03  0.00000000000E+00 0. -1.
         24    2    1    2    0    0 -0.25649137698E+02  0.16194038846E+02 -0.66170196240E+03  0.66714301333E+03  0.79436691971E+02 0.  0.
         23    2    1    2    0    0  0.39609537113E+02  0.19919637603E+02 -0.94651704025E+02  0.13827186522E+03  0.90523235938E+02 0.  0.
        -13    1    3    3    0    0 -0.29390439207E+02 -0.43176445925E+01 -0.84587261978E+02  0.89651797866E+02  0.00000000000E+00 0.  1.
         14    1    3    3    0    0  0.37413015090E+01  0.20511683439E+02 -0.57711470042E+03  0.57749121546E+03  0.00000000000E+00 0. -1.
        -13    1    4    4    0    0 -0.23907056685E+02 -0.10538874640E+02 -0.45189468281E+02  0.52198690420E+02  0.00000000000E+00 0. -1.
         13    1    4    4    0    0  0.63516593798E+02  0.30458512243E+02 -0.49462235744E+02  0.86073174803E+02  0.00000000000E+00 0.  1.
          1    1    1    2  501    0 -0.13960399415E+02 -0.36113676449E+02 -0.38077506561E+02  0.54304575170E+02  0.00000000000E+00 0. -1.
<scales pt_clust_5="13000.00000" pt_clust_6="13000.00000" pt_clust_7="13000.00000" pt_clust_8="13000.00000" pt_clust_9="13000.00000"></scales>
<clustering>
<clus scale="   79.437">  5  6 -1 -1</clus>
<clus scale="   85.031">  2  5  1 -1</clus>
<clus scale="   90.523">  7  8 -1 -1</clus>
<clus scale="   38.007">  7  9 -1 -1</clus>
<clus scale="  139.530">  1  5  2 -1</clus>
</clustering>
</event>
<event>
 9    2  0.3707658E-005  0.3189237E+03  0.7546771E-02  0.1123054E+00
          2   -1    0    0  502    0 -0.00000000000E+00  0.00000000000E+00  0.88533424724E+03  0.88533424724E+03  0.00000000000E+00 0. -1.
         21   -1    0    0  501  502  0.00000000000E+00 -0.00000000000E+00 -0.52464173952E+02  0.52464173952E+02  0.00000000000E+00 0.  1.
         24    2    1    2    0    0  0.43740882464E+02 -0.22234193410E+02  0.32228259289E+03  0.33579186226E+03  0.80513855459E+02 0.  0.
         23    2    1    2    0    0  0.11083505732E+03 -0.37046206470E+02  0.19157318094E+03  0.24259313372E+03  0.92164600176E+02 0.  0.
        -13    1    3    3    0    0  0.24069960550E+02 -0.22479939688E+00  0.17939665234E+02  0.30020744900E+02  0.00000000000E+00 0.  1.
         14    1    3    3    0    0  0.19670921914E+02 -0.22009394014E+02  0.30434292766E+03  0.30577111736E+03  0.00000000000E+00 0. -1.
        -11    1    4    4    0    0  0.25874621013E+02  0.26928506374E+02  0.24921302558E+02  0.44896679045E+02  0.00000000000E+00 0. -1.
         11    1    4    4    0    0  0.84960436309E+02 -0.63974712844E+02  0.16665187838E+03  0.19769645467E+03  0.00000000000E+00 0.  1.
          1    1    1    2  501    0 -0.15457593979E+03  0.59280399881E+02  0.31901429945E+03  0.35941342522E+03  0.00000000000E+00 0. -1.
<scales pt_clust_5="13000.00000" pt_clust_6="13000.00000" pt_clust_7="13000.00000" pt_clust_8="13000.00000" pt_clust_9="13000.00000"></scales>
<clustering>
<clus scale="   80.514">  5  6 -1 -1</clus>
<clus scale="   92.165">  7  8 -1 -1</clus>
<clus scale="   94.287">  1  5  2 -1</clus>
<clus scale="  135.831">  7  9 -1 -1</clus>
<clus scale="  318.924">  2  5  1 -1</clus>
</clustering>
</event>
<event>
 9    2  0.3707658E-005  0.4243672E+03  0.7546771E-02  0.1093645E+00
         21   -1    0    0  501  502  0.00000000000E+00  0.00000000000E+00  0.36318813946E+03  0.36318813946E+03  0.00000000000E+00 0.  1.
         -3   -1    0    0    0  501 -0.00000000000E+00 -0.00000000000E+00 -0.18054221028E+03  0.18054221028E+03  0.00000000000E+00 0.  1.
         24    2    1    2    0    0  0.36366398470E+02  0.45111876390E+01  0.52814799448E+02  0.99947042310E+02  0.76531970275E+02 0.  0.
         23    2    1    2    0    0  0.43314680459E+02  0.28036342359E+02 -0.13135995729E+03  0.16877567119E+03  0.92561281158E+02 0.  0.
        -13    1    3    3    0    0 -0.12535689633E+02  0.27880996708E+02  0.21197087292E+02  0.37199596795E+02  0.00000000000E+00 0.  1.
         14    1    3    3    0    0  0.48902088103E+02 -0.23369809069E+02  0.31617712156E+02  0.62747445515E+02  0.00000000000E+00 0. -1.
        -11    1    4    4    0    0 -0.25276838587E+01  0.47495553161E+02 -0.31099633170E+02  0.56827844751E+02  0.00000000000E+00 0. -1.
         11    1    4    4    0    0  0.45842364318E+02 -0.19459210802E+02 -0.10026032412E+03  0.11194782644E+03  0.00000000000E+00 0.  1.
         -4    1    1    2    0  502 -0.79681078929E+02 -0.32547529998E+02  0.26119108702E+03  0.27500763624E+03  0.00000000000E+00 0.  1.
<scales pt_clust_5="13000.00000" pt_clust_6="13000.00000" pt_clust_7="13000.00000" pt_clust_8="13000.00000" pt_clust_9="13000.00000"></scales>
<clustering>
<clus scale="   76.532">  5  6 -1 -1</clus>
<clus scale="   84.853">  2  5  1 -1</clus>
<clus scale="   92.561">  7  8 -1 -1</clus>
<clus scale="   84.517">  7  9 -1 -1</clus>
<clus scale="  424.367">  1  5  2 -1</clus>
</clustering>
</event>
<event>
 9    2  0.3707658E-005  0.1721545E+03  0.7546771E-02  0.1186719E+00
         -1   -1    0    0    0  501 -0.00000000000E+00  0.00000000000E+00  0.89260891692E+02  0.89260891692E+02  0.00000000000E+00 0.  1.
         21   -1    0    0  501  502  0.00000000000E+00 -0.00000000000E+00 -0.26904644377E+03  0.26904644377E+03  0.00000000000E+00 0.  1.
         24    2    1    2    0    0 -0.88141391678E+02 -0.57776155708E+02 -0.52083295210E+02  0.14395939762E+03  0.83094220185E+02 0.  0.
         23    2    1    2    0    0  0.46395921049E+02  0.19882726362E+02 -0.11588708321E+03  0.15674416510E+03  0.92687717318E+02 0.  0.
        -13    1    3    3    0    0 -0.12493509286E+02 -0.53043954369E+02 -0.39072002181E+02  0.67054979112E+02  0.00000000000E+00 0.  1.
         14    1    3    3    0    0 -0.75647882391E+02 -0.47322013393E+01 -0.13011293029E+02  0.76904418508E+02  0.00000000000E+00 0. -1.
        -11    1    4    4    0    0  0.34069397858E+02 -0.24702230543E+02 -0.13175331378E+02  0.44096637299E+02  0.00000000000E+00 0. -1.
         11    1    4    4    0    0  0.12326523192E+02  0.44584956905E+02 -0.10271175183E+03  0.11264752780E+03  0.00000000000E+00 0.  1.
         -2    1    1    2    0  502  0.41745470628E+02  0.37893429346E+02 -0.11815173664E+02  0.57603772743E+02  0.00000000000E+00 0.  1.
<scales pt_clust_5="13000.00000" pt_clust_6="13000.00000" pt_clust_7="13000.00000" pt_clust_8="13000.00000" pt_clust_9="13000.00000"></scales>
<clustering>
<clus scale="   83.094">  5  6 -1 -1</clus>
<clus scale="   92.688">  7  8 -1 -1</clus>
<clus scale="   56.379">  7  9 -1 -1</clus>
<clus scale="  134.207">  1  5  2 -1</clus>
<clus scale="  172.155">  2  5  1 -1</clus>
</clustering>
</event>
<event>
 9    2  0.3707658E-005  0.2837642E+03  0.7546771E-02  0.1097115E+00
          2   -1    0    0  502    0 -0.00000000000E+00  0.00000000000E+00  0.40988781377E+03  0.40988781377E+03  0.00000000000E+00 0. -1.
         21   -1    0    0  501  502  0.00000000000E+00 -0.00000000000E+00 -0.17991793628E+03  0.17991793628E+03  0.00000000000E+00 0. -1.
         24    2    1    2    0    0  0.23686142996E+03 -0.71323170069E+02  0.11766839927E+03  0.28462752647E+03  0.77308764369E+02 0.  0.
         23    2    1    2    0    0 -0.12088450141E+03  0.60645104124E+02  0.68360746250E+02  0.18069747418E+03  0.98425069010E+02 0.  0.
        -13    1    3    3    0    0  0.24600831776E+02  0.14946220511E+02  0.46892482441E+01  0.29164695794E+02  0.00000000000E+00 0.  1.
         14    1    3    3    0    0  0.21226059818E+03 -0.86269390580E+02  0.11297915102E+03  0.25546283068E+03  0.00000000000E+00 0. -1.
        -11    1    4    4    0    0 -0.92469398467E+02  0.83144505219E+02  0.72938618526E+02  0.14416532341E+03  0.00000000000E+00 0.  1.
         11    1    4    4    0    0 -0.28415102948E+02 -0.22499401095E+02 -0.45778722761E+01  0.36532150768E+02  0.00000000000E+00 0. -1.
          1    1    1    2  501    0 -0.11597692854E+03  0.10678065946E+02  0.43940731973E+02  0.12448074941E+03  0.00000000000E+00 0. -1.
<scales pt_clust_5="13000.00000" pt_clust_6="13000.00000" pt_clust_7="13000.00000" pt_clust_8="13000.00000" pt_clust_9="13000.00000"></scales>
<clustering>
<clus scale="   77.309">  5  6 -1 -1</clus>
<clus scale="   98.425">  7  8 -1 -1</clus>
<clus scale="  116.468">  7  9 -1 -1</clus>
<clus scale="  259.166">  1  5  2 -1</clus>
<clus scale="  283.764">  2  5  1 -1</clus>
</clustering>
</event>
<event>
 9    2  0.3707658E-005  0.1705083E+03  0.7546771E-02  0.1199875E+00
         21   -1    0    0  501  502  0.00000000000E+00  0.00000000000E+00  0.56233254586E+02  0.56233254586E+02  0.00000000000E+00 0. -1.
          2   -1    0    0  502    0 -0.00000000000E+00 -0.00000000000E+00 -0.33811136144E+03  0.33811136144E+03  0.00000000000E+00 0. -1.
         24    2    1    2    0    0  0.39493371881E+02 -0.54162009532E+02 -0.12876586114E+03  0.16517995152E+03  0.78806850518E+02 0.  0.
         23    2    1    2    0    0  0.63000604351E+01  0.17039041564E+02 -0.15041867099E+03  0.17015272894E+03  0.77434842840E+02 0.  0.
        -11    1    3    3    0    0  0.63816388971E+02 -0.38795178744E+02 -0.92219195769E+02  0.11866750804E+03  0.00000000000E+00 0.  1.
         12    1    3    3    0    0 -0.24323017090E+02 -0.15366830788E+02 -0.36546665371E+02  0.46512443481E+02  0.00000000000E+00 0. -1.
        -13    1    4    4    0    0 -0.29984778292E+02  0.18840729607E+02 -0.37698481566E+02  0.51722679104E+02  0.00000000000E+00 0.  1.
         13    1    4    4    0    0  0.36284838727E+02 -0.18016880431E+01 -0.11272018942E+03  0.11843004984E+03  0.00000000000E+00 0. -1.
          1    1    1    2  501    0 -0.45793432316E+02  0.37122967968E+02 -0.26935747213E+01  0.59011935563E+02  0.00000000000E+00 0. -1.
<scales pt_clust_5="13000.00000" pt_clust_6="13000.00000" pt_clust_7="13000.00000" pt_clust_8="13000.00000" pt_clust_9="13000.00000"></scales>
<clustering>
<clus scale="   77.435">  7  8 -1 -1</clus>
<clus scale="   58.950">  7  9 -1 -1</clus>
<clus scale="   78.807">  5  6 -1 -1</clus>
<clus scale="  103.459">  2  5  1 -1</clus>
<clus scale="  170.508">  1  5  2 -1</clus>
</clustering>
</event>
<event>
 9    2  0.3707658E-005  0.4284450E+03  0.7546771E-02  0.1085576E+00
         21   -1    0    0  501  502  0.00000000000E+00  0.00000000000E+00  0.69176311767E+02  0.69176311767E+02  0.00000000000E+00 0.  1.
          2   -1    0    0  502    0 -0.00000000000E+00 -0.00000000000E+00 -0.11280963128E+04  0.11280963128E+04  0.00000000000E+00 0. -1.
         24    2    1    2    0    0  0.53147489323E+02  0.28930999791E+02 -0.83404225628E+02  0.13181677660E+03  0.82205470448E+02 0.  0.
         23    2    1    2    0    0 -0.81839411262E+02  0.17991046889E+03 -0.53584621161E+03  0.57786246126E+03  0.87911293861E+02 0.  0.
        -13    1    3    3    0    0  0.63862841198E+02  0.32787497861E+02 -0.31009892111E+02  0.78199078706E+02  0.00000000000E+00 0.  1.
         14    1    3    3    0    0 -0.10715351875E+02 -0.38564980696E+01 -0.52394333518E+02  0.53617697898E+02  0.00000000000E+00 0. -1.
        -13    1    4    4    0    0 -0.43823609332E+02  0.14914771089E+02 -0.96832004053E+02  0.10732844982E+03  0.00000000000E+00 0. -1.
         13    1    4    4    0    0 -0.38015801929E+02  0.16499569780E+03 -0.43901420756E+03  0.47053401144E+03  0.00000000000E+00 0.  1.
          1    1    1    2  501    0  0.28691921939E+02 -0.20884146868E+03 -0.43966956380E+03  0.48759338670E+03  0.00000000000E+00 0. -1.
<scales pt_clust_5="13000.00000" pt_clust_6="13000.00000" pt_clust_7="13000.00000" pt_clust_8="13000.00000" pt_clust_9="13000.00000"></scales>
<clustering>
<clus scale="   82.205">  5  6 -1 -1</clus>
<clus scale="   87.911">  7  8 -1 -1</clus>
<clus scale="  102.076">  2  5  1 -1</clus>
<clus scale="  202.705">  7  9 -1 -1</clus>
<clus scale="  428.445">  1  5  2 -1</clus>
</clustering>
</event>
<event>
 9    2  0.3707658E-005  0.3073074E+03  0.7546771E-02  0.1126128E+00
          2   -1    0    0  502    0 -0.00000000000E+00  0.00000000000E+00  0.14195371398E+04  0.14195371398E+04  0.00000000000E+00 0. -1.
         21   -1    0    0  501  502  0.00000000000E+00 -0.00000000000E+00 -0.40977360139E+02  0.40977360139E+02  0.00000000000E+00 0. -1.
         24    2    1    2    0    0  0.26199894144E+02 -0.48810586548E+02  0.79508784135E+03  0.80106217728E+03  0.80417837466E+02 0.  0.
         23    2    1    2    0    0  0.53699235368E+02  0.65238154920E+02  0.56145220290E+03  0.57496205906E+03  0.90626533015E+02 0.  0.
        -13    1    3    3    0    0 -0.72759766615E+01 -0.28525344347E+02  0.86080826396E+02  0.90975511977E+02  0.00000000000E+00 0.  1.
         14    1    3    3    0    0  0.33475870806E+02 -0.20285242201E+02  0.70900701496E+03  0.71008666530E+03  0.00000000000E+00 0. -1.
        -13    1    4    4    0    0  0.44625624934E+02 -0.11809431305E+02  0.22396706137E+03  0.22867477703E+03  0.00000000000E+00 0. -1.
         13    1    4    4    0    0  0.90736104335E+01  0.77047586224E+02  0.33748514152E+03  0.34628728203E+03  0.00000000000E+00 0.  1.
          1    1    1    2  501    0 -0.79899129512E+02 -0.16427568372E+02  0.22019735439E+02  0.84490263630E+02  0.00000000000E+00 0. -1.
<scales pt_clust_5="13000.00000" pt_clust_6="13000.00000" pt_clust_7="13000.00000" pt_clust_8="13000.00000" pt_clust_9="13000.00000"></scales>
<clustering>
<clus scale="   80.418">  5  6 -1 -1</clus>
<clus scale="   90.627">  7  8 -1 -1</clus>
<clus scale="   81.570">  7  9 -1 -1</clus>
<clus scale="   97.652">  1  5  2 -1</clus>
<clus scale="  307.307">  2  5  1 -1</clus>
</clustering>
</event>
<event>
 9    2  0.3707658E-005  0.2461417E+03  0.7546771E-02  0.1158847E+00
          2   -1    0    0  502    0 -0.00000000000E+00  0.00000000000E+00  0.90067595713E+03  0.90067595713E+03  0.00000000000E+00 0. -1.
         21   -1    0    0  501  502  0.00000000000E+00 -0.00000000000E+00 -0.32046648199E+02  0.32046648199E+02  0.00000000000E+00 0.  1.
         24    2    1    2    0    0  0.30267968241E+02  0.90809180106E+01  0.15124817364E+03  0.17428908087E+03  0.80635356449E+02 0.  0.
         23    2    1    2    0    0  0.47559373609E+02 -0.20427101407E+02  0.12925932949E+03  0.16507605254E+03  0.88673380290E+02 0.  0.
        -11    1    3    3    0    0  0.18887428540E+02 -0.31893038891E+02  0.10553274757E+03  0.11185285734E+03  0.00000000000E+00 0.  1.
         12    1    3    3    0    0  0.11380539701E+02  0.40973956902E+02  0.45715426073E+02  0.62436223534E+02  0.00000000000E+00 0. -1.
        -13    1    4    4    0    0 -0.18506147141E+02 -0.76821539970E+01  0.77885636915E+02  0.80421796857E+02  0.00000000000E+00 0. -1.
         13    1    4    4    0    0  0.66065520750E+02 -0.12744947410E+02  0.51373692573E+02  0.84654255681E+02  0.00000000000E+00 0.  1.
          1    1    1    2  501    0 -0.77827341849E+02  0.11346183397E+02  0.58812180580E+03  0.59335747192E+03  0.00000000000E+00 0. -1.
<scales pt_clust_5="13000.00000" pt_clust_6="13000.00000" pt_clust_7="13000.00000" pt_clust_8="13000.00000" pt_clust_9="13000.00000"></scales>
<clustering>
<clus scale="   80.635">  5  6 -1 -1</clus>
<clus scale="   86.606">  1  5  2 -1</clus>
<clus scale="   88.673">  7  8 -1 -1</clus>
<clus scale="   56.737">  7  9 -1 -1</clus>
<clus scale="  246.142">  2  5  1 -1</clus>
</clustering>
</event>
<event>
 9    2  0.3707658E-005  0.2413866E+03  0.7546771E-02  0.1154752E+00
         21   -1    0    0  501  502  0.00000000000E+00  0.00000000000E+00  0.41349537971E+02  0.41349537971E+02  0.00000000000E+00 0.  1.
          2   -1    0    0  502    0 -0.00000000000E+00 -0.00000000000E+00 -0.79546835889E+03  0.79546835889E+03  0.00000000000E+00 0. -1.
         24    2    1    2    0    0 -0.59435555507E+02  0.17437744511E+02 -0.36652939627E+03  0.38020750071E+03  0.79857905515E+02 0.  0.
         23    2    1    2    0    0 -0.65553760920E+02 -0.19351527818E+02 -0.17624109932E+03  0.21106181358E+03  0.93884966101E+02 0.  0.
        -13    1    3    3    0    0 -0.94315568240E+01  0.35518546524E+02 -0.71148727988E+02  0.80079104051E+02  0.00000000000E+00 0.  1.
         14    1    3    3    0    0 -0.50003998683E+02 -0.18080802013E+02 -0.29538066828E+03  0.30012839666E+03  0.00000000000E+00 0. -1.
        -11    1    4    4    0    0 -0.41967281375E+02  0.31032617751E+02 -0.12486966676E+03  0.13533923949E+03  0.00000000000E+00 0. -1.
         11    1    4    4    0    0 -0.23586479545E+02 -0.50384145569E+02 -0.51371432569E+02  0.75722574086E+02  0.00000000000E+00 0.  1.
          1    1    1    2  501    0  0.12498931643E+03  0.19137833064E+01 -0.21134832532E+03  0.24554858258E+03  0.00000000000E+00 0. -1.
<scales pt_clust_5="13000.00000" pt_clust_6="13000.00000" pt_clust_7="13000.00000" pt_clust_8="13000.00000" pt_clust_9="13000.00000"></scales>
<clustering>
<clus scale="   79.858">  5  6 -1 -1</clus>
<clus scale="   93.885">  7  8 -1 -1</clus>
<clus scale="  101.064">  2  5  1 -1</clus>
<clus scale="   93.513">  7  9 -1 -1</clus>
<clus scale="  241.387">  1  5  2 -1</clus>
</clustering>
</event>
<event>
 9    2  0.3707658E-005  0.5353339E+03  0.7546771E-02  0.1050963E+00
         -1   -1    0    0    0  501 -0.00000000000E+00  0.00000000000E+00  0.11940738808E+04  0.11940738808E+04  0.00000000000E+00 0.  1.
         21   -1    0    0  501  502  0.00000000000E+00 -0.00000000000E+00 -0.10734877343E+03  0.10734877343E+03  0.00000000000E+00 0. -1.
         24    2    1    2    0    0 -0.32654475573E+02  0.10440907016E+03  0.70952113315E+02  0.15321659675E+03  0.80458401858E+02 0.  0.
         23    2    1    2    0    0  0.47948610500E+02  0.13810466677E+03  0.10059575929E+03  0.20131842202E+03  0.95066461092E+02 0.  0.
        -11    1    3    3    0    0 -0.13772867769E+02  0.11341169732E+03  0.65118997713E+02  0.13150052790E+03  0.00000000000E+00 0.  1.
         12    1    3    3    0    0 -0.18881607803E+02 -0.90026271520E+01  0.58331156023E+01  0.21716068855E+02  0.00000000000E+00 0. -1.
        -11    1    4    4    0    0  0.12719023494E+01  0.38935382089E+02 -0.15254447250E+02  0.41836346338E+02  0.00000000000E+00 0.  1.
         11    1    4    4    0    0  0.46676708151E+02  0.99169284679E+02  0.11585020654E+03  0.15948207568E+03  0.00000000000E+00 0. -1.
         -2    1    1    2    0  502 -0.15294134927E+02 -0.24251373693E+03  0.91517723480E+03  0.94688763549E+03  0.00000000000E+00 0.  1.
<scales pt_clust_5="13000.00000" pt_clust_6="13000.00000" pt_clust_7="13000.00000" pt_clust_8="13000.00000" pt_clust_9="13000.00000"></scales>
<clustering>
<clus scale="   80.458">  5  6 -1 -1</clus>
<clus scale="   95.066">  7  8 -1 -1</clus>
<clus scale="  135.798">  1  5  2 -1</clus>
<clus scale="  158.719">  7  9 -1 -1</clus>
<clus scale="  535.334">  2  5  1 -1</clus>
</clustering>
</event>
<event>
 9    2  0.3707658E-005  0.2030829E+03  0.7546771E-02  0.1186183E+00
          2   -1    0    0  502    0 -0.00000000000E+00  0.00000000000E+00  0.26979129833E+03  0.26979129833E+03  0.00000000000E+00 0. -1.
         21   -1    0    0  501  502  0.00000000000E+00 -0.00000000000E+00 -0.75910046665E+02  0.75910046665E+02  0.00000000000E+00 0. -1.
         24    2    1    2    0    0 -0.63700271573E+01  0.17763694227E+02  0.47972417330E+02  0.95637273480E+02  0.80554386446E+02 0.  0.
         23    2    1    2    0    0 -0.88864127302E+01 -0.76733997578E+02  0.35703798051E+02  0.12414582162E+03  0.90389983482E+02 0.  0.
        -13    1    3    3    0    0 -0.43109033917E+02  0.12827896324E+02  0.20129075688E+02  0.49275992303E+02  0.00000000000E+00 0.  1.
         14    1    3    3    0    0  0.36739006760E+02  0.49357979035E+01  0.27843341642E+02  0.46361281178E+02  0.00000000000E+00 0. -1.
        -13    1    4    4    0    0 -0.98141008600E+01 -0.97468320736E+02  0.26795714806E+02  0.10155983682E+03  0.00000000000E+00 0. -1.
         13    1    4    4    0    0  0.92768812982E+00  0.20734323158E+02  0.89080832448E+01  0.22585984796E+02  0.00000000000E+00 0.  1.
          1    1    1    2  501    0  0.15256439888E+02  0.58970303351E+02  0.11020503629E+03  0.12591824990E+03  0.00000000000E+00 0. -1.
<scales pt_clust_5="13000.00000" pt_clust_6="13000.00000" pt_clust_7="13000.00000" pt_clust_8="13000.00000" pt_clust_9="13000.00000"></scales>
<clustering>
<clus scale="   80.554">  5  6 -1 -1</clus>
<clus scale="   82.735">  1  5  2 -1</clus>
<clus scale="   90.390">  7  8 -1 -1</clus>
<clus scale="   70.500">  7  9 -1 -1</clus>
<clus scale="  203.083">  2  5  1 -1</clus>
</clustering>
</event>
<event>
 9    2  0.3707658E-005  0.2378513E+03  0.7546771E-02  0.1152756E+00
         21   -1    0    0  501  502  0.00000000000E+00  0.00000000000E+00  0.44936777033E+02  0.44936777033E+02  0.00000000000E+00 0.  1.
          2   -1    0    0  502    0 -0.00000000000E+00 -0.00000000000E+00 -0.69407616110E+03  0.69407616110E+03  0.00000000000E+00 0. -1.
         24    2    1    2    0    0 -0.78538833411E+02  0.13729915809E+02 -0.15358499746E+03  0.18933360336E+03  0.76824494636E+02 0.  0.
         23    2    1    2    0    0 -0.26046763856E+02  0.17425796332E+02 -0.98952649860E+02  0.13833791557E+03  0.91453046347E+02 0.  0.
        -11    1    3    3    0    0 -0.44577275436E+02 -0.10649916299E+02 -0.21187037672E+02  0.50492026774E+02  0.00000000000E+00 0.  1.
         12    1    3    3    0    0 -0.33961557976E+02  0.24379832108E+02 -0.13239795979E+03  0.13884157659E+03  0.00000000000E+00 0. -1.
        -13    1    4    4    0    0 -0.48953465784E+02 -0.13816594069E+01 -0.96968033681E+02  0.10863309970E+03  0.00000000000E+00 0. -1.
         13    1    4    4    0    0  0.22906701929E+02  0.18807455738E+02 -0.19846161783E+01  0.29704815872E+02  0.00000000000E+00 0.  1.
          1    1    1    2  501    0  0.10458559727E+03 -0.31155712140E+02 -0.39660173674E+03  0.41134141919E+03  0.00000000000E+00 0. -1.
<scales pt_clust_5="13000.00000" pt_clust_6="13000.00000" pt_clust_7="13000.00000" pt_clust_8="13000.00000" pt_clust_9="13000.00000"></scales>
<clustering>
<clus scale="   76.824">  5  6 -1 -1</clus>
<clus scale="   91.453">  7  8 -1 -1</clus>
<clus scale="  109.128">  7  9 -1 -1</clus>
<clus scale="  110.720">  2  5  1 -1</clus>
<clus scale="  237.851">  1  5  2 -1</clus>
</clustering>
</event>
<event>
 9    2  0.3707658E-005  0.2790662E+03  0.7546771E-02  0.1136487E+00
          2   -1    0    0  502    0 -0.00000000000E+00  0.00000000000E+00  0.47631206038E+03  0.47631206038E+03  0.00000000000E+00 0. -1.
         21   -1    0    0  501  502  0.00000000000E+00 -0.00000000000E+00 -0.15394514976E+03  0.15394514976E+03  0.00000000000E+00 0. -1.
         24    2    1    2    0    0 -0.65196545717E+01  0.60954166697E+02  0.33595738728E+03  0.35086025199E+03  0.80483750058E+02 0.  0.
         23    2    1    2    0    0 -0.12547427510E+02  0.66808586147E+02  0.61304033737E+02  0.13007829783E+03  0.92419445437E+02 0.  0.
        -11    1    3    3    0    0  0.33180709013E+02  0.27683517989E+02  0.94529860966E+02  0.10393859357E+03  0.00000000000E+00 0.  1.
         12    1    3    3    0    0 -0.39700363585E+02  0.33270648708E+02  0.24142752631E+03  0.24692165842E+03  0.00000000000E+00 0. -1.
        -13    1    4    4    0    0  0.11339483102E+01  0.87571070950E+02  0.36262585296E+02  0.94788994078E+02  0.00000000000E+00 0. -1.
         13    1    4    4    0    0 -0.13681375820E+02 -0.20762484802E+02  0.25041448441E+02  0.35289303755E+02  0.00000000000E+00 0.  1.
          1    1    1    2  501    0  0.19067082082E+02 -0.12776275284E+03 -0.74894510387E+02  0.14931866032E+03  0.00000000000E+00 0. -1.
<scales pt_clust_5="13000.00000" pt_clust_6="13000.00000" pt_clust_7="13000.00000" pt_clust_8="13000.00000" pt_clust_9="13000.00000"></scales>
<clustering>
<clus scale="   80.484">  5  6 -1 -1</clus>
<clus scale="   92.419">  7  8 -1 -1</clus>
<clus scale="  101.171">  1  5  2 -1</clus>
<clus scale="  112.031">  7  9 -1 -1</clus>
<clus scale="  279.066">  2  5  1 -1</clus>
</clustering>
</event>
<event>
 9    2  0.3707658E-005  0.2806496E+03  0.7546771E-02  0.1144182E+00
         -1   -1    0    0    0  501 -0.00000000000E+00  0.00000000000E+00  0.45410200122E+02  0.45410200122E+02  0.00000000000E+00 0.  1.
         21   -1    0    0  501  502  0.00000000000E+00 -0.00000000000E+00 -0.72664384839E+03  0.72664384839E+03  0.00000000000E+00 0.  1.
         24    2    1    2    0    0  0.78186870358E+01  0.52578211852E+01 -0.15115461839E+03  0.17226410393E+03  0.82087918062E+02 0.  0.
         23    2    1    2    0    0 -0.11266731555E+03  0.57431873627E+02 -0.25794855315E+03  0.30149775712E+03  0.91493701288E+02 0.  0.
        -11    1    3    3    0    0  0.31945057081E+02  0.30510533896E+02 -0.58935802575E+02  0.73653297113E+02  0.00000000000E+00 0.  1.
         12    1    3    3    0    0 -0.24126370046E+02 -0.25252712711E+02 -0.92218815812E+02  0.98610806814E+02  0.00000000000E+00 0. -1.
        -13    1    4    4    0    0 -0.58458227892E+02  0.78533576731E+02 -0.15983905489E+03  0.18743908491E+03  0.00000000000E+00 0. -1.
         13    1    4    4    0    0 -0.54209087654E+02 -0.21101703104E+02 -0.98109498257E+02  0.11405867221E+03  0.00000000000E+00 0.  1.
         -2    1    1    2    0  502  0.10484862851E+03 -0.62689694813E+02 -0.27213047674E+03  0.29829218747E+03  0.00000000000E+00 0.  1.
<scales pt_clust_5="13000.00000" pt_clust_6="13000.00000" pt_clust_7="13000.00000" pt_clust_8="13000.00000" pt_clust_9="13000.00000"></scales>
<clustering>
<clus scale="   82.088">  5  6 -1 -1</clus>
<clus scale="   82.627">  1  5  2 -1</clus>
<clus scale="   91.494">  7  8 -1 -1</clus>
<clus scale="  123.708">  7  9 -1 -1</clus>
<clus scale="  280.650">  2  5  1 -1</clus>
</clustering>
</event>
<event>
 9    2  0.3707658E-005  0.1318590E+03  0.7546771E-02  0.1246174E+00
          2   -1    0    0  502    0 -0.00000000000E+00  0.00000000000E+00  0.95891122341E+02  0.95891122341E+02  0.00000000000E+00 0. -1.
         21   -1    0    0  501  502  0.00000000000E+00 -0.00000000000E+00 -0.51787331910E+03  0.51787331910E+03  0.00000000000E+00 0. -1.
         24    2    1    2    0    0 -0.80238183459E+01 -0.27813610534E+02  0.66417557394E+02  0.10787797455E+03  0.79927384992E+02 0.  0.
         23    2    1    2    0    0  0.15688606351E+01 -0.11564953247E+02 -0.35123456917E+03  0.36303470548E+03  0.91061876430E+02 0.  0.
        -11    1    3    3    0    0 -0.12401741430E+02 -0.55118686651E+02  0.37173795015E+02  0.67629607750E+02  0.00000000000E+00 0.  1.
         12    1    3    3    0    0  0.43779230838E+01  0.27305076116E+02  0.29243762379E+02  0.40248366804E+02  0.00000000000E+00 0. -1.
        -11    1    4    4    0    0 -0.43331911662E+02 -0.14512999502E+02 -0.14878076653E+03  0.15564060592E+03  0.00000000000E+00 0.  1.
         11    1    4    4    0    0  0.44900772297E+02  0.29480462548E+01 -0.20245380264E+03  0.20739409956E+03  0.00000000000E+00 0. -1.
          1    1    1    2  501    0  0.64549577108E+01  0.39378563781E+02 -0.13716518498E+03  0.14285176140E+03  0.00000000000E+00 0. -1.
<scales pt_clust_5="13000.00000" pt_clust_6="13000.00000" pt_clust_7="13000.00000" pt_clust_8="13000.00000" pt_clust_9="13000.00000"></scales>
<clustering>
<clus scale="   79.927">  5  6 -1 -1</clus>
<clus scale="   85.008">  1  5  2 -1</clus>
<clus scale="   91.062">  7  8 -1 -1</clus>
<clus scale="   30.577">  7  9 -1 -1</clus>
<clus scale="  131.859">  2  5  1 -1</clus>
</clustering>
</event>
<event>
 9    2  0.3707658E-005  0.3650760E+03  0.7546771E-02  0.1112304E+00
         21   -1    0    0  501  502  0.00000000000E+00  0.00000000000E+00  0.12954370320E+03  0.12954370320E+03  0.00000000000E+00 0.  1.
          4   -1    0    0  502    0 -0.00000000000E+00 -0.00000000000E+00 -0.48548515894E+03  0.48548515894E+03  0.00000000000E+00 0. -1.
         24    2    1    2    0    0 -0.29131450390E-03 -0.18348245856E+02 -0.20327095158E+03  0.21931591007E+03  0.80272850490E+02 0.  0.
         23    2    1    2    0    0 -0.13655317625E+03 -0.77468933055E+02 -0.13793146784E+03  0.22824647641E+03  0.91777767697E+02 0.  0.
        -11    1    3    3    0    0  0.10953444886E+02 -0.33481265930E+02 -0.19620589460E+03  0.19934323715E+03  0.00000000000E+00 0.  1.
         12    1    3    3    0    0 -0.10953736200E+02  0.15133020074E+02 -0.70650569868E+01  0.19972672919E+02  0.00000000000E+00 0. -1.
        -13    1    4    4    0    0 -0.11588188362E+03 -0.57032889364E+02 -0.55019904079E+02  0.14038714779E+03  0.00000000000E+00 0.  1.
         13    1    4    4    0    0 -0.20671292627E+02 -0.20436043691E+02 -0.82911563761E+02  0.87859328622E+02  0.00000000000E+00 0. -1.
          3    1    1    2  501    0  0.13655346756E+03  0.95817178911E+02 -0.14739036312E+02  0.16746647566E+03  0.00000000000E+00 0. -1.
<scales pt_clust_5="13000.00000" pt_clust_6="13000.00000" pt_clust_7="13000.00000" pt_clust_8="13000.00000" pt_clust_9="13000.00000"></scales>
<clustering>
<clus scale="   80.273">  5  6 -1 -1</clus>
<clus scale="   82.343">  2  5  1 -1</clus>
<clus scale="   91.778">  7  8 -1 -1</clus>
<clus scale="  163.391">  7  9 -1 -1</clus>
<clus scale="  365.076">  1  5  2 -1</clus>
</clustering>
</event>
<event>
 9    2  0.3707658E-005  0.2237999E+03  0.7546771E-02  0.1185549E+00
          2   -1    0    0  502    0 -0.00000000000E+00  0.00000000000E+00  0.38930571844E+03  0.38930571844E+03  0.00000000000E+00 0. -1.
         21   -1    0    0  501  502  0.00000000000E+00 -0.00000000000E+00 -0.70209960840E+02  0.70209960840E+02  0.00000000000E+00 0. -1.
         24    2    1    2    0    0 -0.26178252869E+02  0.16647891703E+02  0.19236484226E+03  0.20232486094E+03  0.54485443877E+02 0.  0.
         23    2    1    2    0    0 -0.33692642395E+02  0.63596721711E+02  0.91435709565E+02  0.15103304127E+03  0.96284751692E+02 0.  0.
        -11    1    3    3    0    0 -0.31447932432E+02 -0.10713664627E+02  0.81486856604E+02  0.87999220810E+02  0.00000000000E+00 0.  1.
         12    1    3    3    0    0  0.52696795629E+01  0.27361556331E+02  0.11087798566E+03  0.11432564013E+03  0.00000000000E+00 0. -1.
        -11    1    4    4    0    0 -0.42184051190E+02  0.83506385707E+02  0.54641191866E+02  0.10834422217E+03  0.00000000000E+00 0. -1.
         11    1    4    4    0    0  0.84914087953E+01 -0.19909663997E+02  0.36794517699E+02  0.42688819104E+02  0.00000000000E+00 0.  1.
          1    1    1    2  501    0  0.59870895264E+02 -0.80244613414E+02  0.35295205773E+02  0.10615777707E+03  0.00000000000E+00 0. -1.
<scales pt_clust_5="13000.00000" pt_clust_6="13000.00000" pt_clust_7="13000.00000" pt_clust_8="13000.00000" pt_clust_9="13000.00000"></scales>
<clustering>
<clus scale="   54.485">  5  6 -1 -1</clus>
<clus scale="   62.699">  1  5  2 -1</clus>
<clus scale="   96.285">  7  8 -1 -1</clus>
<clus scale="   89.527">  7  9 -1 -1</clus>
<clus scale="  223.800">  2  5  1 -1</clus>
</clustering>
</event>
<event>
 9    2  0.3707658E-005  0.1647213E+03  0.7546771E-02  0.1203050E+00
         21   -1    0    0  501  502  0.00000000000E+00  0.00000000000E+00  0.59294390528E+02  0.59294390528E+02  0.00000000000E+00 0.  1.
          2   -1    0    0  502    0 -0.00000000000E+00 -0.00000000000E+00 -0.36396438847E+03  0.36396438847E+03  0.00000000000E+00 0. -1.
         24    2    1    2    0    0  0.70533143416E+02 -0.12988476386E+01 -0.20343625841E+03  0.22991616381E+03  0.80613397253E+02 0.  0.
         23    2    1    2    0    0 -0.23422902037E+02  0.20469857629E+02 -0.31705218667E+02  0.10719670594E+03  0.97561598303E+02 0.  0.
        -13    1    3    3    0    0 -0.15132135308E+02  0.13377381039E+02 -0.37070408645E+02  0.42215530786E+02  0.00000000000E+00 0.  1.
         14    1    3    3    0    0  0.85665278723E+02 -0.14676228678E+02 -0.16636584977E+03  0.18770063302E+03  0.00000000000E+00 0. -1.
        -11    1    4    4    0    0 -0.14452727732E+02 -0.18999329381E+02  0.26905067475E+02  0.35968576726E+02  0.00000000000E+00 0.  1.
         11    1    4    4    0    0 -0.89701743047E+01  0.39469187010E+02 -0.58610286143E+02  0.71228129219E+02  0.00000000000E+00 0. -1.
          1    1    1    2  501    0 -0.47110241379E+02 -0.19171009991E+02 -0.69528520862E+02  0.86145909248E+02  0.00000000000E+00 0. -1.
<scales pt_clust_5="13000.00000" pt_clust_6="13000.00000" pt_clust_7="13000.00000" pt_clust_8="13000.00000" pt_clust_9="13000.00000"></scales>
<clustering>
<clus scale="   80.613">  5  6 -1 -1</clus>
<clus scale="   97.562">  7  8 -1 -1</clus>
<clus scale="   50.862">  7  9 -1 -1</clus>
<clus scale="  107.122">  2  5  1 -1</clus>
<clus scale="  164.721">  1  5  2 -1</clus>
</clustering>
</event>
<event>
 9    2  0.3707658E-005  0.1855996E+03  0.7546771E-02  0.1198216E+00
         21   -1    0    0  501  502  0.00000000000E+00  0.00000000000E+00  0.46090919203E+02  0.46090919203E+02  0.00000000000E+00 0.  1.
          2   -1    0    0  502    0 -0.00000000000E+00 -0.00000000000E+00 -0.39516276765E+03  0.39516276765E+03  0.00000000000E+00 0. -1.
         24    2    1    2    0    0 -0.19030415568E+02 -0.50376726153E+01 -0.89770668473E+02  0.12237392408E+03  0.80802657841E+02 0.  0.
         23    2    1    2    0    0  0.38002514811E+02  0.55117685593E+02 -0.10082310450E+03  0.15159781917E+03  0.91293208838E+02 0.  0.
        -13    1    3    3    0    0 -0.80372019466E+00  0.37158583402E+02 -0.38391131901E+02  0.53434869657E+02  0.00000000000E+00 0.  1.
         14    1    3    3    0    0 -0.18226695374E+02 -0.42196256018E+02 -0.51379536572E+02  0.68939054421E+02  0.00000000000E+00 0. -1.
        -13    1    4    4    0    0 -0.26388920396E+02  0.14951506699E+02 -0.55377518799E+02  0.63139466743E+02  0.00000000000E+00 0. -1.
         13    1    4    4    0    0  0.64391435207E+02  0.40166178894E+02 -0.45445585704E+02  0.88458352432E+02  0.00000000000E+00 0.  1.
          1    1    1    2  501    0 -0.18972099243E+02 -0.50080012978E+02 -0.15847807547E+03  0.16728194360E+03  0.00000000000E+00 0. -1.
<scales pt_clust_5="13000.00000" pt_clust_6="13000.00000" pt_clust_7="13000.00000" pt_clust_8="13000.00000" pt_clust_9="13000.00000"></scales>
<clustering>
<clus scale="   80.803">  5  6 -1 -1</clus>
<clus scale="   83.166">  2  5  1 -1</clus>
<clus scale="   91.293">  7  8 -1 -1</clus>
<clus scale="   60.680">  7  9 -1 -1</clus>
<clus scale="  185.600">  1  5  2 -1</clus>
</clustering>
</event>
<event>
 9    2  0.3707658E-005  0.3427215E+03  0.7546771E-02  0.1098742E+00
         21   -1    0    0  501  502  0.00000000000E+00  0.00000000000E+00  0.50926735726E+02  0.50926735726E+02  0.00000000000E+00 0. -1.
          2   -1    0    0  502    0 -0.00000000000E+00 -0.00000000000E+00 -0.13789249068E+04  0.13789249068E+04  0.00000000000E+00 0. -1.
         24    2    1    2    0    0  0.11572785024E+03  0.11863463284E+02 -0.70350833823E+03  0.71749950148E+03  0.79673556337E+02 0.  0.
         23    2    1    2    0    0  0.82210434748E+02 -0.10861279453E+02 -0.36897601147E+03  0.38913722500E+03  0.91694928253E+02 0.  0.
        -11    1    3    3    0    0  0.31557244762E+02  0.37716202202E+02 -0.17812403222E+03  0.18478783093E+03  0.00000000000E+00 0.  1.
         12    1    3    3    0    0  0.84170605479E+02 -0.25852738918E+02 -0.52538430601E+03  0.53271167055E+03  0.00000000000E+00 0. -1.
        -13    1    4    4    0    0 -0.18589247024E+02  0.74707351673E+01 -0.42959965536E+02  0.47401799836E+02  0.00000000000E+00 0.  1.
         13    1    4    4    0    0  0.10079968177E+03 -0.18332014621E+02 -0.32601604593E+03  0.34173542516E+03  0.00000000000E+00 0. -1.
          1    1    1    2  501    0 -0.19793828499E+03 -0.10021838307E+01 -0.25551382133E+03  0.32321491601E+03  0.00000000000E+00 0. -1.
<scales pt_clust_5="13000.00000" pt_clust_6="13000.00000" pt_clust_7="13000.00000" pt_clust_8="13000.00000" pt_clust_9="13000.00000"></scales>
<clustering>
<clus scale="   79.674">  5  6 -1 -1</clus>
<clus scale="   91.695">  7  8 -1 -1</clus>
<clus scale="  141.002">  2  5  1 -1</clus>
<clus scale="  147.897">  7  9 -1 -1</clus>
<clus scale="  342.721">  1  5  2 -1</clus>
</clustering>
</event>
<event>
 9    2  0.3707658E-005  0.2459552E+03  0.7546771E-02  0.1157129E+00
          2   -1    0    0  502    0 -0.00000000000E+00  0.00000000000E+00  0.21325568373E+03  0.21325568373E+03  0.00000000000E+00 0. -1.
         21   -1    0    0  501  502  0.00000000000E+00 -0.00000000000E+00 -0.13487304720E+03  0.13487304720E+03  0.00000000000E+00 0. -1.
         24    2    1    2    0    0  0.51583771435E+02 -0.30649222330E+02  0.12631799104E+01  0.90366454411E+02  0.67559160404E+02 0.  0.
         23    2    1    2    0    0 -0.72443015259E+02  0.10317051624E+03  0.11231717186E+02  0.15758423336E+03  0.93885532710E+02 0.  0.
        -13    1    3    3    0    0  0.50024890529E+02 -0.30650048411E+02 -0.25204566257E+02  0.63852840972E+02  0.00000000000E+00 0.  1.
         14    1    3    3    0    0  0.15588809058E+01  0.82608111168E-03  0.26467746168E+02  0.26513613438E+02  0.00000000000E+00 0. -1.
        -11    1    4    4    0    0 -0.47778667029E+02  0.46081310121E+02  0.51049793260E+02  0.83739892271E+02  0.00000000000E+00 0.  1.
         11    1    4    4    0    0 -0.24664348229E+02  0.57089206123E+02 -0.39818076074E+02  0.73844341094E+02  0.00000000000E+00 0. -1.
          1    1    1    2  501    0  0.20859243824E+02 -0.72521293914E+02  0.65887739431E+02  0.10017804316E+03  0.00000000000E+00 0. -1.
<scales pt_clust_5="13000.00000" pt_clust_6="13000.00000" pt_clust_7="13000.00000" pt_clust_8="13000.00000" pt_clust_9="13000.00000"></scales>
<clustering>
<clus scale="   67.559">  5  6 -1 -1</clus>
<clus scale="   90.358">  1  5  2 -1</clus>
<clus scale="   93.886">  7  8 -1 -1</clus>
<clus scale="   99.254">  7  9 -1 -1</clus>
<clus scale="  245.955">  2  5  1 -1</clus>
</clustering>
</event>
<event>
 9    2  0.3707658E-005  0.1762370E+03  0.7546771E-02  0.1205620E+00
         21   -1    0    0  501  502  0.00000000000E+00  0.00000000000E+00  0.61621424858E+02  0.61621424858E+02  0.00000000000E+00 0.  1.
          2   -1    0    0  502    0 -0.00000000000E+00 -0.00000000000E+00 -0.28215107184E+03  0.28215107184E+03  0.00000000000E+00 0. -1.
         24    2    1    2    0    0  0.28549107377E+02  0.54855765354E+01 -0.41578066767E+02  0.92608902576E+02  0.77475997047E+02 0.  0.
         23    2    1    2    0    0  0.27712024668E+02 -0.12867153787E+02 -0.17101068556E+03  0.19386734233E+03  0.86060280545E+02 0.  0.
        -13    1    3    3    0    0  0.39972129795E+02 -0.16802056473E+01  0.83691602105E+01  0.40873427725E+02  0.00000000000E+00 0.  1.
         14    1    3    3    0    0 -0.11423022417E+02  0.71657821827E+01 -0.49947226977E+02  0.51735474852E+02  0.00000000000E+00 0. -1.
        -13    1    4    4    0    0  0.29461755163E+02 -0.34718065817E+02 -0.38714846144E+02  0.59767703848E+02  0.00000000000E+00 0. -1.
         13    1    4    4    0    0 -0.17497304950E+01  0.21850912030E+02 -0.13229583941E+03  0.13409963848E+03  0.00000000000E+00 0.  1.
          1    1    1    2  501    0 -0.56261132045E+02  0.73815772516E+01 -0.79408946555E+01  0.57296251794E+02  0.00000000000E+00 0. -1.
<scales pt_clust_5="13000.00000" pt_clust_6="13000.00000" pt_clust_7="13000.00000" pt_clust_8="13000.00000" pt_clust_9="13000.00000"></scales>
<clustering>
<clus scale="   77.476">  5  6 -1 -1</clus>
<clus scale="   82.751">  2  5  1 -1</clus>
<clus scale="   86.060">  7  8 -1 -1</clus>
<clus scale="   52.577">  7  9 -1 -1</clus>
<clus scale="  176.237">  1  5  2 -1</clus>
</clustering>
</event>
<event>
 9    2  0.3707658E-005  0.1037239E+04  0.7546771E-02  0.9818307E-01
          2   -1    0    0  502    0 -0.00000000000E+00  0.00000000000E+00  0.10022020213E+04  0.10022020213E+04  0.00000000000E+00 0. -1.
         21   -1    0    0  501  502  0.00000000000E+00 -0.00000000000E+00 -0.36688739190E+03  0.36688739190E+03  0.00000000000E+00 0. -1.
         24    2    1    2    0    0  0.11435355568E+03  0.65124651472E+02  0.17832808987E+03  0.23564293921E+03  0.80054551619E+02 0.  0.
         23    2    1    2    0    0  0.33499231022E+03  0.59447095358E+02  0.55471015381E+03  0.65702257435E+03  0.90672506413E+02 0.  0.
        -11    1    3    3    0    0  0.85383505594E+02  0.82209550331E+02  0.12241688114E+03  0.17039555740E+03  0.00000000000E+00 0.  1.
         12    1    3    3    0    0  0.28970050081E+02 -0.17084898859E+02  0.55911208733E+02  0.65247381807E+02  0.00000000000E+00 0. -1.
        -11    1    4    4    0    0  0.67797884880E+02 -0.55318739455E+01  0.17856182679E+03  0.19107977604E+03  0.00000000000E+00 0.  1.
         11    1    4    4    0    0  0.26719442534E+03  0.64978969304E+02  0.37614832702E+03  0.46594279831E+03  0.00000000000E+00 0. -1.
          1    1    1    2  501    0 -0.44934586589E+03 -0.12457174683E+03 -0.97723614332E+02  0.47642389959E+03  0.00000000000E+00 0. -1.
<scales pt_clust_5="13000.00000" pt_clust_6="13000.00000" pt_clust_7="13000.00000" pt_clust_8="13000.00000" pt_clust_9="13000.00000"></scales>
<clustering>
<clus scale="   80.055">  5  6 -1 -1</clus>
<clus scale="   90.673">  7  8 -1 -1</clus>
<clus scale="  154.035">  1  5  2 -1</clus>
<clus scale="  435.979">  7  9 -1 -1</clus>
<clus scale=" 1037.239">  2  5  1 -1</clus>
</clustering>
</event>
<event>
 9    2  0.3707658E-005  0.2231182E+03  0.7546771E-02  0.1173466E+00
         21   -1    0    0  501  502  0.00000000000E+00  0.00000000000E+00  0.93154307789E+02  0.93154307789E+02  0.00000000000E+00 0. -1.
          2   -1    0    0  502    0 -0.00000000000E+00 -0.00000000000E+00 -0.39900870270E+03  0.39900870270E+03  0.00000000000E+00 0. -1.
         24    2    1    2    0    0 -0.12016992183E+02  0.65469984252E+01 -0.24819011331E+03  0.26171362186E+03  0.81904921915E+02 0.  0.
         23    2    1    2    0    0 -0.79822217438E+02  0.16390420052E+02 -0.58058266583E+02  0.13578830468E+03  0.91801247825E+02 0.  0.
        -11    1    3    3    0    0 -0.81939965868E+01  0.43056508868E+02 -0.10265318217E+03  0.11161845880E+03  0.00000000000E+00 0.  1.
         12    1    3    3    0    0 -0.38229955958E+01 -0.36509510443E+02 -0.14553693114E+03  0.15009516306E+03  0.00000000000E+00 0. -1.
        -13    1    4    4    0    0  0.11895196654E+02  0.26641095822E+02 -0.58528719383E+01  0.29757348672E+02  0.00000000000E+00 0.  1.
         13    1    4    4    0    0 -0.91717414091E+02 -0.10250675770E+02 -0.52205394644E+02  0.10603095600E+03  0.00000000000E+00 0. -1.
          1    1    1    2  501    0  0.91839209620E+02 -0.22937418477E+02  0.39398498447E+00  0.94661083948E+02  0.00000000000E+00 0. -1.
<scales pt_clust_5="13000.00000" pt_clust_6="13000.00000" pt_clust_7="13000.00000" pt_clust_8="13000.00000" pt_clust_9="13000.00000"></scales>
<clustering>
<clus scale="   81.905">  5  6 -1 -1</clus>
<clus scale="   83.040">  2  5  1 -1</clus>
<clus scale="   91.801">  7  8 -1 -1</clus>
<clus scale="   90.334">  7  9 -1 -1</clus>
<clus scale="  223.118">  1  5  2 -1</clus>
</clustering>
</event>
<event>
 9    2  0.3707658E-005  0.4142088E+03  0.7546771E-02  0.1097450E+00
         21   -1    0    0  501  502  0.00000000000E+00  0.00000000000E+00  0.71022596542E+02  0.71022596542E+02  0.00000000000E+00 0. -1.
          2   -1    0    0  502    0 -0.00000000000E+00 -0.00000000000E+00 -0.13576487495E+04  0.13576487495E+04  0.00000000000E+00 0. -1.
         24    2    1    2    0    0 -0.14246571992E+00  0.16398557638E+02 -0.73094647903E+03  0.73559931977E+03  0.80960923008E+02 0.  0.
         23    2    1    2    0    0 -0.65287852862E+02  0.61339727817E+02 -0.57570737756E+03  0.58950814975E+03  0.89754153729E+02 0.  0.
        -13    1    3    3    0    0  0.22820657073E+02 -0.12641743690E+02 -0.93292666654E+02  0.96871655938E+02  0.00000000000E+00 0.  1.
         14    1    3    3    0    0 -0.22963122793E+02  0.29040301329E+02 -0.63765381238E+03  0.63872766383E+03  0.00000000000E+00 0. -1.
        -11    1    4    4    0    0 -0.46913646724E+02 -0.13241908768E+02 -0.26506926473E+03  0.26951429183E+03  0.00000000000E+00 0.  1.
         11    1    4    4    0    0 -0.18374206139E+02  0.74581636586E+02 -0.31063811283E+03  0.31999385792E+03  0.00000000000E+00 0. -1.
          1    1    1    2  501    0  0.65430318582E+02 -0.77738285456E+02  0.20027703594E+02  0.10356387655E+03  0.00000000000E+00 0. -1.
<scales pt_clust_5="13000.00000" pt_clust_6="13000.00000" pt_clust_7="13000.00000" pt_clust_8="13000.00000" pt_clust_9="13000.00000"></scales>
<clustering>
<clus scale="   80.961">  5  6 -1 -1</clus>
<clus scale="   82.605">  2  5  1 -1</clus>
<clus scale="   89.754">  7  8 -1 -1</clus>
<clus scale="  100.766">  7  9 -1 -1</clus>
<clus scale="  414.209">  1  5  2 -1</clus>
</clustering>
</event>
<event>
 9    2  0.3707658E-005  0.5944176E+03  0.7546771E-02  0.1028648E+00
          2   -1    0    0  502    0 -0.00000000000E+00  0.00000000000E+00  0.83295784205E+03  0.83295784205E+03  0.00000000000E+00 0. -1.
         21   -1    0    0  501  502  0.00000000000E+00 -0.00000000000E+00 -0.23431579156E+03  0.23431579156E+03  0.00000000000E+00 0. -1.
         24    2    1    2    0    0 -0.79994035790E+02 -0.15282448121E+03  0.39612342690E+03  0.43930384136E+03  0.79496716134E+02 0.  0.
         23    2    1    2    0    0 -0.22197038243E+03  0.41538651693E+02  0.18663141427E+03  0.30575953614E+03  0.87528846015E+02 0.  0.
        -11    1    3    3    0    0 -0.24994092095E+02 -0.12047508468E+03  0.22137536375E+03  0.25327061090E+03  0.00000000000E+00 0.  1.
         12    1    3    3    0    0 -0.54999943696E+02 -0.32349396531E+02  0.17474806315E+03  0.18603323046E+03  0.00000000000E+00 0. -1.
        -13    1    4    4    0    0 -0.10382783987E+03 -0.23787839689E+02  0.93695182851E+02  0.14186214766E+03  0.00000000000E+00 0.  1.
         13    1    4    4    0    0 -0.11814254256E+03  0.65326491382E+02  0.92936231417E+02  0.16389738848E+03  0.00000000000E+00 0. -1.
          1    1    1    2  501    0  0.30196441822E+03  0.11128582952E+03  0.15887209323E+02  0.32221025611E+03  0.00000000000E+00 0. -1.
<scales pt_clust_5="13000.00000" pt_clust_6="13000.00000" pt_clust_7="13000.00000" pt_clust_8="13000.00000" pt_clust_9="13000.00000"></scales>
<clustering>
<clus scale="   79.497">  5  6 -1 -1</clus>
<clus scale="   87.529">  7  8 -1 -1</clus>
<clus scale="  189.932">  1  5  2 -1</clus>
<clus scale="  273.831">  7  9 -1 -1</clus>
<clus scale="  594.418">  2  5  1 -1</clus>
</clustering>
</event>
<event>
 9    2  0.3707658E-005  0.2233438E+03  0.7546771E-02  0.1147333E+00
         21   -1    0    0  501  502  0.00000000000E+00  0.00000000000E+00  0.15103925375E+03  0.15103925375E+03  0.00000000000E+00 0. -1.
         -3   -1    0    0    0  501 -0.00000000000E+00 -0.00000000000E+00 -0.23897326672E+03  0.23897326672E+03  0.00000000000E+00 0.  1.
         24    2    1    2    0    0 -0.36139732110E+02 -0.12521318201E+03 -0.62132420084E+01  0.15218748214E+03  0.78345415685E+02 0.  0.
         23    2    1    2    0    0  0.87840121192E+02  0.93894738340E+02 -0.30668242687E+02  0.15870401845E+03  0.87831176599E+02 0.  0.
        -13    1    3    3    0    0 -0.49262756874E+02 -0.11955040755E+03 -0.21702933125E+02  0.13111116073E+03  0.00000000000E+00 0.  1.
         14    1    3    3    0    0  0.13123024764E+02 -0.56627744545E+01  0.15489691117E+02  0.21076321414E+02  0.00000000000E+00 0. -1.
        -11    1    4    4    0    0  0.10522864409E+03  0.75088246620E+02 -0.31582661570E+02  0.13307432822E+03  0.00000000000E+00 0. -1.
         11    1    4    4    0    0 -0.17388522901E+02  0.18806491720E+02  0.91441888252E+00  0.25629690232E+02  0.00000000000E+00 0.  1.
         -4    1    1    2    0  502 -0.51700389082E+02  0.31318443668E+02 -0.51052528270E+02  0.79121019886E+02  0.00000000000E+00 0.  1.
<scales pt_clust_5="13000.00000" pt_clust_6="13000.00000" pt_clust_7="13000.00000" pt_clust_8="13000.00000" pt_clust_9="13000.00000"></scales>
<clustering>
<clus scale="   78.345">  5  6 -1 -1</clus>
<clus scale="   87.831">  7  8 -1 -1</clus>
<clus scale="   60.446">  7  9 -1 -1</clus>
<clus scale="  152.061">  2  5  1 -1</clus>
<clus scale="  223.344">  1  5  2 -1</clus>
</clustering>
</event>
<event>
 9    2  0.3707658E-005  0.3185118E+03  0.7546771E-02  0.1090684E+00
          2   -1    0    0  502    0 -0.00000000000E+00  0.00000000000E+00  0.11810935212E+04  0.11810935212E+04  0.00000000000E+00 0. -1.
         21   -1    0    0  501  502  0.00000000000E+00 -0.00000000000E+00 -0.88365446259E+02  0.88365446259E+02  0.00000000000E+00 0. -1.
         24    2    1    2    0    0 -0.19722090343E+03  0.52464415280E+02  0.82599061308E+03  0.85400901797E+03  0.73636337885E+02 0.  0.
         23    2    1    2    0    0  0.13400949302E+03 -0.11124341766E+03  0.26471307387E+03  0.32910904563E+03  0.88916310345E+02 0.  0.
        -13    1    3    3    0    0 -0.17330378735E+02  0.15212905237E+02  0.34631295598E+02  0.41606503670E+02  0.00000000000E+00 0.  1.
         14    1    3    3    0    0 -0.17989052469E+03  0.37251510043E+02  0.79135931748E+03  0.81240251430E+03  0.00000000000E+00 0. -1.
        -11    1    4    4    0    0 -0.54781932451E+01 -0.36841267429E+02  0.44611288581E+02  0.58115889875E+02  0.00000000000E+00 0. -1.
         11    1    4    4    0    0  0.13948768627E+03 -0.74402150227E+02  0.22010178528E+03  0.27099315575E+03  0.00000000000E+00 0.  1.
          1    1    1    2  501    0  0.63211410405E+02  0.58779002377E+02  0.20243879524E+01  0.86340903820E+02  0.00000000000E+00 0. -1.
<scales pt_clust_5="13000.00000" pt_clust_6="13000.00000" pt_clust_7="13000.00000" pt_clust_8="13000.00000" pt_clust_9="13000.00000"></scales>
<clustering>
<clus scale="   73.636">  5  6 -1 -1</clus>
<clus scale="   88.916">  7  8 -1 -1</clus>
<clus scale="   86.317">  7  9 -1 -1</clus>
<clus scale="  216.958">  1  5  2 -1</clus>
<clus scale="  318.512">  2  5  1 -1</clus>
</clustering>
</event>
<event>
 9    2  0.3707658E-005  0.4934211E+03  0.7546771E-02  0.1079085E+00
          2   -1    0    0  502    0 -0.00000000000E+00  0.00000000000E+00  0.23522095226E+03  0.23522095226E+03  0.00000000000E+00 0. -1.
         21   -1    0    0  501  502  0.00000000000E+00 -0.00000000000E+00 -0.36607951424E+03  0.36607951424E+03  0.00000000000E+00 0. -1.
         24    2    1    2    0    0  0.17954347080E+01 -0.53122001988E+01  0.25790553205E+02  0.83610056821E+02  0.79335023226E+02 0.  0.
         23    2    1    2    0    0  0.70053678597E+02  0.22953242651E+03 -0.63069916588E+02  0.26432491996E+03  0.91088946805E+02 0.  0.
        -13    1    3    3    0    0  0.24868899146E+02  0.27773311406E+02  0.32972323309E+01  0.37425802759E+02  0.00000000000E+00 0.  1.
         14    1    3    3    0    0 -0.23073464438E+02 -0.33085511604E+02  0.22493320874E+02  0.46184254062E+02  0.00000000000E+00 0. -1.
        -13    1    4    4    0    0  0.16909499641E+02  0.18484290544E+03 -0.32421108080E+02  0.18842494293E+03  0.00000000000E+00 0. -1.
         13    1    4    4    0    0  0.53144178956E+02  0.44689521072E+02 -0.30648808508E+02  0.75899977033E+02  0.00000000000E+00 0.  1.
          1    1    1    2  501    0 -0.71849113305E+02 -0.22422022631E+03 -0.93579198590E+02  0.25336548971E+03  0.00000000000E+00 0. -1.
<scales pt_clust_5="13000.00000" pt_clust_6="13000.00000" pt_clust_7="13000.00000" pt_clust_8="13000.00000" pt_clust_9="13000.00000"></scales>
<clustering>
<clus scale="   79.335">  5  6 -1 -1</clus>
<clus scale="   79.533">  1  5  2 -1</clus>
<clus scale="   91.089">  7  8 -1 -1</clus>
<clus scale="  237.452">  7  9 -1 -1</clus>
<clus scale="  493.421">  2  5  1 -1</clus>
</clustering>
</event>
<event>
 9    2  0.3707658E-005  0.1989175E+03  0.7546771E-02  0.1183956E+00
          2   -1    0    0  502    0 -0.00000000000E+00  0.00000000000E+00  0.24722972986E+03  0.24722972986E+03  0.00000000000E+00 0. -1.
         21   -1    0    0  501  502  0.00000000000E+00 -0.00000000000E+00 -0.22147036141E+03  0.22147036141E+03  0.00000000000E+00 0. -1.
         24    2    1    2    0    0  0.37137025587E+02 -0.20661304866E+02  0.18961671189E+03  0.21098436452E+03  0.82181849930E+02 0.  0.
         23    2    1    2    0    0 -0.13932378197E+02 -0.47267423180E+02 -0.60825358518E+02  0.13214360537E+03  0.10646073334E+03 0.  0.
        -11    1    3    3    0    0 -0.21078818766E+02  0.46447384137E+01  0.18343425946E+02  0.28326162305E+02  0.00000000000E+00 0.  1.
         12    1    3    3    0    0  0.58215844353E+02 -0.25306043280E+02  0.17127328594E+03  0.18265820222E+03  0.00000000000E+00 0. -1.
        -11    1    4    4    0    0 -0.71264216625E+01  0.31618282205E+02 -0.18608039663E+00  0.32411977435E+02  0.00000000000E+00 0.  1.
         11    1    4    4    0    0 -0.68059565345E+01 -0.78885705385E+02 -0.60639278121E+02  0.99731627930E+02  0.00000000000E+00 0. -1.
          1    1    1    2  501    0 -0.23204647390E+02  0.67928728046E+02 -0.10303198492E+03  0.12557212139E+03  0.00000000000E+00 0. -1.
<scales pt_clust_5="13000.00000" pt_clust_6="13000.00000" pt_clust_7="13000.00000" pt_clust_8="13000.00000" pt_clust_9="13000.00000"></scales>
<clustering>
<clus scale="   82.182">  5  6 -1 -1</clus>
<clus scale="   92.520">  1  5  2 -1</clus>
<clus scale="  106.461">  7  8 -1 -1</clus>
<clus scale="   64.567">  7  9 -1 -1</clus>
<clus scale="  198.917">  2  5  1 -1</clus>
</clustering>
</event>
<event>
 9    2  0.3707658E-005  0.1618365E+03  0.7546771E-02  0.1216434E+00
         21   -1    0    0  501  502  0.00000000000E+00  0.00000000000E+00  0.33836716440E+02  0.33836716440E+02  0.00000000000E+00 0. -1.
          2   -1    0    0  502    0 -0.00000000000E+00 -0.00000000000E+00 -0.45027845385E+03  0.45027845385E+03  0.00000000000E+00 0. -1.
         24    2    1    2    0    0 -0.23793356545E+02  0.84294940699E+01 -0.13486036218E+03  0.15933968468E+03  0.81022451462E+02 0.  0.
         23    2    1    2    0    0 -0.27725259952E+02 -0.42091767810E+02 -0.19768244647E+03  0.22072575343E+03  0.84268034442E+02 0.  0.
        -13    1    3    3    0    0 -0.14102273272E+01 -0.33503564254E+02 -0.80046496790E+02  0.86786630348E+02  0.00000000000E+00 0.  1.
         14    1    3    3    0    0 -0.22383129218E+02  0.41933058324E+02 -0.54813865388E+02  0.72553054331E+02  0.00000000000E+00 0. -1.
        -13    1    4    4    0    0  0.70071856069E+01  0.21818836262E+02 -0.71459229653E+02  0.75043878955E+02  0.00000000000E+00 0.  1.
         13    1    4    4    0    0 -0.34732445559E+02 -0.63910604072E+02 -0.12622321682E+03  0.14568187448E+03  0.00000000000E+00 0. -1.
          1    1    1    2  501    0  0.51518616497E+02  0.33662273740E+02 -0.83898928763E+02  0.10404973218E+03  0.00000000000E+00 0. -1.
<scales pt_clust_5="13000.00000" pt_clust_6="13000.00000" pt_clust_7="13000.00000" pt_clust_8="13000.00000" pt_clust_9="13000.00000"></scales>
<clustering>
<clus scale="   81.022">  5  6 -1 -1</clus>
<clus scale="   84.268">  7  8 -1 -1</clus>
<clus scale="   61.541">  7  9 -1 -1</clus>
<clus scale="   84.864">  2  5  1 -1</clus>
<clus scale="  161.836">  1  5  2 -1</clus>
</clustering>
</event>
<event>
 9    2  0.3707658E-005  0.2359903E+03  0.7546771E-02  0.1166795E+00
          2   -1    0    0  502    0 -0.00000000000E+00  0.00000000000E+00  0.10110539678E+04  0.10110539678E+04  0.00000000000E+00 0. -1.
         21   -1    0    0  501  502  0.00000000000E+00 -0.00000000000E+00 -0.25101617304E+02  0.25101617304E+02  0.00000000000E+00 0. -1.
         24    2    1    2    0    0  0.14440598289E+02  0.74186920069E+01  0.22132862600E+03  0.23594256935E+03  0.80118459027E+02 0.  0.
         23    2    1    2    0    0  0.79560444401E+02 -0.27649150655E+02  0.27631489445E+03  0.30252739109E+03  0.89880818993E+02 0.  0.
        -13    1    3    3    0    0  0.47522525735E+02  0.99130690719E+01  0.13435861815E+03  0.14285971322E+03  0.00000000000E+00 0.  1.
         14    1    3    3    0    0 -0.33081927446E+02 -0.24943770650E+01  0.86970007847E+02  0.93082856130E+02  0.00000000000E+00 0. -1.
        -11    1    4    4    0    0  0.50206351870E+02 -0.29610344709E+02  0.26446320835E+03  0.27081033742E+03  0.00000000000E+00 0.  1.
         11    1    4    4    0    0  0.29354092532E+02  0.19611940544E+01  0.11851686098E+02  0.31717053675E+02  0.00000000000E+00 0. -1.
          1    1    1    2  501    0 -0.94001042690E+02  0.20230458648E+02  0.48830883000E+03  0.49768562461E+03  0.00000000000E+00 0. -1.
<scales pt_clust_5="13000.00000" pt_clust_6="13000.00000" pt_clust_7="13000.00000" pt_clust_8="13000.00000" pt_clust_9="13000.00000"></scales>
<clustering>
<clus scale="   80.118">  5  6 -1 -1</clus>
<clus scale="   81.747">  1  5  2 -1</clus>
<clus scale="   89.881">  7  8 -1 -1</clus>
<clus scale="   88.480">  7  9 -1 -1</clus>
<clus scale="  235.990">  2  5  1 -1</clus>
</clustering>
</event>
<event>
 9    2  0.3707658E-005  0.6026516E+03  0.7546771E-02  0.1048078E+00
          2   -1    0    0  502    0 -0.00000000000E+00  0.00000000000E+00  0.54243223700E+03  0.54243223700E+03  0.00000000000E+00 0. -1.
         21   -1    0    0  501  502  0.00000000000E+00 -0.00000000000E+00 -0.24804415845E+03  0.24804415845E+03  0.00000000000E+00 0. -1.
         24    2    1    2    0    0  0.38872369689E+02 -0.50808660144E+02 -0.27898332234E+02  0.10706031316E+03  0.81185051841E+02 0.  0.
         23    2    1    2    0    0  0.17889220606E+03 -0.68183704038E+02 -0.66291214756E+02  0.22235950848E+03  0.91639440060E+02 0.  0.
        -11    1    3    3    0    0 -0.15058624389E+02 -0.46006724928E+02 -0.19853676446E+02  0.52321595689E+02  0.00000000000E+00 0.  1.
         12    1    3    3    0    0  0.53930994078E+02 -0.48019352168E+01 -0.80446557875E+01  0.54738717475E+02  0.00000000000E+00 0. -1.
        -13    1    4    4    0    0  0.68507105773E+02  0.16762352248E+02 -0.38413682337E+02  0.80310715256E+02  0.00000000000E+00 0.  1.
         13    1    4    4    0    0  0.11038510028E+03 -0.84946056286E+02 -0.27877532419E+02  0.14204879323E+03  0.00000000000E+00 0. -1.
          1    1    1    2  501    0 -0.21776457574E+03  0.11899236418E+03  0.38857762554E+03  0.46105657381E+03  0.00000000000E+00 0. -1.
<scales pt_clust_5="13000.00000" pt_clust_6="13000.00000" pt_clust_7="13000.00000" pt_clust_8="13000.00000" pt_clust_9="13000.00000"></scales>
<clustering>
<clus scale="   81.185">  5  6 -1 -1</clus>
<clus scale="   91.639">  7  8 -1 -1</clus>
<clus scale="  103.362">  1  5  2 -1</clus>
<clus scale="  199.959">  7  9 -1 -1</clus>
<clus scale="  602.652">  2  5  1 -1</clus>
</clustering>
</event>
<event>
 9    2  0.3707658E-005  0.3050265E+03  0.7546771E-02  0.1125292E+00
          2   -1    0    0  502    0 -0.00000000000E+00  0.00000000000E+00  0.80889449833E+03  0.80889449833E+03  0.00000000000E+00 0. -1.
         21   -1    0    0  501  502  0.00000000000E+00 -0.00000000000E+00 -0.66640282459E+02  0.66640282459E+02  0.00000000000E+00 0.  1.
         24    2    1    2    0    0  0.37003192553E+02 -0.52429004883E+02  0.39311558918E+02  0.10926489889E+03  0.79217312829E+02 0.  0.
         23    2    1    2    0    0  0.85996911790E+01 -0.10383706387E+03  0.39149772835E+03  0.41484897927E+03  0.89292294088E+02 0.  0.
        -11    1    3    3    0    0  0.48829516129E+02 -0.32004314061E+02 -0.54758118712E+01  0.58639425983E+02  0.00000000000E+00 0.  1.
         12    1    3    3    0    0 -0.11826323576E+02 -0.20424690822E+02  0.44787370789E+02  0.50625472904E+02  0.00000000000E+00 0. -1.
        -11    1    4    4    0    0 -0.14602494711E+02 -0.17897628738E+02  0.14027352446E+02  0.27024518181E+02  0.00000000000E+00 0. -1.
         11    1    4    4    0    0  0.23202185890E+02 -0.85939435133E+02  0.37747037590E+03  0.38782446109E+03  0.00000000000E+00 0.  1.
          1    1    1    2  501    0 -0.45602883732E+02  0.15626606876E+03  0.31144492860E+03  0.35142090262E+03  0.00000000000E+00 0. -1.
<scales pt_clust_5="13000.00000" pt_clust_6="13000.00000" pt_clust_7="13000.00000" pt_clust_8="13000.00000" pt_clust_9="13000.00000"></scales>
<clustering>
<clus scale="   79.217">  5  6 -1 -1</clus>
<clus scale="   89.292">  7  8 -1 -1</clus>
<clus scale="  101.948">  1  5  2 -1</clus>
<clus scale="  135.726">  7  9 -1 -1</clus>
<clus scale="  305.026">  2  5  1 -1</clus>
</clustering>
</event>
<event>
 9    2  0.3707658E-005  0.1934020E+03  0.7546771E-02  0.1176687E+00
         21   -1    0    0  501  502  0.00000000000E+00  0.00000000000E+00  0.11174744070E+03  0.11174744070E+03  0.00000000000E+00 0.  1.
          2   -1    0    0  502    0 -0.00000000000E+00 -0.00000000000E+00 -0.30639323377E+03  0.30639323377E+03  0.00000000000E+00 0. -1.
         24    2    1    2    0    0 -0.74981710941E+02 -0.13583696351E+02  0.29453470396E+02  0.12212581336E+03  0.90776833989E+02 0.  0.
         23    2    1    2    0    0 -0.21313279097E+02  0.19099099089E+00 -0.14328673350E+03  0.16959194125E+03  0.88181892688E+02 0.  0.
        -13    1    3    3    0    0 -0.91891529170E+02  0.51019735992E+01  0.30351497561E+02  0.96908702767E+02  0.00000000000E+00 0.  1.
         14    1    3    3    0    0  0.16909818229E+02 -0.18685669950E+02 -0.89802716552E+00  0.25217110596E+02  0.00000000000E+00 0. -1.
        -13    1    4    4    0    0 -0.42993929402E+01  0.43747990798E+02 -0.69157737767E+02  0.81946105286E+02  0.00000000000E+00 0. -1.
         13    1    4    4    0    0 -0.17013886157E+02 -0.43556999807E+02 -0.74128995729E+02  0.87645835966E+02  0.00000000000E+00 0.  1.
          1    1    1    2  501    0  0.96294990039E+02  0.13392705360E+02 -0.80812529977E+02  0.12642291986E+03  0.00000000000E+00 0. -1.
<scales pt_clust_5="13000.00000" pt_clust_6="13000.00000" pt_clust_7="13000.00000" pt_clust_8="13000.00000" pt_clust_9="13000.00000"></scales>
<clustering>
<clus scale="   88.182">  7  8 -1 -1</clus>
<clus scale="   90.777">  5  6 -1 -1</clus>
<clus scale="   97.222">  7  9 -1 -1</clus>
<clus scale="  118.521">  2  5  1 -1</clus>
<clus scale="  193.402">  1  5  2 -1</clus>
</clustering>
</event>
<event>
 9    2  0.3707658E-005  0.6672921E+03  0.7546771E-02  0.1044859E+00
         21   -1    0    0  501  502  0.00000000000E+00  0.00000000000E+00  0.24336330389E+03  0.24336330389E+03  0.00000000000E+00 0. -1.
          2   -1    0    0  502    0 -0.00000000000E+00 -0.00000000000E+00 -0.59488943015E+03  0.59488943015E+03  0.00000000000E+00 0. -1.
         24    2    1    2    0    0 -0.13491155132E+02 -0.38046040626E+01 -0.86553801316E+02  0.12027708366E+03  0.82331828922E+02 0.  0.
         23    2    1    2    0    0  0.52341199781E+02  0.32262376697E+03 -0.83723006927E+02  0.34918533070E+03  0.89973090866E+02 0.  0.
        -11    1    3    3    0    0 -0.40642360843E+02 -0.26022230336E+02 -0.46254959308E+02  0.66846684489E+02  0.00000000000E+00 0.  1.
         12    1    3    3    0    0  0.27151205711E+02  0.22217626273E+02 -0.40298842009E+02  0.53430399176E+02  0.00000000000E+00 0. -1.
        -11    1    4    4    0    0  0.77403413669E+02  0.21850774711E+03 -0.61153062919E+02  0.23974282283E+03  0.00000000000E+00 0. -1.
         11    1    4    4    0    0 -0.25062213888E+02  0.10411601986E+03 -0.22569944008E+02  0.10944250787E+03  0.00000000000E+00 0.  1.
          1    1    1    2  501    0 -0.38850044649E+02 -0.31881916291E+03 -0.18124931801E+03  0.36879031967E+03  0.00000000000E+00 0. -1.
<scales pt_clust_5="13000.00000" pt_clust_6="13000.00000" pt_clust_7="13000.00000" pt_clust_8="13000.00000" pt_clust_9="13000.00000"></scales>
<clustering>
<clus scale="   82.332">  5  6 -1 -1</clus>
<clus scale="   83.517">  2  5  1 -1</clus>
<clus scale="   89.973">  7  8 -1 -1</clus>
<clus scale="  324.285">  7  9 -1 -1</clus>
<clus scale="  667.292">  1  5  2 -1</clus>
</clustering>
</event>
<event>
 9    2  0.3707658E-005  0.9439445E+03  0.7546771E-02  0.9948568E-01
          4   -1    0    0  502    0 -0.00000000000E+00  0.00000000000E+00  0.31870766335E+03  0.31870766335E+03  0.00000000000E+00 0. -1.
         21   -1    0    0  501  502  0.00000000000E+00 -0.00000000000E+00 -0.10098602775E+04  0.10098602775E+04  0.00000000000E+00 0. -1.
         24    2    1    2    0    0  0.10804760220E+03 -0.11167626392E+02  0.33751144861E+02  0.13839286177E+03  0.78831746072E+02 0.  0.
         23    2    1    2    0    0  0.28600648435E+03  0.32152786625E+03 -0.29698600940E+03  0.53084534212E+03  0.91739901912E+02 0.  0.
        -13    1    3    3    0    0  0.26402708264E+02 -0.29179198557E+02 -0.14408561938E+02  0.41906267899E+02  0.00000000000E+00 0.  1.
         14    1    3    3    0    0  0.81644893937E+02  0.18011572165E+02  0.48159706799E+02  0.96486593871E+02  0.00000000000E+00 0. -1.
        -11    1    4    4    0    0  0.20430044800E+03  0.16204165277E+03 -0.17941535770E+03  0.31652178576E+03  0.00000000000E+00 0.  1.
         11    1    4    4    0    0  0.81706036353E+02  0.15948621348E+03 -0.11757065170E+03  0.21432355635E+03  0.00000000000E+00 0. -1.
          3    1    1    2  501    0 -0.39405408656E+03 -0.31036023985E+03 -0.42791774962E+03  0.65932973697E+03  0.00000000000E+00 0. -1.
<scales pt_clust_5="13000.00000" pt_clust_6="13000.00000" pt_clust_7="13000.00000" pt_clust_8="13000.00000" pt_clust_9="13000.00000"></scales>
<clustering>
<clus scale="   78.832">  5  6 -1 -1</clus>
<clus scale="   91.740">  7  8 -1 -1</clus>
<clus scale="  134.214">  1  5  2 -1</clus>
<clus scale="  464.345">  7  9 -1 -1</clus>
<clus scale="  943.945">  2  5  1 -1</clus>
</clustering>
</event>
<event>
 9    2  0.3707658E-005  0.1641243E+03  0.7546771E-02  0.1214782E+00
         21   -1    0    0  501  502  0.00000000000E+00  0.00000000000E+00  0.27065881519E+03  0.27065881519E+03  0.00000000000E+00 0. -1.
          2   -1    0    0  502    0 -0.00000000000E+00 -0.00000000000E+00 -0.11344306813E+03  0.11344306813E+03  0.00000000000E+00 0. -1.
         24    2    1    2    0    0  0.21916828602E+02 -0.70950706261E+01  0.19783080812E+03  0.21502688328E+03  0.81048408322E+02 0.  0.
         23    2    1    2    0    0  0.28410527376E+02  0.26832480386E+02  0.37512195899E+01  0.99140924207E+02  0.91036866898E+02 0.  0.
        -13    1    3    3    0    0  0.19081333193E+02 -0.20441305795E+02  0.15085415324E+02  0.31772850274E+02  0.00000000000E+00 0.  1.
         14    1    3    3    0    0  0.28354954093E+01  0.13346235169E+02  0.18274539279E+03  0.18325403301E+03  0.00000000000E+00 0. -1.
        -13    1    4    4    0    0  0.31599379912E+02  0.51815519209E+02  0.25532764159E+02  0.65842925871E+02  0.00000000000E+00 0. -1.
         13    1    4    4    0    0 -0.31888525357E+01 -0.24983038823E+02 -0.21781544569E+02  0.33297998335E+02  0.00000000000E+00 0.  1.
          1    1    1    2  501    0 -0.50327355979E+02 -0.19737409760E+02 -0.44366280652E+02  0.69934075834E+02  0.00000000000E+00 0. -1.
<scales pt_clust_5="13000.00000" pt_clust_6="13000.00000" pt_clust_7="13000.00000" pt_clust_8="13000.00000" pt_clust_9="13000.00000"></scales>
<clustering>
<clus scale="   81.048">  5  6 -1 -1</clus>
<clus scale="   84.259">  2  5  1 -1</clus>
<clus scale="   91.037">  7  8 -1 -1</clus>
<clus scale="   45.058">  7  9 -1 -1</clus>
<clus scale="  164.124">  1  5  2 -1</clus>
</clustering>
</event>
<event>
 9    2  0.3707658E-005  0.2462196E+03  0.7546771E-02  0.1151235E+00
          4   -1    0    0  502    0 -0.00000000000E+00  0.00000000000E+00  0.79329192669E+02  0.79329192669E+02  0.00000000000E+00 0. -1.
         21   -1    0    0  501  502  0.00000000000E+00 -0.00000000000E+00 -0.51336989146E+03  0.51336989146E+03  0.00000000000E+00 0. -1.
         24    2    1    2    0    0 -0.18995182679E+02 -0.60135980109E+02 -0.12089752182E+02  0.10416383844E+03  0.82017010808E+02 0.  0.
         23    2    1    2    0    0  0.10921387111E+03  0.12701288090E+02 -0.24342846697E+03  0.28296351250E+03  0.93391319263E+02 0.  0.
        -11    1    3    3    0    0  0.20373109929E+02 -0.26941356333E+02 -0.34249361383E+02  0.48103212413E+02  0.00000000000E+00 0.  1.
         12    1    3    3    0    0 -0.39368292608E+02 -0.33194623776E+02  0.22159609202E+02  0.56060626026E+02  0.00000000000E+00 0. -1.
        -11    1    4    4    0    0  0.45360297111E+02 -0.20017588683E+02 -0.18161203698E+03  0.18825831292E+03  0.00000000000E+00 0.  1.
         11    1    4    4    0    0  0.63853573999E+02  0.32718876773E+02 -0.61816429995E+02  0.94705199578E+02  0.00000000000E+00 0. -1.
          3    1    1    2  501    0 -0.90218688431E+02  0.47434692018E+02 -0.17852247964E+03  0.20557173318E+03  0.00000000000E+00 0. -1.
<scales pt_clust_5="13000.00000" pt_clust_6="13000.00000" pt_clust_7="13000.00000" pt_clust_8="13000.00000" pt_clust_9="13000.00000"></scales>
<clustering>
<clus scale="   82.017">  5  6 -1 -1</clus>
<clus scale="   93.391">  7  8 -1 -1</clus>
<clus scale="  101.929">  7  9 -1 -1</clus>
<clus scale="  103.460">  1  5  2 -1</clus>
<clus scale="  246.220">  2  5  1 -1</clus>
</clustering>
</event>
<event>
 9    2  0.3707658E-005  0.2520188E+03  0.7546771E-02  0.1152450E+00
          2   -1    0    0  502    0 -0.00000000000E+00  0.00000000000E+00  0.57088709020E+03  0.57088709020E+03  0.00000000000E+00 0. -1.
         21   -1    0    0  501  502  0.00000000000E+00 -0.00000000000E+00 -0.55533433896E+02  0.55533433896E+02  0.00000000000E+00 0. -1.
         24    2    1    2    0    0  0.94701106879E+01 -0.41511804012E+02  0.79361924544E+02  0.12283114592E+03  0.83524023316E+02 0.  0.
         23    2    1    2    0    0 -0.49491884503E+02 -0.12461211770E+02  0.66212060111E+02  0.12775452831E+03  0.96604628093E+02 0.  0.
        -13    1    3    3    0    0  0.90855817068E+01  0.23452760020E+02  0.81520183055E+01  0.26439272872E+02  0.00000000000E+00 0.  1.
         14    1    3    3    0    0  0.38452898110E+00 -0.64964564033E+02  0.71209906238E+02  0.96391873044E+02  0.00000000000E+00 0. -1.
        -13    1    4    4    0    0 -0.26115687256E+02 -0.19550940169E+02 -0.19921022108E+02  0.38224540601E+02  0.00000000000E+00 0. -1.
         13    1    4    4    0    0 -0.23376197247E+02  0.70897283992E+01  0.86133082219E+02  0.89529987708E+02  0.00000000000E+00 0.  1.
          1    1    1    2  501    0  0.40021773815E+02  0.53973015782E+02  0.36977967165E+03  0.37583484987E+03  0.00000000000E+00 0. -1.
<scales pt_clust_5="13000.00000" pt_clust_6="13000.00000" pt_clust_7="13000.00000" pt_clust_8="13000.00000" pt_clust_9="13000.00000"></scales>
<clustering>
<clus scale="   83.524">  5  6 -1 -1</clus>
<clus scale="   93.751">  1  5  2 -1</clus>
<clus scale="   96.605">  7  8 -1 -1</clus>
<clus scale="   51.981">  7  9 -1 -1</clus>
<clus scale="  252.019">  2  5  1 -1</clus>
</clustering>
</event>
<event>
 9    2  0.3707658E-005  0.3861440E+03  0.7546771E-02  0.1106484E+00
          2   -1    0    0  502    0 -0.00000000000E+00  0.00000000000E+00  0.54300790619E+03  0.54300790619E+03  0.00000000000E+00 0. -1.
         21   -1    0    0  501  502  0.00000000000E+00 -0.00000000000E+00 -0.10040641923E+03  0.10040641923E+03  0.00000000000E+00 0. -1.
         24    2    1    2    0    0 -0.12644562587E+02  0.20362871677E+01  0.70821573856E+02  0.10738492522E+03  0.79698151876E+02 0.  0.
         23    2    1    2    0    0 -0.44371278015E+02  0.45461799335E+01  0.43735516911E+03  0.44888441093E+03  0.90709384117E+02 0.  0.
        -13    1    3    3    0    0 -0.82958007272E+01 -0.38482294461E+02  0.41357769838E+02  0.57097919601E+02  0.00000000000E+00 0.  1.
         14    1    3    3    0    0 -0.43487618594E+01  0.40518581629E+02  0.29463804018E+02  0.50287005619E+02  0.00000000000E+00 0. -1.
        -13    1    4    4    0    0 -0.11928657886E+02  0.46509902746E+02  0.21279250084E+03  0.21814241300E+03  0.00000000000E+00 0. -1.
         13    1    4    4    0    0 -0.32442620129E+02 -0.41963722813E+02  0.22456266827E+03  0.23074199794E+03  0.00000000000E+00 0.  1.
          1    1    1    2  501    0  0.57015840602E+02 -0.65824671013E+01 -0.65575256006E+02  0.87144989259E+02  0.00000000000E+00 0. -1.
<scales pt_clust_5="13000.00000" pt_clust_6="13000.00000" pt_clust_7="13000.00000" pt_clust_8="13000.00000" pt_clust_9="13000.00000"></scales>
<clustering>
<clus scale="   79.698">  5  6 -1 -1</clus>
<clus scale="   80.721">  1  5  2 -1</clus>
<clus scale="   90.709">  7  8 -1 -1</clus>
<clus scale="   57.091">  7  9 -1 -1</clus>
<clus scale="  386.144">  2  5  1 -1</clus>
</clustering>
</event>
<event>
 9    2  0.3707658E-005  0.1161852E+03  0.7546771E-02  0.1284204E+00
         -3   -1    0    0    0  501 -0.00000000000E+00  0.00000000000E+00  0.37877593465E+03  0.37877593465E+03  0.00000000000E+00 0.  1.
         21   -1    0    0  501  502  0.00000000000E+00 -0.00000000000E+00 -0.22779641950E+02  0.22779641950E+02  0.00000000000E+00 0. -1.
         24    2    1    2    0    0 -0.87972659744E+01 -0.62417742427E+01  0.18946087917E+03  0.19849633960E+03  0.58215294071E+02 0.  0.
         23    2    1    2    0    0  0.30743534909E+02 -0.17402471061E+02  0.10348085863E+03  0.13223151680E+03  0.74356405195E+02 0.  0.
        -11    1    3    3    0    0  0.14894522666E+01  0.23488314510E+02  0.11938501809E+03  0.12168279226E+03  0.00000000000E+00 0.  1.
         12    1    3    3    0    0 -0.10286718241E+02 -0.29730088752E+02  0.70075861079E+02  0.76813547343E+02  0.00000000000E+00 0. -1.
        -13    1    4    4    0    0 -0.22270991140E+02  0.58676171680E+01  0.19222181446E+02  0.29998637255E+02  0.00000000000E+00 0.  1.
         13    1    4    4    0    0  0.53014526049E+02 -0.23270088229E+02  0.84258677186E+02  0.10223287954E+03  0.00000000000E+00 0. -1.
         -4    1    1    2    0  502 -0.21946268934E+02  0.23644245303E+02  0.63054554901E+02  0.70827720208E+02  0.00000000000E+00 0.  1.
<scales pt_clust_5="13000.00000" pt_clust_6="13000.00000" pt_clust_7="13000.00000" pt_clust_8="13000.00000" pt_clust_9="13000.00000"></scales>
<clustering>
<clus scale="   58.215">  5  6 -1 -1</clus>
<clus scale="   59.206">  1  5  2 -1</clus>
<clus scale="   74.356">  7  8 -1 -1</clus>
<clus scale="   32.999">  7  9 -1 -1</clus>
<clus scale="  116.185">  2  5  1 -1</clus>
</clustering>
</event>
<event>
 9    2  0.3707658E-005  0.5538266E+03  0.7546771E-02  0.1029873E+00
         21   -1    0    0  501  502  0.00000000000E+00  0.00000000000E+00  0.80418207439E+02  0.80418207439E+02  0.00000000000E+00 0. -1.
          2   -1    0    0  502    0 -0.00000000000E+00 -0.00000000000E+00 -0.20632436019E+04  0.20632436019E+04  0.00000000000E+00 0. -1.
         24    2    1    2    0    0 -0.16619560440E+03 -0.13046644006E+03 -0.89204786044E+03  0.92033865081E+03  0.81433260812E+02 0.  0.
         23    2    1    2    0    0 -0.17156303582E+03  0.39099685343E+02 -0.48402904598E+03  0.52291434171E+03  0.90513152455E+02 0.  0.
        -13    1    3    3    0    0 -0.58696393542E+02 -0.62076512341E+02 -0.21398072315E+03  0.23040509951E+03  0.00000000000E+00 0.  1.
         14    1    3    3    0    0 -0.10749921086E+03 -0.68389927718E+02 -0.67806713729E+03  0.68993355131E+03  0.00000000000E+00 0. -1.
        -13    1    4    4    0    0 -0.19634279478E+02  0.28372744777E+02 -0.17526002657E+03  0.17862417107E+03  0.00000000000E+00 0. -1.
         13    1    4    4    0    0 -0.15192875634E+03  0.10726940566E+02 -0.30876901941E+03  0.34429017065E+03  0.00000000000E+00 0.  1.
          1    1    1    2  501    0  0.33775864022E+03  0.91366754717E+02 -0.60674848801E+03  0.70040881677E+03  0.00000000000E+00 0. -1.
<scales pt_clust_5="13000.00000" pt_clust_6="13000.00000" pt_clust_7="13000.00000" pt_clust_8="13000.00000" pt_clust_9="13000.00000"></scales>
<clustering>
<clus scale="   81.433">  5  6 -1 -1</clus>
<clus scale="   90.513">  7  8 -1 -1</clus>
<clus scale="  226.437">  2  5  1 -1</clus>
<clus scale="  244.520">  7  9 -1 -1</clus>
<clus scale="  553.827">  1  5  2 -1</clus>
</clustering>
</event>
<event>
 9    2  0.3707658E-005  0.2424679E+03  0.7546771E-02  0.1148816E+00
         21   -1    0    0  501  502  0.00000000000E+00  0.00000000000E+00  0.34052061538E+02  0.34052061538E+02  0.00000000000E+00 0.  1.
          2   -1    0    0  502    0 -0.00000000000E+00 -0.00000000000E+00 -0.93671318460E+03  0.93671318460E+03  0.00000000000E+00 0. -1.
         24    2    1    2    0    0  0.71616673844E+02  0.39999518848E+02 -0.28935905557E+03  0.31127291759E+03  0.80207585100E+02 0.  0.
         23    2    1    2    0    0  0.17315317640E+02 -0.71453736160E+02 -0.16093776598E+03  0.19739739438E+03  0.87517484842E+02 0.  0.
        -13    1    3    3    0    0 -0.11865844057E+02  0.24299945393E+02 -0.44221341460E+02  0.51834473488E+02  0.00000000000E+00 0.  1.
         14    1    3    3    0    0  0.83482517901E+02  0.15699573455E+02 -0.24513771411E+03  0.25943844411E+03  0.00000000000E+00 0. -1.
        -11    1    4    4    0    0  0.43857375904E+02 -0.73910783483E+01 -0.54197937507E+02  0.70110725929E+02  0.00000000000E+00 0.  1.
         11    1    4    4    0    0 -0.26542058264E+02 -0.64062657811E+02 -0.10673982848E+03  0.12728666845E+03  0.00000000000E+00 0. -1.
          1    1    1    2  501    0 -0.88931991484E+02  0.31454217311E+02 -0.45236430151E+03  0.46209493417E+03  0.00000000000E+00 0. -1.
<scales pt_clust_5="13000.00000" pt_clust_6="13000.00000" pt_clust_7="13000.00000" pt_clust_8="13000.00000" pt_clust_9="13000.00000"></scales>
<clustering>
<clus scale="   80.208">  5  6 -1 -1</clus>
<clus scale="   87.517">  7  8 -1 -1</clus>
<clus scale="   94.331">  7  9 -1 -1</clus>
<clus scale="  114.727">  2  5  1 -1</clus>
<clus scale="  242.468">  1  5  2 -1</clus>
</clustering>
</event>
<event>
 9    2  0.3707658E-005  0.4649793E+03  0.7546771E-02  0.1026850E+00
         21   -1    0    0  501  502  0.00000000000E+00  0.00000000000E+00  0.37486858806E+03  0.37486858806E+03  0.00000000000E+00 0. -1.
          2   -1    0    0  502    0 -0.00000000000E+00 -0.00000000000E+00 -0.14894332142E+04  0.14894332142E+04  0.00000000000E+00 0. -1.
         24    2    1    2    0    0 -0.30209114344E+03  0.27845445682E+03 -0.12984587397E+04  0.13642789705E+04  0.80411860251E+02 0.  0.
         23    2    1    2    0    0  0.53194083202E+02 -0.97282528237E+02  0.57591093004E+02  0.16726846695E+03  0.11121378176E+03 0.  0.
        -11    1    3    3    0    0 -0.94116139846E+02  0.11762126699E+03 -0.57944469198E+03  0.59870590551E+03  0.00000000000E+00 0.  1.
         12    1    3    3    0    0 -0.20797500360E+03  0.16083318983E+03 -0.71901404768E+03  0.76557306499E+03  0.00000000000E+00 0. -1.
        -11    1    4    4    0    0  0.57003314237E+02  0.22854822495E+01  0.26385879810E+02  0.62855516198E+02  0.00000000000E+00 0. -1.
         11    1    4    4    0    0 -0.38092310355E+01 -0.99568010487E+02  0.31205213194E+02  0.10441295075E+03  0.00000000000E+00 0.  1.
          1    1    1    2  501    0  0.24889706024E+03 -0.18117192858E+03  0.12630302052E+03  0.33275436480E+03  0.00000000000E+00 0. -1.
<scales pt_clust_5="13000.00000" pt_clust_6="13000.00000" pt_clust_7="13000.00000" pt_clust_8="13000.00000" pt_clust_9="13000.00000"></scales>
<clustering>
<clus scale="   80.412">  5  6 -1 -1</clus>
<clus scale="  111.214">  7  8 -1 -1</clus>
<clus scale="  307.852">  7  9 -1 -1</clus>
<clus scale="  418.643">  2  5  1 -1</clus>
<clus scale="  464.979">  1  5  2 -1</clus>
</clustering>
</event>
<event>
 9    2  0.3707658E-005  0.2589883E+03  0.7546771E-02  0.1152433E+00
         -1   -1    0    0    0  501 -0.00000000000E+00  0.00000000000E+00  0.23458646273E+03  0.23458646273E+03  0.00000000000E+00 0.  1.
         21   -1    0    0  501  502  0.00000000000E+00 -0.00000000000E+00 -0.12800699872E+03  0.12800699872E+03  0.00000000000E+00 0.  1.
         24    2    1    2    0    0 -0.84218674278E+00 -0.14892240311E+02  0.13950186553E+02  0.87538729930E+02  0.85123048776E+02 0.  0.
         23    2    1    2    0    0 -0.11178334322E+03  0.18547923049E+00  0.62076789225E+02  0.15743562865E+03  0.91852594874E+02 0.  0.
        -13    1    3    3    0    0 -0.17125982882E+02 -0.24440381278E+02  0.43332657488E+02  0.52615118850E+02  0.00000000000E+00 0.  1.
         14    1    3    3    0    0  0.16283796139E+02  0.95481409671E+01 -0.29382470935E+02  0.34923611080E+02  0.00000000000E+00 0. -1.
        -13    1    4    4    0    0 -0.57008376634E+02  0.40087846735E+02  0.55985541978E+02  0.89394470595E+02  0.00000000000E+00 0. -1.
         13    1    4    4    0    0 -0.54774966587E+02 -0.39902367505E+02  0.60912472462E+01  0.68041158059E+02  0.00000000000E+00 0.  1.
         -2    1    1    2    0  502  0.11262552996E+03  0.14706761080E+02  0.30552488228E+02  0.11761910286E+03  0.00000000000E+00 0.  1.
<scales pt_clust_5="13000.00000" pt_clust_6="13000.00000" pt_clust_7="13000.00000" pt_clust_8="13000.00000" pt_clust_9="13000.00000"></scales>
<clustering>
<clus scale="   85.123">  5  6 -1 -1</clus>
<clus scale="   86.420">  1  5  2 -1</clus>
<clus scale="   91.853">  7  8 -1 -1</clus>
<clus scale="  112.623">  7  9 -1 -1</clus>
<clus scale="  258.988">  2  5  1 -1</clus>
</clustering>
</event>
<event>
 9    2  0.3707658E-005  0.3547569E+03  0.7546771E-02  0.1112766E+00
         21   -1    0    0  501  502  0.00000000000E+00  0.00000000000E+00  0.98012355550E+02  0.98012355550E+02  0.00000000000E+00 0.  1.
          2   -1    0    0  502    0 -0.00000000000E+00 -0.00000000000E+00 -0.57067027433E+03  0.57067027433E+03  0.00000000000E+00 0. -1.
         24    2    1    2    0    0 -0.26199110442E+02  0.17612339743E+02 -0.20787467487E+03  0.22600600905E+03  0.82886957800E+02 0.  0.
         23    2    1    2    0    0  0.59369626363E+02  0.15311787544E+03 -0.14578058704E+03  0.23193810551E+03  0.74655669000E+02 0.  0.
        -11    1    3    3    0    0  0.29397555287E+02  0.86403548957E+01 -0.95748958296E+02  0.10053225853E+03  0.00000000000E+00 0.  1.
         12    1    3    3    0    0 -0.55596665729E+02  0.89719848477E+01 -0.11212571658E+03  0.12547375052E+03  0.00000000000E+00 0. -1.
        -11    1    4    4    0    0  0.51225137474E+02  0.11143917887E+03 -0.60698830286E+02  0.13684682420E+03  0.00000000000E+00 0.  1.
         11    1    4    4    0    0  0.81444888893E+01  0.41678696567E+02 -0.85081756758E+02  0.95091281303E+02  0.00000000000E+00 0. -1.
          1    1    1    2  501    0 -0.33170515921E+02 -0.17073021518E+03 -0.11900265686E+03  0.21073851533E+03  0.00000000000E+00 0. -1.
<scales pt_clust_5="13000.00000" pt_clust_6="13000.00000" pt_clust_7="13000.00000" pt_clust_8="13000.00000" pt_clust_9="13000.00000"></scales>
<clustering>
<clus scale="   74.656">  7  8 -1 -1</clus>
<clus scale="   82.887">  5  6 -1 -1</clus>
<clus scale="   88.695">  2  5  1 -1</clus>
<clus scale="  168.739">  7  9 -1 -1</clus>
<clus scale="  354.757">  1  5  2 -1</clus>
</clustering>
</event>
<event>
 9    2  0.3707658E-005  0.4108946E+03  0.7546771E-02  0.1097418E+00
         21   -1    0    0  501  502  0.00000000000E+00  0.00000000000E+00  0.10130874354E+03  0.10130874354E+03  0.00000000000E+00 0.  1.
          2   -1    0    0  502    0 -0.00000000000E+00 -0.00000000000E+00 -0.61369006831E+03  0.61369006831E+03  0.00000000000E+00 0. -1.
         24    2    1    2    0    0 -0.23512782734E+02  0.96189935580E+01 -0.11977253749E+03  0.14668897700E+03  0.80788732169E+02 0.  0.
         23    2    1    2    0    0  0.63354072835E+02 -0.10519283365E+03 -0.43159709824E+03  0.45766727659E+03  0.90022275356E+02 0.  0.
        -13    1    3    3    0    0 -0.48714129315E+02 -0.13214471936E+02 -0.76532091368E+02  0.91677967215E+02  0.00000000000E+00 0.  1.
         14    1    3    3    0    0  0.25201346582E+02  0.22833465494E+02 -0.43240446126E+02  0.55011009781E+02  0.00000000000E+00 0. -1.
        -13    1    4    4    0    0  0.18188058114E+02 -0.84452769098E+02 -0.16267138329E+03  0.18418755280E+03  0.00000000000E+00 0. -1.
         13    1    4    4    0    0  0.45166014721E+02 -0.20740064552E+02 -0.26892571495E+03  0.27347972379E+03  0.00000000000E+00 0.  1.
          1    1    1    2  501    0 -0.39841290101E+02  0.95573840093E+02  0.38988310958E+02  0.11064255826E+03  0.00000000000E+00 0. -1.
<scales pt_clust_5="13000.00000" pt_clust_6="13000.00000" pt_clust_7="13000.00000" pt_clust_8="13000.00000" pt_clust_9="13000.00000"></scales>
<clustering>
<clus scale="   80.789">  5  6 -1 -1</clus>
<clus scale="   84.689">  2  5  1 -1</clus>
<clus scale="   90.022">  7  8 -1 -1</clus>
<clus scale="  104.891">  7  9 -1 -1</clus>
<clus scale="  410.895">  1  5  2 -1</clus>
</clustering>
</event>
<event>
 9    2  0.3707658E-005  0.1596254E+03  0.7546771E-02  0.1213121E+00
         21   -1    0    0  501  502  0.00000000000E+00  0.00000000000E+00  0.57563188034E+02  0.57563188034E+02  0.00000000000E+00 0.  1.
          2   -1    0    0  502    0 -0.00000000000E+00 -0.00000000000E+00 -0.30473041862E+03  0.30473041862E+03  0.00000000000E+00 0. -1.
         24    2    1    2    0    0  0.22010572651E+02  0.45264673789E+02 -0.14327308251E+03  0.17183561199E+03  0.80417320111E+02 0.  0.
         23    2    1    2    0    0 -0.19475293558E+02  0.17790326963E+02 -0.38144735504E+02  0.99324323536E+02  0.87832326661E+02 0.  0.
        -13    1    3    3    0    0  0.43478122875E+02  0.20418961446E+02 -0.12576120801E+03  0.13462229605E+03  0.00000000000E+00 0.  1.
         14    1    3    3    0    0 -0.21467550224E+02  0.24845712342E+02 -0.17511874509E+02  0.37213315940E+02  0.00000000000E+00 0. -1.
        -11    1    4    4    0    0 -0.17406607028E+02 -0.18133126769E+02  0.19196771339E+02  0.31627777103E+02  0.00000000000E+00 0.  1.
         11    1    4    4    0    0 -0.20686865301E+01  0.35923453732E+02 -0.57341506843E+02  0.67696546433E+02  0.00000000000E+00 0. -1.
          1    1    1    2  501    0 -0.25352790929E+01 -0.63055000751E+02 -0.65749412563E+02  0.91133671122E+02  0.00000000000E+00 0. -1.
<scales pt_clust_5="13000.00000" pt_clust_6="13000.00000" pt_clust_7="13000.00000" pt_clust_8="13000.00000" pt_clust_9="13000.00000"></scales>
<clustering>
<clus scale="   80.417">  5  6 -1 -1</clus>
<clus scale="   87.832">  7  8 -1 -1</clus>
<clus scale="   63.106">  7  9 -1 -1</clus>
<clus scale="   94.870">  2  5  1 -1</clus>
<clus scale="  159.625">  1  5  2 -1</clus>
</clustering>
</event>
<event>
 9    2  0.3707658E-005  0.4611297E+03  0.7546771E-02  0.1060610E+00
         21   -1    0    0  501  502  0.00000000000E+00  0.00000000000E+00  0.60801414354E+02  0.60801414354E+02  0.00000000000E+00 0. -1.
         -1   -1    0    0    0  501 -0.00000000000E+00 -0.00000000000E+00 -0.16242504245E+04  0.16242504245E+04  0.00000000000E+00 0.  1.
         24    2    1    2    0    0  0.12648630311E+03 -0.57898062981E+02 -0.31462564414E+03  0.35381165808E+03  0.82718938995E+02 0.  0.
         23    2    1    2    0    0  0.40192715737E+02 -0.14951061218E+03 -0.36057027605E+03  0.40398951043E+03  0.96061037965E+02 0.  0.
        -13    1    3    3    0    0  0.13666499446E+02 -0.21489354218E+02 -0.10773256650E+02  0.27651918752E+02  0.00000000000E+00 0.  1.
         14    1    3    3    0    0  0.11281980366E+03 -0.36408708763E+02 -0.30385238749E+03  0.32615973933E+03  0.00000000000E+00 0. -1.
        -13    1    4    4    0    0  0.48520396589E+02 -0.80092339948E+02 -0.11311544115E+03  0.14684724999E+03  0.00000000000E+00 0. -1.
         13    1    4    4    0    0 -0.83276808525E+01 -0.69418272228E+02 -0.24745483491E+03  0.25714226044E+03  0.00000000000E+00 0.  1.
         -2    1    1    2    0  502 -0.16667901884E+03  0.20740867516E+03 -0.88825308999E+03  0.92725067039E+03  0.00000000000E+00 0.  1.
<scales pt_clust_5="13000.00000" pt_clust_6="13000.00000" pt_clust_7="13000.00000" pt_clust_8="13000.00000" pt_clust_9="13000.00000"></scales>
<clustering>
<clus scale="   82.719">  5  6 -1 -1</clus>
<clus scale="   96.061">  7  8 -1 -1</clus>
<clus scale="  161.844">  2  5  1 -1</clus>
<clus scale="  183.879">  7  9 -1 -1</clus>
<clus scale="  461.130">  1  5  2 -1</clus>
</clustering>
</event>
<event>
 9    2  0.3707658E-005  0.6668182E+03  0.7546771E-02  0.1031836E+00
          2   -1    0    0  502    0 -0.00000000000E+00  0.00000000000E+00  0.36726484015E+03  0.36726484015E+03  0.00000000000E+00 0. -1.
         21   -1    0    0  501  502  0.00000000000E+00 -0.00000000000E+00 -0.43394568793E+03  0.43394568793E+03  0.00000000000E+00 0.  1.
         24    2    1    2    0    0 -0.87531177928E+02  0.28382957386E+02 -0.55251772551E+02  0.13429434375E+03  0.80715011088E+02 0.  0.
         23    2    1    2    0    0  0.20603290140E+02  0.11135807504E+03 -0.30329681517E+03  0.33647152039E+03  0.91646110099E+02 0.  0.
        -13    1    3    3    0    0 -0.70736738835E+02  0.38527154627E+02 -0.72348859236E+02  0.10826996489E+03  0.00000000000E+00 0.  1.
         14    1    3    3    0    0 -0.16794439093E+02 -0.10144197241E+02  0.17097086685E+02  0.26024378864E+02  0.00000000000E+00 0. -1.
        -13    1    4    4    0    0 -0.28626477913E+02  0.57507370794E+02 -0.19956965321E+03  0.20965357001E+03  0.00000000000E+00 0.  1.
         13    1    4    4    0    0  0.49229768052E+02  0.53850704246E+02 -0.10372716196E+03  0.12681795038E+03  0.00000000000E+00 0. -1.
          1    1    1    2  501    0  0.66927887789E+02 -0.13974103243E+03  0.29186773994E+03  0.33044466394E+03  0.00000000000E+00 0. -1.
<scales pt_clust_5="13000.00000" pt_clust_6="13000.00000" pt_clust_7="13000.00000" pt_clust_8="13000.00000" pt_clust_9="13000.00000"></scales>
<clustering>
<clus scale="   80.715">  5  6 -1 -1</clus>
<clus scale="   91.646">  7  8 -1 -1</clus>
<clus scale="  122.402">  1  5  2 -1</clus>
<clus scale="  113.948">  7  9 -1 -1</clus>
<clus scale="  666.818">  2  5  1 -1</clus>
</clustering>
</event>
<event>
 9    2  0.3707658E-005  0.1062924E+04  0.7546771E-02  0.9632021E-01
         21   -1    0    0  501  502  0.00000000000E+00  0.00000000000E+00  0.90703578248E+03  0.90703578248E+03  0.00000000000E+00 0.  1.
         -3   -1    0    0    0  501 -0.00000000000E+00 -0.00000000000E+00 -0.50336455720E+03  0.50336455720E+03  0.00000000000E+00 0.  1.
         24    2    1    2    0    0 -0.23184708695E+03 -0.10363425287E+03 -0.17560715605E+02  0.26705239577E+03  0.80718481533E+02 0.  0.
         23    2    1    2    0    0 -0.18034381592E+02 -0.20307305613E+03  0.65015577204E+03  0.68627438070E+03  0.81890736047E+02 0.  0.
        -13    1    3    3    0    0 -0.23338015637E+03 -0.98858478180E+02 -0.28466652868E+02  0.25504832174E+03  0.00000000000E+00 0.  1.
         14    1    3    3    0    0  0.15330694272E+01 -0.47757746862E+01  0.10905937263E+02  0.12004074029E+02  0.00000000000E+00 0. -1.
        -11    1    4    4    0    0  0.20373552023E+02 -0.10425547759E+03  0.41401862511E+03  0.42742918497E+03  0.00000000000E+00 0.  1.
         11    1    4    4    0    0 -0.38407933615E+02 -0.98817578539E+02  0.23613714693E+03  0.25884519573E+03  0.00000000000E+00 0. -1.
         -4    1    1    2    0  502  0.24988146854E+03  0.30670730899E+03 -0.22892383116E+03  0.45707356320E+03  0.00000000000E+00 0.  1.
<scales pt_clust_5="13000.00000" pt_clust_6="13000.00000" pt_clust_7="13000.00000" pt_clust_8="13000.00000" pt_clust_9="13000.00000"></scales>
<clustering>
<clus scale="   80.718">  5  6 -1 -1</clus>
<clus scale="   81.891">  7  8 -1 -1</clus>
<clus scale="  266.474">  2  5  1 -1</clus>
<clus scale="  210.354">  7  9 -1 -1</clus>
<clus scale=" 1062.924">  1  5  2 -1</clus>
</clustering>
</event>
<event>
 9    2  0.3707658E-005  0.2244413E+03  0.7546771E-02  0.1156345E+00
         21   -1    0    0  501  502  0.00000000000E+00  0.00000000000E+00  0.44815912961E+02  0.44815912961E+02  0.00000000000E+00 0. -1.
          2   -1    0    0  502    0 -0.00000000000E+00 -0.00000000000E+00 -0.97166342329E+03  0.97166342329E+03  0.00000000000E+00 0. -1.
         24    2    1    2    0    0 -0.63849190398E+02 -0.62923789598E+02 -0.64456210718E+03  0.65584250285E+03  0.81442962379E+02 0.  0.
         23    2    1    2    0    0  0.11048730628E+03 -0.62364126903E-01 -0.21167485728E+03  0.25514646132E+03  0.89922315244E+02 0.  0.
        -13    1    3    3    0    0 -0.17965158242E+02  0.15507212581E+02 -0.64930274533E+02  0.69131476938E+02  0.00000000000E+00 0.  1.
         14    1    3    3    0    0 -0.45884032156E+02 -0.78431002180E+02 -0.57963183264E+03  0.58671102591E+03  0.00000000000E+00 0. -1.
        -13    1    4    4    0    0 -0.91904221790E+00 -0.21143250835E+02 -0.73073105106E+02  0.76076017143E+02  0.00000000000E+00 0.  1.
         13    1    4    4    0    0  0.11140634850E+03  0.21080886708E+02 -0.13860175217E+03  0.17907044417E+03  0.00000000000E+00 0. -1.
          1    1    1    2  501    0 -0.46638115886E+02  0.62986153725E+02 -0.70610545875E+02  0.10549037209E+03  0.00000000000E+00 0. -1.
<scales pt_clust_5="13000.00000" pt_clust_6="13000.00000" pt_clust_7="13000.00000" pt_clust_8="13000.00000" pt_clust_9="13000.00000"></scales>
<clustering>
<clus scale="   81.443">  5  6 -1 -1</clus>
<clus scale="   89.922">  7  8 -1 -1</clus>
<clus scale="   78.373">  7  9 -1 -1</clus>
<clus scale="  121.116">  2  5  1 -1</clus>
<clus scale="  224.441">  1  5  2 -1</clus>
</clustering>
</event>
<event>
 9    2  0.3707658E-005  0.3245547E+03  0.7546771E-02  0.1090717E+00
          2   -1    0    0  502    0 -0.00000000000E+00  0.00000000000E+00  0.23519094885E+04  0.23519094885E+04  0.00000000000E+00 0. -1.
         21   -1    0    0  501  502  0.00000000000E+00 -0.00000000000E+00 -0.50406946381E+02  0.50406946381E+02  0.00000000000E+00 0. -1.
         24    2    1    2    0    0  0.15437843249E+03  0.10813946764E+03  0.17533971502E+04  0.17653271923E+04  0.80322379470E+02 0.  0.
         23    2    1    2    0    0  0.43727701504E+02 -0.69618202695E+02  0.22886152694E+03  0.25930342937E+03  0.90010354640E+02 0.  0.
        -13    1    3    3    0    0  0.20738477588E+02 -0.89115182576E+01  0.10586698226E+03  0.10824655903E+03  0.00000000000E+00 0.  1.
         14    1    3    3    0    0  0.13363995491E+03  0.11705098590E+03  0.16475301679E+04  0.16570806332E+04  0.00000000000E+00 0. -1.
        -13    1    4    4    0    0 -0.51749968521E+01 -0.67045488312E+02  0.16948730367E+03  0.18233985906E+03  0.00000000000E+00 0.  1.
         13    1    4    4    0    0  0.48902698356E+02 -0.25727143828E+01  0.59374223268E+02  0.76963570307E+02  0.00000000000E+00 0. -1.
          1    1    1    2  501    0 -0.19810613400E+03 -0.38521264949E+02  0.31924386497E+03  0.37768581322E+03  0.00000000000E+00 0. -1.
<scales pt_clust_5="13000.00000" pt_clust_6="13000.00000" pt_clust_7="13000.00000" pt_clust_8="13000.00000" pt_clust_9="13000.00000"></scales>
<clustering>
<clus scale="   80.322">  5  6 -1 -1</clus>
<clus scale="   90.010">  7  8 -1 -1</clus>
<clus scale="  201.817">  7  9 -1 -1</clus>
<clus scale="  204.887">  1  5  2 -1</clus>
<clus scale="  324.555">  2  5  1 -1</clus>
</clustering>
</event>
<event>
 9    2  0.3707658E-005  0.2473182E+03  0.7546771E-02  0.1148640E+00
         21   -1    0    0  501  502  0.00000000000E+00  0.00000000000E+00  0.37209527645E+02  0.37209527645E+02  0.00000000000E+00 0.  1.
         -3   -1    0    0    0  501 -0.00000000000E+00 -0.00000000000E+00 -0.91768126056E+03  0.91768126056E+03  0.00000000000E+00 0.  1.
         24    2    1    2    0    0  0.53343675819E+02 -0.42913527766E+02 -0.40042633079E+03  0.41488165474E+03  0.84252136088E+02 0.  0.
         23    2    1    2    0    0  0.51084177594E+02 -0.96286220034E+01 -0.35072261618E+03  0.36568117520E+03  0.89521309353E+02 0.  0.
        -13    1    3    3    0    0  0.15130371388E+01 -0.53071388131E+02 -0.15514234238E+03  0.16397563209E+03  0.00000000000E+00 0.  1.
         14    1    3    3    0    0  0.51830638680E+02  0.10157860365E+02 -0.24528398841E+03  0.25090602265E+03  0.00000000000E+00 0. -1.
        -13    1    4    4    0    0 -0.21742378412E+02 -0.72847266913E+01 -0.36375307780E+02  0.42999549743E+02  0.00000000000E+00 0. -1.
         13    1    4    4    0    0  0.72826556006E+02 -0.23438953121E+01 -0.31434730840E+03  0.32268162545E+03  0.00000000000E+00 0.  1.
         -4    1    1    2    0  502 -0.10442785341E+03  0.52542149769E+02 -0.12932278595E+03  0.17432795827E+03  0.00000000000E+00 0.  1.
<scales pt_clust_5="13000.00000" pt_clust_6="13000.00000" pt_clust_7="13000.00000" pt_clust_8="13000.00000" pt_clust_9="13000.00000"></scales>
<clustering>
<clus scale="   84.252">  5  6 -1 -1</clus>
<clus scale="   89.521">  7  8 -1 -1</clus>
<clus scale="  108.561">  2  5  1 -1</clus>
<clus scale="   97.069">  7  9 -1 -1</clus>
<clus scale="  247.318">  1  5  2 -1</clus>
</clustering>
</event>
<event>
 9    2  0.3707658E-005  0.5404904E+03  0.7546771E-02  0.1041023E+00
         21   -1    0    0  501  502  0.00000000000E+00  0.00000000000E+00  0.11964478293E+03  0.11964478293E+03  0.00000000000E+00 0. -1.
         -1   -1    0    0    0  501 -0.00000000000E+00 -0.00000000000E+00 -0.10797334991E+04  0.10797334991E+04  0.00000000000E+00 0.  1.
         24    2    1    2    0    0 -0.15420947499E+03  0.22044072156E+02 -0.19216445596E+03  0.26031622724E+03  0.81060821220E+02 0.  0.
         23    2    1    2    0    0 -0.12057875293E+03 -0.59218449605E+01 -0.33739198631E+02  0.15497264594E+03  0.91125647096E+02 0.  0.
        -13    1    3    3    0    0 -0.21463275736E+02  0.36112986781E+02 -0.49924323161E+02  0.65247667105E+02  0.00000000000E+00 0.  1.
         14    1    3    3    0    0 -0.13274619925E+03 -0.14068914625E+02 -0.14224013279E+03  0.19506856013E+03  0.00000000000E+00 0. -1.
        -11    1    4    4    0    0 -0.48244082713E+02  0.35058212624E+02  0.10876998926E+02  0.60620779398E+02  0.00000000000E+00 0. -1.
         11    1    4    4    0    0 -0.72334670215E+02 -0.40980057584E+02 -0.44616197557E+02  0.94351866538E+02  0.00000000000E+00 0.  1.
         -2    1    1    2    0  502  0.27478822792E+03 -0.16122227195E+02 -0.73418506155E+03  0.78408940881E+03  0.00000000000E+00 0.  1.
<scales pt_clust_5="13000.00000" pt_clust_6="13000.00000" pt_clust_7="13000.00000" pt_clust_8="13000.00000" pt_clust_9="13000.00000"></scales>
<clustering>
<clus scale="   81.061">  5  6 -1 -1</clus>
<clus scale="   91.126">  7  8 -1 -1</clus>
<clus scale="  175.606">  2  5  1 -1</clus>
<clus scale="  137.671">  7  9 -1 -1</clus>
<clus scale="  540.490">  1  5  2 -1</clus>
</clustering>
</event>
<event>
 9    2  0.3707658E-005  0.5651271E+03  0.7546771E-02  0.1044904E+00
          2   -1    0    0  502    0 -0.00000000000E+00  0.00000000000E+00  0.13883159540E+04  0.13883159540E+04  0.00000000000E+00 0. -1.
         21   -1    0    0  501  502  0.00000000000E+00 -0.00000000000E+00 -0.10237873117E+03  0.10237873117E+03  0.00000000000E+00 0. -1.
         24    2    1    2    0    0  0.21198071277E+02  0.11156246213E+03  0.52620128258E+03  0.54382228359E+03  0.77196795031E+02 0.  0.
         23    2    1    2    0    0 -0.16113265789E+03  0.12376233344E+03  0.57524605012E+03  0.61672702829E+03  0.90351317774E+02 0.  0.
        -13    1    3    3    0    0 -0.11011495195E+02  0.31234428031E+02  0.51038070004E+02  0.60841820408E+02  0.00000000000E+00 0.  1.
         14    1    3    3    0    0  0.32209566472E+02  0.80328034102E+02  0.47516321257E+03  0.48298046319E+03  0.00000000000E+00 0. -1.
        -13    1    4    4    0    0 -0.72454453405E+02  0.27980209319E+02  0.32878462524E+03  0.33783408609E+03  0.00000000000E+00 0.  1.
         13    1    4    4    0    0 -0.88678204488E+02  0.95782124123E+02  0.24646142489E+03  0.27889294220E+03  0.00000000000E+00 0. -1.
          1    1    1    2  501    0  0.13993458662E+03 -0.23532479558E+03  0.18448989014E+03  0.33014537329E+03  0.00000000000E+00 0. -1.
<scales pt_clust_5="13000.00000" pt_clust_6="13000.00000" pt_clust_7="13000.00000" pt_clust_8="13000.00000" pt_clust_9="13000.00000"></scales>
<clustering>
<clus scale="   77.197">  5  6 -1 -1</clus>
<clus scale="   90.351">  7  8 -1 -1</clus>
<clus scale="  137.313">  1  5  2 -1</clus>
<clus scale="  249.174">  7  9 -1 -1</clus>
<clus scale="  565.127">  2  5  1 -1</clus>
</clustering>
</event>
<event>
 9    2  0.3707658E-005  0.6999396E+03  0.7546771E-02  0.9875213E-01
         21   -1    0    0  501  502  0.00000000000E+00  0.00000000000E+00  0.13024666242E+03  0.13024666242E+03  0.00000000000E+00 0. -1.
          2   -1    0    0  502    0 -0.00000000000E+00 -0.00000000000E+00 -0.24428330109E+04  0.24428330109E+04  0.00000000000E+00 0. -1.
         24    2    1    2    0    0  0.31788035100E+03 -0.25471414421E+03 -0.10471279199E+04  0.11269467134E+04  0.87205512068E+02 0.  0.
         23    2    1    2    0    0 -0.28794896259E+02  0.36901313484E+03 -0.60833649865E+03  0.71919149724E+03  0.10081306649E+03 0.  0.
        -11    1    3    3    0    0  0.21631022387E+02  0.53721976552E+01 -0.60650018281E+02  0.64615681956E+02  0.00000000000E+00 0.  1.
         12    1    3    3    0    0  0.29624932861E+03 -0.26008634186E+03 -0.98647790164E+03  0.10623310314E+04  0.00000000000E+00 0. -1.
        -11    1    4    4    0    0 -0.26141691961E+02  0.31151044928E+03 -0.42879679857E+03  0.53064945353E+03  0.00000000000E+00 0.  1.
         11    1    4    4    0    0 -0.26532042977E+01  0.57502685555E+02 -0.17953970008E+03  0.18854204370E+03  0.00000000000E+00 0. -1.
          1    1    1    2  501    0 -0.28908545474E+03 -0.11429899063E+03 -0.65712192994E+03  0.72694146271E+03  0.00000000000E+00 0. -1.
<scales pt_clust_5="13000.00000" pt_clust_6="13000.00000" pt_clust_7="13000.00000" pt_clust_8="13000.00000" pt_clust_9="13000.00000"></scales>
<clustering>
<clus scale="   87.206">  5  6 -1 -1</clus>
<clus scale="  100.813">  7  8 -1 -1</clus>
<clus scale="  310.861">  7  9 -1 -1</clus>
<clus scale="  416.572">  2  5  1 -1</clus>
<clus scale="  699.940">  1  5  2 -1</clus>
</clustering>
</event>
<event>
 9    2  0.3707658E-005  0.6446196E+03  0.7546771E-02  0.1038908E+00
         21   -1    0    0  501  502  0.00000000000E+00  0.00000000000E+00  0.69930358832E+02  0.69930358832E+02  0.00000000000E+00 0.  1.
          2   -1    0    0  502    0 -0.00000000000E+00 -0.00000000000E+00 -0.20407365360E+04  0.20407365360E+04  0.00000000000E+00 0. -1.
         24    2    1    2    0    0 -0.66755330552E+02 -0.40403438526E+02 -0.25397152685E+03  0.27680331072E+03  0.77651943785E+02 0.  0.
         23    2    1    2    0    0 -0.23263960163E+03  0.18746878403E+03 -0.81820733752E+03  0.87532480630E+03  0.86397570121E+02 0.  0.
        -11    1    3    3    0    0 -0.66925361946E+01 -0.39913857918E+02 -0.50863670208E+02  0.65000146474E+02  0.00000000000E+00 0.  1.
         12    1    3    3    0    0 -0.60062794357E+02 -0.48958060781E+00 -0.20310785664E+03  0.21180316424E+03  0.00000000000E+00 0. -1.
        -13    1    4    4    0    0 -0.22565665525E+03  0.15470051093E+03 -0.76495441122E+03  0.81240902592E+03  0.00000000000E+00 0.  1.
         13    1    4    4    0    0 -0.69829463745E+01  0.32768273101E+02 -0.53252926293E+02  0.62915780381E+02  0.00000000000E+00 0. -1.
          1    1    1    2  501    0  0.29939493218E+03 -0.14706534551E+03 -0.89862731283E+03  0.95853877785E+03  0.00000000000E+00 0. -1.
<scales pt_clust_5="13000.00000" pt_clust_6="13000.00000" pt_clust_7="13000.00000" pt_clust_8="13000.00000" pt_clust_9="13000.00000"></scales>
<clustering>
<clus scale="   77.652">  5  6 -1 -1</clus>
<clus scale="   86.398">  7  8 -1 -1</clus>
<clus scale="  110.084">  2  5  1 -1</clus>
<clus scale="  313.432">  7  9 -1 -1</clus>
<clus scale="  644.620">  1  5  2 -1</clus>
</clustering>
</event>
<event>
 9    2  0.3707658E-005  0.2236332E+03  0.7546771E-02  0.1177781E+00
         21   -1    0    0  501  502  0.00000000000E+00  0.00000000000E+00  0.78062409964E+02  0.78062409964E+02  0.00000000000E+00 0.  1.
          2   -1    0    0  502    0 -0.00000000000E+00 -0.00000000000E+00 -0.16294793155E+04  0.16294793155E+04  0.00000000000E+00 0. -1.
         24    2    1    2    0    0  0.81877855220E+00 -0.89473684882E+01 -0.14663806896E+04  0.14682866900E+04  0.74247905349E+02 0.  0.
         23    2    1    2    0    0 -0.40511265867E+02 -0.22419771642E+02  0.34450266841E+02  0.10949984058E+03  0.93056893235E+02 0.  0.
        -11    1    3    3    0    0 -0.16385812136E+02 -0.14113179438E+02 -0.13008961557E+03  0.13187488295E+03  0.00000000000E+00 0.  1.
         12    1    3    3    0    0  0.17204590689E+02  0.51658109502E+01 -0.13362910740E+04  0.13364118070E+04  0.00000000000E+00 0. -1.
        -11    1    4    4    0    0  0.21980421786E+02 -0.55948282365E+01 -0.15734629723E+02  0.27604702813E+02  0.00000000000E+00 0. -1.
         11    1    4    4    0    0 -0.62491687653E+02 -0.16824943406E+02  0.50184896564E+02  0.81895137765E+02  0.00000000000E+00 0.  1.
          1    1    1    2  501    0  0.39692487315E+02  0.31367140130E+02 -0.11948648277E+03  0.12975519486E+03  0.00000000000E+00 0. -1.
<scales pt_clust_5="13000.00000" pt_clust_6="13000.00000" pt_clust_7="13000.00000" pt_clust_8="13000.00000" pt_clust_9="13000.00000"></scales>
<clustering>
<clus scale="   74.248">  5  6 -1 -1</clus>
<clus scale="   74.790">  2  5  1 -1</clus>
<clus scale="   93.057">  7  8 -1 -1</clus>
<clus scale="   47.177">  7  9 -1 -1</clus>
<clus scale="  223.633">  1  5  2 -1</clus>
</clustering>
</event>
<event>
 9    2  0.3707658E-005  0.2055188E+03  0.7546771E-02  0.1184937E+00
          2   -1    0    0  502    0 -0.00000000000E+00  0.00000000000E+00  0.40914842433E+03  0.40914842433E+03  0.00000000000E+00 0. -1.
         21   -1    0    0  501  502  0.00000000000E+00 -0.00000000000E+00 -0.68302264063E+02  0.68302264063E+02  0.00000000000E+00 0. -1.
         24    2    1    2    0    0 -0.14857986926E+02 -0.45077616412E+01  0.31510486568E+01  0.82133153012E+02  0.80590607551E+02 0.  0.
         23    2    1    2    0    0 -0.59912656274E+02 -0.29275031835E+02  0.14832468681E+03  0.18893661570E+03  0.96178366403E+02 0.  0.
        -13    1    3    3    0    0  0.26980955847E+02 -0.23294707388E+02  0.61479906982E+01  0.36171994144E+02  0.00000000000E+00 0.  1.
         14    1    3    3    0    0 -0.41838942773E+02  0.18786945747E+02 -0.29969420415E+01  0.45961158868E+02  0.00000000000E+00 0. -1.
        -13    1    4    4    0    0 -0.45857123464E+02  0.28149067209E+02  0.46134388575E+02  0.70877553332E+02  0.00000000000E+00 0.  1.
         13    1    4    4    0    0 -0.14055532810E+02 -0.57424099045E+02  0.10219029824E+03  0.11805906237E+03  0.00000000000E+00 0. -1.
          1    1    1    2  501    0  0.74770643200E+02  0.33782793477E+02  0.18937042479E+03  0.20638091968E+03  0.00000000000E+00 0. -1.
<scales pt_clust_5="13000.00000" pt_clust_6="13000.00000" pt_clust_7="13000.00000" pt_clust_8="13000.00000" pt_clust_9="13000.00000"></scales>
<clustering>
<clus scale="   80.591">  5  6 -1 -1</clus>
<clus scale="   82.073">  1  5  2 -1</clus>
<clus scale="   96.178">  7  8 -1 -1</clus>
<clus scale="   73.744">  7  9 -1 -1</clus>
<clus scale="  205.519">  2  5  1 -1</clus>
</clustering>
</event>
<event>
 9    2  0.3707658E-005  0.2951163E+03  0.7546771E-02  0.1133176E+00
         -1   -1    0    0    0  501 -0.00000000000E+00  0.00000000000E+00  0.35168980457E+03  0.35168980457E+03  0.00000000000E+00 0.  1.
         21   -1    0    0  501  502  0.00000000000E+00 -0.00000000000E+00 -0.11169958944E+03  0.11169958944E+03  0.00000000000E+00 0.  1.
         24    2    1    2    0    0 -0.18001389462E+02  0.41842042179E+02  0.18878748665E+02  0.94629442981E+02  0.80768297069E+02 0.  0.
         23    2    1    2    0    0  0.89689848365E+01  0.99284153213E+02  0.17243010353E+03  0.21920038946E+03  0.91536246200E+02 0.  0.
        -11    1    3    3    0    0 -0.19857785851E+02  0.65686761662E+02  0.16616046048E+02  0.70605773863E+02  0.00000000000E+00 0.  1.
         12    1    3    3    0    0  0.18563963884E+01 -0.23844719483E+02  0.22627026170E+01  0.24023669118E+02  0.00000000000E+00 0. -1.
        -11    1    4    4    0    0  0.41912666026E+02  0.24408113982E+02  0.37085900969E+02  0.61055643901E+02  0.00000000000E+00 0.  1.
         11    1    4    4    0    0 -0.32943681190E+02  0.74876039232E+02  0.13534420256E+03  0.15814474556E+03  0.00000000000E+00 0. -1.
         -2    1    1    2    0  502  0.90324046258E+01 -0.14112619539E+03  0.48681362935E+02  0.14955956157E+03  0.00000000000E+00 0.  1.
<scales pt_clust_5="13000.00000" pt_clust_6="13000.00000" pt_clust_7="13000.00000" pt_clust_8="13000.00000" pt_clust_9="13000.00000"></scales>
<clustering>
<clus scale="   80.768">  5  6 -1 -1</clus>
<clus scale="   91.536">  7  8 -1 -1</clus>
<clus scale="   92.727">  1  5  2 -1</clus>
<clus scale="  127.099">  7  9 -1 -1</clus>
<clus scale="  295.116">  2  5  1 -1</clus>
</clustering>
</event>
<event>
 9    2  0.3707658E-005  0.2697941E+03  0.7546771E-02  0.1116211E+00
          2   -1    0    0  502    0 -0.00000000000E+00  0.00000000000E+00  0.20261177411E+04  0.20261177411E+04  0.00000000000E+00 0. -1.
         21   -1    0    0  501  502  0.00000000000E+00 -0.00000000000E+00 -0.34182681914E+02  0.34182681914E+02  0.00000000000E+00 0. -1.
         24    2    1    2    0    0  0.11686613765E+03 -0.11974314431E+03  0.13693911748E+04  0.13818096348E+04  0.78546563655E+02 0.  0.
         23    2    1    2    0    0 -0.16809436126E+02 -0.10546084329E+02  0.15587075410E+03  0.18374798916E+03  0.95256781904E+02 0.  0.
        -11    1    3    3    0    0 -0.19621162855E+01 -0.21975349889E+02  0.71453832730E+02  0.74782458604E+02  0.00000000000E+00 0.  1.
         12    1    3    3    0    0  0.11882825394E+03 -0.97767794420E+02  0.12979373420E+04  0.13070271762E+04  0.00000000000E+00 0. -1.
        -11    1    4    4    0    0  0.35853737927E+02  0.12114081069E+02  0.43957613410E+02  0.58004424488E+02  0.00000000000E+00 0.  1.
         11    1    4    4    0    0 -0.52663174052E+02 -0.22660165398E+02  0.11191314069E+03  0.12574356467E+03  0.00000000000E+00 0. -1.
          1    1    1    2  501    0 -0.10005670152E+03  0.13028922864E+03  0.46667313036E+03  0.49474279906E+03  0.00000000000E+00 0. -1.
<scales pt_clust_5="13000.00000" pt_clust_6="13000.00000" pt_clust_7="13000.00000" pt_clust_8="13000.00000" pt_clust_9="13000.00000"></scales>
<clustering>
<clus scale="   78.547">  5  6 -1 -1</clus>
<clus scale="   95.257">  7  8 -1 -1</clus>
<clus scale="  164.276">  7  9 -1 -1</clus>
<clus scale="  184.840">  1  5  2 -1</clus>
<clus scale="  269.794">  2  5  1 -1</clus>
</clustering>
</event>
<event>
 9    2  0.3707658E-005  0.4738252E+03  0.7546771E-02  0.1077704E+00
          2   -1    0    0  502    0 -0.00000000000E+00  0.00000000000E+00  0.11645350059E+04  0.11645350059E+04  0.00000000000E+00 0. -1.
         21   -1    0    0  501  502  0.00000000000E+00 -0.00000000000E+00 -0.75057359295E+02  0.75057359295E+02  0.00000000000E+00 0. -1.
         24    2    1    2    0    0 -0.48158384429E+02  0.31578554974E+01  0.34289853749E+03  0.35534651672E+03  0.79765518143E+02 0.  0.
         23    2    1    2    0    0 -0.19228453358E+03  0.30483995736E+02  0.46390908664E+03  0.51162417362E+03  0.92978699242E+02 0.  0.
        -11    1    3    3    0    0 -0.27243690320E+02  0.13662417104E+01  0.25775423018E+02  0.37529424594E+02  0.00000000000E+00 0.  1.
         12    1    3    3    0    0 -0.20914694109E+02  0.17916137870E+01  0.31712311448E+03  0.31781709212E+03  0.00000000000E+00 0. -1.
        -13    1    4    4    0    0 -0.18889547525E+03  0.39166892382E+01  0.40343152968E+03  0.44548158229E+03  0.00000000000E+00 0. -1.
         13    1    4    4    0    0 -0.33890583287E+01  0.26567306498E+02  0.60477556967E+02  0.66142591328E+02  0.00000000000E+00 0.  1.
          1    1    1    2  501    0  0.24044291801E+03 -0.33641851234E+02  0.28267002248E+03  0.37262167487E+03  0.00000000000E+00 0. -1.
<scales pt_clust_5="13000.00000" pt_clust_6="13000.00000" pt_clust_7="13000.00000" pt_clust_8="13000.00000" pt_clust_9="13000.00000"></scales>
<clustering>
<clus scale="   79.766">  5  6 -1 -1</clus>
<clus scale="   92.979">  7  8 -1 -1</clus>
<clus scale="   93.230">  1  5  2 -1</clus>
<clus scale="  223.450">  7  9 -1 -1</clus>
<clus scale="  473.825">  2  5  1 -1</clus>
</clustering>
</event>
<event>
 9    2  0.3707658E-005  0.3108043E+03  0.7546771E-02  0.1126729E+00
         21   -1    0    0  501  502  0.00000000000E+00  0.00000000000E+00  0.10057240778E+03  0.10057240778E+03  0.00000000000E+00 0.  1.
         -1   -1    0    0    0  501 -0.00000000000E+00 -0.00000000000E+00 -0.46013837505E+03  0.46013837505E+03  0.00000000000E+00 0.  1.
         24    2    1    2    0    0  0.47137315291E+02 -0.30139948886E+01 -0.17780724189E+03  0.20066139123E+03  0.80115965982E+02 0.  0.
         23    2    1    2    0    0  0.54580413479E+02 -0.48093975417E+02  0.29329147387E+02  0.12022318159E+03  0.91111813161E+02 0.  0.
        -13    1    3    3    0    0  0.34660168942E+01 -0.29636594338E+02 -0.11918563276E+03  0.12286397379E+03  0.00000000000E+00 0.  1.
         14    1    3    3    0    0  0.43671298397E+02  0.26622599449E+02 -0.58621609126E+02  0.77797417448E+02  0.00000000000E+00 0. -1.
        -13    1    4    4    0    0  0.32521833363E+01 -0.54767539207E+02  0.39330964104E+02  0.67505442629E+02  0.00000000000E+00 0.  1.
         13    1    4    4    0    0  0.51328230142E+02  0.66735637898E+01 -0.10001816716E+02  0.52717738958E+02  0.00000000000E+00 0. -1.
         -2    1    1    2    0  502 -0.10171772877E+03  0.51107970306E+02 -0.21108787277E+03  0.23982621001E+03  0.00000000000E+00 0.  1.
<scales pt_clust_5="13000.00000" pt_clust_6="13000.00000" pt_clust_7="13000.00000" pt_clust_8="13000.00000" pt_clust_9="13000.00000"></scales>
<clustering>
<clus scale="   80.116">  5  6 -1 -1</clus>
<clus scale="   91.112">  7  8 -1 -1</clus>
<clus scale="   93.003">  2  5  1 -1</clus>
<clus scale="   79.163">  7  9 -1 -1</clus>
<clus scale="  310.804">  1  5  2 -1</clus>
</clustering>
</event>
<event>
 9    2  0.3707658E-005  0.1990870E+03  0.7546771E-02  0.1165759E+00
         21   -1    0    0  501  502  0.00000000000E+00  0.00000000000E+00  0.16964595968E+03  0.16964595968E+03  0.00000000000E+00 0. -1.
          4   -1    0    0  502    0 -0.00000000000E+00 -0.00000000000E+00 -0.21601553057E+03  0.21601553057E+03  0.00000000000E+00 0. -1.
         24    2    1    2    0    0  0.93244720444E+01 -0.11316086790E+03 -0.10896572031E+03  0.17696573650E+03  0.80938346211E+02 0.  0.
         23    2    1    2    0    0 -0.25562379397E+02  0.83654119216E+01  0.32967851652E+02  0.98588563906E+02  0.88934865680E+02 0.  0.
        -13    1    3    3    0    0  0.19472254114E+02 -0.19185924411E+02  0.61469310155E+01  0.28018799701E+02  0.00000000000E+00 0.  1.
         14    1    3    3    0    0 -0.10147782070E+02 -0.93974943489E+02 -0.11511265133E+03  0.14894693679E+03  0.00000000000E+00 0. -1.
        -13    1    4    4    0    0 -0.57970116403E+02  0.14404288026E+02  0.24427753660E+02  0.64534743031E+02  0.00000000000E+00 0.  1.
         13    1    4    4    0    0  0.32407737006E+02 -0.60388761043E+01  0.85400979917E+01  0.34053820875E+02  0.00000000000E+00 0. -1.
          3    1    1    2  501    0  0.16237907352E+02  0.10479545598E+03  0.29628297766E+02  0.11010718985E+03  0.00000000000E+00 0. -1.
<scales pt_clust_5="13000.00000" pt_clust_6="13000.00000" pt_clust_7="13000.00000" pt_clust_8="13000.00000" pt_clust_9="13000.00000"></scales>
<clustering>
<clus scale="   80.938">  5  6 -1 -1</clus>
<clus scale="   88.935">  7  8 -1 -1</clus>
<clus scale="  106.046">  7  9 -1 -1</clus>
<clus scale="  139.439">  2  5  1 -1</clus>
<clus scale="  199.087">  1  5  2 -1</clus>
</clustering>
</event>
<event>
 9    2  0.3707658E-005  0.1816839E+03  0.7546771E-02  0.1180727E+00
          2   -1    0    0  502    0 -0.00000000000E+00  0.00000000000E+00  0.81187333089E+03  0.81187333089E+03  0.00000000000E+00 0. -1.
         21   -1    0    0  501  502  0.00000000000E+00 -0.00000000000E+00 -0.32219705812E+02  0.32219705812E+02  0.00000000000E+00 0. -1.
         24    2    1    2    0    0  0.90639390302E+02 -0.53794238483E+02  0.43931339067E+03  0.45829447864E+03  0.76995160630E+02 0.  0.
         23    2    1    2    0    0 -0.97905100223E+02  0.16001391455E+02  0.30176882152E+03  0.33131146125E+03  0.94135060083E+02 0.  0.
        -13    1    3    3    0    0  0.47052428834E+02  0.10538917762E+02  0.11303190941E+03  0.12288699033E+03  0.00000000000E+00 0.  1.
         14    1    3    3    0    0  0.43586961468E+02 -0.64333156245E+02  0.32628148126E+03  0.33540748831E+03  0.00000000000E+00 0. -1.
        -11    1    4    4    0    0 -0.83664976698E+02  0.51340988803E+02  0.22957151716E+03  0.24967740576E+03  0.00000000000E+00 0.  1.
         11    1    4    4    0    0 -0.14240123524E+02 -0.35339597348E+02  0.72197304360E+02  0.81634055489E+02  0.00000000000E+00 0. -1.
          1    1    1    2  501    0  0.72657099208E+01  0.37792847027E+02  0.38571412898E+02  0.54487096821E+02  0.00000000000E+00 0. -1.
<scales pt_clust_5="13000.00000" pt_clust_6="13000.00000" pt_clust_7="13000.00000" pt_clust_8="13000.00000" pt_clust_9="13000.00000"></scales>
<clustering>
<clus scale="   76.995">  5  6 -1 -1</clus>
<clus scale="   94.135">  7  8 -1 -1</clus>
<clus scale="   38.485">  7  9 -1 -1</clus>
<clus scale="  130.528">  1  5  2 -1</clus>
<clus scale="  181.684">  2  5  1 -1</clus>
</clustering>
</event>
<event>
 9    2  0.3707658E-005  0.6063881E+03  0.7546771E-02  0.1036989E+00
         -1   -1    0    0    0  501 -0.00000000000E+00  0.00000000000E+00  0.95555351961E+02  0.95555351961E+02  0.00000000000E+00 0.  1.
         21   -1    0    0  501  502  0.00000000000E+00 -0.00000000000E+00 -0.17554990181E+04  0.17554990181E+04  0.00000000000E+00 0. -1.
         24    2    1    2    0    0  0.11261509012E+03  0.33148817016E+01 -0.71303901005E+03  0.72662786519E+03  0.82887138026E+02 0.  0.
         23    2    1    2    0    0 -0.75174019842E+02 -0.24423934536E+03 -0.78846671054E+03  0.83365337420E+03  0.89410310403E+02 0.  0.
        -13    1    3    3    0    0  0.31799397841E+01  0.27590692045E+02 -0.14072061022E+03  0.14343517158E+03  0.00000000000E+00 0.  1.
         14    1    3    3    0    0  0.10943515033E+03 -0.24275810344E+02 -0.57231839982E+03  0.58319269361E+03  0.00000000000E+00 0. -1.
        -13    1    4    4    0    0 -0.26667817292E+02 -0.31779710297E+02 -0.23853267895E+03  0.24211352996E+03  0.00000000000E+00 0.  1.
         13    1    4    4    0    0 -0.48506202549E+02 -0.21245963506E+03 -0.54993403159E+03  0.59153984424E+03  0.00000000000E+00 0. -1.
         -2    1    1    2    0  502 -0.37441070276E+02  0.24092446366E+03 -0.15843794555E+03  0.29077313068E+03  0.00000000000E+00 0.  1.
<scales pt_clust_5="13000.00000" pt_clust_6="13000.00000" pt_clust_7="13000.00000" pt_clust_8="13000.00000" pt_clust_9="13000.00000"></scales>
<clustering>
<clus scale="   82.887">  5  6 -1 -1</clus>
<clus scale="   89.410">  7  8 -1 -1</clus>
<clus scale="  139.869">  1  5  2 -1</clus>
<clus scale="  247.799">  7  9 -1 -1</clus>
<clus scale="  606.388">  2  5  1 -1</clus>
</clustering>
</event>
<event>
 9    2  0.3707658E-005  0.2815216E+03  0.7546771E-02  0.1143444E+00
         21   -1    0    0  501  502  0.00000000000E+00  0.00000000000E+00  0.22609062347E+03  0.22609062347E+03  0.00000000000E+00 0. -1.
          2   -1    0    0  502    0 -0.00000000000E+00 -0.00000000000E+00 -0.65246829517E+03  0.65246829517E+03  0.00000000000E+00 0. -1.
         24    2    1    2    0    0 -0.19219566004E+02  0.94459662812E+01 -0.56054324856E+03  0.56670189253E+03  0.80521323257E+02 0.  0.
         23    2    1    2    0    0 -0.49375272739E+02 -0.33446918105E+02 -0.45632745743E+02  0.11792731101E+03  0.90927934704E+02 0.  0.
        -11    1    3    3    0    0 -0.30443657854E+02  0.30481188943E+02 -0.16801348225E+03  0.17344869386E+03  0.00000000000E+00 0.  1.
         12    1    3    3    0    0  0.11224091850E+02 -0.21035222662E+02 -0.39252976631E+03  0.39325319868E+03  0.00000000000E+00 0. -1.
        -11    1    4    4    0    0 -0.48717446479E+02  0.15114127943E+02  0.40374814688E+00  0.51009699739E+02  0.00000000000E+00 0.  1.
         11    1    4    4    0    0 -0.65782625959E+00 -0.48561046048E+02 -0.46036493890E+02  0.66917611272E+02  0.00000000000E+00 0. -1.
          1    1    1    2  501    0  0.68594838742E+02  0.24000951824E+02  0.17979832260E+03  0.19392971510E+03  0.00000000000E+00 0. -1.
<scales pt_clust_5="13000.00000" pt_clust_6="13000.00000" pt_clust_7="13000.00000" pt_clust_8="13000.00000" pt_clust_9="13000.00000"></scales>
<clustering>
<clus scale="   80.521">  5  6 -1 -1</clus>
<clus scale="   83.320">  2  5  1 -1</clus>
<clus scale="   90.928">  7  8 -1 -1</clus>
<clus scale="   71.488">  7  9 -1 -1</clus>
<clus scale="  281.522">  1  5  2 -1</clus>
</clustering>
</event>
<event>
 9    2  0.3707658E-005  0.3182281E+03  0.7546771E-02  0.1128642E+00
          4   -1    0    0  502    0 -0.00000000000E+00  0.00000000000E+00  0.20288326619E+03  0.20288326619E+03  0.00000000000E+00 0. -1.
         21   -1    0    0  501  502  0.00000000000E+00 -0.00000000000E+00 -0.21078983791E+03  0.21078983791E+03  0.00000000000E+00 0. -1.
         24    2    1    2    0    0 -0.20967069593E+02 -0.70050116369E+01  0.40064742432E+02  0.91849618101E+02  0.79639692137E+02 0.  0.
         23    2    1    2    0    0 -0.86856652243E+02  0.43082262029E+02  0.74201540012E+02  0.15492912037E+03  0.95378217942E+02 0.  0.
        -13    1    3    3    0    0  0.12551915138E+02 -0.35928823847E+02  0.14509090889E+02  0.40730144551E+02  0.00000000000E+00 0.  1.
         14    1    3    3    0    0 -0.33518984732E+02  0.28923812210E+02  0.25555651543E+02  0.51119473550E+02  0.00000000000E+00 0. -1.
        -13    1    4    4    0    0 -0.63979401706E+01  0.30192776865E+02  0.66214406187E+02  0.73053986886E+02  0.00000000000E+00 0.  1.
         13    1    4    4    0    0 -0.80458712072E+02  0.12889485165E+02  0.79871338245E+01  0.81875133483E+02  0.00000000000E+00 0. -1.
          3    1    1    2  501    0  0.10782372184E+03 -0.36077250392E+02 -0.12217285416E+03  0.16689436563E+03  0.00000000000E+00 0. -1.
<scales pt_clust_5="13000.00000" pt_clust_6="13000.00000" pt_clust_7="13000.00000" pt_clust_8="13000.00000" pt_clust_9="13000.00000"></scales>
<clustering>
<clus scale="   79.640">  5  6 -1 -1</clus>
<clus scale="   82.651">  1  5  2 -1</clus>
<clus scale="   95.378">  7  8 -1 -1</clus>
<clus scale="  110.836">  7  9 -1 -1</clus>
<clus scale="  318.228">  2  5  1 -1</clus>
</clustering>
</event>
<event>
 9    2  0.3707658E-005  0.2198839E+03  0.7546771E-02  0.1175573E+00
         21   -1    0    0  501  502  0.00000000000E+00  0.00000000000E+00  0.52380230286E+03  0.52380230286E+03  0.00000000000E+00 0. -1.
          2   -1    0    0  502    0 -0.00000000000E+00 -0.00000000000E+00 -0.13819324336E+03  0.13819324336E+03  0.00000000000E+00 0. -1.
         24    2    1    2    0    0 -0.11657459897E+01 -0.23758118859E+02 -0.99495467400E+02  0.12938374009E+03  0.79214878589E+02 0.  0.
         23    2    1    2    0    0  0.11590498769E+02 -0.58044910753E+02  0.15084520385E+03  0.18833037159E+03  0.95971360367E+02 0.  0.
        -11    1    3    3    0    0 -0.29533152619E+02  0.16210729551E+02 -0.39703012763E+02  0.52070376210E+02  0.00000000000E+00 0.  1.
         12    1    3    3    0    0  0.28367406630E+02 -0.39968848411E+02 -0.59792454637E+02  0.77313363875E+02  0.00000000000E+00 0. -1.
        -11    1    4    4    0    0 -0.22591700518E+02 -0.32322472761E+02  0.93757633887E+01  0.40534332569E+02  0.00000000000E+00 0.  1.
         11    1    4    4    0    0  0.34182199287E+02 -0.25722437992E+02  0.14146944046E+03  0.14779603902E+03  0.00000000000E+00 0. -1.
          1    1    1    2  501    0 -0.10424752779E+02  0.81803029612E+02  0.33425932305E+03  0.34428143454E+03  0.00000000000E+00 0. -1.
<scales pt_clust_5="13000.00000" pt_clust_6="13000.00000" pt_clust_7="13000.00000" pt_clust_8="13000.00000" pt_clust_9="13000.00000"></scales>
<clustering>
<clus scale="   79.215">  5  6 -1 -1</clus>
<clus scale="   82.709">  2  5  1 -1</clus>
<clus scale="   95.971">  7  8 -1 -1</clus>
<clus scale="   77.529">  7  9 -1 -1</clus>
<clus scale="  219.884">  1  5  2 -1</clus>
</clustering>
</event>
<event>
 9    2  0.3707658E-005  0.1716720E+03  0.7546771E-02  0.1202540E+00
          2   -1    0    0  502    0 -0.00000000000E+00  0.00000000000E+00  0.55014640296E+03  0.55014640296E+03  0.00000000000E+00 0. -1.
         21   -1    0    0  501  502  0.00000000000E+00 -0.00000000000E+00 -0.80640419785E+02  0.80640419785E+02  0.00000000000E+00 0. -1.
         24    2    1    2    0    0 -0.42036177743E+02  0.29009645503E+02  0.44761282054E+03  0.45772446429E+03  0.80906417138E+02 0.  0.
         23    2    1    2    0    0 -0.20399219820E+02  0.99192109783E+01  0.20923104207E+02  0.99478557592E+02  0.94571074940E+02 0.  0.
        -11    1    3    3    0    0 -0.27873463439E+02 -0.26089314911E+02  0.20563100444E+03  0.20914514649E+03  0.00000000000E+00 0.  1.
         12    1    3    3    0    0 -0.14162714304E+02  0.55098960414E+02  0.24198181610E+03  0.24857931780E+03  0.00000000000E+00 0. -1.
        -11    1    4    4    0    0  0.18984562207E+02  0.86590154194E+01  0.47546478377E+02  0.51923595372E+02  0.00000000000E+00 0.  1.
         11    1    4    4    0    0 -0.39383782027E+02  0.12601955589E+01 -0.26623374170E+02  0.47554962221E+02  0.00000000000E+00 0. -1.
          1    1    1    2  501    0  0.62435397563E+02 -0.38928856482E+02  0.97005843480E+00  0.73583800862E+02  0.00000000000E+00 0. -1.
<scales pt_clust_5="13000.00000" pt_clust_6="13000.00000" pt_clust_7="13000.00000" pt_clust_8="13000.00000" pt_clust_9="13000.00000"></scales>
<clustering>
<clus scale="   80.906">  5  6 -1 -1</clus>
<clus scale="   94.571">  7  8 -1 -1</clus>
<clus scale="   73.577">  7  9 -1 -1</clus>
<clus scale="   95.679">  1  5  2 -1</clus>
<clus scale="  171.672">  2  5  1 -1</clus>
</clustering>
</event>
<event>
 9    2  0.3707658E-005  0.5912265E+03  0.7546771E-02  0.1046745E+00
         21   -1    0    0  501  502  0.00000000000E+00  0.00000000000E+00  0.10032879876E+03  0.10032879876E+03  0.00000000000E+00 0. -1.
          2   -1    0    0  502    0 -0.00000000000E+00 -0.00000000000E+00 -0.12696086718E+04  0.12696086718E+04  0.00000000000E+00 0. -1.
         24    2    1    2    0    0  0.64236526093E+02 -0.34471931480E+02 -0.11851217862E+03  0.16425858883E+03  0.87298924259E+02 0.  0.
         23    2    1    2    0    0 -0.19109622098E+03 -0.53542923147E+02 -0.10261990408E+04  0.10493343405E+04  0.92916503061E+02 0.  0.
        -11    1    3    3    0    0  0.77249976095E+02 -0.18573979953E+01 -0.92669769394E+02  0.12065941693E+03  0.00000000000E+00 0.  1.
         12    1    3    3    0    0 -0.13013450002E+02 -0.32614533485E+02 -0.25842409229E+02  0.43599171897E+02  0.00000000000E+00 0. -1.
        -13    1    4    4    0    0 -0.11762568383E+03 -0.75478069358E+02 -0.73756535423E+03  0.75068994413E+03  0.00000000000E+00 0. -1.
         13    1    4    4    0    0 -0.73470537151E+02  0.21935146211E+02 -0.28863368655E+03  0.29864439637E+03  0.00000000000E+00 0.  1.
          1    1    1    2  501    0  0.12685969489E+03  0.88014854628E+02 -0.24568653601E+02  0.15634454120E+03  0.00000000000E+00 0. -1.
<scales pt_clust_5="13000.00000" pt_clust_6="13000.00000" pt_clust_7="13000.00000" pt_clust_8="13000.00000" pt_clust_9="13000.00000"></scales>
<clustering>
<clus scale="   87.299">  5  6 -1 -1</clus>
<clus scale="   92.917">  7  8 -1 -1</clus>
<clus scale="  113.735">  2  5  1 -1</clus>
<clus scale="  157.144">  7  9 -1 -1</clus>
<clus scale="  591.227">  1  5  2 -1</clus>
</clustering>
</event>
<event>
 9    2  0.3707658E-005  0.1804802E+03  0.7546771E-02  0.1200260E+00
         21   -1    0    0  501  502  0.00000000000E+00  0.00000000000E+00  0.46860771250E+03  0.46860771250E+03  0.00000000000E+00 0. -1.
          4   -1    0    0  502    0 -0.00000000000E+00 -0.00000000000E+00 -0.38152027623E+02  0.38152027623E+02  0.00000000000E+00 0. -1.
         24    2    1    2    0    0 -0.30869662315E+02  0.35420095737E+01  0.15311405820E+03  0.17586474611E+03  0.80740400180E+02 0.  0.
         23    2    1    2    0    0 -0.17900015241E+02 -0.53850471196E+02  0.10836165120E+03  0.14796425611E+03  0.83251965989E+02 0.  0.
        -13    1    3    3    0    0  0.23336253810E+02  0.12942404808E+02  0.25555981686E+02  0.36948542381E+02  0.00000000000E+00 0.  1.
         14    1    3    3    0    0 -0.54205916126E+02 -0.94003952347E+01  0.12755807651E+03  0.13891620373E+03  0.00000000000E+00 0. -1.
        -13    1    4    4    0    0  0.83909811815E+01 -0.66988294458E+02  0.92648525566E+02  0.11463677180E+03  0.00000000000E+00 0.  1.
         13    1    4    4    0    0 -0.26290996422E+02  0.13137823262E+02  0.15713125631E+02  0.33327484304E+02  0.00000000000E+00 0. -1.
          3    1    1    2  501    0  0.48769677556E+02  0.50308461622E+02  0.16897997549E+03  0.18293073792E+03  0.00000000000E+00 0. -1.
<scales pt_clust_5="13000.00000" pt_clust_6="13000.00000" pt_clust_7="13000.00000" pt_clust_8="13000.00000" pt_clust_9="13000.00000"></scales>
<clustering>
<clus scale="   80.740">  5  6 -1 -1</clus>
<clus scale="   83.252">  7  8 -1 -1</clus>
<clus scale="   70.067">  7  9 -1 -1</clus>
<clus scale="   86.513">  2  5  1 -1</clus>
<clus scale="  180.480">  1  5  2 -1</clus>
</clustering>
</event>
<event>
 9    2  0.3707658E-005  0.3247754E+03  0.7546771E-02  0.1105237E+00
         21   -1    0    0  501  502  0.00000000000E+00  0.00000000000E+00  0.15802964688E+03  0.15802964688E+03  0.00000000000E+00 0.  1.
          2   -1    0    0  502    0 -0.00000000000E+00 -0.00000000000E+00 -0.35391611227E+03  0.35391611227E+03  0.00000000000E+00 0. -1.
         24    2    1    2    0    0 -0.10355056506E+03  0.49408872686E+02 -0.10386437787E+03  0.17438521105E+03  0.80364398938E+02 0.  0.
         23    2    1    2    0    0 -0.88928178480E+02 -0.32752103588E+02 -0.29356260871E+02  0.13445338304E+03  0.90746905961E+02 0.  0.
        -11    1    3    3    0    0 -0.28644894679E+02 -0.81451314160E+00 -0.74047983779E+02  0.79399605317E+02  0.00000000000E+00 0.  1.
         12    1    3    3    0    0 -0.74905670379E+02  0.50223385828E+02 -0.29816394096E+02  0.94985605730E+02  0.00000000000E+00 0. -1.
        -13    1    4    4    0    0 -0.30008443606E+02 -0.79863162041E+01  0.32893025899E+02  0.45235374288E+02  0.00000000000E+00 0.  1.
         13    1    4    4    0    0 -0.58919734874E+02 -0.24765787384E+02 -0.62249286770E+02  0.89218008753E+02  0.00000000000E+00 0. -1.
          1    1    1    2  501    0  0.19247874354E+03 -0.16656769098E+02 -0.62665826637E+02  0.20310716506E+03  0.00000000000E+00 0. -1.
<scales pt_clust_5="13000.00000" pt_clust_6="13000.00000" pt_clust_7="13000.00000" pt_clust_8="13000.00000" pt_clust_9="13000.00000"></scales>
<clustering>
<clus scale="   80.364">  5  6 -1 -1</clus>
<clus scale="   90.747">  7  8 -1 -1</clus>
<clus scale="  140.080">  2  5  1 -1</clus>
<clus scale="  129.166">  7  9 -1 -1</clus>
<clus scale="  324.775">  1  5  2 -1</clus>
</clustering>
</event>
<event>
 9    2  0.3707658E-005  0.2532651E+03  0.7546771E-02  0.1122896E+00
         21   -1    0    0  501  502  0.00000000000E+00  0.00000000000E+00  0.90052790456E+02  0.90052790456E+02  0.00000000000E+00 0.  1.
          2   -1    0    0  502    0 -0.00000000000E+00 -0.00000000000E+00 -0.61857827940E+03  0.61857827940E+03  0.00000000000E+00 0. -1.
         24    2    1    2    0    0  0.12005015579E+03 -0.12076437008E+03 -0.10790580246E+03  0.21764824166E+03  0.82042805327E+02 0.  0.
         23    2    1    2    0    0 -0.40203396769E+02 -0.10990425051E+02 -0.11984963478E+03  0.15305168881E+03  0.85579097541E+02 0.  0.
        -13    1    3    3    0    0  0.10646589026E+03 -0.10952607392E+03 -0.55762543250E+02  0.16260506723E+03  0.00000000000E+00 0.  1.
         14    1    3    3    0    0  0.13584265528E+02 -0.11238296164E+02 -0.52143259213E+02  0.55043174436E+02  0.00000000000E+00 0. -1.
        -13    1    4    4    0    0 -0.44711577995E+01 -0.24779320651E+02 -0.11089591000E+03  0.11371855099E+03  0.00000000000E+00 0.  1.
         13    1    4    4    0    0 -0.35732238970E+02  0.13788895600E+02 -0.89537247837E+01  0.39333137825E+02  0.00000000000E+00 0. -1.
          1    1    1    2  501    0 -0.79846759022E+02  0.13175479513E+03 -0.30077005170E+03  0.33793113939E+03  0.00000000000E+00 0. -1.
<scales pt_clust_5="13000.00000" pt_clust_6="13000.00000" pt_clust_7="13000.00000" pt_clust_8="13000.00000" pt_clust_9="13000.00000"></scales>
<clustering>
<clus scale="   82.043">  5  6 -1 -1</clus>
<clus scale="   85.579">  7  8 -1 -1</clus>
<clus scale="  154.061">  7  9 -1 -1</clus>
<clus scale="  189.016">  2  5  1 -1</clus>
<clus scale="  253.265">  1  5  2 -1</clus>
</clustering>
</event>
<event>
 9    2  0.3707658E-005  0.3767118E+03  0.7546771E-02  0.1095580E+00
          2   -1    0    0  502    0 -0.00000000000E+00  0.00000000000E+00  0.10023282527E+04  0.10023282527E+04  0.00000000000E+00 0. -1.
         21   -1    0    0  501  502  0.00000000000E+00 -0.00000000000E+00 -0.85776784282E+02  0.85776784282E+02  0.00000000000E+00 0. -1.
         24    2    1    2    0    0 -0.26930134180E+02  0.76454792585E+02  0.21882625936E+02  0.11736092926E+03  0.82001042449E+02 0.  0.
         23    2    1    2    0    0 -0.94857744292E+02  0.75683069958E+02  0.58896808151E+03  0.60820973442E+03  0.91157892001E+02 0.  0.
        -13    1    3    3    0    0 -0.11837716319E+01  0.62150317001E+02  0.47573834948E+02  0.78277282722E+02  0.00000000000E+00 0.  1.
         14    1    3    3    0    0 -0.25746362549E+02  0.14304475583E+02 -0.25691209012E+02  0.39083646538E+02  0.00000000000E+00 0. -1.
        -13    1    4    4    0    0 -0.54518031163E+02  0.85058930572E+02  0.49958207737E+03  0.50969548695E+03  0.00000000000E+00 0. -1.
         13    1    4    4    0    0 -0.40339713128E+02 -0.93758606133E+01  0.89386004143E+02  0.98514247468E+02  0.00000000000E+00 0.  1.
          1    1    1    2  501    0  0.12178787847E+03 -0.15213786254E+03  0.30570076093E+03  0.36253437326E+03  0.00000000000E+00 0. -1.
<scales pt_clust_5="13000.00000" pt_clust_6="13000.00000" pt_clust_7="13000.00000" pt_clust_8="13000.00000" pt_clust_9="13000.00000"></scales>
<clustering>
<clus scale="   82.001">  5  6 -1 -1</clus>
<clus scale="   91.158">  7  8 -1 -1</clus>
<clus scale="  115.303">  1  5  2 -1</clus>
<clus scale="  167.744">  7  9 -1 -1</clus>
<clus scale="  376.712">  2  5  1 -1</clus>
</clustering>
</event>
<event>
 9    2  0.3707658E-005  0.5107772E+03  0.7546771E-02  0.1054231E+00
         21   -1    0    0  501  502  0.00000000000E+00  0.00000000000E+00  0.12030915934E+03  0.12030915934E+03  0.00000000000E+00 0. -1.
          2   -1    0    0  502    0 -0.00000000000E+00 -0.00000000000E+00 -0.15483271177E+04  0.15483271177E+04  0.00000000000E+00 0. -1.
         24    2    1    2    0    0  0.11489924642E+03 -0.27888514555E+02  0.97603643095E+01  0.14282507693E+03  0.79524410186E+02 0.  0.
         23    2    1    2    0    0 -0.25916604662E+03  0.12826668720E+02 -0.12896835361E+04  0.13185147104E+04  0.88689656100E+02 0.  0.
        -11    1    3    3    0    0 -0.28733544434E+01 -0.22782431283E+02  0.97365245513E+01  0.24941837367E+02  0.00000000000E+00 0.  1.
         12    1    3    3    0    0  0.11777260086E+03 -0.51060832727E+01  0.23839758232E-01  0.11788323956E+03  0.00000000000E+00 0. -1.
        -11    1    4    4    0    0 -0.17908627948E+03  0.49570259830E+02 -0.90290097282E+03  0.92182388388E+03  0.00000000000E+00 0. -1.
         11    1    4    4    0    0 -0.80079767141E+02 -0.36743591110E+02 -0.38678256324E+03  0.39669082649E+03  0.00000000000E+00 0.  1.
          1    1    1    2  501    0  0.14426680020E+03  0.15061845835E+02 -0.14809478660E+03  0.20729648974E+03  0.00000000000E+00 0. -1.
<scales pt_clust_5="13000.00000" pt_clust_6="13000.00000" pt_clust_7="13000.00000" pt_clust_8="13000.00000" pt_clust_9="13000.00000"></scales>
<clustering>
<clus scale="   79.524">  5  6 -1 -1</clus>
<clus scale="   88.690">  7  8 -1 -1</clus>
<clus scale="  142.491">  2  5  1 -1</clus>
<clus scale="  158.479">  7  9 -1 -1</clus>
<clus scale="  510.777">  1  5  2 -1</clus>
</clustering>
</event>
<event>
 9    2  0.3707658E-005  0.4180230E+03  0.7546771E-02  0.1045273E+00
         21   -1    0    0  501  502  0.00000000000E+00  0.00000000000E+00  0.23380925085E+03  0.23380925085E+03  0.00000000000E+00 0.  1.
         -3   -1    0    0    0  501 -0.00000000000E+00 -0.00000000000E+00 -0.61913794993E+03  0.61913794993E+03  0.00000000000E+00 0.  1.
         24    2    1    2    0    0  0.11272424435E+03  0.30578892679E+03 -0.23034930107E+03  0.40712003007E+03  0.80450577211E+02 0.  0.
         23    2    1    2    0    0 -0.43730316437E+02 -0.28129399384E+02 -0.11597132558E+03  0.15707709719E+03  0.92305267553E+02 0.  0.
        -13    1    3    3    0    0  0.11667404299E+03  0.29530556095E+03 -0.23496646525E+03  0.39500309673E+03  0.00000000000E+00 0.  1.
         14    1    3    3    0    0 -0.39497986400E+01  0.10483365836E+02  0.46171641787E+01  0.12116933342E+02  0.00000000000E+00 0. -1.
        -11    1    4    4    0    0 -0.61960160194E+02 -0.41360972742E+02 -0.56548779094E+02  0.93528369677E+02  0.00000000000E+00 0.  1.
         11    1    4    4    0    0  0.18229843757E+02  0.13231573358E+02 -0.59422546490E+02  0.63548727511E+02  0.00000000000E+00 0. -1.
         -4    1    1    2    0  502 -0.68993927912E+02 -0.27765952740E+03 -0.39008072422E+02  0.28875007352E+03  0.00000000000E+00 0.  1.
<scales pt_clust_5="13000.00000" pt_clust_6="13000.00000" pt_clust_7="13000.00000" pt_clust_8="13000.00000" pt_clust_9="13000.00000"></scales>
<clustering>
<clus scale="   80.451">  5  6 -1 -1</clus>
<clus scale="   92.305">  7  8 -1 -1</clus>
<clus scale="  286.103">  7  9 -1 -1</clus>
<clus scale="  335.687">  2  5  1 -1</clus>
<clus scale="  418.023">  1  5  2 -1</clus>
</clustering>
</event>
<event>
 9    2  0.3707658E-005  0.2978502E+03  0.7546771E-02  0.1133597E+00
         21   -1    0    0  501  502  0.00000000000E+00  0.00000000000E+00  0.48514264061E+03  0.48514264061E+03  0.00000000000E+00 0. -1.
          2   -1    0    0  502    0 -0.00000000000E+00 -0.00000000000E+00 -0.83717630837E+02  0.83717630837E+02  0.00000000000E+00 0. -1.
         24    2    1    2    0    0 -0.19248752741E+02 -0.31728285938E+02  0.16872138171E+03  0.19088442586E+03  0.81195817486E+02 0.  0.
         23    2    1    2    0    0  0.12973434717E+03 -0.18895218412E+02  0.70679895501E+02  0.17543820543E+03  0.92708609006E+02 0.  0.
        -13    1    3    3    0    0 -0.47168716891E+02 -0.28960962811E+02  0.76054883837E+02  0.94063651723E+02  0.00000000000E+00 0.  1.
         14    1    3    3    0    0  0.27919964150E+02 -0.27673231271E+01  0.92666497876E+02  0.96820774134E+02  0.00000000000E+00 0. -1.
        -13    1    4    4    0    0  0.10827503484E+03 -0.15647192370E+01  0.99559777099E+01  0.10874305959E+03  0.00000000000E+00 0. -1.
         13    1    4    4    0    0  0.21459312322E+02 -0.17330499175E+02  0.60723917792E+02  0.66695145842E+02  0.00000000000E+00 0.  1.
          1    1    1    2  501    0 -0.11048559443E+03  0.50623504350E+02  0.16202373256E+03  0.20253764016E+03  0.00000000000E+00 0. -1.
<scales pt_clust_5="13000.00000" pt_clust_6="13000.00000" pt_clust_7="13000.00000" pt_clust_8="13000.00000" pt_clust_9="13000.00000"></scales>
<clustering>
<clus scale="   81.196">  5  6 -1 -1</clus>
<clus scale="   89.275">  2  5  1 -1</clus>
<clus scale="   92.709">  7  8 -1 -1</clus>
<clus scale="  123.155">  7  9 -1 -1</clus>
<clus scale="  297.850">  1  5  2 -1</clus>
</clustering>
</event>
<event>
 9    2  0.3707658E-005  0.1642686E+03  0.7546771E-02  0.1214236E+00
         21   -1    0    0  501  502  0.00000000000E+00  0.00000000000E+00  0.21349205765E+02  0.21349205765E+02  0.00000000000E+00 0.  1.
          2   -1    0    0  502    0 -0.00000000000E+00 -0.00000000000E+00 -0.80891701960E+03  0.80891701960E+03  0.00000000000E+00 0. -1.
         24    2    1    2    0    0  0.22898625001E+02 -0.13651202186E+02 -0.15573250588E+03  0.17742624487E+03  0.80726430817E+02 0.  0.
         23    2    1    2    0    0  0.12602774438E+02 -0.36009206662E+02 -0.31704049089E+03  0.33218084306E+03  0.91509271367E+02 0.  0.
        -11    1    3    3    0    0  0.53102671664E+02 -0.49160945441E+01 -0.91380834777E+02  0.10580415251E+03  0.00000000000E+00 0.  1.
         12    1    3    3    0    0 -0.30204046663E+02 -0.87351076415E+01 -0.64351671099E+02  0.71622092357E+02  0.00000000000E+00 0. -1.
        -13    1    4    4    0    0 -0.36608067134E+02 -0.12372555780E+01 -0.87369985736E+02  0.94737509933E+02  0.00000000000E+00 0.  1.
         13    1    4    4    0    0  0.49210841573E+02 -0.34771951084E+02 -0.22967050515E+03  0.23744333313E+03  0.00000000000E+00 0. -1.
          1    1    1    2  501    0 -0.35501399439E+02  0.49660408847E+02 -0.31479481707E+03  0.32065913744E+03  0.00000000000E+00 0. -1.
<scales pt_clust_5="13000.00000" pt_clust_6="13000.00000" pt_clust_7="13000.00000" pt_clust_8="13000.00000" pt_clust_9="13000.00000"></scales>
<clustering>
<clus scale="   80.726">  5  6 -1 -1</clus>
<clus scale="   85.015">  2  5  1 -1</clus>
<clus scale="   91.509">  7  8 -1 -1</clus>
<clus scale="   49.250">  7  9 -1 -1</clus>
<clus scale="  164.269">  1  5  2 -1</clus>
</clustering>
</event>
<event>
 9    2  0.3707658E-005  0.2218259E+03  0.7546771E-02  0.1169289E+00
         21   -1    0    0  501  502  0.00000000000E+00  0.00000000000E+00  0.26319558348E+03  0.26319558348E+03  0.00000000000E+00 0. -1.
          2   -1    0    0  502    0 -0.00000000000E+00 -0.00000000000E+00 -0.38622460944E+03  0.38622460944E+03  0.00000000000E+00 0. -1.
         24    2    1    2    0    0 -0.47670938138E+02 -0.42258706753E+01 -0.33193862023E+03  0.34470728321E+03  0.79683669406E+02 0.  0.
         23    2    1    2    0    0 -0.24273197773E+02  0.40085464314E+02  0.26704307251E+02  0.10556312747E+03  0.90743712049E+02 0.  0.
        -13    1    3    3    0    0 -0.51566175878E+02  0.27871237176E+02 -0.17776384169E+03  0.18717868407E+03  0.00000000000E+00 0.  1.
         14    1    3    3    0    0  0.38952377396E+01 -0.32097107851E+02 -0.15417477854E+03  0.15752859914E+03  0.00000000000E+00 0. -1.
        -11    1    4    4    0    0  0.20729665886E+02 -0.65287804954E+01 -0.16842786605E+02  0.27495881203E+02  0.00000000000E+00 0.  1.
         11    1    4    4    0    0 -0.45002863659E+02  0.46614244809E+02  0.43547093857E+02  0.78067246269E+02  0.00000000000E+00 0. -1.
          1    1    1    2  501    0  0.71944135911E+02 -0.35859593638E+02  0.18220528702E+03  0.19914978224E+03  0.00000000000E+00 0. -1.
<scales pt_clust_5="13000.00000" pt_clust_6="13000.00000" pt_clust_7="13000.00000" pt_clust_8="13000.00000" pt_clust_9="13000.00000"></scales>
<clustering>
<clus scale="   79.684">  5  6 -1 -1</clus>
<clus scale="   90.744">  7  8 -1 -1</clus>
<clus scale="   80.386">  7  9 -1 -1</clus>
<clus scale="   92.951">  2  5  1 -1</clus>
<clus scale="  221.826">  1  5  2 -1</clus>
</clustering>
</event>
<event>
 9    2  0.3707658E-005  0.4344686E+03  0.7546771E-02  0.1048444E+00
         21   -1    0    0  501  502  0.00000000000E+00  0.00000000000E+00  0.23215131369E+03  0.23215131369E+03  0.00000000000E+00 0. -1.
          2   -1    0    0  502    0 -0.00000000000E+00 -0.00000000000E+00 -0.57481521129E+03  0.57481521129E+03  0.00000000000E+00 0. -1.
         24    2    1    2    0    0 -0.25407144056E+03 -0.60138481145E+02 -0.23294645212E+03  0.35885844202E+03  0.79664283322E+02 0.  0.
         23    2    1    2    0    0  0.15306674784E+03  0.19122179609E+03 -0.24983482172E+02  0.26219243556E+03  0.90141523666E+02 0.  0.
        -13    1    3    3    0    0 -0.44042457940E+02 -0.32310769343E+02 -0.19190688533E+02  0.57896514950E+02  0.00000000000E+00 0.  1.
         14    1    3    3    0    0 -0.21002898262E+03 -0.27827711802E+02 -0.21375576358E+03  0.30096192707E+03  0.00000000000E+00 0. -1.
        -11    1    4    4    0    0  0.20783074145E+02  0.82766055189E+02  0.14692594955E+02  0.86591156644E+02  0.00000000000E+00 0.  1.
         11    1    4    4    0    0  0.13228367370E+03  0.10845574090E+03 -0.39676077126E+02  0.17560127892E+03  0.00000000000E+00 0. -1.
          1    1    1    2  501    0  0.10100469272E+03 -0.13108331495E+03 -0.84733963315E+02  0.18591564740E+03  0.00000000000E+00 0. -1.
<scales pt_clust_5="13000.00000" pt_clust_6="13000.00000" pt_clust_7="13000.00000" pt_clust_8="13000.00000" pt_clust_9="13000.00000"></scales>
<clustering>
<clus scale="   79.664">  5  6 -1 -1</clus>
<clus scale="   90.142">  7  8 -1 -1</clus>
<clus scale="  165.484">  7  9 -1 -1</clus>
<clus scale="  272.975">  2  5  1 -1</clus>
<clus scale="  434.469">  1  5  2 -1</clus>
</clustering>
</event>
<event>
 9    2  0.3707658E-005  0.3251769E+03  0.7546771E-02  0.1123599E+00
          2   -1    0    0  502    0 -0.00000000000E+00  0.00000000000E+00  0.91445759903E+03  0.91445759903E+03  0.00000000000E+00 0. -1.
         21   -1    0    0  501  502  0.00000000000E+00 -0.00000000000E+00 -0.50131183483E+02  0.50131183483E+02  0.00000000000E+00 0. -1.
         24    2    1    2    0    0  0.29466213515E+02  0.18869163516E+02  0.94823774123E+02  0.12920004327E+03  0.80478568404E+02 0.  0.
         23    2    1    2    0    0 -0.14585872076E+03  0.50201645625E+02  0.33173067131E+03  0.37717231632E+03  0.91753726165E+02 0.  0.
        -11    1    3    3    0    0 -0.19618792608E+02  0.26975717951E+02  0.59409117396E+02  0.68132441701E+02  0.00000000000E+00 0.  1.
         12    1    3    3    0    0  0.49085006122E+02 -0.81065544350E+01  0.35414656727E+02  0.61067601573E+02  0.00000000000E+00 0. -1.
        -13    1    4    4    0    0 -0.32230354848E+02  0.27470173887E+02  0.18716345684E+03  0.19189467372E+03  0.00000000000E+00 0.  1.
         13    1    4    4    0    0 -0.11362836591E+03  0.22731471738E+02  0.14456721448E+03  0.18527764260E+03  0.00000000000E+00 0. -1.
          1    1    1    2  501    0  0.11639250724E+03 -0.69070809141E+02  0.43777197011E+03  0.45821642292E+03  0.00000000000E+00 0. -1.
<scales pt_clust_5="13000.00000" pt_clust_6="13000.00000" pt_clust_7="13000.00000" pt_clust_8="13000.00000" pt_clust_9="13000.00000"></scales>
<clustering>
<clus scale="   80.479">  5  6 -1 -1</clus>
<clus scale="   87.756">  1  5  2 -1</clus>
<clus scale="   91.754">  7  8 -1 -1</clus>
<clus scale="  145.168">  7  9 -1 -1</clus>
<clus scale="  325.177">  2  5  1 -1</clus>
</clustering>
</event>
<event>
 9    2  0.3707658E-005  0.3963461E+03  0.7546771E-02  0.1089276E+00
         21   -1    0    0  501  502  0.00000000000E+00  0.00000000000E+00  0.53198098464E+03  0.53198098464E+03  0.00000000000E+00 0.  1.
         -3   -1    0    0    0  501 -0.00000000000E+00 -0.00000000000E+00 -0.12454117317E+03  0.12454117317E+03  0.00000000000E+00 0.  1.
         24    2    1    2    0    0 -0.75572422665E+02 -0.36345870126E+02  0.11505251748E+03  0.16399747194E+03  0.81399482081E+02 0.  0.
         23    2    1    2    0    0  0.13713734905E+03 -0.36662547227E+02 -0.17372923412E+02  0.16837678529E+03  0.88871415445E+02 0.  0.
        -13    1    3    3    0    0 -0.77623928517E+01 -0.26907293548E+02  0.84511360559E+02  0.89030484961E+02  0.00000000000E+00 0.  1.
         14    1    3    3    0    0 -0.67810029813E+02 -0.94385765771E+01  0.30541156916E+02  0.74966986980E+02  0.00000000000E+00 0. -1.
        -11    1    4    4    0    0  0.92676702387E+02  0.16615514625E+02  0.79942149319E+01  0.94493142417E+02  0.00000000000E+00 0.  1.
         11    1    4    4    0    0  0.44460646662E+02 -0.53278061851E+02 -0.25367138344E+02  0.73883642872E+02  0.00000000000E+00 0. -1.
         -4    1    1    2    0  502 -0.61564926384E+02  0.73008417352E+02  0.30976021741E+03  0.32414790059E+03  0.00000000000E+00 0.  1.
<scales pt_clust_5="13000.00000" pt_clust_6="13000.00000" pt_clust_7="13000.00000" pt_clust_8="13000.00000" pt_clust_9="13000.00000"></scales>
<clustering>
<clus scale="   81.399">  5  6 -1 -1</clus>
<clus scale="   88.871">  7  8 -1 -1</clus>
<clus scale="   95.501">  7  9 -1 -1</clus>
<clus scale="  116.868">  2  5  1 -1</clus>
<clus scale="  396.346">  1  5  2 -1</clus>
</clustering>
</event>
<event>
 9    2  0.3707658E-005  0.2091263E+03  0.7546771E-02  0.1161445E+00
         21   -1    0    0  501  502  0.00000000000E+00  0.00000000000E+00  0.97335368098E+02  0.97335368098E+02  0.00000000000E+00 0. -1.
          2   -1    0    0  502    0 -0.00000000000E+00 -0.00000000000E+00 -0.57337779840E+03  0.57337779840E+03  0.00000000000E+00 0. -1.
         24    2    1    2    0    0  0.55428970226E+02 -0.91651035308E+02 -0.43854874866E+03  0.45825233886E+03  0.78726857577E+02 0.  0.
         23    2    1    2    0    0  0.47286892997E+01  0.18731310133E+02 -0.68070418898E+02  0.11310707995E+03  0.88240620607E+02 0.  0.
        -11    1    3    3    0    0  0.37058145276E+02  0.14963080782E+01 -0.10053243132E+03  0.10715556363E+03  0.00000000000E+00 0.  1.
         12    1    3    3    0    0  0.18370824951E+02 -0.93147343387E+02 -0.33801631733E+03  0.35109677522E+03  0.00000000000E+00 0. -1.
        -11    1    4    4    0    0  0.32055639243E+00  0.54307085243E+02 -0.37534926955E+02  0.66016914541E+02  0.00000000000E+00 0.  1.
         11    1    4    4    0    0  0.44081329073E+01 -0.35575775111E+02 -0.30535491944E+02  0.47090165414E+02  0.00000000000E+00 0. -1.
          1    1    1    2  501    0 -0.60157659526E+02  0.72919725176E+02  0.30576737250E+02  0.99353747691E+02  0.00000000000E+00 0. -1.
<scales pt_clust_5="13000.00000" pt_clust_6="13000.00000" pt_clust_7="13000.00000" pt_clust_8="13000.00000" pt_clust_9="13000.00000"></scales>
<clustering>
<clus scale="   78.727">  5  6 -1 -1</clus>
<clus scale="   88.241">  7  8 -1 -1</clus>
<clus scale="   94.532">  7  9 -1 -1</clus>
<clus scale="  132.929">  2  5  1 -1</clus>
<clus scale="  209.126">  1  5  2 -1</clus>
</clustering>
</event>
<event>
 9    2  0.3707658E-005  0.2294808E+03  0.7546771E-02  0.1137856E+00
         21   -1    0    0  501  502  0.00000000000E+00  0.00000000000E+00  0.71663443777E+02  0.71663443777E+02  0.00000000000E+00 0.  1.
          2   -1    0    0  502    0 -0.00000000000E+00 -0.00000000000E+00 -0.13289294630E+04  0.13289294630E+04  0.00000000000E+00 0. -1.
         24    2    1    2    0    0 -0.10963558082E+03 -0.10507002065E+03 -0.66868356840E+02  0.18827775351E+03  0.88980141023E+02 0.  0.
         23    2    1    2    0    0  0.13069629245E+02  0.57221766511E+02 -0.38935748839E+03  0.40405789300E+03  0.90655288640E+02 0.  0.
        -13    1    3    3    0    0 -0.73335215434E+02 -0.47857896448E+02 -0.80745785386E+02  0.11911470914E+03  0.00000000000E+00 0.  1.
         14    1    3    3    0    0 -0.36300365391E+02 -0.57212124205E+02  0.13877428545E+02  0.69163044371E+02  0.00000000000E+00 0. -1.
        -13    1    4    4    0    0  0.10903851135E+02 -0.24092221909E+02 -0.85062860957E+02  0.89078726082E+02  0.00000000000E+00 0.  1.
         13    1    4    4    0    0  0.21657781099E+01  0.81313988421E+02 -0.30429462743E+03  0.31497916692E+03  0.00000000000E+00 0. -1.
          1    1    1    2  501    0  0.96565951579E+02  0.47848254142E+02 -0.80104017398E+03  0.80825726026E+03  0.00000000000E+00 0. -1.
<scales pt_clust_5="13000.00000" pt_clust_6="13000.00000" pt_clust_7="13000.00000" pt_clust_8="13000.00000" pt_clust_9="13000.00000"></scales>
<clustering>
<clus scale="   88.980">  5  6 -1 -1</clus>
<clus scale="   90.655">  7  8 -1 -1</clus>
<clus scale="  107.770">  7  9 -1 -1</clus>
<clus scale="  176.003">  2  5  1 -1</clus>
<clus scale="  229.481">  1  5  2 -1</clus>
</clustering>
</event>
<event>
 9    2  0.3707658E-005  0.2880732E+03  0.7546771E-02  0.1135439E+00
         21   -1    0    0  501  502  0.00000000000E+00  0.00000000000E+00  0.41596396787E+03  0.41596396787E+03  0.00000000000E+00 0. -1.
          2   -1    0    0  502    0 -0.00000000000E+00 -0.00000000000E+00 -0.92483654525E+02  0.92483654525E+02  0.00000000000E+00 0. -1.
         24    2    1    2    0    0  0.31724597795E+02  0.14086812730E+02  0.13310910500E+03  0.16315447231E+03  0.87729468265E+02 0.  0.
         23    2    1    2    0    0 -0.10181604758E+03 -0.95757175123E+02  0.83304684278E+02  0.19348373008E+03  0.10469163889E+03 0.  0.
        -11    1    3    3    0    0  0.21144900745E+02  0.40538726973E+02  0.12564240808E+03  0.13370306624E+03  0.00000000000E+00 0.  1.
         12    1    3    3    0    0  0.10579697050E+02 -0.26451914243E+02  0.74666969185E+01  0.29451406073E+02  0.00000000000E+00 0. -1.
        -11    1    4    4    0    0 -0.58990806236E+02 -0.90100558726E+02  0.96879008515E+01  0.10812900317E+03  0.00000000000E+00 0. -1.
         11    1    4    4    0    0 -0.42825241339E+02 -0.56566163965E+01  0.73616783427E+02  0.85354726916E+02  0.00000000000E+00 0.  1.
          1    1    1    2  501    0  0.70091449781E+02  0.81670362393E+02  0.10706652406E+03  0.15180942000E+03  0.00000000000E+00 0. -1.
<scales pt_clust_5="13000.00000" pt_clust_6="13000.00000" pt_clust_7="13000.00000" pt_clust_8="13000.00000" pt_clust_9="13000.00000"></scales>
<clustering>
<clus scale="   87.729">  5  6 -1 -1</clus>
<clus scale="   94.347">  2  5  1 -1</clus>
<clus scale="  104.692">  7  8 -1 -1</clus>
<clus scale="  116.758">  7  9 -1 -1</clus>
<clus scale="  288.073">  1  5  2 -1</clus>
</clustering>
</event>
<event>
 9    2  0.3707658E-005  0.4555329E+03  0.7546771E-02  0.1074945E+00
         21   -1    0    0  501  502  0.00000000000E+00  0.00000000000E+00  0.92502240755E+03  0.92502240755E+03  0.00000000000E+00 0.  1.
         -3   -1    0    0    0  501 -0.00000000000E+00 -0.00000000000E+00 -0.13053744366E+03  0.13053744366E+03  0.00000000000E+00 0.  1.
         24    2    1    2    0    0 -0.79139917303E+02 -0.37457349196E+01 -0.26977505539E+02  0.11624581724E+03  0.80673088323E+02 0.  0.
         23    2    1    2    0    0 -0.67588719574E+02 -0.49834585443E+02  0.27502681765E+02  0.13013402430E+03  0.95534003664E+02 0.  0.
        -11    1    3    3    0    0 -0.71046923254E+02 -0.22013671303E+02 -0.46979911442E+02  0.87973741010E+02  0.00000000000E+00 0.  1.
         12    1    3    3    0    0 -0.80929940485E+01  0.18267936384E+02  0.20002405903E+02  0.28272076229E+02  0.00000000000E+00 0. -1.
        -13    1    4    4    0    0 -0.33945948519E+02  0.33508317498E+01 -0.29594673439E+02  0.45159718668E+02  0.00000000000E+00 0. -1.
         13    1    4    4    0    0 -0.33642771055E+02 -0.53185417192E+02  0.57097355203E+02  0.84974305631E+02  0.00000000000E+00 0.  1.
         -4    1    1    2    0  502  0.14672863688E+03  0.53580320362E+02  0.79395978767E+03  0.80918000967E+03  0.00000000000E+00 0.  1.
<scales pt_clust_5="13000.00000" pt_clust_6="13000.00000" pt_clust_7="13000.00000" pt_clust_8="13000.00000" pt_clust_9="13000.00000"></scales>
<clustering>
<clus scale="   80.673">  5  6 -1 -1</clus>
<clus scale="   95.534">  7  8 -1 -1</clus>
<clus scale="  113.072">  2  5  1 -1</clus>
<clus scale="  146.471">  7  9 -1 -1</clus>
<clus scale="  455.533">  1  5  2 -1</clus>
</clustering>
</event>
<event>
 9    2  0.3707658E-005  0.2821128E+03  0.7546771E-02  0.1139986E+00
          2   -1    0    0  502    0 -0.00000000000E+00  0.00000000000E+00  0.15876632569E+03  0.15876632569E+03  0.00000000000E+00 0. -1.
         21   -1    0    0  501  502  0.00000000000E+00 -0.00000000000E+00 -0.39736892397E+03  0.39736892397E+03  0.00000000000E+00 0. -1.
         24    2    1    2    0    0 -0.44161381525E+01  0.40886086789E+02  0.87108005834E+02  0.12523496624E+03  0.80030105084E+02 0.  0.
         23    2    1    2    0    0 -0.39414210994E+02  0.39603016582E+02 -0.17187092861E+02  0.10905194606E+03  0.92060044691E+02 0.  0.
        -13    1    3    3    0    0  0.22041312717E+02 -0.15992055518E+02  0.27441633932E+02  0.38660167859E+02  0.00000000000E+00 0.  1.
         14    1    3    3    0    0 -0.26457450870E+02  0.56878142307E+02  0.59666371902E+02  0.86574798382E+02  0.00000000000E+00 0. -1.
        -11    1    4    4    0    0 -0.58806478222E+02  0.10010169142E+02 -0.35289479078E+02  0.69309109796E+02  0.00000000000E+00 0. -1.
         11    1    4    4    0    0  0.19392267228E+02  0.29592847440E+02  0.18102386217E+02  0.39742836267E+02  0.00000000000E+00 0.  1.
          1    1    1    2  501    0  0.43830349147E+02 -0.80489103371E+02 -0.30852351125E+03  0.32184833736E+03  0.00000000000E+00 0. -1.
<scales pt_clust_5="13000.00000" pt_clust_6="13000.00000" pt_clust_7="13000.00000" pt_clust_8="13000.00000" pt_clust_9="13000.00000"></scales>
<clustering>
<clus scale="   80.030">  5  6 -1 -1</clus>
<clus scale="   89.978">  1  5  2 -1</clus>
<clus scale="   92.060">  7  8 -1 -1</clus>
<clus scale="   86.856">  7  9 -1 -1</clus>
<clus scale="  282.113">  2  5  1 -1</clus>
</clustering>
</event>
<event>
 9    2  0.3707658E-005  0.5980764E+03  0.7546771E-02  0.9923533E-01
         21   -1    0    0  501  502  0.00000000000E+00  0.00000000000E+00  0.16247783881E+04  0.16247783881E+04  0.00000000000E+00 0. -1.
          2   -1    0    0  502    0 -0.00000000000E+00 -0.00000000000E+00 -0.26367336621E+03  0.26367336621E+03  0.00000000000E+00 0. -1.
         24    2    1    2    0    0  0.41642475445E+03 -0.38327274630E+03  0.24434887662E+03  0.62162908296E+03  0.80054788067E+02 0.  0.
         23    2    1    2    0    0 -0.76678253788E+02  0.10893797925E+03  0.26353997212E+03  0.30835249068E+03  0.88774453954E+02 0.  0.
        -11    1    3    3    0    0  0.13190759432E+02 -0.38483396794E+02  0.11810191521E+02  0.42360932319E+02  0.00000000000E+00 0.  1.
         12    1    3    3    0    0  0.40323399502E+03 -0.34478934951E+03  0.23253868510E+03  0.57926815064E+03  0.00000000000E+00 0. -1.
        -11    1    4    4    0    0 -0.71640567358E+02  0.32037988640E+02  0.96427127153E+02  0.12432616160E+03  0.00000000000E+00 0.  1.
         11    1    4    4    0    0 -0.50376864297E+01  0.76899990605E+02  0.16711284497E+03  0.18402632908E+03  0.00000000000E+00 0. -1.
          1    1    1    2  501    0 -0.33974650066E+03  0.27433476706E+03  0.85321617312E+03  0.95847018065E+03  0.00000000000E+00 0. -1.
<scales pt_clust_5="13000.00000" pt_clust_6="13000.00000" pt_clust_7="13000.00000" pt_clust_8="13000.00000" pt_clust_9="13000.00000"></scales>
<clustering>
<clus scale="   80.055">  5  6 -1 -1</clus>
<clus scale="   88.774">  7  8 -1 -1</clus>
<clus scale="  436.678">  7  9 -1 -1</clus>
<clus scale="  571.591">  2  5  1 -1</clus>
<clus scale="  598.076">  1  5  2 -1</clus>
</clustering>
</event>
<event>
 9    2  0.3707658E-005  0.1965747E+03  0.7546771E-02  0.1181629E+00
         21   -1    0    0  501  502  0.00000000000E+00  0.00000000000E+00  0.13061713593E+03  0.13061713593E+03  0.00000000000E+00 0. -1.
         -1   -1    0    0    0  501 -0.00000000000E+00 -0.00000000000E+00 -0.18817405318E+03  0.18817405318E+03  0.00000000000E+00 0.  1.
         24    2    1    2    0    0 -0.58810894830E+02  0.79066572414E+01  0.27402897990E+02  0.10464220424E+03  0.81718024391E+02 0.  0.
         23    2    1    2    0    0 -0.36766054416E+02  0.47364478870E+01 -0.44955116425E+02  0.10976901906E+03  0.93027406487E+02 0.  0.
        -11    1    3    3    0    0 -0.10915542512E+02 -0.30311056448E+02 -0.88970030181E+01  0.33422535422E+02  0.00000000000E+00 0.  1.
         12    1    3    3    0    0 -0.47895352317E+02  0.38217713689E+02  0.36299901008E+02  0.71219668817E+02  0.00000000000E+00 0. -1.
        -13    1    4    4    0    0 -0.15015403845E+02 -0.30293082566E+02  0.15012630533E+02  0.36993408595E+02  0.00000000000E+00 0.  1.
         13    1    4    4    0    0 -0.21750650571E+02  0.35029530453E+02 -0.59967746958E+02  0.72775610470E+02  0.00000000000E+00 0. -1.
         -2    1    1    2    0  502  0.95576949246E+02 -0.12643105128E+02 -0.40004698820E+02  0.10437996581E+03  0.00000000000E+00 0.  1.
<scales pt_clust_5="13000.00000" pt_clust_6="13000.00000" pt_clust_7="13000.00000" pt_clust_8="13000.00000" pt_clust_9="13000.00000"></scales>
<clustering>
<clus scale="   81.718">  5  6 -1 -1</clus>
<clus scale="   93.027">  7  8 -1 -1</clus>
<clus scale="   96.410">  7  9 -1 -1</clus>
<clus scale="  100.991">  2  5  1 -1</clus>
<clus scale="  196.575">  1  5  2 -1</clus>
</clustering>
</event>
<event>
 9    2  0.3707658E-005  0.8221092E+03  0.7546771E-02  0.1022180E+00
         21   -1    0    0  501  502  0.00000000000E+00  0.00000000000E+00  0.24072065276E+03  0.24072065276E+03  0.00000000000E+00 0. -1.
          2   -1    0    0  502    0 -0.00000000000E+00 -0.00000000000E+00 -0.86452774832E+03  0.86452774832E+03  0.00000000000E+00 0. -1.
         24    2    1    2    0    0 -0.28536325011E+02  0.19205255168E+02 -0.88632880625E+02  0.12429227991E+03  0.80060100211E+02 0.  0.
         23    2    1    2    0    0 -0.22446251570E+03 -0.12487758849E+03 -0.63270970442E+03  0.68994370367E+03  0.98604822985E+02 0.  0.
        -13    1    3    3    0    0  0.10253605593E+02  0.17512978480E+02 -0.82530327688E+02  0.84988798269E+02  0.00000000000E+00 0.  1.
         14    1    3    3    0    0 -0.38789930604E+02  0.16922766881E+01 -0.61025529368E+01  0.39303481640E+02  0.00000000000E+00 0. -1.
        -11    1    4    4    0    0 -0.17906605372E+03 -0.96983278143E+02 -0.58116154175E+03  0.61580771791E+03  0.00000000000E+00 0. -1.
         11    1    4    4    0    0 -0.45396461985E+02 -0.27894310349E+02 -0.51548162668E+02  0.74135985763E+02  0.00000000000E+00 0.  1.
          1    1    1    2  501    0  0.25299884071E+03  0.10567233332E+03  0.97535489473E+02  0.29101241750E+03  0.00000000000E+00 0. -1.
<scales pt_clust_5="13000.00000" pt_clust_6="13000.00000" pt_clust_7="13000.00000" pt_clust_8="13000.00000" pt_clust_9="13000.00000"></scales>
<clustering>
<clus scale="   80.060">  5  6 -1 -1</clus>
<clus scale="   87.137">  2  5  1 -1</clus>
<clus scale="   98.605">  7  8 -1 -1</clus>
<clus scale="  271.790">  7  9 -1 -1</clus>
<clus scale="  822.109">  1  5  2 -1</clus>
</clustering>
</event>
<event>
 9    2  0.3707658E-005  0.4442125E+03  0.7546771E-02  0.1067065E+00
         21   -1    0    0  501  502  0.00000000000E+00  0.00000000000E+00  0.41284532666E+02  0.41284532666E+02  0.00000000000E+00 0.  1.
          2   -1    0    0  502    0 -0.00000000000E+00 -0.00000000000E+00 -0.21739587779E+04  0.21739587779E+04  0.00000000000E+00 0. -1.
         24    2    1    2    0    0  0.28703413495E+02 -0.12569311626E+03 -0.65441921772E+03  0.67168810077E+03  0.79232233176E+02 0.  0.
         23    2    1    2    0    0 -0.80954962887E+02 -0.87581242074E+02 -0.22868328310E+03  0.27483706900E+03  0.94948357271E+02 0.  0.
        -11    1    3    3    0    0  0.46109500897E+02 -0.99843478102E+02 -0.58956912051E+03  0.59973873817E+03  0.00000000000E+00 0.  1.
         12    1    3    3    0    0 -0.17406087402E+02 -0.25849638162E+02 -0.64850097206E+02  0.71949362606E+02  0.00000000000E+00 0. -1.
        -11    1    4    4    0    0 -0.17730126619E+02 -0.56403840579E+02 -0.34962334427E+02  0.68688539441E+02  0.00000000000E+00 0.  1.
         11    1    4    4    0    0 -0.63224836268E+02 -0.31177401496E+02 -0.19372094867E+03  0.20614852956E+03  0.00000000000E+00 0. -1.
          1    1    1    2  501    0  0.52251549392E+02  0.21327435834E+03 -0.12495717444E+04  0.12687181408E+04  0.00000000000E+00 0. -1.
<scales pt_clust_5="13000.00000" pt_clust_6="13000.00000" pt_clust_7="13000.00000" pt_clust_8="13000.00000" pt_clust_9="13000.00000"></scales>
<clustering>
<clus scale="   79.232">  5  6 -1 -1</clus>
<clus scale="   94.948">  7  8 -1 -1</clus>
<clus scale="  151.329">  2  5  1 -1</clus>
<clus scale="  132.589">  7  9 -1 -1</clus>
<clus scale="  444.213">  1  5  2 -1</clus>
</clustering>
</event>
<event>
 9    2  0.3707658E-005  0.3608636E+03  0.7546771E-02  0.1098913E+00
         21   -1    0    0  501  502  0.00000000000E+00  0.00000000000E+00  0.17342782439E+03  0.17342782439E+03  0.00000000000E+00 0.  1.
         -1   -1    0    0    0  501 -0.00000000000E+00 -0.00000000000E+00 -0.65169363796E+03  0.65169363796E+03  0.00000000000E+00 0.  1.
         24    2    1    2    0    0 -0.77762541120E+02  0.45922716877E+02 -0.44701553061E+03  0.46290725485E+03  0.79399831602E+02 0.  0.
         23    2    1    2    0    0  0.12636215650E+03 -0.15316261645E+03  0.41644904481E+02  0.22373667492E+03  0.94327196305E+02 0.  0.
        -13    1    3    3    0    0 -0.86950642183E+02  0.18201034553E+02 -0.37066833126E+03  0.38116492971E+03  0.00000000000E+00 0.  1.
         14    1    3    3    0    0  0.91881010627E+01  0.27721682324E+02 -0.76347199348E+02  0.81742325146E+02  0.00000000000E+00 0. -1.
        -13    1    4    4    0    0  0.35719701314E+02 -0.38510245326E+01  0.33110339293E+02  0.48857159352E+02  0.00000000000E+00 0. -1.
         13    1    4    4    0    0  0.90642455191E+02 -0.14931159192E+03  0.85345651885E+01  0.17487951557E+03  0.00000000000E+00 0.  1.
         -2    1    1    2    0  502 -0.48599615385E+02  0.10723989957E+03 -0.72895187437E+02  0.13847753257E+03  0.00000000000E+00 0.  1.
<scales pt_clust_5="13000.00000" pt_clust_6="13000.00000" pt_clust_7="13000.00000" pt_clust_8="13000.00000" pt_clust_9="13000.00000"></scales>
<clustering>
<clus scale="   79.400">  5  6 -1 -1</clus>
<clus scale="   94.327">  7  8 -1 -1</clus>
<clus scale="  117.738">  7  9 -1 -1</clus>
<clus scale="  120.251">  2  5  1 -1</clus>
<clus scale="  360.864">  1  5  2 -1</clus>
</clustering>
</event>
<event>
 9    2  0.3707658E-005  0.6741930E+03  0.7546771E-02  0.1003859E+00
         -1   -1    0    0    0  501 -0.00000000000E+00  0.00000000000E+00  0.12416382396E+04  0.12416382396E+04  0.00000000000E+00 0.  1.
         21   -1    0    0  501  502  0.00000000000E+00 -0.00000000000E+00 -0.18257510436E+03  0.18257510436E+03  0.00000000000E+00 0. -1.
         24    2    1    2    0    0 -0.20545936540E+03 -0.16727829285E+03  0.28282460660E+03  0.39606820748E+03  0.81759946159E+02 0.  0.
         23    2    1    2    0    0 -0.18237039504E+03 -0.76281768631E+02  0.23437024736E+03  0.31867021733E+03  0.86852894889E+02 0.  0.
        -13    1    3    3    0    0 -0.23394067114E+02 -0.23453154192E+02  0.84769295554E+02  0.91011901894E+02  0.00000000000E+00 0.  1.
         14    1    3    3    0    0 -0.18206529828E+03 -0.14382513865E+03  0.19805531104E+03  0.30505630559E+03  0.00000000000E+00 0. -1.
        -13    1    4    4    0    0  0.36768743599E+01 -0.21331593555E+02  0.28664761576E+02  0.35919699955E+02  0.00000000000E+00 0. -1.
         13    1    4    4    0    0 -0.18604726940E+03 -0.54950175076E+02  0.20570548579E+03  0.28275051737E+03  0.00000000000E+00 0.  1.
         -2    1    1    2    0  502  0.38782976044E+03  0.24356006148E+03  0.54186828127E+03  0.70947491913E+03  0.00000000000E+00 0.  1.
<scales pt_clust_5="13000.00000" pt_clust_6="13000.00000" pt_clust_7="13000.00000" pt_clust_8="13000.00000" pt_clust_9="13000.00000"></scales>
<clustering>
<clus scale="   81.760">  5  6 -1 -1</clus>
<clus scale="   86.853">  7  8 -1 -1</clus>
<clus scale="  277.273">  1  5  2 -1</clus>
<clus scale="  276.519">  7  9 -1 -1</clus>
<clus scale="  674.193">  2  5  1 -1</clus>
</clustering>
</event>
<event>
 9    2  0.3707658E-005  0.3968895E+03  0.7546771E-02  0.1098429E+00
         21   -1    0    0  501  502  0.00000000000E+00  0.00000000000E+00  0.35099579942E+03  0.35099579942E+03  0.00000000000E+00 0. -1.
          2   -1    0    0  502    0 -0.00000000000E+00 -0.00000000000E+00 -0.18688829301E+03  0.18688829301E+03  0.00000000000E+00 0. -1.
         24    2    1    2    0    0  0.39714976443E+02 -0.51938232499E+01  0.10048966774E+03  0.13592820549E+03  0.82304608454E+02 0.  0.
         23    2    1    2    0    0  0.10320482236E+03 -0.32773097130E+02  0.16723699978E+03  0.22138876234E+03  0.96537343783E+02 0.  0.
        -11    1    3    3    0    0  0.56199180834E+02 -0.10635028140E+02  0.32558562533E+02  0.65814221443E+02  0.00000000000E+00 0.  1.
         12    1    3    3    0    0 -0.16484204391E+02  0.54412048896E+01  0.67931105204E+02  0.70113984050E+02  0.00000000000E+00 0. -1.
        -13    1    4    4    0    0  0.84583187716E+02  0.21201073012E+02  0.89720351851E+02  0.12511411862E+03  0.00000000000E+00 0. -1.
         13    1    4    4    0    0  0.18621634643E+02 -0.53974170142E+02  0.77516647926E+02  0.96274643728E+02  0.00000000000E+00 0.  1.
          1    1    1    2  501    0 -0.14291979880E+03  0.37966920380E+02 -0.10361916110E+03  0.18056712458E+03  0.00000000000E+00 0. -1.
<scales pt_clust_5="13000.00000" pt_clust_6="13000.00000" pt_clust_7="13000.00000" pt_clust_8="13000.00000" pt_clust_9="13000.00000"></scales>
<clustering>
<clus scale="   82.305">  5  6 -1 -1</clus>
<clus scale="   91.533">  2  5  1 -1</clus>
<clus scale="   96.537">  7  8 -1 -1</clus>
<clus scale="  114.599">  7  9 -1 -1</clus>
<clus scale="  396.890">  1  5  2 -1</clus>
</clustering>
</event>
<event>
 9    2  0.3707658E-005  0.7824370E+03  0.7546771E-02  0.9913668E-01
         21   -1    0    0  501  502  0.00000000000E+00  0.00000000000E+00  0.31859109499E+03  0.31859109499E+03  0.00000000000E+00 0.  1.
         -1   -1    0    0    0  501 -0.00000000000E+00 -0.00000000000E+00 -0.92285339146E+03  0.92285339146E+03  0.00000000000E+00 0.  1.
         24    2    1    2    0    0 -0.22576401875E+03 -0.10956539717E+03 -0.30671253268E+03  0.40434019932E+03  0.80277335906E+02 0.  0.
         23    2    1    2    0    0 -0.54364328577E+02  0.11379319258E+03 -0.47879657430E+03  0.50342754005E+03  0.91042614255E+02 0.  0.
        -13    1    3    3    0    0 -0.18019334454E+03 -0.10867920641E+03 -0.20931655213E+03  0.29680672216E+03  0.00000000000E+00 0.  1.
         14    1    3    3    0    0 -0.45570674205E+02 -0.88619076284E+00 -0.97395980556E+02  0.10753347716E+03  0.00000000000E+00 0. -1.
        -11    1    4    4    0    0 -0.54060765666E+02  0.18879188072E+02 -0.13217831011E+03  0.14404893540E+03  0.00000000000E+00 0.  1.
         11    1    4    4    0    0 -0.30356291052E+00  0.94914004510E+02 -0.34661826419E+03  0.35937860464E+03  0.00000000000E+00 0. -1.
         -2    1    1    2    0  502  0.28012834732E+03 -0.42277954070E+01  0.18124681052E+03  0.33367674710E+03  0.00000000000E+00 0.  1.
<scales pt_clust_5="13000.00000" pt_clust_6="13000.00000" pt_clust_7="13000.00000" pt_clust_8="13000.00000" pt_clust_9="13000.00000"></scales>
<clustering>
<clus scale="   80.277">  5  6 -1 -1</clus>
<clus scale="   91.043">  7  8 -1 -1</clus>
<clus scale="  263.474">  2  5  1 -1</clus>
<clus scale="  250.517">  7  9 -1 -1</clus>
<clus scale="  782.437">  1  5  2 -1</clus>
</clustering>
</event>
<event>
 9    2  0.3707658E-005  0.1231030E+03  0.7546771E-02  0.1256192E+00
          2   -1    0    0  502    0 -0.00000000000E+00  0.00000000000E+00  0.34856296049E+03  0.34856296049E+03  0.00000000000E+00 0. -1.
         21   -1    0    0  501  502  0.00000000000E+00 -0.00000000000E+00 -0.31228676175E+02  0.31228676175E+02  0.00000000000E+00 0. -1.
         24    2    1    2    0    0 -0.14838582883E+02  0.23972668634E+02  0.13172275851E+03  0.15706759575E+03  0.80774204679E+02 0.  0.
         23    2    1    2    0    0 -0.44567219167E+01 -0.17228577621E+01  0.11700170072E+03  0.14806032168E+03  0.90607010088E+02 0.  0.
        -13    1    3    3    0    0 -0.38096284329E+02  0.25959039189E+02  0.12430016806E+03  0.13257349047E+03  0.00000000000E+00 0.  1.
         14    1    3    3    0    0  0.23257701446E+02 -0.19863705551E+01  0.74225904501E+01  0.24494105281E+02  0.00000000000E+00 0. -1.
        -11    1    4    4    0    0  0.34823378734E+02  0.18459121163E+02  0.26899898091E+02  0.47718040381E+02  0.00000000000E+00 0.  1.
         11    1    4    4    0    0 -0.39280100650E+02 -0.20181978925E+02  0.90101802626E+02  0.10034228130E+03  0.00000000000E+00 0. -1.
          1    1    1    2  501    0  0.19295304800E+02 -0.22249810872E+02  0.68609825088E+02  0.74663719233E+02  0.00000000000E+00 0. -1.
<scales pt_clust_5="13000.00000" pt_clust_6="13000.00000" pt_clust_7="13000.00000" pt_clust_8="13000.00000" pt_clust_9="13000.00000"></scales>
<clustering>
<clus scale="   80.774">  5  6 -1 -1</clus>
<clus scale="   85.553">  1  5  2 -1</clus>
<clus scale="   90.607">  7  8 -1 -1</clus>
<clus scale="   19.748">  7  9 -1 -1</clus>
<clus scale="  123.103">  2  5  1 -1</clus>
</clustering>
</event>
<event>
 9    2  0.3707658E-005  0.2826807E+03  0.7546771E-02  0.1142027E+00
         21   -1    0    0  501  502  0.00000000000E+00  0.00000000000E+00  0.10236628934E+03  0.10236628934E+03  0.00000000000E+00 0. -1.
          2   -1    0    0  502    0 -0.00000000000E+00 -0.00000000000E+00 -0.51244158358E+03  0.51244158358E+03  0.00000000000E+00 0. -1.
         24    2    1    2    0    0 -0.31164214931E+02  0.28076957712E+02  0.31259133326E+02  0.90704416753E+02  0.74098812106E+02 0.  0.
         23    2    1    2    0    0  0.12360324155E+03  0.23970049935E+02 -0.35552928034E+03  0.38766157134E+03  0.89599665714E+02 0.  0.
        -13    1    3    3    0    0 -0.54512262107E+01  0.22184952923E+02 -0.21719348062E+02  0.31521708133E+02  0.00000000000E+00 0.  1.
         14    1    3    3    0    0 -0.25712988720E+02  0.58920047895E+01  0.52978481388E+02  0.59182708620E+02  0.00000000000E+00 0. -1.
        -11    1    4    4    0    0  0.10578821397E+03  0.52461037607E+02 -0.30417399771E+03  0.32628994401E+03  0.00000000000E+00 0. -1.
         11    1    4    4    0    0  0.17815027580E+02 -0.28490987672E+02 -0.51355282632E+02  0.61371627325E+02  0.00000000000E+00 0.  1.
          1    1    1    2  501    0 -0.92439026621E+02 -0.52047007647E+02 -0.85805147220E+02  0.13644188483E+03  0.00000000000E+00 0. -1.
<scales pt_clust_5="13000.00000" pt_clust_6="13000.00000" pt_clust_7="13000.00000" pt_clust_8="13000.00000" pt_clust_9="13000.00000"></scales>
<clustering>
<clus scale="   74.099">  5  6 -1 -1</clus>
<clus scale="   85.148">  2  5  1 -1</clus>
<clus scale="   89.600">  7  8 -1 -1</clus>
<clus scale="  109.547">  7  9 -1 -1</clus>
<clus scale="  282.681">  1  5  2 -1</clus>
</clustering>
</event>
<event>
 9    2  0.3707658E-005  0.3603657E+03  0.7546771E-02  0.1105636E+00
         -1   -1    0    0    0  501 -0.00000000000E+00  0.00000000000E+00  0.37444498768E+03  0.37444498768E+03  0.00000000000E+00 0.  1.
         21   -1    0    0  501  502  0.00000000000E+00 -0.00000000000E+00 -0.15595385025E+03  0.15595385025E+03  0.00000000000E+00 0.  1.
         24    2    1    2    0    0 -0.56624379998E+02  0.12514048446E+02 -0.12641679881E+02  0.10227995005E+03  0.83297384678E+02 0.  0.
         23    2    1    2    0    0 -0.27126254168E+02 -0.50541205287E+02  0.29666236867E+03  0.31518370522E+03  0.89676975600E+02 0.  0.
        -13    1    3    3    0    0 -0.41126987893E+02  0.19721563520E+02  0.31175451274E+02  0.55247424944E+02  0.00000000000E+00 0.  1.
         14    1    3    3    0    0 -0.15497392105E+02 -0.72075150742E+01 -0.43817131155E+02  0.47032525110E+02  0.00000000000E+00 0. -1.
        -11    1    4    4    0    0 -0.54811187310E+02 -0.36797507607E+02  0.13135729896E+03  0.14701381843E+03  0.00000000000E+00 0. -1.
         11    1    4    4    0    0  0.27684933142E+02 -0.13743697680E+02  0.16530506971E+03  0.16816988679E+03  0.00000000000E+00 0.  1.
         -2    1    1    2    0  502  0.83750634166E+02  0.38027156840E+02 -0.65529551355E+02  0.11293518266E+03  0.00000000000E+00 0.  1.
<scales pt_clust_5="13000.00000" pt_clust_6="13000.00000" pt_clust_7="13000.00000" pt_clust_8="13000.00000" pt_clust_9="13000.00000"></scales>
<clustering>
<clus scale="   83.297">  5  6 -1 -1</clus>
<clus scale="   89.677">  7  8 -1 -1</clus>
<clus scale="   91.980">  7  9 -1 -1</clus>
<clus scale="  101.496">  1  5  2 -1</clus>
<clus scale="  360.366">  2  5  1 -1</clus>
</clustering>
</event>
<event>
 9    2  0.3707658E-005  0.2008644E+03  0.7546771E-02  0.1172160E+00
         21   -1    0    0  501  502  0.00000000000E+00  0.00000000000E+00  0.31565066294E+03  0.31565066294E+03  0.00000000000E+00 0. -1.
          2   -1    0    0  502    0 -0.00000000000E+00 -0.00000000000E+00 -0.93857586208E+02  0.93857586208E+02  0.00000000000E+00 0. -1.
         24    2    1    2    0    0 -0.55869957155E+02  0.51867489623E+02  0.10093450850E+02  0.11768085410E+03  0.89079835420E+02 0.  0.
         23    2    1    2    0    0  0.32015528029E+02  0.41349727168E+02  0.13242550601E+03  0.16715635039E+03  0.87578175716E+02 0.  0.
        -11    1    3    3    0    0 -0.22046079531E+02  0.56903362042E+01  0.45144958422E+02  0.50561614094E+02  0.00000000000E+00 0.  1.
         12    1    3    3    0    0 -0.33823877623E+02  0.46177153419E+02 -0.35051507573E+02  0.67119240002E+02  0.00000000000E+00 0. -1.
        -13    1    4    4    0    0  0.20483671518E+02  0.12570501092E+02  0.13397541830E+03  0.13611396330E+03  0.00000000000E+00 0. -1.
         13    1    4    4    0    0  0.11531856511E+02  0.28779226076E+02 -0.15499122897E+01  0.31042387090E+02  0.00000000000E+00 0.  1.
          1    1    1    2  501    0  0.23854429126E+02 -0.93217216792E+02  0.79274119866E+02  0.12467104466E+03  0.00000000000E+00 0. -1.
<scales pt_clust_5="13000.00000" pt_clust_6="13000.00000" pt_clust_7="13000.00000" pt_clust_8="13000.00000" pt_clust_9="13000.00000"></scales>
<clustering>
<clus scale="   87.578">  7  8 -1 -1</clus>
<clus scale="   89.080">  5  6 -1 -1</clus>
<clus scale="   96.221">  7  9 -1 -1</clus>
<clus scale="  117.247">  2  5  1 -1</clus>
<clus scale="  200.864">  1  5  2 -1</clus>
</clustering>
</event>
<event>
 9    2  0.3707658E-005  0.3796833E+03  0.7546771E-02  0.1092329E+00
         21   -1    0    0  501  502  0.00000000000E+00  0.00000000000E+00  0.66495549855E+02  0.66495549855E+02  0.00000000000E+00 0. -1.
          2   -1    0    0  502    0 -0.00000000000E+00 -0.00000000000E+00 -0.97708764928E+03  0.97708764928E+03  0.00000000000E+00 0. -1.
         24    2    1    2    0    0 -0.84856809750E+02 -0.13036052978E+02 -0.15227052596E+03  0.19552008100E+03  0.87585227967E+02 0.  0.
         23    2    1    2    0    0 -0.12714558129E+03 -0.25501584144E+02 -0.39383571202E+03  0.42464830206E+03  0.91669421012E+02 0.  0.
        -11    1    3    3    0    0 -0.14282927294E+02  0.34524053972E+02 -0.51410108592E+02  0.63552431741E+02  0.00000000000E+00 0.  1.
         12    1    3    3    0    0 -0.70573882456E+02 -0.47560106950E+02 -0.10086041737E+03  0.13196764925E+03  0.00000000000E+00 0. -1.
        -13    1    4    4    0    0 -0.82325469546E+02  0.14232327903E+02 -0.31349844691E+03  0.32444000725E+03  0.00000000000E+00 0. -1.
         13    1    4    4    0    0 -0.44820111741E+02 -0.39733912047E+02 -0.80337265114E+02  0.10020829481E+03  0.00000000000E+00 0.  1.
          1    1    1    2  501    0  0.21200239104E+03  0.38537637122E+02 -0.36448586144E+03  0.42341481608E+03  0.00000000000E+00 0. -1.
<scales pt_clust_5="13000.00000" pt_clust_6="13000.00000" pt_clust_7="13000.00000" pt_clust_8="13000.00000" pt_clust_9="13000.00000"></scales>
<clustering>
<clus scale="   87.585">  5  6 -1 -1</clus>
<clus scale="   91.669">  7  8 -1 -1</clus>
<clus scale="  122.645">  2  5  1 -1</clus>
<clus scale="  173.387">  7  9 -1 -1</clus>
<clus scale="  379.683">  1  5  2 -1</clus>
</clustering>
</event>
<event>
 9    2  0.3707658E-005  0.2729093E+03  0.7546771E-02  0.1136090E+00
          2   -1    0    0  502    0 -0.00000000000E+00  0.00000000000E+00  0.85584637882E+03  0.85584637882E+03  0.00000000000E+00 0. -1.
         21   -1    0    0  501  502  0.00000000000E+00 -0.00000000000E+00 -0.43875686413E+02  0.43875686413E+02  0.00000000000E+00 0.  1.
         24    2    1    2    0    0  0.28894617473E+02 -0.71150182304E+02  0.16888967997E+03  0.20112870811E+03  0.77664572760E+02 0.  0.
         23    2    1    2    0    0  0.78565696111E+02 -0.30225936342E+02  0.32691188573E+03  0.34961233600E+03  0.90946295240E+02 0.  0.
        -11    1    3    3    0    0  0.69761485621E+01 -0.81908738473E+02  0.14656478409E+03  0.16804447037E+03  0.00000000000E+00 0.  1.
         12    1    3    3    0    0  0.21918468911E+02  0.10758556169E+02  0.22324895882E+02  0.33084237733E+02  0.00000000000E+00 0. -1.
        -13    1    4    4    0    0  0.31207093543E+02 -0.59170022463E+02  0.20553479815E+03  0.21614700437E+03  0.00000000000E+00 0. -1.
         13    1    4    4    0    0  0.47358602568E+02  0.28944086121E+02  0.12137708758E+03  0.13346533163E+03  0.00000000000E+00 0.  1.
          1    1    1    2  501    0 -0.10746031358E+03  0.10137611865E+03  0.31616912670E+03  0.34898102112E+03  0.00000000000E+00 0. -1.
<scales pt_clust_5="13000.00000" pt_clust_6="13000.00000" pt_clust_7="13000.00000" pt_clust_8="13000.00000" pt_clust_9="13000.00000"></scales>
<clustering>
<clus scale="   77.665">  5  6 -1 -1</clus>
<clus scale="   90.946">  7  8 -1 -1</clus>
<clus scale="  109.220">  1  5  2 -1</clus>
<clus scale="  114.209">  7  9 -1 -1</clus>
<clus scale="  272.909">  2  5  1 -1</clus>
</clustering>
</event>
<event>
 9    2  0.3707658E-005  0.7129289E+03  0.7546771E-02  0.1024083E+00
          2   -1    0    0  502    0 -0.00000000000E+00  0.00000000000E+00  0.20726926722E+04  0.20726926722E+04  0.00000000000E+00 0. -1.
         21   -1    0    0  501  502  0.00000000000E+00 -0.00000000000E+00 -0.11610724485E+03  0.11610724485E+03  0.00000000000E+00 0. -1.
         24    2    1    2    0    0 -0.24300000023E+02  0.94879862390E+02  0.23381338980E+02  0.12832771716E+03  0.79552735281E+02 0.  0.
         23    2    1    2    0    0  0.10902101175E+03 -0.35626005538E+03  0.14935599851E+04  0.15420281887E+04  0.91228821360E+02 0.  0.
        -11    1    3    3    0    0 -0.24162965613E+02 -0.54798765898E+01 -0.18476650304E+01  0.24845358132E+02  0.00000000000E+00 0.  1.
         12    1    3    3    0    0 -0.13703440953E+00  0.10035973898E+03  0.25229004011E+02  0.10348235903E+03  0.00000000000E+00 0. -1.
        -11    1    4    4    0    0  0.11499512745E+03 -0.27572926418E+03  0.10744689005E+04  0.11152281939E+04  0.00000000000E+00 0.  1.
         11    1    4    4    0    0 -0.59741156974E+01 -0.80530791200E+02  0.41909108457E+03  0.42679999480E+03  0.00000000000E+00 0. -1.
          1    1    1    2  501    0 -0.84721011729E+02  0.26138019299E+03  0.43964410331E+03  0.51844401114E+03  0.00000000000E+00 0. -1.
<scales pt_clust_5="13000.00000" pt_clust_6="13000.00000" pt_clust_7="13000.00000" pt_clust_8="13000.00000" pt_clust_9="13000.00000"></scales>
<clustering>
<clus scale="   79.553">  5  6 -1 -1</clus>
<clus scale="   91.229">  7  8 -1 -1</clus>
<clus scale="  126.180">  1  5  2 -1</clus>
<clus scale="  298.222">  7  9 -1 -1</clus>
<clus scale="  712.929">  2  5  1 -1</clus>
</clustering>
</event>
<event>
 9    2  0.3707658E-005  0.2637900E+03  0.7546771E-02  0.1118912E+00
          2   -1    0    0  502    0 -0.00000000000E+00  0.00000000000E+00  0.17420724815E+04  0.17420724815E+04  0.00000000000E+00 0. -1.
         21   -1    0    0  501  502  0.00000000000E+00 -0.00000000000E+00 -0.49855198333E+02  0.49855198333E+02  0.00000000000E+00 0. -1.
         24    2    1    2    0    0 -0.11799451750E+03 -0.11834533521E+03  0.18382113024E+03  0.26063928880E+03  0.78830872241E+02 0.  0.
         23    2    1    2    0    0  0.30665657773E+02  0.14416922609E+03  0.10055925446E+04  0.10203043682E+04  0.89885981206E+02 0.  0.
        -11    1    3    3    0    0 -0.96762981167E+02 -0.64708035038E+02  0.16083922353E+03  0.19854334577E+03  0.00000000000E+00 0.  1.
         12    1    3    3    0    0 -0.21231536331E+02 -0.53637300177E+02  0.22981906706E+02  0.62095943032E+02  0.00000000000E+00 0. -1.
        -13    1    4    4    0    0 -0.31282867174E+02  0.33842260942E+02  0.26087380585E+03  0.26491330466E+03  0.00000000000E+00 0.  1.
         13    1    4    4    0    0  0.61948524946E+02  0.11032696514E+03  0.74471873877E+03  0.75539106353E+03  0.00000000000E+00 0. -1.
          1    1    1    2  501    0  0.87328859725E+02 -0.25823890870E+02  0.50280360826E+03  0.51098402281E+03  0.00000000000E+00 0. -1.
<scales pt_clust_5="13000.00000" pt_clust_6="13000.00000" pt_clust_7="13000.00000" pt_clust_8="13000.00000" pt_clust_9="13000.00000"></scales>
<clustering>
<clus scale="   78.831">  5  6 -1 -1</clus>
<clus scale="   89.886">  7  8 -1 -1</clus>
<clus scale="   91.067">  7  9 -1 -1</clus>
<clus scale="  184.777">  1  5  2 -1</clus>
<clus scale="  263.790">  2  5  1 -1</clus>
</clustering>
</event>
<event>
 9    2  0.3707658E-005  0.3794345E+03  0.7546771E-02  0.1080602E+00
          2   -1    0    0  502    0 -0.00000000000E+00  0.00000000000E+00  0.13714014399E+03  0.13714014399E+03  0.00000000000E+00 0. -1.
         21   -1    0    0  501  502  0.00000000000E+00 -0.00000000000E+00 -0.62825395662E+03  0.62825395662E+03  0.00000000000E+00 0. -1.
         24    2    1    2    0    0 -0.95468730606E+02  0.11246361927E+03 -0.33972878935E+02  0.17129950090E+03  0.80168686668E+02 0.  0.
         23    2    1    2    0    0 -0.43613388473E+02  0.36169105275E+02 -0.16433203440E+02  0.10864756227E+03  0.91235468884E+02 0.  0.
        -13    1    3    3    0    0 -0.59901729997E+02  0.20790065718E+02  0.88993345033E+01  0.64028448706E+02  0.00000000000E+00 0.  1.
         14    1    3    3    0    0 -0.35567000609E+02  0.91673553552E+02 -0.42872213438E+02  0.10727105219E+03  0.00000000000E+00 0. -1.
        -11    1    4    4    0    0 -0.26223437188E+02  0.52994775640E+02 -0.42699813928E+02  0.72934141611E+02  0.00000000000E+00 0.  1.
         11    1    4    4    0    0 -0.17389951285E+02 -0.16825670365E+02  0.26266610488E+02  0.35713420663E+02  0.00000000000E+00 0. -1.
          1    1    1    2  501    0  0.13908211908E+03 -0.14863272455E+03 -0.44070773026E+03  0.48544703744E+03  0.00000000000E+00 0. -1.
<scales pt_clust_5="13000.00000" pt_clust_6="13000.00000" pt_clust_7="13000.00000" pt_clust_8="13000.00000" pt_clust_9="13000.00000"></scales>
<clustering>
<clus scale="   80.169">  5  6 -1 -1</clus>
<clus scale="   91.235">  7  8 -1 -1</clus>
<clus scale="  167.897">  1  5  2 -1</clus>
<clus scale="  155.440">  7  9 -1 -1</clus>
<clus scale="  379.435">  2  5  1 -1</clus>
</clustering>
</event>
<event>
 9    2  0.3707658E-005  0.1991784E+03  0.7546771E-02  0.1182383E+00
         21   -1    0    0  501  502  0.00000000000E+00  0.00000000000E+00  0.22659245602E+02  0.22659245602E+02  0.00000000000E+00 0. -1.
          2   -1    0    0  502    0 -0.00000000000E+00 -0.00000000000E+00 -0.10417039370E+04  0.10417039370E+04  0.00000000000E+00 0. -1.
         24    2    1    2    0    0 -0.42650965346E+02 -0.29897321513E+02 -0.48679662611E+03  0.49606744029E+03  0.79993721312E+02 0.  0.
         23    2    1    2    0    0  0.71892380203E+02 -0.13489463428E+02 -0.19662766293E+03  0.22862159268E+03  0.90856561970E+02 0.  0.
        -13    1    3    3    0    0 -0.74981685979E+01  0.22013854729E+02 -0.54585612447E+02  0.59333139294E+02  0.00000000000E+00 0.  1.
         14    1    3    3    0    0 -0.35152796748E+02 -0.51911176242E+02 -0.43221101366E+03  0.43673430100E+03  0.00000000000E+00 0. -1.
        -13    1    4    4    0    0  0.25051232602E+02 -0.34781592721E+02 -0.15953227018E+03  0.16519040128E+03  0.00000000000E+00 0.  1.
         13    1    4    4    0    0  0.46841147601E+02  0.21292129293E+02 -0.37095392756E+02  0.63431191398E+02  0.00000000000E+00 0. -1.
          1    1    1    2  501    0 -0.29241414857E+02  0.43386784942E+02 -0.33562040234E+03  0.33967414962E+03  0.00000000000E+00 0. -1.
<scales pt_clust_5="13000.00000" pt_clust_6="13000.00000" pt_clust_7="13000.00000" pt_clust_8="13000.00000" pt_clust_9="13000.00000"></scales>
<clustering>
<clus scale="   79.994">  5  6 -1 -1</clus>
<clus scale="   90.857">  7  8 -1 -1</clus>
<clus scale="   52.321">  7  9 -1 -1</clus>
<clus scale="   95.457">  2  5  1 -1</clus>
<clus scale="  199.178">  1  5  2 -1</clus>
</clustering>
</event>
<event>
 9    2  0.3707658E-005  0.1956573E+03  0.7546771E-02  0.1174021E+00
         21   -1    0    0  501  502  0.00000000000E+00  0.00000000000E+00  0.54918858829E+02  0.54918858829E+02  0.00000000000E+00 0. -1.
          2   -1    0    0  502    0 -0.00000000000E+00 -0.00000000000E+00 -0.46045392454E+03  0.46045392454E+03  0.00000000000E+00 0. -1.
         24    2    1    2    0    0 -0.82770811330E+02 -0.39065230161E+02 -0.13806311957E+03  0.18397723157E+03  0.80056838145E+02 0.  0.
         23    2    1    2    0    0  0.20620962011E+02  0.17026871753E+02 -0.24280445775E+03  0.26099116277E+03  0.91908889140E+02 0.  0.
        -11    1    3    3    0    0 -0.59271368671E+02  0.79127025534E+01 -0.37672236282E+02  0.70674630472E+02  0.00000000000E+00 0.  1.
         12    1    3    3    0    0 -0.23499442659E+02 -0.46977932714E+02 -0.10039088329E+03  0.11330260110E+03  0.00000000000E+00 0. -1.
        -13    1    4    4    0    0 -0.45566716536E+01  0.51467794798E+02 -0.11060993626E+03  0.12208298472E+03  0.00000000000E+00 0.  1.
         13    1    4    4    0    0  0.25177633665E+02 -0.34440923045E+02 -0.13219452149E+03  0.13890817805E+03  0.00000000000E+00 0. -1.
          1    1    1    2  501    0  0.62149849319E+02  0.22038358408E+02 -0.24667488385E+02  0.70404389032E+02  0.00000000000E+00 0. -1.
<scales pt_clust_5="13000.00000" pt_clust_6="13000.00000" pt_clust_7="13000.00000" pt_clust_8="13000.00000" pt_clust_9="13000.00000"></scales>
<clustering>
<clus scale="   80.057">  5  6 -1 -1</clus>
<clus scale="   91.909">  7  8 -1 -1</clus>
<clus scale="   65.942">  7  9 -1 -1</clus>
<clus scale="  121.599">  2  5  1 -1</clus>
<clus scale="  195.657">  1  5  2 -1</clus>
</clustering>
</event>
<event>
 9    2  0.3707658E-005  0.2852759E+03  0.7546771E-02  0.1126982E+00
          2   -1    0    0  502    0 -0.00000000000E+00  0.00000000000E+00  0.91546668927E+03  0.91546668927E+03  0.00000000000E+00 0. -1.
         21   -1    0    0  501  502  0.00000000000E+00 -0.00000000000E+00 -0.46860704408E+02  0.46860704408E+02  0.00000000000E+00 0.  1.
         24    2    1    2    0    0  0.54882628198E+00 -0.88770026366E+02  0.35811668291E+03  0.37753539239E+03  0.80031213505E+02 0.  0.
         23    2    1    2    0    0  0.51002064503E+02  0.72732279826E+02  0.74443150257E+02  0.14541636466E+03  0.87823353266E+02 0.  0.
        -13    1    3    3    0    0 -0.18716925205E+02 -0.68515847223E+02  0.13379631700E+03  0.15148002856E+03  0.00000000000E+00 0.  1.
         14    1    3    3    0    0  0.19265751487E+02 -0.20254179143E+02  0.22432036591E+03  0.22605536382E+03  0.00000000000E+00 0. -1.
        -11    1    4    4    0    0  0.72637465620E+02  0.68658980267E+02  0.72171127723E+02  0.12328393512E+03  0.00000000000E+00 0.  1.
         11    1    4    4    0    0 -0.21635401117E+02  0.40732995589E+01  0.22720225344E+01  0.22132429537E+02  0.00000000000E+00 0. -1.
          1    1    1    2  501    0 -0.51550890785E+02  0.16037746539E+02  0.43604615169E+03  0.43937563663E+03  0.00000000000E+00 0. -1.
<scales pt_clust_5="13000.00000" pt_clust_6="13000.00000" pt_clust_7="13000.00000" pt_clust_8="13000.00000" pt_clust_9="13000.00000"></scales>
<clustering>
<clus scale="   80.031">  5  6 -1 -1</clus>
<clus scale="   87.823">  7  8 -1 -1</clus>
<clus scale="   53.988">  7  9 -1 -1</clus>
<clus scale="  119.522">  1  5  2 -1</clus>
<clus scale="  285.276">  2  5  1 -1</clus>
</clustering>
</event>
<event>
 9    2  0.3707658E-005  0.3124569E+03  0.7546771E-02  0.1128809E+00
          2   -1    0    0  502    0 -0.00000000000E+00  0.00000000000E+00  0.91989429063E+02  0.91989429063E+02  0.00000000000E+00 0. -1.
         21   -1    0    0  501  502  0.00000000000E+00 -0.00000000000E+00 -0.44811185573E+03  0.44811185573E+03  0.00000000000E+00 0. -1.
         24    2    1    2    0    0 -0.12089380420E+02  0.27330437047E+02 -0.40326496191E+02  0.95853155000E+02  0.81660854271E+02 0.  0.
         23    2    1    2    0    0  0.11865432722E+03  0.72475967634E+02 -0.15842157404E+03  0.22957606742E+03  0.90973404656E+02 0.  0.
        -13    1    3    3    0    0 -0.13682623974E+01 -0.20161327793E+02 -0.42561421667E+02  0.47115028332E+02  0.00000000000E+00 0.  1.
         14    1    3    3    0    0 -0.10721118023E+02  0.47491764840E+02  0.22349254759E+01  0.48738126669E+02  0.00000000000E+00 0. -1.
        -11    1    4    4    0    0  0.31405152773E+02 -0.15582556489E+02 -0.10535925206E+02  0.36607450162E+02  0.00000000000E+00 0.  1.
         11    1    4    4    0    0  0.87249174450E+02  0.88058524123E+02 -0.14788564884E+03  0.19296861725E+03  0.00000000000E+00 0. -1.
          1    1    1    2  501    0 -0.10656494680E+03 -0.99806404681E+02 -0.15737435643E+03  0.21467206238E+03  0.00000000000E+00 0. -1.
<scales pt_clust_5="13000.00000" pt_clust_6="13000.00000" pt_clust_7="13000.00000" pt_clust_8="13000.00000" pt_clust_9="13000.00000"></scales>
<clustering>
<clus scale="   81.661">  5  6 -1 -1</clus>
<clus scale="   86.957">  1  5  2 -1</clus>
<clus scale="   90.973">  7  8 -1 -1</clus>
<clus scale="  142.165">  7  9 -1 -1</clus>
<clus scale="  312.457">  2  5  1 -1</clus>
</clustering>
</event>
<event>
 9    2  0.3707658E-005  0.2168213E+03  0.7546771E-02  0.1176664E+00
         21   -1    0    0  501  502  0.00000000000E+00  0.00000000000E+00  0.26107506347E+02  0.26107506347E+02  0.00000000000E+00 0. -1.
          2   -1    0    0  502    0 -0.00000000000E+00 -0.00000000000E+00 -0.10032808730E+04  0.10032808730E+04  0.00000000000E+00 0. -1.
         24    2    1    2    0    0 -0.30023558857E+02 -0.42618801300E+01 -0.47512171144E+03  0.48251787287E+03  0.78506555471E+02 0.  0.
         23    2    1    2    0    0 -0.43887468146E+01 -0.72393780848E+02 -0.18929449242E+03  0.22302279532E+03  0.92987320470E+02 0.  0.
        -13    1    3    3    0    0  0.17603300679E+02 -0.11559122646E+02 -0.44752055765E+02  0.49459437991E+02  0.00000000000E+00 0.  1.
         14    1    3    3    0    0 -0.47626859536E+02  0.72972425163E+01 -0.43036965568E+03  0.43305843488E+03  0.00000000000E+00 0. -1.
        -13    1    4    4    0    0  0.37767332525E+02 -0.60455558374E+02 -0.92548818165E+02  0.11681836195E+03  0.00000000000E+00 0. -1.
         13    1    4    4    0    0 -0.42156079340E+02 -0.11938222474E+02 -0.96745674256E+02  0.10620443337E+03  0.00000000000E+00 0.  1.
          1    1    1    2  501    0  0.34412305672E+02  0.76655660978E+02 -0.31275716283E+03  0.32384771119E+03  0.00000000000E+00 0. -1.
<scales pt_clust_5="13000.00000" pt_clust_6="13000.00000" pt_clust_7="13000.00000" pt_clust_8="13000.00000" pt_clust_9="13000.00000"></scales>
<clustering>
<clus scale="   78.507">  5  6 -1 -1</clus>
<clus scale="   84.160">  2  5  1 -1</clus>
<clus scale="   92.987">  7  8 -1 -1</clus>
<clus scale="   75.818">  7  9 -1 -1</clus>
<clus scale="  216.821">  1  5  2 -1</clus>
</clustering>
</event>
<event>
 9    2  0.3707658E-005  0.2041592E+03  0.7546771E-02  0.1183675E+00
          2   -1    0    0  502    0 -0.00000000000E+00  0.00000000000E+00  0.41406677115E+03  0.41406677115E+03  0.00000000000E+00 0. -1.
         21   -1    0    0  501  502  0.00000000000E+00 -0.00000000000E+00 -0.55328769606E+02  0.55328769606E+02  0.00000000000E+00 0. -1.
         24    2    1    2    0    0 -0.28448613651E+02 -0.73835494276E+01  0.50968102838E+02  0.10006736040E+03  0.80943737809E+02 0.  0.
         23    2    1    2    0    0  0.76304952834E+02  0.54694750338E+02  0.15762242385E+03  0.20478990779E+03  0.90995144328E+02 0.  0.
        -11    1    3    3    0    0  0.57637886825E+00 -0.41121031264E+02  0.29787414483E+02  0.50779538068E+02  0.00000000000E+00 0.  1.
         12    1    3    3    0    0 -0.29024992520E+02  0.33737481836E+02  0.21180688355E+02  0.49287822336E+02  0.00000000000E+00 0. -1.
        -11    1    4    4    0    0  0.57120757212E+02  0.12628441560E+02  0.23712657430E+02  0.63123280675E+02  0.00000000000E+00 0.  1.
         11    1    4    4    0    0  0.19184195622E+02  0.42066308778E+02  0.13390976642E+03  0.14166662712E+03  0.00000000000E+00 0. -1.
          1    1    1    2  501    0 -0.47856339183E+02 -0.47311200911E+02  0.15014747485E+03  0.16453827256E+03  0.00000000000E+00 0. -1.
<scales pt_clust_5="13000.00000" pt_clust_6="13000.00000" pt_clust_7="13000.00000" pt_clust_8="13000.00000" pt_clust_9="13000.00000"></scales>
<clustering>
<clus scale="   80.944">  5  6 -1 -1</clus>
<clus scale="   86.115">  1  5  2 -1</clus>
<clus scale="   90.995">  7  8 -1 -1</clus>
<clus scale="   79.406">  7  9 -1 -1</clus>
<clus scale="  204.159">  2  5  1 -1</clus>
</clustering>
</event>
<event>
 9    2  0.3707658E-005  0.2844506E+03  0.7546771E-02  0.1121532E+00
          2   -1    0    0  502    0 -0.00000000000E+00  0.00000000000E+00  0.10726631414E+04  0.10726631414E+04  0.00000000000E+00 0. -1.
         21   -1    0    0  501  502  0.00000000000E+00 -0.00000000000E+00 -0.54763877552E+02  0.54763877552E+02  0.00000000000E+00 0. -1.
         24    2    1    2    0    0  0.97854140396E+02  0.55015832869E+02  0.63843952949E+03  0.65318883085E+03  0.80302187216E+02 0.  0.
         23    2    1    2    0    0  0.24461273181E+02 -0.11314061772E+02  0.24595067263E+02  0.96349531022E+02  0.89173723232E+02 0.  0.
        -11    1    3    3    0    0  0.38952763448E+02 -0.19074127074E+02  0.20202816724E+03  0.20663136369E+03  0.00000000000E+00 0.  1.
         12    1    3    3    0    0  0.58901376948E+02  0.74089959943E+02  0.43641136225E+03  0.44655746715E+03  0.00000000000E+00 0. -1.
        -11    1    4    4    0    0  0.35650198273E+02  0.11963530111E+02 -0.21642800528E+02  0.43387480963E+02  0.00000000000E+00 0. -1.
         11    1    4    4    0    0 -0.11188925091E+02 -0.23277591883E+02  0.46237867792E+02  0.52962050059E+02  0.00000000000E+00 0.  1.
          1    1    1    2  501    0 -0.12231541358E+03 -0.43701771097E+02  0.35486466706E+03  0.37788865704E+03  0.00000000000E+00 0. -1.
<scales pt_clust_5="13000.00000" pt_clust_6="13000.00000" pt_clust_7="13000.00000" pt_clust_8="13000.00000" pt_clust_9="13000.00000"></scales>
<clustering>
<clus scale="   80.302">  5  6 -1 -1</clus>
<clus scale="   89.174">  7  8 -1 -1</clus>
<clus scale="  129.888">  7  9 -1 -1</clus>
<clus scale="  138.024">  1  5  2 -1</clus>
<clus scale="  284.451">  2  5  1 -1</clus>
</clustering>
</event>
<event>
 9    2  0.3707658E-005  0.2521277E+03  0.7546771E-02  0.1156980E+00
         21   -1    0    0  501  502  0.00000000000E+00  0.00000000000E+00  0.84029746905E+02  0.84029746905E+02  0.00000000000E+00 0. -1.
          2   -1    0    0  502    0 -0.00000000000E+00 -0.00000000000E+00 -0.54724715083E+03  0.54724715083E+03  0.00000000000E+00 0. -1.
         24    2    1    2    0    0 -0.16038516457E+02  0.21530687136E+02 -0.34072431964E+03  0.35096825841E+03  0.79780022073E+02 0.  0.
         23    2    1    2    0    0  0.11043863933E+02 -0.11963193127E+03 -0.88046609186E+02  0.17621560256E+03  0.94159265539E+02 0.  0.
        -11    1    3    3    0    0 -0.59769174633E+01 -0.30318858702E+02 -0.14388626356E+03  0.14716729792E+03  0.00000000000E+00 0.  1.
         12    1    3    3    0    0 -0.10061598993E+02  0.51849545838E+02 -0.19683805607E+03  0.20380096049E+03  0.00000000000E+00 0. -1.
        -13    1    4    4    0    0 -0.21314006660E+02 -0.68674750182E+02 -0.90759318489E+02  0.11579189128E+03  0.00000000000E+00 0.  1.
         13    1    4    4    0    0  0.32357870594E+02 -0.50957181091E+02  0.27127093023E+01  0.60423711288E+02  0.00000000000E+00 0. -1.
          1    1    1    2  501    0  0.49946525233E+01  0.98101244137E+02 -0.34446475102E+02  0.10409303676E+03  0.00000000000E+00 0. -1.
<scales pt_clust_5="13000.00000" pt_clust_6="13000.00000" pt_clust_7="13000.00000" pt_clust_8="13000.00000" pt_clust_9="13000.00000"></scales>
<clustering>
<clus scale="   79.780">  5  6 -1 -1</clus>
<clus scale="   84.176">  2  5  1 -1</clus>
<clus scale="   94.159">  7  8 -1 -1</clus>
<clus scale="  105.508">  7  9 -1 -1</clus>
<clus scale="  252.128">  1  5  2 -1</clus>
</clustering>
</event>
<event>
 9    2  0.3707658E-005  0.5516745E+03  0.7546771E-02  0.1062940E+00
         21   -1    0    0  501  502  0.00000000000E+00  0.00000000000E+00  0.15679933371E+03  0.15679933371E+03  0.00000000000E+00 0. -1.
          2   -1    0    0  502    0 -0.00000000000E+00 -0.00000000000E+00 -0.66865851617E+03  0.66865851617E+03  0.00000000000E+00 0. -1.
         24    2    1    2    0    0 -0.29510016305E+02 -0.22509976524E+02 -0.31645168502E+02  0.94054924364E+02  0.80419972657E+02 0.  0.
         23    2    1    2    0    0 -0.24286209525E+03  0.68688904497E+02 -0.17945579640E+03  0.32302250732E+03  0.91863999822E+02 0.  0.
        -13    1    3    3    0    0 -0.19665641332E+02 -0.37481338234E+02 -0.51926589572E+02  0.66992229918E+02  0.00000000000E+00 0.  1.
         14    1    3    3    0    0 -0.98443749731E+01  0.14971361710E+02  0.20281421070E+02  0.27062694446E+02  0.00000000000E+00 0. -1.
        -11    1    4    4    0    0 -0.21496725566E+02  0.34514141967E+02 -0.92419007360E+01  0.41698296548E+02  0.00000000000E+00 0.  1.
         11    1    4    4    0    0 -0.22136536969E+03  0.34174762530E+02 -0.17021389566E+03  0.28132421077E+03  0.00000000000E+00 0. -1.
          1    1    1    2  501    0  0.27237211156E+03 -0.46178927974E+02 -0.30075821756E+03  0.40838041820E+03  0.00000000000E+00 0. -1.
<scales pt_clust_5="13000.00000" pt_clust_6="13000.00000" pt_clust_7="13000.00000" pt_clust_8="13000.00000" pt_clust_9="13000.00000"></scales>
<clustering>
<clus scale="   80.420">  5  6 -1 -1</clus>
<clus scale="   88.572">  2  5  1 -1</clus>
<clus scale="   91.864">  7  8 -1 -1</clus>
<clus scale="  261.914">  7  9 -1 -1</clus>
<clus scale="  551.674">  1  5  2 -1</clus>
</clustering>
</event>
<event>
 9    2  0.3707658E-005  0.1006905E+04  0.7546771E-02  0.9588202E-01
         21   -1    0    0  501  502  0.00000000000E+00  0.00000000000E+00  0.95825165622E+03  0.95825165622E+03  0.00000000000E+00 0. -1.
          2   -1    0    0  502    0 -0.00000000000E+00 -0.00000000000E+00 -0.51107930340E+03  0.51107930340E+03  0.00000000000E+00 0. -1.
         24    2    1    2    0    0  0.95378091887E+02 -0.34467044013E+03 -0.82797682789E+01  0.36420901711E+03  0.68446773969E+02 0.  0.
         23    2    1    2    0    0 -0.44809334534E+03  0.10150554350E+03 -0.15190332827E+02  0.46869320619E+03  0.91386836150E+02 0.  0.
        -13    1    3    3    0    0 -0.74493860783E+01 -0.47237631563E+02  0.10436976521E+02  0.48947090491E+02  0.00000000000E+00 0.  1.
         14    1    3    3    0    0  0.10282747797E+03 -0.29743280857E+03 -0.18716744800E+02  0.31526192662E+03  0.00000000000E+00 0. -1.
        -11    1    4    4    0    0 -0.12710006288E+02  0.22197416207E+02 -0.47901574050E+01  0.26023357856E+02  0.00000000000E+00 0.  1.
         11    1    4    4    0    0 -0.43538333905E+03  0.79308127290E+02 -0.10400175422E+02  0.44266984834E+03  0.00000000000E+00 0. -1.
          1    1    1    2  501    0  0.35271525345E+03  0.24316489663E+03  0.47064245393E+03  0.63642873632E+03  0.00000000000E+00 0. -1.
<scales pt_clust_5="13000.00000" pt_clust_6="13000.00000" pt_clust_7="13000.00000" pt_clust_8="13000.00000" pt_clust_9="13000.00000"></scales>
<clustering>
<clus scale="   68.447">  5  6 -1 -1</clus>
<clus scale="   91.387">  7  8 -1 -1</clus>
<clus scale="  364.115">  2  5  1 -1</clus>
<clus scale="  407.750">  7  9 -1 -1</clus>
<clus scale=" 1006.905">  1  5  2 -1</clus>
</clustering>
</event>
<event>
 9    2  0.3707658E-005  0.4618496E+03  0.7546771E-02  0.1069518E+00
          2   -1    0    0  502    0 -0.00000000000E+00  0.00000000000E+00  0.91855456890E+03  0.91855456890E+03  0.00000000000E+00 0. -1.
         21   -1    0    0  501  502  0.00000000000E+00 -0.00000000000E+00 -0.11797995149E+03  0.11797995149E+03  0.00000000000E+00 0. -1.
         24    2    1    2    0    0 -0.86768250859E+02  0.42546494824E+02  0.41886741723E+03  0.43736392395E+03  0.80612376096E+02 0.  0.
         23    2    1    2    0    0 -0.49836487188E+02  0.51072433394E+02  0.41542601838E+03  0.43016670039E+03  0.85863522356E+02 0.  0.
        -11    1    3    3    0    0 -0.30780854694E+02  0.57898251752E+02  0.26254935965E+03  0.27061381122E+03  0.00000000000E+00 0.  1.
         12    1    3    3    0    0 -0.55987396165E+02 -0.15351756929E+02  0.15631805758E+03  0.16675011273E+03  0.00000000000E+00 0. -1.
        -11    1    4    4    0    0 -0.71498987250E+02  0.21411377290E+02  0.26375264735E+03  0.27410948768E+03  0.00000000000E+00 0.  1.
         11    1    4    4    0    0  0.21662500062E+02  0.29661056105E+02  0.15167337104E+03  0.15605721271E+03  0.00000000000E+00 0. -1.
          1    1    1    2  501    0  0.13660473805E+03 -0.93618928218E+02 -0.33718818194E+02  0.16900389604E+03  0.00000000000E+00 0. -1.
<scales pt_clust_5="13000.00000" pt_clust_6="13000.00000" pt_clust_7="13000.00000" pt_clust_8="13000.00000" pt_clust_9="13000.00000"></scales>
<clustering>
<clus scale="   80.612">  5  6 -1 -1</clus>
<clus scale="   85.864">  7  8 -1 -1</clus>
<clus scale="  125.846">  1  5  2 -1</clus>
<clus scale="  152.429">  7  9 -1 -1</clus>
<clus scale="  461.850">  2  5  1 -1</clus>
</clustering>
</event>
<event>
 9    2  0.3707658E-005  0.2788278E+03  0.7546771E-02  0.1117669E+00
         21   -1    0    0  501  502  0.00000000000E+00  0.00000000000E+00  0.75463716234E+02  0.75463716234E+02  0.00000000000E+00 0. -1.
          2   -1    0    0  502    0 -0.00000000000E+00 -0.00000000000E+00 -0.65977235699E+03  0.65977235699E+03  0.00000000000E+00 0. -1.
         24    2    1    2    0    0 -0.81318588367E+02 -0.11436802566E+03 -0.27438725465E+03  0.31834734048E+03  0.79774090832E+02 0.  0.
         23    2    1    2    0    0  0.99913587526E+02 -0.22294840145E+02 -0.11964496606E+03  0.18188313938E+03  0.91031717654E+02 0.  0.
        -11    1    3    3    0    0 -0.33572029440E+02 -0.75506587764E+02 -0.82259266358E+02  0.11659722492E+03  0.00000000000E+00 0.  1.
         12    1    3    3    0    0 -0.47746558927E+02 -0.38861437901E+02 -0.19212798829E+03  0.20175011556E+03  0.00000000000E+00 0. -1.
        -11    1    4    4    0    0  0.10360923713E+03  0.83177612441E+01 -0.10500201682E+03  0.14774803792E+03  0.00000000000E+00 0. -1.
         11    1    4    4    0    0 -0.36956496052E+01 -0.30612601389E+02 -0.14642949236E+02  0.34135101467E+02  0.00000000000E+00 0.  1.
          1    1    1    2  501    0 -0.18594999160E+02  0.13666286581E+03 -0.19027642005E+03  0.23500559336E+03  0.00000000000E+00 0. -1.
<scales pt_clust_5="13000.00000" pt_clust_6="13000.00000" pt_clust_7="13000.00000" pt_clust_8="13000.00000" pt_clust_9="13000.00000"></scales>
<clustering>
<clus scale="   79.774">  5  6 -1 -1</clus>
<clus scale="   91.032">  7  8 -1 -1</clus>
<clus scale="  137.922">  7  9 -1 -1</clus>
<clus scale="  161.421">  2  5  1 -1</clus>
<clus scale="  278.828">  1  5  2 -1</clus>
</clustering>
</event>
<event>
 9    2  0.3707658E-005  0.3973261E+03  0.7546771E-02  0.1067377E+00
         21   -1    0    0  501  502  0.00000000000E+00  0.00000000000E+00  0.10873887955E+03  0.10873887955E+03  0.00000000000E+00 0. -1.
          2   -1    0    0  502    0 -0.00000000000E+00 -0.00000000000E+00 -0.85640122022E+03  0.85640122022E+03  0.00000000000E+00 0. -1.
         24    2    1    2    0    0  0.68012791925E+02 -0.18107644350E+03 -0.21150380473E+03  0.29780658228E+03  0.80873251326E+02 0.  0.
         23    2    1    2    0    0 -0.11447287318E+03  0.69526509043E+02 -0.60416614082E+02  0.17648496320E+03  0.97769119991E+02 0.  0.
        -13    1    3    3    0    0  0.49983522427E+02 -0.17716448384E+03 -0.21005588203E+03  0.27930105697E+03  0.00000000000E+00 0.  1.
         14    1    3    3    0    0  0.18029269498E+02 -0.39119596616E+01 -0.14479226986E+01  0.18505525315E+02  0.00000000000E+00 0. -1.
        -11    1    4    4    0    0 -0.10016025470E+02 -0.22583277889E+02 -0.19071802605E+02  0.31209916069E+02  0.00000000000E+00 0.  1.
         11    1    4    4    0    0 -0.10445684771E+03  0.92109786932E+02 -0.41344811477E+02  0.14527504713E+03  0.00000000000E+00 0. -1.
          1    1    1    2  501    0  0.46460081253E+02  0.11154993446E+03 -0.47574192186E+03  0.49084855429E+03  0.00000000000E+00 0. -1.
<scales pt_clust_5="13000.00000" pt_clust_6="13000.00000" pt_clust_7="13000.00000" pt_clust_8="13000.00000" pt_clust_9="13000.00000"></scales>
<clustering>
<clus scale="   80.873">  5  6 -1 -1</clus>
<clus scale="   97.769">  7  8 -1 -1</clus>
<clus scale="  120.838">  7  9 -1 -1</clus>
<clus scale="  209.654">  2  5  1 -1</clus>
<clus scale="  397.326">  1  5  2 -1</clus>
</clustering>
</event>
<event>
 9    2  0.3707658E-005  0.1631725E+03  0.7546771E-02  0.1213796E+00
          2   -1    0    0  502    0 -0.00000000000E+00  0.00000000000E+00  0.28284196870E+03  0.28284196870E+03  0.00000000000E+00 0. -1.
         21   -1    0    0  501  502  0.00000000000E+00 -0.00000000000E+00 -0.41454797310E+03  0.41454797310E+03  0.00000000000E+00 0. -1.
         24    2    1    2    0    0 -0.80926136654E+01 -0.84710025307E+00  0.25931096057E+03  0.27369247770E+03  0.87173333679E+02 0.  0.
         23    2    1    2    0    0 -0.47867333022E+02  0.42935124220E+02 -0.23891426799E+03  0.25625150917E+03  0.66709085131E+02 0.  0.
        -13    1    3    3    0    0  0.36621997837E+02  0.50083545913E+01  0.70863873357E+02  0.79924607528E+02  0.00000000000E+00 0.  1.
         14    1    3    3    0    0 -0.44714611503E+02 -0.58554548444E+01  0.18844708721E+03  0.19376787017E+03  0.00000000000E+00 0. -1.
        -13    1    4    4    0    0 -0.37465406678E+02 -0.98971766524E+01 -0.10444200338E+03  0.11139902546E+03  0.00000000000E+00 0.  1.
         13    1    4    4    0    0 -0.10401926344E+02  0.52832300873E+02 -0.13447226461E+03  0.14485248371E+03  0.00000000000E+00 0. -1.
          1    1    1    2  501    0  0.55959946687E+02 -0.42088023967E+02 -0.15210269697E+03  0.16744595492E+03  0.00000000000E+00 0. -1.
<scales pt_clust_5="13000.00000" pt_clust_6="13000.00000" pt_clust_7="13000.00000" pt_clust_8="13000.00000" pt_clust_9="13000.00000"></scales>
<clustering>
<clus scale="   66.709">  7  8 -1 -1</clus>
<clus scale="   70.021">  7  9 -1 -1</clus>
<clus scale="   87.173">  5  6 -1 -1</clus>
<clus scale="   87.552">  1  5  2 -1</clus>
<clus scale="  163.173">  2  5  1 -1</clus>
</clustering>
</event>
<event>
 9    2  0.3707658E-005  0.2215232E+03  0.7546771E-02  0.1164775E+00
          2   -1    0    0  502    0 -0.00000000000E+00  0.00000000000E+00  0.47835669970E+03  0.47835669970E+03  0.00000000000E+00 0. -1.
         21   -1    0    0  501  502  0.00000000000E+00 -0.00000000000E+00 -0.55699161091E+02  0.55699161091E+02  0.00000000000E+00 0.  1.
         24    2    1    2    0    0 -0.53090492004E+02  0.38467638847E+02  0.11226886572E+03  0.15272441715E+03  0.80137942342E+02 0.  0.
         23    2    1    2    0    0 -0.52811420745E+02  0.77685218298E+01  0.13047660931E+03  0.16750593465E+03  0.90469312321E+02 0.  0.
        -11    1    3    3    0    0 -0.88206518483E+01 -0.24770749361E+02  0.26460842675E+02  0.37303754743E+02  0.00000000000E+00 0.  1.
         12    1    3    3    0    0 -0.44269840156E+02  0.63238388208E+02  0.85808023045E+02  0.11542066240E+03  0.00000000000E+00 0. -1.
        -13    1    4    4    0    0 -0.16939780640E+02  0.46653331293E+02  0.81432158071E+02  0.95366062397E+02  0.00000000000E+00 0.  1.
         13    1    4    4    0    0 -0.35871640105E+02 -0.38884809463E+02  0.49044451243E+02  0.72139872252E+02  0.00000000000E+00 0. -1.
          1    1    1    2  501    0  0.10590191275E+03 -0.46236160677E+02  0.17991206357E+03  0.21382550900E+03  0.00000000000E+00 0. -1.
<scales pt_clust_5="13000.00000" pt_clust_6="13000.00000" pt_clust_7="13000.00000" pt_clust_8="13000.00000" pt_clust_9="13000.00000"></scales>
<clustering>
<clus scale="   80.138">  5  6 -1 -1</clus>
<clus scale="   90.469">  7  8 -1 -1</clus>
<clus scale="  103.540">  1  5  2 -1</clus>
<clus scale="   79.500">  7  9 -1 -1</clus>
<clus scale="  221.523">  2  5  1 -1</clus>
</clustering>
</event>
<event>
 9    2  0.3707658E-005  0.1788896E+03  0.7546771E-02  0.1192959E+00
          2   -1    0    0  502    0 -0.00000000000E+00  0.00000000000E+00  0.64905121634E+03  0.64905121634E+03  0.00000000000E+00 0. -1.
         21   -1    0    0  501  502  0.00000000000E+00 -0.00000000000E+00 -0.59400461123E+02  0.59400461123E+02  0.00000000000E+00 0.  1.
         24    2    1    2    0    0  0.55017723999E+02  0.34888779091E+02  0.49542186021E+03  0.50626219196E+03  0.81329026615E+02 0.  0.
         23    2    1    2    0    0 -0.41669097032E+02 -0.75337147741E+02  0.97986805330E+02  0.15942994554E+03  0.91676027605E+02 0.  0.
        -11    1    3    3    0    0  0.29640215753E+02 -0.20194299505E+02  0.10044376782E+03  0.10665506371E+03  0.00000000000E+00 0.  1.
         12    1    3    3    0    0  0.25377508246E+02  0.55083078596E+02  0.39497809239E+03  0.39960712824E+03  0.00000000000E+00 0. -1.
        -13    1    4    4    0    0  0.19908420441E+02  0.63315507492E+01  0.30210975052E+02  0.36730596959E+02  0.00000000000E+00 0. -1.
         13    1    4    4    0    0 -0.61577517473E+02 -0.81668698490E+02  0.67775830278E+02  0.12269934858E+03  0.00000000000E+00 0.  1.
          1    1    1    2  501    0 -0.13348626966E+02  0.40448368650E+02 -0.37579103255E+01  0.42759539969E+02  0.00000000000E+00 0. -1.
<scales pt_clust_5="13000.00000" pt_clust_6="13000.00000" pt_clust_7="13000.00000" pt_clust_8="13000.00000" pt_clust_9="13000.00000"></scales>
<clustering>
<clus scale="   81.329">  5  6 -1 -1</clus>
<clus scale="   91.676">  7  8 -1 -1</clus>
<clus scale="   42.594">  7  9 -1 -1</clus>
<clus scale="  104.205">  1  5  2 -1</clus>
<clus scale="  178.890">  2  5  1 -1</clus>
</clustering>
</event>
<event>
 9    2  0.3707658E-005  0.6137216E+03  0.7546771E-02  0.1035756E+00
         21   -1    0    0  501  502  0.00000000000E+00  0.00000000000E+00  0.11602909418E+03  0.11602909418E+03  0.00000000000E+00 0.  1.
          2   -1    0    0  502    0 -0.00000000000E+00 -0.00000000000E+00 -0.14203255895E+04  0.14203255895E+04  0.00000000000E+00 0. -1.
         24    2    1    2    0    0 -0.11156990356E+03 -0.59006400616E+01 -0.66753872595E+02  0.15499089208E+03  0.84163152192E+02 0.  0.
         23    2    1    2    0    0 -0.20164100844E+02 -0.17300278026E+03 -0.95801792862E+02  0.21820756637E+03  0.90000030914E+02 0.  0.
        -13    1    3    3    0    0 -0.81360283691E+02  0.27660210376E+02 -0.16631396901E+02  0.87528203244E+02  0.00000000000E+00 0.  1.
         14    1    3    3    0    0 -0.30209619867E+02 -0.33560850438E+02 -0.50122475694E+02  0.67462688831E+02  0.00000000000E+00 0. -1.
        -11    1    4    4    0    0  0.10909499481E+02 -0.74713613531E+02  0.28015073395E+01  0.75557856436E+02  0.00000000000E+00 0.  1.
         11    1    4    4    0    0 -0.31073600325E+02 -0.98289166730E+02 -0.98603300201E+02  0.14264970993E+03  0.00000000000E+00 0. -1.
          1    1    1    2  501    0  0.13173400440E+03  0.17890342032E+03 -0.11417408299E+04  0.11631562253E+04  0.00000000000E+00 0. -1.
<scales pt_clust_5="13000.00000" pt_clust_6="13000.00000" pt_clust_7="13000.00000" pt_clust_8="13000.00000" pt_clust_9="13000.00000"></scales>
<clustering>
<clus scale="   84.163">  5  6 -1 -1</clus>
<clus scale="   90.000">  7  8 -1 -1</clus>
<clus scale="  139.879">  2  5  1 -1</clus>
<clus scale="  176.919">  7  9 -1 -1</clus>
<clus scale="  613.722">  1  5  2 -1</clus>
</clustering>
</event>
<event>
 9    2  0.3707658E-005  0.1620924E+03  0.7546771E-02  0.1215815E+00
          2   -1    0    0  502    0 -0.00000000000E+00  0.00000000000E+00  0.55064168217E+03  0.55064168217E+03  0.00000000000E+00 0. -1.
         21   -1    0    0  501  502  0.00000000000E+00 -0.00000000000E+00 -0.38375717799E+02  0.38375717799E+02  0.00000000000E+00 0.  1.
         24    2    1    2    0    0  0.28797981605E+01 -0.28418902687E+02  0.49898870738E+02  0.99061013271E+02  0.80667588175E+02 0.  0.
         23    2    1    2    0    0 -0.96615507290E+01 -0.31634505479E+02  0.21425202003E+03  0.23458705857E+03  0.89627409099E+02 0.  0.
        -11    1    3    3    0    0  0.39885094668E+02 -0.15380596133E+02  0.11741728859E+02  0.44331159591E+02  0.00000000000E+00 0.  1.
         12    1    3    3    0    0 -0.37005296508E+02 -0.13038306555E+02  0.38157141880E+02  0.54729853680E+02  0.00000000000E+00 0. -1.
        -11    1    4    4    0    0  0.31067502869E+02 -0.58564453954E+00  0.14592677078E+03  0.14919837514E+03  0.00000000000E+00 0. -1.
         11    1    4    4    0    0 -0.40729053598E+02 -0.31048860940E+02  0.68325249249E+02  0.85388683428E+02  0.00000000000E+00 0.  1.
          1    1    1    2  501    0  0.67817525686E+01  0.60053408167E+02  0.24811507361E+03  0.25536932813E+03  0.00000000000E+00 0. -1.
<scales pt_clust_5="13000.00000" pt_clust_6="13000.00000" pt_clust_7="13000.00000" pt_clust_8="13000.00000" pt_clust_9="13000.00000"></scales>
<clustering>
<clus scale="   80.668">  5  6 -1 -1</clus>
<clus scale="   85.576">  1  5  2 -1</clus>
<clus scale="   89.627">  7  8 -1 -1</clus>
<clus scale="   45.788">  7  9 -1 -1</clus>
<clus scale="  162.092">  2  5  1 -1</clus>
</clustering>
</event>
<event>
 9    2  0.3707658E-005  0.4667627E+03  0.7546771E-02  0.1073321E+00
         21   -1    0    0  501  502  0.00000000000E+00  0.00000000000E+00  0.75057308352E+02  0.75057308352E+02  0.00000000000E+00 0. -1.
          2   -1    0    0  502    0 -0.00000000000E+00 -0.00000000000E+00 -0.11076982873E+04  0.11076982873E+04  0.00000000000E+00 0. -1.
         24    2    1    2    0    0 -0.65052304102E+02 -0.34526979065E+02 -0.20357291518E+03  0.23132441381E+03  0.81517716338E+02 0.  0.
         23    2    1    2    0    0 -0.27828095194E+02  0.19435002505E+03 -0.20005384723E+03  0.29581768351E+03  0.94552762846E+02 0.  0.
        -11    1    3    3    0    0 -0.62258227159E+02 -0.57320511922E+02 -0.17708933111E+03  0.19627113677E+03  0.00000000000E+00 0.  1.
         12    1    3    3    0    0 -0.27940769428E+01  0.22793532857E+02 -0.26483584075E+02  0.35053277044E+02  0.00000000000E+00 0. -1.
        -11    1    4    4    0    0 -0.45148192675E+02  0.33986675087E+02 -0.56025007547E+02  0.79575466419E+02  0.00000000000E+00 0.  1.
         11    1    4    4    0    0  0.17320097481E+02  0.16036334997E+03 -0.14402883969E+03  0.21624221709E+03  0.00000000000E+00 0. -1.
          1    1    1    2  501    0  0.92880399296E+02 -0.15982304599E+03 -0.62901421657E+03  0.65561349837E+03  0.00000000000E+00 0. -1.
<scales pt_clust_5="13000.00000" pt_clust_6="13000.00000" pt_clust_7="13000.00000" pt_clust_8="13000.00000" pt_clust_9="13000.00000"></scales>
<clustering>
<clus scale="   81.518">  5  6 -1 -1</clus>
<clus scale="   94.553">  7  8 -1 -1</clus>
<clus scale="  109.859">  2  5  1 -1</clus>
<clus scale="  190.362">  7  9 -1 -1</clus>
<clus scale="  466.763">  1  5  2 -1</clus>
</clustering>
</event>
<event>
 9    2  0.3707658E-005  0.2406109E+03  0.7546771E-02  0.1155944E+00
         21   -1    0    0  501  502  0.00000000000E+00  0.00000000000E+00  0.12485245556E+03  0.12485245556E+03  0.00000000000E+00 0. -1.
         -3   -1    0    0    0  501 -0.00000000000E+00 -0.00000000000E+00 -0.25884521873E+03  0.25884521873E+03  0.00000000000E+00 0.  1.
         24    2    1    2    0    0  0.17927727950E+01 -0.58588890555E+02  0.15492130547E+02  0.10043220047E+03  0.80067150887E+02 0.  0.
         23    2    1    2    0    0 -0.75339066456E+01  0.13170585115E+02  0.30400974037E+02  0.97645678263E+02  0.91543624570E+02 0.  0.
        -11    1    3    3    0    0  0.59024709975E+01  0.19763294671E+02  0.10376852923E+01  0.20651967724E+02  0.00000000000E+00 0.  1.
         12    1    3    3    0    0 -0.41096982025E+01 -0.78352185226E+02  0.14454445254E+02  0.79780232744E+02  0.00000000000E+00 0. -1.
        -13    1    4    4    0    0 -0.19672565287E+02  0.48230471274E+02  0.30855112506E+02  0.60541111255E+02  0.00000000000E+00 0.  1.
         13    1    4    4    0    0  0.12138658641E+02 -0.35059886159E+02 -0.45413846838E+00  0.37104567008E+02  0.00000000000E+00 0. -1.
         -4    1    1    2    0  502  0.57411338506E+01  0.45418305440E+02 -0.17988586776E+03  0.18561979557E+03  0.00000000000E+00 0.  1.
<scales pt_clust_5="13000.00000" pt_clust_6="13000.00000" pt_clust_7="13000.00000" pt_clust_8="13000.00000" pt_clust_9="13000.00000"></scales>
<clustering>
<clus scale="   80.067">  5  6 -1 -1</clus>
<clus scale="   91.544">  7  8 -1 -1</clus>
<clus scale="   45.780">  7  9 -1 -1</clus>
<clus scale="   99.230">  2  5  1 -1</clus>
<clus scale="  240.611">  1  5  2 -1</clus>
</clustering>
</event>
<event>
 9    2  0.3707658E-005  0.2030501E+03  0.7546771E-02  0.1184767E+00
          2   -1    0    0  502    0 -0.00000000000E+00  0.00000000000E+00  0.24302522057E+03  0.24302522057E+03  0.00000000000E+00 0. -1.
         21   -1    0    0  501  502  0.00000000000E+00 -0.00000000000E+00 -0.13837985564E+03  0.13837985564E+03  0.00000000000E+00 0.  1.
         24    2    1    2    0    0 -0.26429633601E+02  0.93665109205E+01  0.15067200842E+03  0.17320379137E+03  0.80692268304E+02 0.  0.
         23    2    1    2    0    0  0.80936737802E+01 -0.30304154218E+02 -0.10498248793E+03  0.14300631631E+03  0.91900132830E+02 0.  0.
        -13    1    3    3    0    0  0.25884691418E+02 -0.86585364203E+01  0.30652795092E+02  0.41043651759E+02  0.00000000000E+00 0.  1.
         14    1    3    3    0    0 -0.52314325019E+02  0.18025047341E+02  0.12001921332E+03  0.13216013961E+03  0.00000000000E+00 0. -1.
        -11    1    4    4    0    0 -0.19607272705E+02 -0.16391067303E+02  0.72556925186E+01  0.26566093130E+02  0.00000000000E+00 0. -1.
         11    1    4    4    0    0  0.27700946485E+02 -0.13913086915E+02 -0.11223818045E+03  0.11644022318E+03  0.00000000000E+00 0.  1.
          1    1    1    2  501    0  0.18335959821E+02  0.20937643297E+02  0.58955844436E+02  0.65194968538E+02  0.00000000000E+00 0. -1.
<scales pt_clust_5="13000.00000" pt_clust_6="13000.00000" pt_clust_7="13000.00000" pt_clust_8="13000.00000" pt_clust_9="13000.00000"></scales>
<clustering>
<clus scale="   80.692">  5  6 -1 -1</clus>
<clus scale="   85.425">  1  5  2 -1</clus>
<clus scale="   91.900">  7  8 -1 -1</clus>
<clus scale="   28.172">  7  9 -1 -1</clus>
<clus scale="  203.050">  2  5  1 -1</clus>
</clustering>
</event>
<event>
 9    2  0.3707658E-005  0.1945674E+03  0.7546771E-02  0.1188830E+00
         21   -1    0    0  501  502  0.00000000000E+00  0.00000000000E+00  0.13229103930E+03  0.13229103930E+03  0.00000000000E+00 0. -1.
          4   -1    0    0  502    0 -0.00000000000E+00 -0.00000000000E+00 -0.15421765081E+03  0.15421765081E+03  0.00000000000E+00 0. -1.
         24    2    1    2    0    0  0.24054014844E+02  0.45515557420E+01 -0.24102721784E+02  0.91929153676E+02  0.85268492471E+02 0.  0.
         23    2    1    2    0    0  0.76377009483E+01  0.18460314893E+02  0.70072636784E+02  0.11619682564E+03  0.90511933801E+02 0.  0.
        -11    1    3    3    0    0  0.54982310346E+02  0.65989808155E+01 -0.25360255727E+02  0.60907664290E+02  0.00000000000E+00 0.  1.
         12    1    3    3    0    0 -0.30928295501E+02 -0.20474250736E+01  0.12575339426E+01  0.31021489385E+02  0.00000000000E+00 0. -1.
        -13    1    4    4    0    0  0.34092682457E+02  0.40548848535E+02  0.22750811365E+02  0.57655177846E+02  0.00000000000E+00 0. -1.
         13    1    4    4    0    0 -0.26454981509E+02 -0.22088533642E+02  0.47321825418E+02  0.58541647790E+02  0.00000000000E+00 0.  1.
          3    1    1    2  501    0 -0.31691715793E+02 -0.23011870635E+02 -0.67896526513E+02  0.78382710801E+02  0.00000000000E+00 0. -1.
<scales pt_clust_5="13000.00000" pt_clust_6="13000.00000" pt_clust_7="13000.00000" pt_clust_8="13000.00000" pt_clust_9="13000.00000"></scales>
<clustering>
<clus scale="   85.268">  5  6 -1 -1</clus>
<clus scale="   88.713">  2  5  1 -1</clus>
<clus scale="   90.512">  7  8 -1 -1</clus>
<clus scale="   23.705">  7  9 -1 -1</clus>
<clus scale="  194.567">  1  5  2 -1</clus>
</clustering>
</event>
<event>
 9    2  0.3707658E-005  0.4780582E+03  0.7546771E-02  0.1066162E+00
          2   -1    0    0  502    0 -0.00000000000E+00  0.00000000000E+00  0.43132191608E+03  0.43132191608E+03  0.00000000000E+00 0. -1.
         21   -1    0    0  501  502  0.00000000000E+00 -0.00000000000E+00 -0.21129956613E+03  0.21129956613E+03  0.00000000000E+00 0.  1.
         24    2    1    2    0    0  0.20961892737E+02  0.91908426697E+02  0.28978375065E+02  0.12780363011E+03  0.81286295298E+02 0.  0.
         23    2    1    2    0    0 -0.18626431784E+03  0.12165683919E+02  0.23052567153E+03  0.31553133320E+03  0.10758966974E+03 0.  0.
        -13    1    3    3    0    0 -0.12744986764E+02  0.20778630381E+02 -0.22970798976E+02  0.33493936373E+02  0.00000000000E+00 0.  1.
         14    1    3    3    0    0  0.33706879501E+02  0.71129796316E+02  0.51949174041E+02  0.94309693739E+02  0.00000000000E+00 0. -1.
        -13    1    4    4    0    0 -0.58467664482E+02  0.42828204184E+02  0.36401506959E+02  0.81103591613E+02  0.00000000000E+00 0. -1.
         13    1    4    4    0    0 -0.12779665336E+03 -0.30662520265E+02  0.19412416457E+03  0.23442774159E+03  0.00000000000E+00 0.  1.
          1    1    1    2  501    0  0.16530242510E+03 -0.10407411062E+03 -0.39481696648E+02  0.19928651890E+03  0.00000000000E+00 0. -1.
<scales pt_clust_5="13000.00000" pt_clust_6="13000.00000" pt_clust_7="13000.00000" pt_clust_8="13000.00000" pt_clust_9="13000.00000"></scales>
<clustering>
<clus scale="   81.286">  5  6 -1 -1</clus>
<clus scale="  107.590">  7  8 -1 -1</clus>
<clus scale="  124.475">  1  5  2 -1</clus>
<clus scale="  189.340">  7  9 -1 -1</clus>
<clus scale="  478.058">  2  5  1 -1</clus>
</clustering>
</event>
<event>
 9    2  0.3707658E-005  0.5123937E+03  0.7546771E-02  0.1052180E+00
         21   -1    0    0  501  502  0.00000000000E+00  0.00000000000E+00  0.66466342545E+03  0.66466342545E+03  0.00000000000E+00 0. -1.
          2   -1    0    0  502    0 -0.00000000000E+00 -0.00000000000E+00 -0.25330191792E+03  0.25330191792E+03  0.00000000000E+00 0. -1.
         24    2    1    2    0    0 -0.22612714721E+02 -0.12328494536E+03 -0.11097633118E+03  0.18626585847E+03  0.81662178086E+02 0.  0.
         23    2    1    2    0    0  0.16087133427E+03 -0.90894908135E+02  0.39717959070E+03  0.44770469170E+03  0.92446704547E+02 0.  0.
        -13    1    3    3    0    0  0.16535610747E+02 -0.59147998567E+02 -0.12971873304E+02  0.62770866286E+02  0.00000000000E+00 0.  1.
         14    1    3    3    0    0 -0.39148325467E+02 -0.64136946790E+02 -0.98004457875E+02  0.12349499218E+03  0.00000000000E+00 0. -1.
        -13    1    4    4    0    0  0.54599798671E+02 -0.67863327054E+02  0.10793551221E+03  0.13869622911E+03  0.00000000000E+00 0.  1.
         13    1    4    4    0    0  0.10627153560E+03 -0.23031581081E+02  0.28924407850E+03  0.30900846259E+03  0.00000000000E+00 0. -1.
          1    1    1    2  501    0 -0.13825861955E+03  0.21417985349E+03  0.12515824801E+03  0.28399479320E+03  0.00000000000E+00 0. -1.
<scales pt_clust_5="13000.00000" pt_clust_6="13000.00000" pt_clust_7="13000.00000" pt_clust_8="13000.00000" pt_clust_9="13000.00000"></scales>
<clustering>
<clus scale="   81.662">  5  6 -1 -1</clus>
<clus scale="   92.447">  7  8 -1 -1</clus>
<clus scale="  149.597">  2  5  1 -1</clus>
<clus scale="  196.747">  7  9 -1 -1</clus>
<clus scale="  512.394">  1  5  2 -1</clus>
</clustering>
</event>
<event>
 9    2  0.3707658E-005  0.2591690E+03  0.7546771E-02  0.1153661E+00
          2   -1    0    0  502    0 -0.00000000000E+00  0.00000000000E+00  0.41793515807E+03  0.41793515807E+03  0.00000000000E+00 0. -1.
         21   -1    0    0  501  502  0.00000000000E+00 -0.00000000000E+00 -0.71556178290E+02  0.71556178290E+02  0.00000000000E+00 0. -1.
         24    2    1    2    0    0 -0.46353787944E+01  0.23917336495E+02  0.11344959268E+03  0.14103092313E+03  0.80158502217E+02 0.  0.
         23    2    1    2    0    0 -0.10881443434E+03 -0.68430856004E+01  0.14254137353E+03  0.20240431736E+03  0.93605852274E+02 0.  0.
        -11    1    3    3    0    0  0.28216356945E+02  0.12053938313E+02  0.98266508500E+02  0.10294545605E+03  0.00000000000E+00 0.  1.
         12    1    3    3    0    0 -0.32851735739E+02  0.11863398182E+02  0.15183084178E+02  0.38085467079E+02  0.00000000000E+00 0. -1.
        -13    1    4    4    0    0  0.66023747060E+01 -0.25252906293E+02  0.34328072709E+02  0.43124438593E+02  0.00000000000E+00 0. -1.
         13    1    4    4    0    0 -0.11541680904E+03  0.18409820693E+02  0.10821330082E+03  0.15927987877E+03  0.00000000000E+00 0.  1.
          1    1    1    2  501    0  0.11344981313E+03 -0.17074250895E+02  0.90388013579E+02  0.14605609587E+03  0.00000000000E+00 0. -1.
<scales pt_clust_5="13000.00000" pt_clust_6="13000.00000" pt_clust_7="13000.00000" pt_clust_8="13000.00000" pt_clust_9="13000.00000"></scales>
<clustering>
<clus scale="   80.159">  5  6 -1 -1</clus>
<clus scale="   83.779">  1  5  2 -1</clus>
<clus scale="   93.606">  7  8 -1 -1</clus>
<clus scale="  111.806">  7  9 -1 -1</clus>
<clus scale="  259.169">  2  5  1 -1</clus>
</clustering>
</event>
<event>
 9    2  0.3707658E-005  0.3875772E+03  0.7546771E-02  0.1105438E+00
         21   -1    0    0  501  502  0.00000000000E+00  0.00000000000E+00  0.13658597171E+03  0.13658597171E+03  0.00000000000E+00 0. -1.
          4   -1    0    0  502    0 -0.00000000000E+00 -0.00000000000E+00 -0.40501617407E+03  0.40501617407E+03  0.00000000000E+00 0. -1.
         24    2    1    2    0    0 -0.18961640364E+02  0.23758045119E+02 -0.59376348165E+02  0.10123914763E+03  0.76156587225E+02 0.  0.
         23    2    1    2    0    0  0.54738784594E+02  0.17653911534E+02  0.87438509108E+02  0.13886229217E+03  0.91264714874E+02 0.  0.
        -13    1    3    3    0    0 -0.94058230406E+01  0.50756816158E+02 -0.27881137176E+02  0.58669256888E+02  0.00000000000E+00 0.  1.
         14    1    3    3    0    0 -0.95558173239E+01 -0.26998771039E+02 -0.31495210989E+02  0.42569890739E+02  0.00000000000E+00 0. -1.
        -11    1    4    4    0    0 -0.31102643967E+01  0.38384440335E+02  0.60610577504E+02  0.71810034883E+02  0.00000000000E+00 0. -1.
         11    1    4    4    0    0  0.57849048990E+02 -0.20730528801E+02  0.26827931604E+02  0.67052257289E+02  0.00000000000E+00 0.  1.
          3    1    1    2  501    0 -0.35777144229E+02 -0.41411956653E+02 -0.29649236330E+03  0.30150070597E+03  0.00000000000E+00 0. -1.
<scales pt_clust_5="13000.00000" pt_clust_6="13000.00000" pt_clust_7="13000.00000" pt_clust_8="13000.00000" pt_clust_9="13000.00000"></scales>
<clustering>
<clus scale="   76.157">  5  6 -1 -1</clus>
<clus scale="   81.999">  2  5  1 -1</clus>
<clus scale="   91.265">  7  8 -1 -1</clus>
<clus scale="   56.708">  7  9 -1 -1</clus>
<clus scale="  387.577">  1  5  2 -1</clus>
</clustering>
</event>
<event>
 9    2  0.3707658E-005  0.3061365E+03  0.7546771E-02  0.1096580E+00
          2   -1    0    0  502    0 -0.00000000000E+00  0.00000000000E+00  0.94216219455E+03  0.94216219455E+03  0.00000000000E+00 0. -1.
         21   -1    0    0  501  502  0.00000000000E+00 -0.00000000000E+00 -0.70834995560E+02  0.70834995560E+02  0.00000000000E+00 0. -1.
         24    2    1    2    0    0  0.18737098767E+03  0.32877479417E+02  0.31980372051E+03  0.38220587699E+03  0.87281711021E+02 0.  0.
         23    2    1    2    0    0  0.20416996413E+02 -0.18301828687E+02  0.16508852530E+03  0.19179214574E+03  0.93692023695E+02 0.  0.
        -13    1    3    3    0    0  0.36121545121E+02  0.44053522493E+02  0.10141691807E+03  0.11632226845E+03  0.00000000000E+00 0.  1.
         14    1    3    3    0    0  0.15124944255E+03 -0.11176043076E+02  0.21838680244E+03  0.26588360854E+03  0.00000000000E+00 0. -1.
        -11    1    4    4    0    0 -0.83455463075E+00 -0.52957934608E+02  0.11949321006E+03  0.13070526604E+03  0.00000000000E+00 0.  1.
         11    1    4    4    0    0  0.21251551044E+02  0.34656105921E+02  0.45595315243E+02  0.61086879700E+02  0.00000000000E+00 0. -1.
          1    1    1    2  501    0 -0.20778798409E+03 -0.14575650730E+02  0.38643495318E+03  0.43899916739E+03  0.00000000000E+00 0. -1.
<scales pt_clust_5="13000.00000" pt_clust_6="13000.00000" pt_clust_7="13000.00000" pt_clust_8="13000.00000" pt_clust_9="13000.00000"></scales>
<clustering>
<clus scale="   87.282">  5  6 -1 -1</clus>
<clus scale="   93.692">  7  8 -1 -1</clus>
<clus scale="  208.299">  7  9 -1 -1</clus>
<clus scale="  209.301">  1  5  2 -1</clus>
<clus scale="  306.136">  2  5  1 -1</clus>
</clustering>
</event>
<event>
 9    2  0.3707658E-005  0.2711176E+03  0.7546771E-02  0.1135494E+00
         21   -1    0    0  501  502  0.00000000000E+00  0.00000000000E+00  0.46326898025E+02  0.46326898025E+02  0.00000000000E+00 0. -1.
          2   -1    0    0  502    0 -0.00000000000E+00 -0.00000000000E+00 -0.80581801598E+03  0.80581801598E+03  0.00000000000E+00 0. -1.
         24    2    1    2    0    0 -0.47878248517E+02 -0.61569754471E+02 -0.18313046972E+03  0.21520192417E+03  0.81804265673E+02 0.  0.
         23    2    1    2    0    0 -0.38639426844E+02  0.92434918028E+02 -0.15684017705E+03  0.20748357124E+03  0.91724434146E+02 0.  0.
        -13    1    3    3    0    0 -0.16585094677E+02  0.17886983614E+02 -0.22036107971E+02  0.32872474850E+02  0.00000000000E+00 0.  1.
         14    1    3    3    0    0 -0.31293153841E+02 -0.79456738084E+02 -0.16109436174E+03  0.18232944932E+03  0.00000000000E+00 0. -1.
        -13    1    4    4    0    0 -0.13321670942E+01  0.20279206666E+02 -0.11371325914E+03  0.11551504749E+03  0.00000000000E+00 0.  1.
         13    1    4    4    0    0 -0.37307259750E+02  0.72155711363E+02 -0.43126917909E+02  0.91968523749E+02  0.00000000000E+00 0. -1.
          1    1    1    2  501    0  0.86517675362E+02 -0.30865163558E+02 -0.41952047119E+03  0.42945941860E+03  0.00000000000E+00 0. -1.
<scales pt_clust_5="13000.00000" pt_clust_6="13000.00000" pt_clust_7="13000.00000" pt_clust_8="13000.00000" pt_clust_9="13000.00000"></scales>
<clustering>
<clus scale="   81.804">  5  6 -1 -1</clus>
<clus scale="   91.724">  7  8 -1 -1</clus>
<clus scale="   91.858">  7  9 -1 -1</clus>
<clus scale="  113.027">  2  5  1 -1</clus>
<clus scale="  271.118">  1  5  2 -1</clus>
</clustering>
</event>
<event>
 9    2  0.3707658E-005  0.1479553E+03  0.7546771E-02  0.1225526E+00
         21   -1    0    0  501  502  0.00000000000E+00  0.00000000000E+00  0.75285679884E+02  0.75285679884E+02  0.00000000000E+00 0. -1.
          2   -1    0    0  502    0 -0.00000000000E+00 -0.00000000000E+00 -0.58602501936E+03  0.58602501936E+03  0.00000000000E+00 0. -1.
         24    2    1    2    0    0 -0.24536654348E+02  0.38011381246E+02 -0.50496848623E+03  0.51324289175E+03  0.79863516924E+02 0.  0.
         23    2    1    2    0    0  0.39734063345E+02  0.74570568359E+01 -0.76321823178E+01  0.10009068119E+03  0.91244127310E+02 0.  0.
        -13    1    3    3    0    0 -0.22013362515E+02 -0.20225359274E+02 -0.10973713141E+03  0.11373605979E+03  0.00000000000E+00 0.  1.
         14    1    3    3    0    0 -0.25232918335E+01  0.58236740519E+02 -0.39523135482E+03  0.39950683196E+03  0.00000000000E+00 0. -1.
        -13    1    4    4    0    0  0.13516638877E+01 -0.26917429663E+02 -0.33042972966E+02  0.42640509816E+02  0.00000000000E+00 0.  1.
         13    1    4    4    0    0  0.38382399458E+02  0.34374486499E+02  0.25410790648E+02  0.57450171379E+02  0.00000000000E+00 0. -1.
          1    1    1    2  501    0 -0.15197408997E+02 -0.45468438081E+02  0.18613290749E+01  0.47977126297E+02  0.00000000000E+00 0. -1.
<scales pt_clust_5="13000.00000" pt_clust_6="13000.00000" pt_clust_7="13000.00000" pt_clust_8="13000.00000" pt_clust_9="13000.00000"></scales>
<clustering>
<clus scale="   79.864">  5  6 -1 -1</clus>
<clus scale="   91.244">  7  8 -1 -1</clus>
<clus scale="   47.941">  7  9 -1 -1</clus>
<clus scale="   91.788">  2  5  1 -1</clus>
<clus scale="  147.955">  1  5  2 -1</clus>
</clustering>
</event>
<event>
 9    2  0.3707658E-005  0.3065281E+03  0.7546771E-02  0.1124154E+00
         21   -1    0    0  501  502  0.00000000000E+00  0.00000000000E+00  0.34174734378E+02  0.34174734378E+02  0.00000000000E+00 0.  1.
          2   -1    0    0  502    0 -0.00000000000E+00 -0.00000000000E+00 -0.14102947113E+04  0.14102947113E+04  0.00000000000E+00 0. -1.
         24    2    1    2    0    0 -0.11647199741E+02 -0.59278230709E+02 -0.16119402826E+03  0.19147123448E+03  0.83834080102E+02 0.  0.
         23    2    1    2    0    0  0.11760347910E+03  0.22548864725E+02 -0.36372778132E+03  0.39444471866E+03  0.94602894169E+02 0.  0.
        -13    1    3    3    0    0 -0.36966783301E+01 -0.46030563044E+02 -0.21522879057E+02  0.50948135272E+02  0.00000000000E+00 0.  1.
         14    1    3    3    0    0 -0.79505214107E+01 -0.13247667664E+02 -0.13967114921E+03  0.14052309920E+03  0.00000000000E+00 0. -1.
        -13    1    4    4    0    0  0.92690540781E+02 -0.23378912573E+02 -0.27878300020E+03  0.29471693386E+03  0.00000000000E+00 0.  1.
         13    1    4    4    0    0  0.24912938315E+02  0.45927777298E+02 -0.84944781114E+02  0.99727784802E+02  0.00000000000E+00 0. -1.
          1    1    1    2  501    0 -0.10595627935E+03  0.36729365983E+02 -0.85119816731E+03  0.85855349251E+03  0.00000000000E+00 0. -1.
<scales pt_clust_5="13000.00000" pt_clust_6="13000.00000" pt_clust_7="13000.00000" pt_clust_8="13000.00000" pt_clust_9="13000.00000"></scales>
<clustering>
<clus scale="   83.834">  5  6 -1 -1</clus>
<clus scale="   94.603">  7  8 -1 -1</clus>
<clus scale="  103.333">  2  5  1 -1</clus>
<clus scale="  114.108">  7  9 -1 -1</clus>
<clus scale="  306.528">  1  5  2 -1</clus>
</clustering>
</event>
<event>
 9    2  0.3707658E-005  0.2014856E+03  0.7546771E-02  0.1181290E+00
          2   -1    0    0  502    0 -0.00000000000E+00  0.00000000000E+00  0.91131921624E+03  0.91131921624E+03  0.00000000000E+00 0. -1.
         21   -1    0    0  501  502  0.00000000000E+00 -0.00000000000E+00 -0.28801214191E+02  0.28801214191E+02  0.00000000000E+00 0. -1.
         24    2    1    2    0    0 -0.40458670985E+02  0.25758673949E+02  0.48869858149E+03  0.49775161294E+03  0.81424512820E+02 0.  0.
         23    2    1    2    0    0 -0.33514469407E+02 -0.32403589021E+02  0.32607690237E+03  0.34184404857E+03  0.91422070887E+02 0.  0.
        -13    1    3    3    0    0 -0.38077161001E+02 -0.17476757463E+02  0.13340642913E+03  0.13983054950E+03  0.00000000000E+00 0.  1.
         14    1    3    3    0    0 -0.23815099842E+01  0.43235431412E+02  0.35529215237E+03  0.35792106344E+03  0.00000000000E+00 0. -1.
        -11    1    4    4    0    0 -0.30090735979E+02 -0.61138084593E+02  0.27316644383E+03  0.28153725120E+03  0.00000000000E+00 0.  1.
         11    1    4    4    0    0 -0.34237334276E+01  0.28734495573E+02  0.52910458540E+02  0.60306797372E+02  0.00000000000E+00 0. -1.
          1    1    1    2  501    0  0.73973140392E+02  0.66449150717E+01  0.67742518184E+02  0.10052476892E+03  0.00000000000E+00 0. -1.
<scales pt_clust_5="13000.00000" pt_clust_6="13000.00000" pt_clust_7="13000.00000" pt_clust_8="13000.00000" pt_clust_9="13000.00000"></scales>
<clustering>
<clus scale="   81.425">  5  6 -1 -1</clus>
<clus scale="   91.422">  7  8 -1 -1</clus>
<clus scale="   74.271">  7  9 -1 -1</clus>
<clus scale="   94.501">  1  5  2 -1</clus>
<clus scale="  201.486">  2  5  1 -1</clus>
</clustering>
</event>
<event>
 9    2  0.3707658E-005  0.4200095E+03  0.7546771E-02  0.1082876E+00
         21   -1    0    0  501  502  0.00000000000E+00  0.00000000000E+00  0.26005643902E+03  0.26005643902E+03  0.00000000000E+00 0.  1.
         -3   -1    0    0    0  501 -0.00000000000E+00 -0.00000000000E+00 -0.27896338761E+03  0.27896338761E+03  0.00000000000E+00 0.  1.
         24    2    1    2    0    0  0.73784744307E+02  0.37677840083E+02  0.16059291057E+02  0.11755739305E+03  0.81841503566E+02 0.  0.
         23    2    1    2    0    0  0.15035752510E+02  0.21356385970E+02 -0.20206501723E+03  0.22322993884E+03  0.91209458563E+02 0.  0.
        -11    1    3    3    0    0  0.39456292706E+02 -0.50480014383E+01 -0.26814776274E+02  0.47972008289E+02  0.00000000000E+00 0.  1.
         12    1    3    3    0    0  0.34328451601E+02  0.42725841521E+02  0.42874067331E+02  0.69585384762E+02  0.00000000000E+00 0. -1.
        -11    1    4    4    0    0  0.10165529441E+02  0.54395584167E+02 -0.16132016394E+03  0.17054739182E+03  0.00000000000E+00 0.  1.
         11    1    4    4    0    0  0.48702230693E+01 -0.33039198197E+02 -0.40744853297E+02  0.52682547019E+02  0.00000000000E+00 0. -1.
         -4    1    1    2    0  502 -0.88820496817E+02 -0.59034226052E+02  0.16709877758E+03  0.19823249474E+03  0.00000000000E+00 0.  1.
<scales pt_clust_5="13000.00000" pt_clust_6="13000.00000" pt_clust_7="13000.00000" pt_clust_8="13000.00000" pt_clust_9="13000.00000"></scales>
<clustering>
<clus scale="   81.842">  5  6 -1 -1</clus>
<clus scale="   91.209">  7  8 -1 -1</clus>
<clus scale="  106.650">  7  9 -1 -1</clus>
<clus scale="  116.455">  2  5  1 -1</clus>
<clus scale="  420.009">  1  5  2 -1</clus>
</clustering>
</event>
<event>
 9    2  0.3707658E-005  0.1396993E+03  0.7546771E-02  0.1237988E+00
         21   -1    0    0  501  502  0.00000000000E+00  0.00000000000E+00  0.63243410928E+02  0.63243410928E+02  0.00000000000E+00 0. -1.
          2   -1    0    0  502    0 -0.00000000000E+00 -0.00000000000E+00 -0.35658534891E+03  0.35658534891E+03  0.00000000000E+00 0. -1.
         24    2    1    2    0    0  0.12354741095E+02  0.23326178510E+02 -0.26390468208E+03  0.27706168129E+03  0.80129543790E+02 0.  0.
         23    2    1    2    0    0  0.27244551866E+02 -0.10394762066E+02 -0.29610163552E+02  0.10110948102E+03  0.92174013052E+02 0.  0.
        -11    1    3    3    0    0  0.19658071676E+02 -0.26648999930E+02 -0.87027127467E+02  0.93114606236E+02  0.00000000000E+00 0.  1.
         12    1    3    3    0    0 -0.73033305817E+01  0.49975178441E+02 -0.17687755461E+03  0.18394707506E+03  0.00000000000E+00 0. -1.
        -11    1    4    4    0    0 -0.25969496735E+02 -0.21246464403E+02 -0.32514277458E+02  0.46722641716E+02  0.00000000000E+00 0.  1.
         11    1    4    4    0    0  0.53214048601E+02  0.10851702337E+02  0.29041139057E+01  0.54386839306E+02  0.00000000000E+00 0. -1.
          1    1    1    2  501    0 -0.39599292961E+02 -0.12931416444E+02  0.17290764659E+00  0.41657597522E+02  0.00000000000E+00 0. -1.
<scales pt_clust_5="13000.00000" pt_clust_6="13000.00000" pt_clust_7="13000.00000" pt_clust_8="13000.00000" pt_clust_9="13000.00000"></scales>
<clustering>
<clus scale="   80.130">  5  6 -1 -1</clus>
<clus scale="   84.365">  2  5  1 -1</clus>
<clus scale="   92.174">  7  8 -1 -1</clus>
<clus scale="   37.346">  7  9 -1 -1</clus>
<clus scale="  139.699">  1  5  2 -1</clus>
</clustering>
</event>
<event>
 9    2  0.3707658E-005  0.4070994E+03  0.7546771E-02  0.1054524E+00
         21   -1    0    0  501  502  0.00000000000E+00  0.00000000000E+00  0.12801719687E+03  0.12801719687E+03  0.00000000000E+00 0. -1.
          2   -1    0    0  502    0 -0.00000000000E+00 -0.00000000000E+00 -0.10157477656E+04  0.10157477656E+04  0.00000000000E+00 0. -1.
         24    2    1    2    0    0 -0.25649313722E+03 -0.74937000446E+02 -0.54208879322E+03  0.60972551124E+03  0.80626644733E+02 0.  0.
         23    2    1    2    0    0 -0.35328115931E+02 -0.44490432942E+01 -0.12710208820E+03  0.16091563442E+03  0.92038203025E+02 0.  0.
        -13    1    3    3    0    0 -0.98019038452E+02 -0.70116825086E+02 -0.22833493611E+03  0.25818780782E+03  0.00000000000E+00 0.  1.
         14    1    3    3    0    0 -0.15847409877E+03 -0.48201753599E+01 -0.31375385711E+03  0.35153770342E+03  0.00000000000E+00 0. -1.
        -13    1    4    4    0    0 -0.36785971258E+02 -0.27713983358E+02 -0.18161003010E+02  0.49508530430E+02  0.00000000000E+00 0. -1.
         13    1    4    4    0    0  0.14578553270E+01  0.23264940064E+02 -0.10894108519E+03  0.11140710399E+03  0.00000000000E+00 0.  1.
          1    1    1    2  501    0  0.29182125316E+03  0.79386043740E+02 -0.21853968730E+03  0.37312381679E+03  0.00000000000E+00 0. -1.
<scales pt_clust_5="13000.00000" pt_clust_6="13000.00000" pt_clust_7="13000.00000" pt_clust_8="13000.00000" pt_clust_9="13000.00000"></scales>
<clustering>
<clus scale="   80.627">  5  6 -1 -1</clus>
<clus scale="   92.038">  7  8 -1 -1</clus>
<clus scale="  279.115">  2  5  1 -1</clus>
<clus scale="  122.777">  7  9 -1 -1</clus>
<clus scale="  407.099">  1  5  2 -1</clus>
</clustering>
</event>
<event>
 9    2  0.3707658E-005  0.2254433E+03  0.7546771E-02  0.1165299E+00
         -1   -1    0    0    0  501 -0.00000000000E+00  0.00000000000E+00  0.14118823765E+03  0.14118823765E+03  0.00000000000E+00 0.  1.
         21   -1    0    0  501  502  0.00000000000E+00 -0.00000000000E+00 -0.10268273881E+04  0.10268273881E+04  0.00000000000E+00 0. -1.
         24    2    1    2    0    0  0.32917987844E+02  0.44820794498E+02 -0.93268083362E+03  0.93771664742E+03  0.79539146928E+02 0.  0.
         23    2    1    2    0    0 -0.15888867323E+02  0.47982445516E+02 -0.28947639506E+02  0.10915109579E+03  0.92310479880E+02 0.  0.
        -11    1    3    3    0    0 -0.29480368549E+00  0.36480106342E+02 -0.15319072994E+03  0.15747471165E+03  0.00000000000E+00 0.  1.
         12    1    3    3    0    0  0.33212791530E+02  0.83406881557E+01 -0.77949010368E+03  0.78024193577E+03  0.00000000000E+00 0. -1.
        -11    1    4    4    0    0 -0.54200362859E+02  0.35636991593E+02 -0.20435273618E+02  0.68009373704E+02  0.00000000000E+00 0. -1.
         11    1    4    4    0    0  0.38311495536E+02  0.12345453923E+02 -0.85123658883E+01  0.41141722081E+02  0.00000000000E+00 0.  1.
         -2    1    1    2    0  502 -0.17029120521E+02 -0.92803240014E+02  0.75989322636E+02  0.12114788260E+03  0.00000000000E+00 0.  1.
<scales pt_clust_5="13000.00000" pt_clust_6="13000.00000" pt_clust_7="13000.00000" pt_clust_8="13000.00000" pt_clust_9="13000.00000"></scales>
<clustering>
<clus scale="   79.539">  5  6 -1 -1</clus>
<clus scale="   92.310">  7  8 -1 -1</clus>
<clus scale="   94.353">  7  9 -1 -1</clus>
<clus scale="   97.051">  1  5  2 -1</clus>
<clus scale="  225.443">  2  5  1 -1</clus>
</clustering>
</event>
<event>
 9    2  0.3707658E-005  0.2071044E+03  0.7546771E-02  0.1181917E+00
         -3   -1    0    0    0  501 -0.00000000000E+00  0.00000000000E+00  0.33985077773E+03  0.33985077773E+03  0.00000000000E+00 0.  1.
         21   -1    0    0  501  502  0.00000000000E+00 -0.00000000000E+00 -0.65376768299E+02  0.65376768299E+02  0.00000000000E+00 0.  1.
         24    2    1    2    0    0 -0.25580150007E+02 -0.30840795844E+02  0.11682354555E+03  0.14494713172E+03  0.75871150217E+02 0.  0.
         23    2    1    2    0    0 -0.41500023250E+02 -0.32422303411E+02  0.43835790568E+02  0.11380260291E+03  0.90862523662E+02 0.  0.
        -11    1    3    3    0    0  0.14623724037E+02 -0.33357390854E+02  0.23618710188E+02  0.43409818017E+02  0.00000000000E+00 0.  1.
         12    1    3    3    0    0 -0.40203874043E+02  0.25165950101E+01  0.93204835362E+02  0.10153731370E+03  0.00000000000E+00 0. -1.
        -13    1    4    4    0    0 -0.11842834820E+02 -0.60577052072E+02  0.14300330002E+02  0.63358751664E+02  0.00000000000E+00 0.  1.
         13    1    4    4    0    0 -0.29657188431E+02  0.28154748660E+02  0.29535460566E+02  0.50443851247E+02  0.00000000000E+00 0. -1.
         -4    1    1    2    0  502  0.67080173257E+02  0.63263099255E+02  0.11381467331E+03  0.14647781140E+03  0.00000000000E+00 0.  1.
<scales pt_clust_5="13000.00000" pt_clust_6="13000.00000" pt_clust_7="13000.00000" pt_clust_8="13000.00000" pt_clust_9="13000.00000"></scales>
<clustering>
<clus scale="   75.871">  5  6 -1 -1</clus>
<clus scale="   85.802">  1  5  2 -1</clus>
<clus scale="   90.863">  7  8 -1 -1</clus>
<clus scale="   67.506">  7  9 -1 -1</clus>
<clus scale="  207.104">  2  5  1 -1</clus>
</clustering>
</event>
<event>
 9    2  0.3707658E-005  0.4958603E+03  0.7546771E-02  0.1057914E+00
          2   -1    0    0  502    0 -0.00000000000E+00  0.00000000000E+00  0.42423928035E+03  0.42423928035E+03  0.00000000000E+00 0. -1.
         21   -1    0    0  501  502  0.00000000000E+00 -0.00000000000E+00 -0.41657757064E+03  0.41657757064E+03  0.00000000000E+00 0.  1.
         24    2    1    2    0    0 -0.85168736022E+01 -0.11318117652E+03  0.25166879617E+03  0.28817145625E+03  0.82601993794E+02 0.  0.
         23    2    1    2    0    0  0.12108259794E+03 -0.13431246995E+03 -0.18609744172E+03  0.27465677214E+03  0.90018051302E+02 0.  0.
        -11    1    3    3    0    0 -0.45013521116E+02 -0.50138944208E+02  0.12763143234E+03  0.14432571958E+03  0.00000000000E+00 0.  1.
         12    1    3    3    0    0  0.36496647513E+02 -0.63042232310E+02  0.12403736383E+03  0.14384573667E+03  0.00000000000E+00 0. -1.
        -13    1    4    4    0    0  0.13288304506E+03 -0.10510088082E+03 -0.16656650347E+03  0.23758892839E+03  0.00000000000E+00 0.  1.
         13    1    4    4    0    0 -0.11800447118E+02 -0.29211589131E+02 -0.19530938246E+02  0.37067843753E+02  0.00000000000E+00 0. -1.
          1    1    1    2  501    0 -0.11256572434E+03  0.24749364647E+03 -0.57909644749E+02  0.27798862260E+03  0.00000000000E+00 0. -1.
<scales pt_clust_5="13000.00000" pt_clust_6="13000.00000" pt_clust_7="13000.00000" pt_clust_8="13000.00000" pt_clust_9="13000.00000"></scales>
<clustering>
<clus scale="   82.602">  5  6 -1 -1</clus>
<clus scale="   90.018">  7  8 -1 -1</clus>
<clus scale="  140.377">  1  5  2 -1</clus>
<clus scale="  204.679">  7  9 -1 -1</clus>
<clus scale="  495.860">  2  5  1 -1</clus>
</clustering>
</event>
<event>
 9    2  0.3707658E-005  0.2292897E+03  0.7546771E-02  0.1177312E+00
         21   -1    0    0  501  502  0.00000000000E+00  0.00000000000E+00  0.10539654845E+03  0.10539654845E+03  0.00000000000E+00 0. -1.
         -1   -1    0    0    0  501 -0.00000000000E+00 -0.00000000000E+00 -0.21307846312E+03  0.21307846312E+03  0.00000000000E+00 0.  1.
         24    2    1    2    0    0  0.45269058131E+01 -0.45475119913E+01 -0.31307014301E+02  0.76799792381E+02  0.69834849637E+02 0.  0.
         23    2    1    2    0    0 -0.15380600810E+02  0.87429310568E+02  0.19861456271E+01  0.12709926727E+03  0.90938615220E+02 0.  0.
        -13    1    3    3    0    0 -0.48036184909E+01  0.26594521957E+02 -0.34846550627E+02  0.44097907426E+02  0.00000000000E+00 0.  1.
         14    1    3    3    0    0  0.93305243040E+01 -0.31142033948E+02  0.35395363263E+01  0.32701884955E+02  0.00000000000E+00 0. -1.
        -13    1    4    4    0    0  0.26564001159E+02  0.78030237492E+01  0.21446279862E+02  0.35021083037E+02  0.00000000000E+00 0.  1.
         13    1    4    4    0    0 -0.41944601969E+02  0.79626286819E+02 -0.19460134234E+02  0.92078184231E+02  0.00000000000E+00 0. -1.
         -2    1    1    2    0  502  0.10853694997E+02 -0.82881798577E+02 -0.78361045989E+02  0.11457595192E+03  0.00000000000E+00 0.  1.
<scales pt_clust_5="13000.00000" pt_clust_6="13000.00000" pt_clust_7="13000.00000" pt_clust_8="13000.00000" pt_clust_9="13000.00000"></scales>
<clustering>
<clus scale="   69.835">  5  6 -1 -1</clus>
<clus scale="   70.129">  2  5  1 -1</clus>
<clus scale="   90.939">  7  8 -1 -1</clus>
<clus scale="   86.714">  7  9 -1 -1</clus>
<clus scale="  229.290">  1  5  2 -1</clus>
</clustering>
</event>
<event>
 9    2  0.3707658E-005  0.3819120E+03  0.7546771E-02  0.1105888E+00
          2   -1    0    0  502    0 -0.00000000000E+00  0.00000000000E+00  0.78991753212E+03  0.78991753212E+03  0.00000000000E+00 0. -1.
         21   -1    0    0  501  502  0.00000000000E+00 -0.00000000000E+00 -0.70912161902E+02  0.70912161902E+02  0.00000000000E+00 0. -1.
         24    2    1    2    0    0 -0.12544800351E+02 -0.27446531713E+02  0.19323358158E+03  0.21098915938E+03  0.79161380771E+02 0.  0.
         23    2    1    2    0    0  0.52992042085E+02 -0.10135043761E+03  0.48814460438E+03  0.50969616742E+03  0.91787583952E+02 0.  0.
        -13    1    3    3    0    0 -0.44858472619E+02 -0.27008104190E+02  0.12262790903E+03  0.13333913278E+03  0.00000000000E+00 0.  1.
         14    1    3    3    0    0  0.32313672269E+02 -0.43842752331E+00  0.70605672548E+02  0.77650026594E+02  0.00000000000E+00 0. -1.
        -13    1    4    4    0    0  0.19903239697E+02 -0.17006831477E+02  0.20214948133E+02  0.33075903545E+02  0.00000000000E+00 0.  1.
         13    1    4    4    0    0  0.33088802389E+02 -0.84343606134E+02  0.46792965624E+03  0.47662026387E+03  0.00000000000E+00 0. -1.
          1    1    1    2  501    0 -0.40447241735E+02  0.12879696932E+03  0.37627184265E+02  0.14014436723E+03  0.00000000000E+00 0. -1.
<scales pt_clust_5="13000.00000" pt_clust_6="13000.00000" pt_clust_7="13000.00000" pt_clust_8="13000.00000" pt_clust_9="13000.00000"></scales>
<clustering>
<clus scale="   79.161">  5  6 -1 -1</clus>
<clus scale="   84.718">  1  5  2 -1</clus>
<clus scale="   91.788">  7  8 -1 -1</clus>
<clus scale="  131.643">  7  9 -1 -1</clus>
<clus scale="  381.912">  2  5  1 -1</clus>
</clustering>
</event>
<event>
 9    2  0.3707658E-005  0.2584779E+03  0.7546771E-02  0.1139225E+00
         21   -1    0    0  501  502  0.00000000000E+00  0.00000000000E+00  0.22339693985E+03  0.22339693985E+03  0.00000000000E+00 0.  1.
         -1   -1    0    0    0  501 -0.00000000000E+00 -0.00000000000E+00 -0.15982724550E+03  0.15982724550E+03  0.00000000000E+00 0.  1.
         24    2    1    2    0    0  0.34577593599E+02  0.78299409147E+02  0.26947509857E+02  0.12216479597E+03  0.82895486220E+02 0.  0.
         23    2    1    2    0    0  0.79815098892E+02 -0.31246217697E+02  0.55154648493E+02  0.13598683786E+03  0.90020046042E+02 0.  0.
        -13    1    3    3    0    0 -0.79837538759E+01  0.70485647093E+02 -0.46910636514E+00  0.70937908292E+02  0.00000000000E+00 0.  1.
         14    1    3    3    0    0  0.42561347475E+02  0.78137620538E+01  0.27416616222E+02  0.51226887680E+02  0.00000000000E+00 0. -1.
        -11    1    4    4    0    0 -0.58297108671E+01  0.21499284969E+02  0.18419303488E+02  0.28904593475E+02  0.00000000000E+00 0. -1.
         11    1    4    4    0    0  0.85644809759E+02 -0.52745502666E+02  0.36735345005E+02  0.10708224439E+03  0.00000000000E+00 0.  1.
         -2    1    1    2    0  502 -0.11439269249E+03 -0.47053191450E+02 -0.18532463994E+02  0.12507255152E+03  0.00000000000E+00 0.  1.
<scales pt_clust_5="13000.00000" pt_clust_6="13000.00000" pt_clust_7="13000.00000" pt_clust_8="13000.00000" pt_clust_9="13000.00000"></scales>
<clustering>
<clus scale="   82.895">  5  6 -1 -1</clus>
<clus scale="   90.020">  7  8 -1 -1</clus>
<clus scale="  119.156">  2  5  1 -1</clus>
<clus scale="   92.319">  7  9 -1 -1</clus>
<clus scale="  258.478">  1  5  2 -1</clus>
</clustering>
</event>
<event>
 9    2  0.3707658E-005  0.2650131E+03  0.7546771E-02  0.1117226E+00
          2   -1    0    0  502    0 -0.00000000000E+00  0.00000000000E+00  0.13183998794E+04  0.13183998794E+04  0.00000000000E+00 0. -1.
         21   -1    0    0  501  502  0.00000000000E+00 -0.00000000000E+00 -0.43995624259E+02  0.43995624259E+02  0.00000000000E+00 0.  1.
         24    2    1    2    0    0 -0.13942017521E+03 -0.10016429041E+03  0.32321697904E+03  0.37498009740E+03  0.81669991881E+02 0.  0.
         23    2    1    2    0    0  0.59316451697E+02 -0.10891394984E+02  0.61132578999E+03  0.62100607025E+03  0.91061813360E+02 0.  0.
        -11    1    3    3    0    0 -0.10595090189E+03 -0.10792045768E+03  0.22657236669E+03  0.27241045528E+03  0.00000000000E+00 0.  1.
         12    1    3    3    0    0 -0.33469273323E+02  0.77561672774E+01  0.96644612348E+02  0.10256964211E+03  0.00000000000E+00 0. -1.
        -11    1    4    4    0    0  0.27718304765E+02  0.40264458803E+02  0.25507915238E+03  0.25972082134E+03  0.00000000000E+00 0.  1.
         11    1    4    4    0    0  0.31598146932E+02 -0.51155853788E+02  0.35624663761E+03  0.36128524891E+03  0.00000000000E+00 0. -1.
          1    1    1    2  501    0  0.80103723517E+02  0.11105568539E+03  0.33986148614E+03  0.36640933604E+03  0.00000000000E+00 0. -1.
<scales pt_clust_5="13000.00000" pt_clust_6="13000.00000" pt_clust_7="13000.00000" pt_clust_8="13000.00000" pt_clust_9="13000.00000"></scales>
<clustering>
<clus scale="   81.670">  5  6 -1 -1</clus>
<clus scale="   91.062">  7  8 -1 -1</clus>
<clus scale="  136.931">  7  9 -1 -1</clus>
<clus scale="  190.108">  1  5  2 -1</clus>
<clus scale="  265.013">  2  5  1 -1</clus>
</clustering>
</event>
<event>
 9    2  0.3707658E-005  0.1728611E+03  0.7546771E-02  0.1198183E+00
         21   -1    0    0  501  502  0.00000000000E+00  0.00000000000E+00  0.50470872427E+02  0.50470872427E+02  0.00000000000E+00 0. -1.
          4   -1    0    0  502    0 -0.00000000000E+00 -0.00000000000E+00 -0.37811819471E+03  0.37811819471E+03  0.00000000000E+00 0. -1.
         24    2    1    2    0    0  0.19400732719E+02  0.61684483592E+02 -0.13381823805E+03  0.16887637474E+03  0.80190680037E+02 0.  0.
         23    2    1    2    0    0  0.80059146311E+00  0.60083702169E+01 -0.14749433291E+03  0.17523000106E+03  0.94415218956E+02 0.  0.
        -11    1    3    3    0    0  0.49714150715E+02  0.49471095050E+02 -0.86314156064E+02  0.11121609400E+03  0.00000000000E+00 0.  1.
         12    1    3    3    0    0 -0.30313417995E+02  0.12213388542E+02 -0.47504081985E+02  0.57660280744E+02  0.00000000000E+00 0. -1.
        -13    1    4    4    0    0  0.23223083744E+02  0.29276356812E+02 -0.17470223422E+02  0.41250762335E+02  0.00000000000E+00 0. -1.
         13    1    4    4    0    0 -0.22422492281E+02 -0.23267986595E+02 -0.13002410949E+03  0.13397923873E+03  0.00000000000E+00 0.  1.
          3    1    1    2  501    0 -0.20201324182E+02 -0.67692853809E+02 -0.46334751322E+02  0.84482691337E+02  0.00000000000E+00 0. -1.
<scales pt_clust_5="13000.00000" pt_clust_6="13000.00000" pt_clust_7="13000.00000" pt_clust_8="13000.00000" pt_clust_9="13000.00000"></scales>
<clustering>
<clus scale="   80.191">  5  6 -1 -1</clus>
<clus scale="   94.415">  7  8 -1 -1</clus>
<clus scale="   70.643">  7  9 -1 -1</clus>
<clus scale="  103.014">  2  5  1 -1</clus>
<clus scale="  172.861">  1  5  2 -1</clus>
</clustering>
</event>
<event>
 9    2  0.3707658E-005  0.5462707E+03  0.7546771E-02  0.1063261E+00
          2   -1    0    0  502    0 -0.00000000000E+00  0.00000000000E+00  0.83173993977E+03  0.83173993977E+03  0.00000000000E+00 0. -1.
         21   -1    0    0  501  502  0.00000000000E+00 -0.00000000000E+00 -0.57985008197E+03  0.57985008197E+03  0.00000000000E+00 0. -1.
         24    2    1    2    0    0  0.63726898287E+01 -0.41119630622E+02  0.69952264257E+03  0.70534164069E+03  0.80271211685E+02 0.  0.
         23    2    1    2    0    0  0.84415889329E+01 -0.21867994550E+03 -0.69100743911E+02  0.24689907108E+03  0.91060746229E+02 0.  0.
        -11    1    3    3    0    0 -0.33026899910E+02 -0.79229759447E+01  0.17286227860E+03  0.17616729841E+03  0.00000000000E+00 0.  1.
         12    1    3    3    0    0  0.39399589738E+02 -0.33196654677E+02  0.52666036397E+03  0.52917434228E+03  0.00000000000E+00 0. -1.
        -13    1    4    4    0    0  0.30437609306E+02 -0.18807643047E+02 -0.70878346200E+01  0.36474825522E+02  0.00000000000E+00 0.  1.
         13    1    4    4    0    0 -0.21996020373E+02 -0.19987230245E+03 -0.62012909291E+02  0.21042424556E+03  0.00000000000E+00 0. -1.
          1    1    1    2  501    0 -0.14814278762E+02  0.25979957612E+03 -0.37853204086E+03  0.45934930997E+03  0.00000000000E+00 0. -1.
<scales pt_clust_5="13000.00000" pt_clust_6="13000.00000" pt_clust_7="13000.00000" pt_clust_8="13000.00000" pt_clust_9="13000.00000"></scales>
<clustering>
<clus scale="   80.271">  5  6 -1 -1</clus>
<clus scale="   90.415">  1  5  2 -1</clus>
<clus scale="   91.061">  7  8 -1 -1</clus>
<clus scale="  247.283">  7  9 -1 -1</clus>
<clus scale="  546.271">  2  5  1 -1</clus>
</clustering>
</event>
<event>
 9    2  0.3707658E-005  0.3904258E+03  0.7546771E-02  0.1092455E+00
         21   -1    0    0  501  502  0.00000000000E+00  0.00000000000E+00  0.62017953805E+02  0.62017953805E+02  0.00000000000E+00 0.  1.
          2   -1    0    0  502    0 -0.00000000000E+00 -0.00000000000E+00 -0.10347634164E+04  0.10347634164E+04  0.00000000000E+00 0. -1.
         24    2    1    2    0    0  0.37802007200E+02  0.69205607793E+02 -0.16544227265E+03  0.20002568696E+03  0.80129407610E+02 0.  0.
         23    2    1    2    0    0 -0.90801557741E+02  0.39680940740E+02 -0.74015840962E+02  0.15353595195E+03  0.90969466760E+02 0.  0.
        -11    1    3    3    0    0  0.50219370791E+02  0.80064026729E+02 -0.15080203029E+03  0.17797046362E+03  0.00000000000E+00 0.  1.
         12    1    3    3    0    0 -0.12417363591E+02 -0.10858418936E+02 -0.14640242355E+02  0.22055223339E+02  0.00000000000E+00 0. -1.
        -13    1    4    4    0    0 -0.69394901393E+01  0.27040500393E+02  0.14067159016E+02  0.31260680538E+02  0.00000000000E+00 0. -1.
         13    1    4    4    0    0 -0.83862067602E+02  0.12640440347E+02 -0.88082999978E+02  0.12227527142E+03  0.00000000000E+00 0.  1.
          1    1    1    2  501    0  0.52999550542E+02 -0.10888654853E+03 -0.73328734897E+03  0.74321973128E+03  0.00000000000E+00 0. -1.
<scales pt_clust_5="13000.00000" pt_clust_6="13000.00000" pt_clust_7="13000.00000" pt_clust_8="13000.00000" pt_clust_9="13000.00000"></scales>
<clustering>
<clus scale="   80.129">  5  6 -1 -1</clus>
<clus scale="   90.969">  7  8 -1 -1</clus>
<clus scale="  112.424">  2  5  1 -1</clus>
<clus scale="   98.727">  7  9 -1 -1</clus>
<clus scale="  390.426">  1  5  2 -1</clus>
</clustering>
</event>
<event>
 9    2  0.3707658E-005  0.2869586E+03  0.7546771E-02  0.1126522E+00
         21   -1    0    0  501  502  0.00000000000E+00  0.00000000000E+00  0.41731959556E+02  0.41731959556E+02  0.00000000000E+00 0.  1.
          2   -1    0    0  502    0 -0.00000000000E+00 -0.00000000000E+00 -0.11159217682E+04  0.11159217682E+04  0.00000000000E+00 0. -1.
         24    2    1    2    0    0  0.82457779032E+02 -0.29766066931E+02 -0.52212241071E+03  0.53546110454E+03  0.80134129104E+02 0.  0.
         23    2    1    2    0    0 -0.16354199200E+03 -0.25796697882E+02 -0.35133657782E+03  0.39868706943E+03  0.90014085841E+02 0.  0.
        -11    1    3    3    0    0  0.96672674841E+01 -0.40878260207E+02 -0.13450031225E+03  0.14090714039E+03  0.00000000000E+00 0.  1.
         12    1    3    3    0    0  0.72790511548E+02  0.11112193277E+02 -0.38762209846E+03  0.39455396415E+03  0.00000000000E+00 0. -1.
        -11    1    4    4    0    0 -0.91742376345E+02 -0.23842761231E+02 -0.10214774113E+03  0.13935315532E+03  0.00000000000E+00 0.  1.
         11    1    4    4    0    0 -0.71799615655E+02 -0.19539366508E+01 -0.24918883669E+03  0.25933391411E+03  0.00000000000E+00 0. -1.
          1    1    1    2  501    0  0.81084212968E+02  0.55562764812E+02 -0.20073082009E+03  0.22350555375E+03  0.00000000000E+00 0. -1.
<scales pt_clust_5="13000.00000" pt_clust_6="13000.00000" pt_clust_7="13000.00000" pt_clust_8="13000.00000" pt_clust_9="13000.00000"></scales>
<clustering>
<clus scale="   80.134">  5  6 -1 -1</clus>
<clus scale="   90.014">  7  8 -1 -1</clus>
<clus scale="   98.295">  7  9 -1 -1</clus>
<clus scale="  118.772">  2  5  1 -1</clus>
<clus scale="  286.959">  1  5  2 -1</clus>
</clustering>
</event>
<event>
 9    2  0.5657426E-005  0.1146746E+04  0.7546771E-02  0.9626489E-01
         21   -1    0    0  501  502  0.00000000000E+00  0.00000000000E+00  0.23588353850E+03  0.23588353850E+03  0.00000000000E+00 0. -1.
          2   -1    0    0  502    0 -0.00000000000E+00 -0.00000000000E+00 -0.20059797255E+04  0.20059797255E+04  0.00000000000E+00 0. -1.
         24    2    1    2    0    0 -0.15163049980E+03  0.13373897960E+03 -0.17975598681E+03  0.28119807274E+03  0.76695620376E+02 0.  0.
         23    2    1    2    0    0 -0.44453739142E+03  0.15265395650E+03 -0.56472640442E+03  0.74028790270E+03  0.90518198314E+02 0.  0.
        -13    1    3    3    0    0 -0.80145339708E+02  0.89629388904E+02 -0.14964745433E+03  0.19196630803E+03  0.00000000000E+00 0.  1.
         14    1    3    3    0    0 -0.71485160094E+02  0.44109590698E+02 -0.30108532480E+02  0.89231764710E+02  0.00000000000E+00 0. -1.
        -13    1    4    4    0    0 -0.87215537567E+02 -0.38379399841E+00 -0.13613998719E+03  0.16168114734E+03  0.00000000000E+00 0.  1.
         13    1    4    4    0    0 -0.35732185385E+03  0.15303775050E+03 -0.42858641723E+03  0.57860675536E+03  0.00000000000E+00 0. -1.
          1    1    1    2  501    0  0.59616789122E+03 -0.28639293610E+03 -0.10256137958E+04  0.12203772886E+04  0.00000000000E+00 0. -1.
<scales pt_clust_5="13000.00000" pt_clust_6="13000.00000" pt_clust_7="13000.00000" pt_clust_8="13000.00000" pt_clust_9="13000.00000"></scales>
<clustering>
<clus scale="   76.696">  5  6 -1 -1</clus>
<clus scale="   90.518">  7  8 -1 -1</clus>
<clus scale="  216.241">  2  5  1 -1</clus>
<clus scale="  539.433">  7  9 -1 -1</clus>
<clus scale=" 1146.746">  1  5  2 -1</clus>
</clustering>
</event>
<event>
 9    2  0.3707658E-005  0.3268180E+03  0.7546771E-02  0.1113514E+00
         21   -1    0    0  501  502  0.00000000000E+00  0.00000000000E+00  0.51418401212E+02  0.51418401212E+02  0.00000000000E+00 0. -1.
          2   -1    0    0  502    0 -0.00000000000E+00 -0.00000000000E+00 -0.95611189727E+03  0.95611189727E+03  0.00000000000E+00 0. -1.
         24    2    1    2    0    0  0.77502039929E+02 -0.62044022899E+01 -0.30313864516E+03  0.32292950251E+03  0.79657796856E+02 0.  0.
         23    2    1    2    0    0 -0.18663376724E+02 -0.14030615697E+03 -0.28283635407E+03  0.32892002269E+03  0.90320755242E+02 0.  0.
        -11    1    3    3    0    0  0.82323052673E+02 -0.26264683590E+02 -0.27343256209E+03  0.28676172097E+03  0.00000000000E+00 0.  1.
         12    1    3    3    0    0 -0.48210127437E+01  0.20060281300E+02 -0.29706083074E+02  0.36167781537E+02  0.00000000000E+00 0. -1.
        -11    1    4    4    0    0  0.26812350368E+02 -0.36551295531E+02 -0.13668355512E+03  0.14400449152E+03  0.00000000000E+00 0.  1.
         11    1    4    4    0    0 -0.45475727092E+02 -0.10375486144E+03 -0.14615279895E+03  0.18491553117E+03  0.00000000000E+00 0. -1.
          1    1    1    2  501    0 -0.58838663205E+02  0.14651055926E+03 -0.31871849682E+03  0.35568077328E+03  0.00000000000E+00 0. -1.
<scales pt_clust_5="13000.00000" pt_clust_6="13000.00000" pt_clust_7="13000.00000" pt_clust_8="13000.00000" pt_clust_9="13000.00000"></scales>
<clustering>
<clus scale="   79.658">  5  6 -1 -1</clus>
<clus scale="   90.321">  7  8 -1 -1</clus>
<clus scale="  111.312">  2  5  1 -1</clus>
<clus scale="  144.409">  7  9 -1 -1</clus>
<clus scale="  326.818">  1  5  2 -1</clus>
</clustering>
</event>
<event>
 9    2  0.3707658E-005  0.5270048E+03  0.7546771E-02  0.1020668E+00
          2   -1    0    0  502    0 -0.00000000000E+00  0.00000000000E+00  0.14920890097E+04  0.14920890097E+04  0.00000000000E+00 0. -1.
         21   -1    0    0  501  502  0.00000000000E+00 -0.00000000000E+00 -0.17567686244E+03  0.17567686244E+03  0.00000000000E+00 0. -1.
         24    2    1    2    0    0  0.25974538363E+03 -0.21500575204E+03  0.13045569041E+03  0.36998822545E+03  0.78596832541E+02 0.  0.
         23    2    1    2    0    0  0.13274079208E+02  0.95097027890E+02  0.87199764226E+02  0.15927687866E+03  0.92442843432E+02 0.  0.
        -13    1    3    3    0    0  0.21991583194E+03 -0.16227941224E+03  0.13280700339E+03  0.30386720936E+03  0.00000000000E+00 0.  1.
         14    1    3    3    0    0  0.39829551686E+02 -0.52726339797E+02 -0.23513129773E+01  0.66121016089E+02  0.00000000000E+00 0. -1.
        -11    1    4    4    0    0 -0.38500904330E+02  0.40974059842E+02  0.23443399561E+02  0.60916222774E+02  0.00000000000E+00 0.  1.
         11    1    4    4    0    0  0.51774983538E+02  0.54122968048E+02  0.63756364665E+02  0.98360655885E+02  0.00000000000E+00 0. -1.
          1    1    1    2  501    0 -0.27301946284E+03  0.11990872415E+03  0.10987566926E+04  0.11385007680E+04  0.00000000000E+00 0. -1.
<scales pt_clust_5="13000.00000" pt_clust_6="13000.00000" pt_clust_7="13000.00000" pt_clust_8="13000.00000" pt_clust_9="13000.00000"></scales>
<clustering>
<clus scale="   78.597">  5  6 -1 -1</clus>
<clus scale="   92.443">  7  8 -1 -1</clus>
<clus scale="  298.191">  7  9 -1 -1</clus>
<clus scale="  346.226">  1  5  2 -1</clus>
<clus scale="  527.005">  2  5  1 -1</clus>
</clustering>
</event>
<event>
 9    2  0.3707658E-005  0.3486217E+03  0.7546771E-02  0.1083797E+00
          2   -1    0    0  502    0 -0.00000000000E+00  0.00000000000E+00  0.70977096690E+03  0.70977096690E+03  0.00000000000E+00 0. -1.
         21   -1    0    0  501  502  0.00000000000E+00 -0.00000000000E+00 -0.11466328476E+03  0.11466328476E+03  0.00000000000E+00 0. -1.
         24    2    1    2    0    0  0.74853182697E+02 -0.16586913182E+03  0.11015692892E+03  0.22717861697E+03  0.79749653093E+02 0.  0.
         23    2    1    2    0    0  0.36419924196E+02 -0.46985679259E+02  0.15857838931E+03  0.19203002488E+03  0.90522704137E+02 0.  0.
        -13    1    3    3    0    0 -0.34360880009E+01 -0.21755415458E+02  0.46129001708E+02  0.51117409960E+02  0.00000000000E+00 0.  1.
         14    1    3    3    0    0  0.78289270698E+02 -0.14411371637E+03  0.64027927209E+02  0.17606120701E+03  0.00000000000E+00 0. -1.
        -11    1    4    4    0    0  0.26094390410E+02  0.11220681426E+02  0.11534928581E+03  0.11879511202E+03  0.00000000000E+00 0.  1.
         11    1    4    4    0    0  0.10325533786E+02 -0.58206360685E+02  0.43229103502E+02  0.73234912861E+02  0.00000000000E+00 0. -1.
          1    1    1    2  501    0 -0.11127310689E+03  0.21285481108E+03  0.32637236392E+03  0.40522560981E+03  0.00000000000E+00 0. -1.
<scales pt_clust_5="13000.00000" pt_clust_6="13000.00000" pt_clust_7="13000.00000" pt_clust_8="13000.00000" pt_clust_9="13000.00000"></scales>
<clustering>
<clus scale="   79.750">  5  6 -1 -1</clus>
<clus scale="   90.523">  7  8 -1 -1</clus>
<clus scale="  198.685">  1  5  2 -1</clus>
<clus scale="  117.584">  7  9 -1 -1</clus>
<clus scale="  348.622">  2  5  1 -1</clus>
</clustering>
</event>
<event>
 9    2  0.3707658E-005  0.2675679E+03  0.7546771E-02  0.1148702E+00
         21   -1    0    0  501  502  0.00000000000E+00  0.00000000000E+00  0.41635901536E+02  0.41635901536E+02  0.00000000000E+00 0. -1.
          2   -1    0    0  502    0 -0.00000000000E+00 -0.00000000000E+00 -0.83943835306E+03  0.83943835306E+03  0.00000000000E+00 0. -1.
         24    2    1    2    0    0  0.10371460322E+02  0.23969189875E+02 -0.34189432993E+03  0.35244887655E+03  0.81525385553E+02 0.  0.
         23    2    1    2    0    0  0.83941558369E+02 -0.94116158394E+02 -0.26903149539E+03  0.30785759030E+03  0.80587306069E+02 0.  0.
        -13    1    3    3    0    0 -0.22648081299E+02 -0.20236560479E+02 -0.12766562526E+03  0.13122867765E+03  0.00000000000E+00 0.  1.
         14    1    3    3    0    0  0.33019541621E+02  0.44205750353E+02 -0.21422870467E+03  0.22122019890E+03  0.00000000000E+00 0. -1.
        -11    1    4    4    0    0  0.98778382743E+02 -0.73585538323E+02 -0.20733327483E+03  0.24116195222E+03  0.00000000000E+00 0. -1.
         11    1    4    4    0    0 -0.14836824374E+02 -0.20530620071E+02 -0.61698220566E+02  0.66695638081E+02  0.00000000000E+00 0.  1.
          1    1    1    2  501    0 -0.94313018691E+02  0.70146968519E+02 -0.18687662620E+03  0.22076778775E+03  0.00000000000E+00 0. -1.
<scales pt_clust_5="13000.00000" pt_clust_6="13000.00000" pt_clust_7="13000.00000" pt_clust_8="13000.00000" pt_clust_9="13000.00000"></scales>
<clustering>
<clus scale="   80.587">  7  8 -1 -1</clus>
<clus scale="   81.525">  5  6 -1 -1</clus>
<clus scale="   85.607">  2  5  1 -1</clus>
<clus scale="  120.477">  7  9 -1 -1</clus>
<clus scale="  267.568">  1  5  2 -1</clus>
</clustering>
</event>
<event>
 9    2  0.3707658E-005  0.2920845E+03  0.7546771E-02  0.1133777E+00
          4   -1    0    0  502    0 -0.00000000000E+00  0.00000000000E+00  0.47119672685E+03  0.47119672685E+03  0.00000000000E+00 0. -1.
         21   -1    0    0  501  502  0.00000000000E+00 -0.00000000000E+00 -0.80847489508E+02  0.80847489508E+02  0.00000000000E+00 0. -1.
         24    2    1    2    0    0  0.37414133831E+02  0.30232059172E+02  0.13135150161E+03  0.16166853435E+03  0.81053705732E+02 0.  0.
         23    2    1    2    0    0  0.41507668637E+02  0.54053467586E+02  0.64087430978E+01  0.11264577701E+03  0.89461361365E+02 0.  0.
        -13    1    3    3    0    0 -0.24472158606E+02  0.11575125451E+02  0.57312046538E+02  0.63384073350E+02  0.00000000000E+00 0.  1.
         14    1    3    3    0    0  0.61886292437E+02  0.18656933721E+02  0.74039455072E+02  0.98284461004E+02  0.00000000000E+00 0. -1.
        -13    1    4    4    0    0 -0.20674002842E+02  0.26099375018E+02  0.25395512898E+02  0.41875098152E+02  0.00000000000E+00 0.  1.
         13    1    4    4    0    0  0.62181671479E+02  0.27954092567E+02 -0.18986769800E+02  0.70770678862E+02  0.00000000000E+00 0. -1.
          3    1    1    2  501    0 -0.78921802468E+02 -0.84285526757E+02  0.25258899264E+03  0.27772990499E+03  0.00000000000E+00 0. -1.
<scales pt_clust_5="13000.00000" pt_clust_6="13000.00000" pt_clust_7="13000.00000" pt_clust_8="13000.00000" pt_clust_9="13000.00000"></scales>
<clustering>
<clus scale="   81.054">  5  6 -1 -1</clus>
<clus scale="   89.461">  7  8 -1 -1</clus>
<clus scale="   94.252">  1  5  2 -1</clus>
<clus scale="   76.753">  7  9 -1 -1</clus>
<clus scale="  292.084">  2  5  1 -1</clus>
</clustering>
</event>
<event>
 9    2  0.3707658E-005  0.1925517E+03  0.7546771E-02  0.1190084E+00
         21   -1    0    0  501  502  0.00000000000E+00  0.00000000000E+00  0.28089199015E+02  0.28089199015E+02  0.00000000000E+00 0.  1.
          2   -1    0    0  502    0 -0.00000000000E+00 -0.00000000000E+00 -0.70567257688E+03  0.70567257688E+03  0.00000000000E+00 0. -1.
         24    2    1    2    0    0 -0.11153058092E+02 -0.36911911982E+02 -0.21570873347E+03  0.23335761014E+03  0.80241115164E+02 0.  0.
         23    2    1    2    0    0  0.62208062597E+02 -0.17126382290E+02 -0.21666822142E+03  0.24417586795E+03  0.92269064644E+02 0.  0.
        -11    1    3    3    0    0 -0.12253143451E+01 -0.49885580407E+02 -0.65902365134E+02  0.82663137238E+02  0.00000000000E+00 0.  1.
         12    1    3    3    0    0 -0.99277437471E+01  0.12973668425E+02 -0.14980636834E+03  0.15069447290E+03  0.00000000000E+00 0. -1.
        -11    1    4    4    0    0  0.52660343544E+02 -0.36367413535E+02 -0.21297288806E+03  0.22238064574E+03  0.00000000000E+00 0. -1.
         11    1    4    4    0    0  0.95477190533E+01  0.19241031245E+02 -0.36953333619E+01  0.21795222209E+02  0.00000000000E+00 0.  1.
          1    1    1    2  501    0 -0.51055004505E+02  0.54038294272E+02 -0.24520642297E+03  0.25622829781E+03  0.00000000000E+00 0. -1.
<scales pt_clust_5="13000.00000" pt_clust_6="13000.00000" pt_clust_7="13000.00000" pt_clust_8="13000.00000" pt_clust_9="13000.00000"></scales>
<clustering>
<clus scale="   80.241">  5  6 -1 -1</clus>
<clus scale="   89.025">  2  5  1 -1</clus>
<clus scale="   92.269">  7  8 -1 -1</clus>
<clus scale="   66.672">  7  9 -1 -1</clus>
<clus scale="  192.552">  1  5  2 -1</clus>
</clustering>
</event>
<event>
 9    2  0.5920354E-005  0.5649066E+03  0.7546771E-02  0.1032717E+00
          2   -1    0    0  502    0 -0.00000000000E+00  0.00000000000E+00  0.12500751783E+04  0.12500751783E+04  0.00000000000E+00 0. -1.
         21   -1    0    0  501  502  0.00000000000E+00 -0.00000000000E+00 -0.13219868985E+03  0.13219868985E+03  0.00000000000E+00 0. -1.
         24    2    1    2    0    0  0.10092318535E+03 -0.14734952508E+03  0.10491135502E+03  0.22243863294E+03  0.81087490580E+02 0.  0.
         23    2    1    2    0    0  0.71630717758E+02 -0.14694894946E+03  0.18039875592E+03  0.26008348358E+03  0.91513681044E+02 0.  0.
        -11    1    3    3    0    0  0.25092725379E+02 -0.67913105833E+02  0.83559548219E+02  0.11056234852E+03  0.00000000000E+00 0.  1.
         12    1    3    3    0    0  0.75830459974E+02 -0.79436419248E+02  0.21351806801E+02  0.11187628442E+03  0.00000000000E+00 0. -1.
        -11    1    4    4    0    0 -0.18832495810E+02 -0.48899714694E+02  0.66533710097E+02  0.84691083208E+02  0.00000000000E+00 0.  1.
         11    1    4    4    0    0  0.90463213568E+02 -0.98049234763E+02  0.11386504582E+03  0.17539240037E+03  0.00000000000E+00 0. -1.
          1    1    1    2  501    0 -0.17255390311E+03  0.29429847454E+03  0.83256637752E+03  0.89975175164E+03  0.00000000000E+00 0. -1.
<scales pt_clust_5="13000.00000" pt_clust_6="13000.00000" pt_clust_7="13000.00000" pt_clust_8="13000.00000" pt_clust_9="13000.00000"></scales>
<clustering>
<clus scale="   81.087">  5  6 -1 -1</clus>
<clus scale="   91.514">  7  8 -1 -1</clus>
<clus scale="  196.144">  1  5  2 -1</clus>
<clus scale="  199.364">  7  9 -1 -1</clus>
<clus scale="  564.907">  2  5  1 -1</clus>
</clustering>
</event>
<event>
 9    2  0.3707658E-005  0.3521184E+03  0.7546771E-02  0.1107588E+00
         -1   -1    0    0    0  501 -0.00000000000E+00  0.00000000000E+00  0.13864002631E+03  0.13864002631E+03  0.00000000000E+00 0.  1.
         21   -1    0    0  501  502  0.00000000000E+00 -0.00000000000E+00 -0.39283408301E+03  0.39283408301E+03  0.00000000000E+00 0.  1.
         24    2    1    2    0    0 -0.63838946003E+02  0.13367363577E+02 -0.10984726335E+03  0.15091744219E+03  0.80346472578E+02 0.  0.
         23    2    1    2    0    0 -0.97433861352E+02 -0.13776938746E+02 -0.16785666417E+03  0.21757875399E+03  0.97372958788E+02 0.  0.
        -13    1    3    3    0    0 -0.43906064777E+02  0.26350689941E+02 -0.15329070023E+02  0.53451676983E+02  0.00000000000E+00 0.  1.
         14    1    3    3    0    0 -0.19932881226E+02 -0.12983326364E+02 -0.94518193328E+02  0.97465765207E+02  0.00000000000E+00 0. -1.
        -11    1    4    4    0    0 -0.64930947879E+02  0.39090542382E+02 -0.10217458451E+03  0.12721534584E+03  0.00000000000E+00 0.  1.
         11    1    4    4    0    0 -0.32502913473E+02 -0.52867481129E+02 -0.65682079657E+02  0.90363408154E+02  0.00000000000E+00 0. -1.
         -2    1    1    2    0  502  0.16127280735E+03  0.40957516973E+00  0.23509870828E+02  0.16297791314E+03  0.00000000000E+00 0.  1.
<scales pt_clust_5="13000.00000" pt_clust_6="13000.00000" pt_clust_7="13000.00000" pt_clust_8="13000.00000" pt_clust_9="13000.00000"></scales>
<clustering>
<clus scale="   80.346">  5  6 -1 -1</clus>
<clus scale="   97.373">  7  8 -1 -1</clus>
<clus scale="  103.488">  1  5  2 -1</clus>
<clus scale="  111.413">  7  9 -1 -1</clus>
<clus scale="  352.118">  2  5  1 -1</clus>
</clustering>
</event>
<event>
 9    2  0.3707658E-005  0.2371519E+03  0.7546771E-02  0.1127532E+00
         21   -1    0    0  501  502  0.00000000000E+00  0.00000000000E+00  0.73147353389E+02  0.73147353389E+02  0.00000000000E+00 0. -1.
          4   -1    0    0  502    0 -0.00000000000E+00 -0.00000000000E+00 -0.68191563531E+03  0.68191563531E+03  0.00000000000E+00 0. -1.
         24    2    1    2    0    0  0.17322573898E+03 -0.76786128966E+02 -0.23081553832E+03  0.30886875403E+03  0.78872227298E+02 0.  0.
         23    2    1    2    0    0 -0.62633680842E+02  0.28708225424E+02 -0.21875948390E+03  0.24648298794E+03  0.90282951702E+02 0.  0.
        -13    1    3    3    0    0  0.19720043587E+02 -0.12779378553E+02 -0.83326100608E+02  0.86576161140E+02  0.00000000000E+00 0.  1.
         14    1    3    3    0    0  0.15350569540E+03 -0.64006750413E+02 -0.14748943771E+03  0.22229259289E+03  0.00000000000E+00 0. -1.
        -11    1    4    4    0    0 -0.54044086473E+02 -0.16608562200E+02 -0.17092632271E+03  0.18003448397E+03  0.00000000000E+00 0.  1.
         11    1    4    4    0    0 -0.85895943690E+01  0.45316787623E+02 -0.47833161184E+02  0.66448503977E+02  0.00000000000E+00 0. -1.
          3    1    1    2  501    0 -0.11059205814E+03  0.48077903542E+02 -0.15919325970E+03  0.19971124672E+03  0.00000000000E+00 0. -1.
<scales pt_clust_5="13000.00000" pt_clust_6="13000.00000" pt_clust_7="13000.00000" pt_clust_8="13000.00000" pt_clust_9="13000.00000"></scales>
<clustering>
<clus scale="   78.872">  5  6 -1 -1</clus>
<clus scale="   90.283">  7  8 -1 -1</clus>
<clus scale="  120.591">  7  9 -1 -1</clus>
<clus scale="  205.242">  2  5  1 -1</clus>
<clus scale="  237.152">  1  5  2 -1</clus>
</clustering>
</event>
<event>
 9    2  0.3707658E-005  0.5708264E+03  0.7546771E-02  0.1058027E+00
         21   -1    0    0  501  502  0.00000000000E+00  0.00000000000E+00  0.74248886707E+02  0.74248886707E+02  0.00000000000E+00 0.  1.
          2   -1    0    0  502    0 -0.00000000000E+00 -0.00000000000E+00 -0.17694636410E+04  0.17694636410E+04  0.00000000000E+00 0. -1.
         24    2    1    2    0    0 -0.42807417289E+02  0.42657336474E+01 -0.61639298628E+03  0.62318020669E+03  0.81009783458E+02 0.  0.
         23    2    1    2    0    0 -0.20754771927E+03  0.13141312612E+03 -0.34434376241E+03  0.43278592268E+03  0.91572717922E+02 0.  0.
        -11    1    3    3    0    0 -0.26947371884E+02 -0.29050070250E+02 -0.14411587648E+03  0.14946388622E+03  0.00000000000E+00 0.  1.
         12    1    3    3    0    0 -0.15860045404E+02  0.33315803898E+02 -0.47227710981E+03  0.47371632047E+03  0.00000000000E+00 0. -1.
        -11    1    4    4    0    0 -0.21020981969E+03  0.10427384108E+03 -0.30251294348E+03  0.38285151586E+03  0.00000000000E+00 0.  1.
         11    1    4    4    0    0  0.26621004234E+01  0.27139285045E+02 -0.41830818930E+02  0.49934406813E+02  0.00000000000E+00 0. -1.
          1    1    1    2  501    0  0.25035513655E+03 -0.13567885977E+03 -0.73447800565E+03  0.78774639838E+03  0.00000000000E+00 0. -1.
<scales pt_clust_5="13000.00000" pt_clust_6="13000.00000" pt_clust_7="13000.00000" pt_clust_8="13000.00000" pt_clust_9="13000.00000"></scales>
<clustering>
<clus scale="   81.010">  5  6 -1 -1</clus>
<clus scale="   91.573">  7  8 -1 -1</clus>
<clus scale="   91.724">  2  5  1 -1</clus>
<clus scale="  258.730">  7  9 -1 -1</clus>
<clus scale="  570.826">  1  5  2 -1</clus>
</clustering>
</event>
<event>
 9    2  0.3707658E-005  0.2543131E+03  0.7546771E-02  0.1140601E+00
         21   -1    0    0  501  502  0.00000000000E+00  0.00000000000E+00  0.33268763205E+03  0.33268763205E+03  0.00000000000E+00 0.  1.
         -1   -1    0    0    0  501 -0.00000000000E+00 -0.00000000000E+00 -0.10603943513E+03  0.10603943513E+03  0.00000000000E+00 0.  1.
         24    2    1    2    0    0 -0.83647772189E+02 -0.30086950548E+02  0.81543608268E+02  0.14592938329E+03  0.82120950259E+02 0.  0.
         23    2    1    2    0    0 -0.59753540308E+00  0.23217503013E+02  0.17945529474E+03  0.20155935769E+03  0.88783795636E+02 0.  0.
        -13    1    3    3    0    0 -0.28391380492E+02 -0.52820731649E+02  0.30165986676E+02  0.67127393293E+02  0.00000000000E+00 0.  1.
         14    1    3    3    0    0 -0.55256391697E+02  0.22733781100E+02  0.51377621591E+02  0.78801989993E+02  0.00000000000E+00 0. -1.
        -13    1    4    4    0    0 -0.61420828005E+01  0.48286859800E+02  0.50757502596E+02  0.70325458266E+02  0.00000000000E+00 0.  1.
         13    1    4    4    0    0  0.55445473974E+01 -0.25069356786E+02  0.12869779214E+03  0.13123389943E+03  0.00000000000E+00 0. -1.
         -2    1    1    2    0  502  0.84245307592E+02  0.68694475353E+01 -0.34350706089E+02  0.91238326210E+02  0.00000000000E+00 0.  1.
<scales pt_clust_5="13000.00000" pt_clust_6="13000.00000" pt_clust_7="13000.00000" pt_clust_8="13000.00000" pt_clust_9="13000.00000"></scales>
<clustering>
<clus scale="   82.121">  5  6 -1 -1</clus>
<clus scale="   88.784">  7  8 -1 -1</clus>
<clus scale="   84.525">  7  9 -1 -1</clus>
<clus scale="  121.021">  2  5  1 -1</clus>
<clus scale="  254.313">  1  5  2 -1</clus>
</clustering>
</event>
<event>
 9    2  0.3707658E-005  0.2876782E+03  0.7546771E-02  0.1139745E+00
         21   -1    0    0  501  502  0.00000000000E+00  0.00000000000E+00  0.51344845491E+02  0.51344845491E+02  0.00000000000E+00 0.  1.
          2   -1    0    0  502    0 -0.00000000000E+00 -0.00000000000E+00 -0.87884435760E+03  0.87884435760E+03  0.00000000000E+00 0. -1.
         24    2    1    2    0    0 -0.22053860916E+02  0.18325119644E+02 -0.45008597701E+02  0.96492165561E+02  0.80391425888E+02 0.  0.
         23    2    1    2    0    0  0.14037323092E+03 -0.75423654183E+01 -0.42372168126E+03  0.45576701258E+03  0.91771320940E+02 0.  0.
        -11    1    3    3    0    0 -0.50925555190E+02  0.32400939021E+01 -0.17784553286E+02  0.54038881516E+02  0.00000000000E+00 0.  1.
         12    1    3    3    0    0  0.28871694274E+02  0.15085025742E+02 -0.27224044415E+02  0.42453284045E+02  0.00000000000E+00 0. -1.
        -13    1    4    4    0    0  0.52465259554E+02  0.18563755586E+02 -0.65289681988E+02  0.85790203727E+02  0.00000000000E+00 0.  1.
         13    1    4    4    0    0  0.87907971371E+02 -0.26106121004E+02 -0.35843199927E+03  0.36997680885E+03  0.00000000000E+00 0. -1.
          1    1    1    2  501    0 -0.11831937001E+03 -0.10782754226E+02 -0.35876923315E+03  0.37793002495E+03  0.00000000000E+00 0. -1.
<scales pt_clust_5="13000.00000" pt_clust_6="13000.00000" pt_clust_7="13000.00000" pt_clust_8="13000.00000" pt_clust_9="13000.00000"></scales>
<clustering>
<clus scale="   80.391">  5  6 -1 -1</clus>
<clus scale="   85.352">  2  5  1 -1</clus>
<clus scale="   91.771">  7  8 -1 -1</clus>
<clus scale="  128.395">  7  9 -1 -1</clus>
<clus scale="  287.678">  1  5  2 -1</clus>
</clustering>
</event>
<event>
 9    2  0.3707658E-005  0.4216982E+03  0.7546771E-02  0.1059838E+00
         21   -1    0    0  501  502  0.00000000000E+00  0.00000000000E+00  0.21330581800E+03  0.21330581800E+03  0.00000000000E+00 0.  1.
          2   -1    0    0  502    0 -0.00000000000E+00 -0.00000000000E+00 -0.48695573614E+03  0.48695573614E+03  0.00000000000E+00 0. -1.
         24    2    1    2    0    0 -0.19321739880E+03 -0.50570054571E+02 -0.14117042290E+03  0.25824319581E+03  0.82886466108E+02 0.  0.
         23    2    1    2    0    0 -0.18165335663E+02 -0.53181791990E+02 -0.17384447405E+03  0.20294061456E+03  0.88344266716E+02 0.  0.
        -13    1    3    3    0    0 -0.18594381821E+03 -0.59157190773E+02 -0.10758179372E+03  0.22281947646E+03  0.00000000000E+00 0.  1.
         14    1    3    3    0    0 -0.72735805911E+01  0.85871362022E+01 -0.33588629173E+02  0.35423719349E+02  0.00000000000E+00 0. -1.
        -11    1    4    4    0    0 -0.40205003024E+02 -0.22089929482E+02 -0.15251967269E+03  0.15926913640E+03  0.00000000000E+00 0. -1.
         11    1    4    4    0    0  0.22039667361E+02 -0.31091862508E+02 -0.21324801360E+02  0.43671478159E+02  0.00000000000E+00 0.  1.
          1    1    1    2  501    0  0.21138273446E+03  0.10375184656E+03  0.41364978795E+02  0.23907774377E+03  0.00000000000E+00 0. -1.
<scales pt_clust_5="13000.00000" pt_clust_6="13000.00000" pt_clust_7="13000.00000" pt_clust_8="13000.00000" pt_clust_9="13000.00000"></scales>
<clustering>
<clus scale="   82.886">  5  6 -1 -1</clus>
<clus scale="   88.344">  7  8 -1 -1</clus>
<clus scale="  216.242">  2  5  1 -1</clus>
<clus scale="  168.666">  7  9 -1 -1</clus>
<clus scale="  421.698">  1  5  2 -1</clus>
</clustering>
</event>
<event>
 9    2  0.3707658E-005  0.4413094E+03  0.7546771E-02  0.1063451E+00
          2   -1    0    0  502    0 -0.00000000000E+00  0.00000000000E+00  0.46477638364E+03  0.46477638364E+03  0.00000000000E+00 0. -1.
         21   -1    0    0  501  502  0.00000000000E+00 -0.00000000000E+00 -0.20143171909E+03  0.20143171909E+03  0.00000000000E+00 0. -1.
         24    2    1    2    0    0  0.13877183727E+03  0.59686087285E+02  0.77479206530E+02  0.18735532834E+03  0.79239761355E+02 0.  0.
         23    2    1    2    0    0 -0.12195283933E+03  0.88572426406E+02 -0.64117722323E+02  0.18772555817E+03  0.91718226833E+02 0.  0.
        -13    1    3    3    0    0  0.21544418239E+02  0.16926346492E+02 -0.15739924635E+02  0.31597601022E+02  0.00000000000E+00 0.  1.
         14    1    3    3    0    0  0.11722741903E+03  0.42759740793E+02  0.93219131165E+02  0.15575772732E+03  0.00000000000E+00 0. -1.
        -11    1    4    4    0    0 -0.39536234602E+02 -0.14562073545E+02 -0.28891185538E+02  0.51086871447E+02  0.00000000000E+00 0.  1.
         11    1    4    4    0    0 -0.82416604731E+02  0.10313449995E+03 -0.35226536785E+02  0.13663868672E+03  0.00000000000E+00 0. -1.
          1    1    1    2  501    0 -0.16818997935E+02 -0.14825851369E+03  0.24998318033E+03  0.29112721622E+03  0.00000000000E+00 0. -1.
<scales pt_clust_5="13000.00000" pt_clust_6="13000.00000" pt_clust_7="13000.00000" pt_clust_8="13000.00000" pt_clust_9="13000.00000"></scales>
<clustering>
<clus scale="   79.240">  5  6 -1 -1</clus>
<clus scale="   91.718">  7  8 -1 -1</clus>
<clus scale="  149.210">  7  9 -1 -1</clus>
<clus scale="  170.584">  1  5  2 -1</clus>
<clus scale="  441.309">  2  5  1 -1</clus>
</clustering>
</event>
<event>
 9    2  0.3707658E-005  0.2989770E+03  0.7546771E-02  0.1124341E+00
          2   -1    0    0  502    0 -0.00000000000E+00  0.00000000000E+00  0.18149977545E+04  0.18149977545E+04  0.00000000000E+00 0. -1.
         21   -1    0    0  501  502  0.00000000000E+00 -0.00000000000E+00 -0.24374142187E+02  0.24374142187E+02  0.00000000000E+00 0.  1.
         24    2    1    2    0    0  0.65963990918E+01  0.76842867584E+02  0.69073901303E+03  0.69957656807E+03  0.79615649802E+02 0.  0.
         23    2    1    2    0    0  0.12090968342E+03 -0.13402045425E+02  0.65129246652E+03  0.66913893530E+03  0.93628368667E+02 0.  0.
        -11    1    3    3    0    0  0.42323978153E+02  0.34518891988E+02  0.29991459784E+03  0.30484691080E+03  0.00000000000E+00 0.  1.
         12    1    3    3    0    0 -0.35727579061E+02  0.42323975596E+02  0.39082441519E+03  0.39472965727E+03  0.00000000000E+00 0. -1.
        -11    1    4    4    0    0  0.88384305608E+02 -0.51728694910E+02  0.46838048898E+03  0.47944543570E+03  0.00000000000E+00 0.  1.
         11    1    4    4    0    0  0.32525377813E+02  0.38326649486E+02  0.18291197754E+03  0.18969349960E+03  0.00000000000E+00 0. -1.
          1    1    1    2  501    0 -0.12750608251E+03 -0.63440822159E+02  0.44859213275E+03  0.47065639330E+03  0.00000000000E+00 0. -1.
<scales pt_clust_5="13000.00000" pt_clust_6="13000.00000" pt_clust_7="13000.00000" pt_clust_8="13000.00000" pt_clust_9="13000.00000"></scales>
<clustering>
<clus scale="   79.616">  5  6 -1 -1</clus>
<clus scale="   93.628">  7  8 -1 -1</clus>
<clus scale="  110.847">  1  5  2 -1</clus>
<clus scale="  128.812">  7  9 -1 -1</clus>
<clus scale="  298.977">  2  5  1 -1</clus>
</clustering>
</event>
<event>
 9    2  0.3707658E-005  0.7039203E+03  0.7546771E-02  0.1025641E+00
          2   -1    0    0  502    0 -0.00000000000E+00  0.00000000000E+00  0.92256993381E+03  0.92256993381E+03  0.00000000000E+00 0. -1.
         21   -1    0    0  501  502  0.00000000000E+00 -0.00000000000E+00 -0.20512374493E+03  0.20512374493E+03  0.00000000000E+00 0. -1.
         24    2    1    2    0    0 -0.89486285287E+00 -0.95498909126E+02  0.35979252329E+01  0.12515533219E+03  0.80808846580E+02 0.  0.
         23    2    1    2    0    0 -0.13565474577E+03 -0.10092371190E+03  0.73743310587E+03  0.76215555506E+03  0.92117852792E+02 0.  0.
        -11    1    3    3    0    0 -0.21866513963E+02 -0.12247235293E+02  0.26322988575E+02  0.36346099278E+02  0.00000000000E+00 0.  1.
         12    1    3    3    0    0  0.20971651110E+02 -0.83251673833E+02 -0.22725063342E+02  0.88809232911E+02  0.00000000000E+00 0. -1.
        -13    1    4    4    0    0 -0.21301737040E+02 -0.21180307392E+01  0.21112093791E+02  0.30066103162E+02  0.00000000000E+00 0.  1.
         13    1    4    4    0    0 -0.11435300873E+03 -0.98805681156E+02  0.71632101208E+03  0.73208945190E+03  0.00000000000E+00 0. -1.
          1    1    1    2  501    0  0.13654960862E+03  0.19642262102E+03 -0.23584842218E+02  0.24038279149E+03  0.00000000000E+00 0. -1.
<scales pt_clust_5="13000.00000" pt_clust_6="13000.00000" pt_clust_7="13000.00000" pt_clust_8="13000.00000" pt_clust_9="13000.00000"></scales>
<clustering>
<clus scale="   80.809">  5  6 -1 -1</clus>
<clus scale="   92.118">  7  8 -1 -1</clus>
<clus scale="  125.104">  1  5  2 -1</clus>
<clus scale="  229.355">  7  9 -1 -1</clus>
<clus scale="  703.920">  2  5  1 -1</clus>
</clustering>
</event>
<event>
 9    2  0.3707658E-005  0.1700407E+03  0.7546771E-02  0.1196656E+00
          2   -1    0    0  502    0 -0.00000000000E+00  0.00000000000E+00  0.42297839302E+03  0.42297839302E+03  0.00000000000E+00 0. -1.
         21   -1    0    0  501  502  0.00000000000E+00 -0.00000000000E+00 -0.89320545695E+02  0.89320545695E+02  0.00000000000E+00 0.  1.
         24    2    1    2    0    0 -0.57649844687E+02 -0.48960699016E+02  0.32310495480E+03  0.34193106772E+03  0.82458405394E+02 0.  0.
         23    2    1    2    0    0  0.45417084088E+02  0.82886163162E+01 -0.30815396393E+02  0.11107879888E+03  0.96215893796E+02 0.  0.
        -11    1    3    3    0    0  0.25250376638E+01 -0.51553241137E+02  0.14416494377E+03  0.15312623387E+03  0.00000000000E+00 0.  1.
         12    1    3    3    0    0 -0.60174882351E+02  0.25925421203E+01  0.17894001103E+03  0.18880483386E+03  0.00000000000E+00 0. -1.
        -11    1    4    4    0    0  0.10200327188E+02 -0.25381719514E+02  0.24951957729E+02  0.37025377172E+02  0.00000000000E+00 0. -1.
         11    1    4    4    0    0  0.35216756900E+02  0.33670335830E+02 -0.55767354121E+02  0.74053421712E+02  0.00000000000E+00 0.  1.
          1    1    1    2  501    0  0.12232760598E+02  0.40672082700E+02  0.41368288921E+02  0.59289072106E+02  0.00000000000E+00 0. -1.
<scales pt_clust_5="13000.00000" pt_clust_6="13000.00000" pt_clust_7="13000.00000" pt_clust_8="13000.00000" pt_clust_9="13000.00000"></scales>
<clustering>
<clus scale="   82.458">  5  6 -1 -1</clus>
<clus scale="   96.216">  7  8 -1 -1</clus>
<clus scale="   42.472">  7  9 -1 -1</clus>
<clus scale="  111.893">  1  5  2 -1</clus>
<clus scale="  170.041">  2  5  1 -1</clus>
</clustering>
</event>
<event>
 9    2  0.3707658E-005  0.2865630E+03  0.7546771E-02  0.1114810E+00
         21   -1    0    0  501  502  0.00000000000E+00  0.00000000000E+00  0.89635550015E+02  0.89635550015E+02  0.00000000000E+00 0. -1.
          2   -1    0    0  502    0 -0.00000000000E+00 -0.00000000000E+00 -0.57715623507E+03  0.57715623507E+03  0.00000000000E+00 0. -1.
         24    2    1    2    0    0  0.93382346766E+01 -0.13409260190E+03 -0.11535574870E+03  0.19708431864E+03  0.86413259303E+02 0.  0.
         23    2    1    2    0    0 -0.90139607978E+02  0.14761383945E+03 -0.30418831005E+03  0.36325321563E+03  0.97505775063E+02 0.  0.
        -13    1    3    3    0    0  0.83935623053E+01 -0.77198992466E+02 -0.11669066195E+03  0.14016721054E+03  0.00000000000E+00 0.  1.
         14    1    3    3    0    0  0.94467237123E+00 -0.56893609438E+02  0.13349132449E+01  0.56917108097E+02  0.00000000000E+00 0. -1.
        -13    1    4    4    0    0 -0.38237350994E+02  0.13857238984E+03 -0.24460823983E+03  0.28372097778E+03  0.00000000000E+00 0. -1.
         13    1    4    4    0    0 -0.51902256984E+02  0.90414496177E+01 -0.59580070222E+02  0.79532237859E+02  0.00000000000E+00 0.  1.
          1    1    1    2  501    0  0.80801373301E+02 -0.13521237551E+02 -0.67976626298E+02  0.10645425081E+03  0.00000000000E+00 0. -1.
<scales pt_clust_5="13000.00000" pt_clust_6="13000.00000" pt_clust_7="13000.00000" pt_clust_8="13000.00000" pt_clust_9="13000.00000"></scales>
<clustering>
<clus scale="   86.413">  5  6 -1 -1</clus>
<clus scale="   97.506">  7  8 -1 -1</clus>
<clus scale="   81.925">  7  9 -1 -1</clus>
<clus scale="  159.798">  2  5  1 -1</clus>
<clus scale="  286.563">  1  5  2 -1</clus>
</clustering>
</event>
<event>
 9    2  0.3707658E-005  0.3491820E+03  0.7546771E-02  0.1090330E+00
         21   -1    0    0  501  502  0.00000000000E+00  0.00000000000E+00  0.47013178919E+02  0.47013178919E+02  0.00000000000E+00 0. -1.
          2   -1    0    0  502    0 -0.00000000000E+00 -0.00000000000E+00 -0.14195916476E+04  0.14195916476E+04  0.00000000000E+00 0. -1.
         24    2    1    2    0    0  0.98080624417E+01 -0.12942972402E+03 -0.39548504052E+03  0.42899234396E+03  0.10381600241E+03 0.  0.
         23    2    1    2    0    0 -0.78355163304E+02 -0.68605944104E+02 -0.42764681487E+03  0.44955771321E+03  0.91509737525E+02 0.  0.
        -11    1    3    3    0    0 -0.39238345207E+02 -0.28251062175E+02 -0.73850748422E+02  0.88270625301E+02  0.00000000000E+00 0.  1.
         12    1    3    3    0    0  0.49046407648E+02 -0.10117866184E+03 -0.32163429209E+03  0.34072171866E+03  0.00000000000E+00 0. -1.
        -11    1    4    4    0    0 -0.18461710728E+02 -0.72315985111E+02 -0.28899843579E+03  0.29848037181E+03  0.00000000000E+00 0.  1.
         11    1    4    4    0    0 -0.59893452576E+02  0.37100410070E+01 -0.13864837908E+03  0.15107734141E+03  0.00000000000E+00 0. -1.
          1    1    1    2  501    0  0.68547100862E+02  0.19803566812E+03 -0.54944661331E+03  0.58805476936E+03  0.00000000000E+00 0. -1.
<scales pt_clust_5="13000.00000" pt_clust_6="13000.00000" pt_clust_7="13000.00000" pt_clust_8="13000.00000" pt_clust_9="13000.00000"></scales>
<clustering>
<clus scale="   91.510">  7  8 -1 -1</clus>
<clus scale="  103.816">  5  6 -1 -1</clus>
<clus scale="  166.211">  2  5  1 -1</clus>
<clus scale="  145.270">  7  9 -1 -1</clus>
<clus scale="  349.182">  1  5  2 -1</clus>
</clustering>
</event>
<event>
 9    2  0.3707658E-005  0.3454872E+03  0.7546771E-02  0.1114837E+00
         -1   -1    0    0    0  501 -0.00000000000E+00  0.00000000000E+00  0.95394747330E+03  0.95394747330E+03  0.00000000000E+00 0.  1.
         21   -1    0    0  501  502  0.00000000000E+00 -0.00000000000E+00 -0.55003331976E+02  0.55003331976E+02  0.00000000000E+00 0.  1.
         24    2    1    2    0    0  0.27103177333E+02  0.52659400480E+02  0.33870585799E+03  0.35074994728E+03  0.69255126903E+02 0.  0.
         23    2    1    2    0    0  0.13577767057E+03  0.24252730195E+02  0.27978478156E+03  0.32488447208E+03  0.90810932500E+02 0.  0.
        -13    1    3    3    0    0  0.38160293095E+02  0.50900515267E+02  0.33123820377E+03  0.33729188852E+03  0.00000000000E+00 0.  1.
         14    1    3    3    0    0 -0.11057115762E+02  0.17588852131E+01  0.74676542189E+01  0.13458058764E+02  0.00000000000E+00 0. -1.
        -13    1    4    4    0    0  0.53951487166E+01  0.30607311112E+02  0.84070652549E+02  0.89631410472E+02  0.00000000000E+00 0. -1.
         13    1    4    4    0    0  0.13038252185E+03 -0.63545809164E+01  0.19571412901E+03  0.23525306161E+03  0.00000000000E+00 0.  1.
         -2    1    1    2    0  502 -0.16288084790E+03 -0.76912130676E+02  0.28045350178E+03  0.33331638591E+03  0.00000000000E+00 0.  1.
<scales pt_clust_5="13000.00000" pt_clust_6="13000.00000" pt_clust_7="13000.00000" pt_clust_8="13000.00000" pt_clust_9="13000.00000"></scales>
<clustering>
<clus scale="   69.255">  5  6 -1 -1</clus>
<clus scale="   90.811">  7  8 -1 -1</clus>
<clus scale="   91.126">  1  5  2 -1</clus>
<clus scale="  157.505">  7  9 -1 -1</clus>
<clus scale="  345.487">  2  5  1 -1</clus>
</clustering>
</event>
<event>
 9    2  0.3707658E-005  0.3204025E+03  0.7546771E-02  0.1111079E+00
          2   -1    0    0  502    0 -0.00000000000E+00  0.00000000000E+00  0.14424727781E+04  0.14424727781E+04  0.00000000000E+00 0. -1.
         21   -1    0    0  501  502  0.00000000000E+00 -0.00000000000E+00 -0.35217069222E+02  0.35217069222E+02  0.00000000000E+00 0. -1.
         24    2    1    2    0    0  0.34859666857E+02 -0.90079169342E+02  0.30671107845E+03  0.33145417357E+03  0.80378668857E+02 0.  0.
         23    2    1    2    0    0  0.85556888310E+02  0.91332098079E+02  0.31018582090E+03  0.34675536481E+03  0.91446740036E+02 0.  0.
        -13    1    3    3    0    0  0.35373398074E+00 -0.91099008372E+02  0.22603704267E+03  0.24370453240E+03  0.00000000000E+00 0.  1.
         14    1    3    3    0    0  0.34505932877E+02  0.10198390297E+01  0.80674035781E+02  0.87749641165E+02  0.00000000000E+00 0. -1.
        -13    1    4    4    0    0  0.62613508054E+01  0.36432433770E+02  0.18536494617E+03  0.18901505234E+03  0.00000000000E+00 0.  1.
         13    1    4    4    0    0  0.79295537505E+02  0.54899664310E+02  0.12482087473E+03  0.15774031247E+03  0.00000000000E+00 0. -1.
          1    1    1    2  501    0 -0.12041655517E+03 -0.12529287371E+01  0.79035880953E+03  0.79948030894E+03  0.00000000000E+00 0. -1.
<scales pt_clust_5="13000.00000" pt_clust_6="13000.00000" pt_clust_7="13000.00000" pt_clust_8="13000.00000" pt_clust_9="13000.00000"></scales>
<clustering>
<clus scale="   80.379">  5  6 -1 -1</clus>
<clus scale="   91.447">  7  8 -1 -1</clus>
<clus scale="  120.423">  7  9 -1 -1</clus>
<clus scale="  125.659">  1  5  2 -1</clus>
<clus scale="  320.402">  2  5  1 -1</clus>
</clustering>
</event>
<event>
 9    2  0.3707658E-005  0.2161648E+03  0.7546771E-02  0.1171408E+00
          4   -1    0    0  502    0 -0.00000000000E+00  0.00000000000E+00  0.48744844119E+03  0.48744844119E+03  0.00000000000E+00 0. -1.
         21   -1    0    0  501  502  0.00000000000E+00 -0.00000000000E+00 -0.73014379136E+02  0.73014379136E+02  0.00000000000E+00 0.  1.
         24    2    1    2    0    0  0.52518487835E+02  0.13154947245E+01  0.30201352504E+03  0.31681222891E+03  0.79986855073E+02 0.  0.
         23    2    1    2    0    0 -0.53524514425E+02  0.66314380101E+02  0.20753304713E+02  0.12973091123E+03  0.95587337124E+02 0.  0.
        -13    1    3    3    0    0  0.14253065705E+02  0.37219724480E+02  0.17309354378E+03  0.17762272566E+03  0.00000000000E+00 0.  1.
         14    1    3    3    0    0  0.38265422131E+02 -0.35904229756E+02  0.12891998127E+03  0.13918950325E+03  0.00000000000E+00 0. -1.
        -13    1    4    4    0    0 -0.68166251343E+02  0.80653315706E+02  0.87078453214E+01  0.10595952872E+03  0.00000000000E+00 0.  1.
         13    1    4    4    0    0  0.14641736918E+02 -0.14338935605E+02  0.12045459391E+02  0.23771382505E+02  0.00000000000E+00 0. -1.
          3    1    1    2  501    0  0.10060265895E+01 -0.67629874825E+02  0.91667232295E+02  0.11391968019E+03  0.00000000000E+00 0. -1.
<scales pt_clust_5="13000.00000" pt_clust_6="13000.00000" pt_clust_7="13000.00000" pt_clust_8="13000.00000" pt_clust_9="13000.00000"></scales>
<clustering>
<clus scale="   79.987">  5  6 -1 -1</clus>
<clus scale="   95.587">  7  8 -1 -1</clus>
<clus scale="   67.637">  7  9 -1 -1</clus>
<clus scale="   95.696">  1  5  2 -1</clus>
<clus scale="  216.165">  2  5  1 -1</clus>
</clustering>
</event>
<event>
 9    2  0.3707658E-005  0.2459184E+03  0.7546771E-02  0.1143934E+00
         21   -1    0    0  501  502  0.00000000000E+00  0.00000000000E+00  0.73533798516E+02  0.73533798516E+02  0.00000000000E+00 0.  1.
          2   -1    0    0  502    0 -0.00000000000E+00 -0.00000000000E+00 -0.77171396076E+03  0.77171396076E+03  0.00000000000E+00 0. -1.
         24    2    1    2    0    0 -0.56540656460E+02 -0.76787167234E+02 -0.53743915014E+03  0.55145612061E+03  0.78548698122E+02 0.  0.
         23    2    1    2    0    0  0.78999165789E+02 -0.38027129145E+02 -0.73607096490E+02  0.14791831504E+03  0.93674396309E+02 0.  0.
        -13    1    3    3    0    0  0.10371659699E+02 -0.33256347739E+02 -0.82291102678E+02  0.89360962225E+02  0.00000000000E+00 0.  1.
         14    1    3    3    0    0 -0.66912316159E+02 -0.43530819495E+02 -0.45514804746E+03  0.46209515839E+03  0.00000000000E+00 0. -1.
        -13    1    4    4    0    0  0.25772734681E+02  0.31062609924E+02 -0.30755973257E+02  0.50744945356E+02  0.00000000000E+00 0. -1.
         13    1    4    4    0    0  0.53226431108E+02 -0.69089739069E+02 -0.42851123234E+02  0.97173369683E+02  0.00000000000E+00 0.  1.
          1    1    1    2  501    0 -0.22458509329E+02  0.11481429638E+03 -0.87133915616E+02  0.14587332362E+03  0.00000000000E+00 0. -1.
<scales pt_clust_5="13000.00000" pt_clust_6="13000.00000" pt_clust_7="13000.00000" pt_clust_8="13000.00000" pt_clust_9="13000.00000"></scales>
<clustering>
<clus scale="   78.549">  5  6 -1 -1</clus>
<clus scale="   93.674">  7  8 -1 -1</clus>
<clus scale="  116.990">  7  9 -1 -1</clus>
<clus scale="  123.544">  2  5  1 -1</clus>
<clus scale="  245.918">  1  5  2 -1</clus>
</clustering>
</event>
<event>
 9    2  0.3707658E-005  0.4254417E+03  0.7546771E-02  0.1069592E+00
         21   -1    0    0  501  502  0.00000000000E+00  0.00000000000E+00  0.42139970605E+02  0.42139970605E+02  0.00000000000E+00 0.  1.
          2   -1    0    0  502    0 -0.00000000000E+00 -0.00000000000E+00 -0.20825026768E+04  0.20825026768E+04  0.00000000000E+00 0. -1.
         24    2    1    2    0    0 -0.12569723500E+03  0.59234062929E+02 -0.70806258346E+03  0.72606328539E+03  0.80664758054E+02 0.  0.
         23    2    1    2    0    0 -0.70760720555E+02  0.45250985652E+02 -0.14109675441E+03  0.18677149012E+03  0.88997551328E+02 0.  0.
        -11    1    3    3    0    0 -0.12056450793E+03  0.34894162476E+02 -0.66120559146E+03  0.67301280622E+03  0.00000000000E+00 0.  1.
         12    1    3    3    0    0 -0.51327270610E+01  0.24339900453E+02 -0.46856991999E+02  0.53050479172E+02  0.00000000000E+00 0. -1.
        -11    1    4    4    0    0 -0.38800606383E+02 -0.45974415563E+01 -0.63456908848E+01  0.39583978038E+02  0.00000000000E+00 0.  1.
         11    1    4    4    0    0 -0.31960114173E+02  0.49848427208E+02 -0.13475106352E+03  0.14718751209E+03  0.00000000000E+00 0. -1.
          1    1    1    2  501    0  0.19645795555E+03 -0.10448504858E+03 -0.11912033683E+04  0.12118078719E+04  0.00000000000E+00 0. -1.
<scales pt_clust_5="13000.00000" pt_clust_6="13000.00000" pt_clust_7="13000.00000" pt_clust_8="13000.00000" pt_clust_9="13000.00000"></scales>
<clustering>
<clus scale="   80.665">  5  6 -1 -1</clus>
<clus scale="   88.998">  7  8 -1 -1</clus>
<clus scale="  160.671">  2  5  1 -1</clus>
<clus scale="  100.560">  7  9 -1 -1</clus>
<clus scale="  425.442">  1  5  2 -1</clus>
</clustering>
</event>
<event>
 9    2  0.3707658E-005  0.1567056E+03  0.7546771E-02  0.1219785E+00
          2   -1    0    0  502    0 -0.00000000000E+00  0.00000000000E+00  0.67929837258E+03  0.67929837258E+03  0.00000000000E+00 0. -1.
         21   -1    0    0  501  502  0.00000000000E+00 -0.00000000000E+00 -0.22631991470E+02  0.22631991470E+02  0.00000000000E+00 0. -1.
         24    2    1    2    0    0  0.27802667009E+02  0.62422157717E+01  0.17619765640E+03  0.19655244420E+03  0.82312184104E+02 0.  0.
         23    2    1    2    0    0 -0.21151737556E+02  0.49798510487E+02  0.31259376952E+03  0.32827117677E+03  0.84378984981E+02 0.  0.
        -13    1    3    3    0    0  0.18842843830E+02  0.24802858703E+02  0.17289617337E+03  0.17567959850E+03  0.00000000000E+00 0.  1.
         14    1    3    3    0    0  0.89598231780E+01 -0.18560642931E+02  0.33014830230E+01  0.20872845699E+02  0.00000000000E+00 0. -1.
        -11    1    4    4    0    0  0.25661491922E+02  0.45850039706E+02  0.14539704534E+03  0.15459960900E+03  0.00000000000E+00 0. -1.
         11    1    4    4    0    0 -0.46813229478E+02  0.39484707810E+01  0.16719672418E+03  0.17367156777E+03  0.00000000000E+00 0.  1.
          1    1    1    2  501    0 -0.66509294524E+01 -0.56040726259E+02  0.16787495520E+03  0.17710674308E+03  0.00000000000E+00 0. -1.
<scales pt_clust_5="13000.00000" pt_clust_6="13000.00000" pt_clust_7="13000.00000" pt_clust_8="13000.00000" pt_clust_9="13000.00000"></scales>
<clustering>
<clus scale="   82.312">  5  6 -1 -1</clus>
<clus scale="   84.379">  7  8 -1 -1</clus>
<clus scale="   56.434">  7  9 -1 -1</clus>
<clus scale="   87.105">  1  5  2 -1</clus>
<clus scale="  156.706">  2  5  1 -1</clus>
</clustering>
</event>
<event>
 9    2  0.3707658E-005  0.4156521E+03  0.7546771E-02  0.1076217E+00
          2   -1    0    0  502    0 -0.00000000000E+00  0.00000000000E+00  0.11176916894E+04  0.11176916894E+04  0.00000000000E+00 0. -1.
         21   -1    0    0  501  502  0.00000000000E+00 -0.00000000000E+00 -0.81050279402E+02  0.81050279402E+02  0.00000000000E+00 0. -1.
         24    2    1    2    0    0 -0.29173024404E+02 -0.11551696303E+03  0.49818882166E+03  0.51852298486E+03  0.80490680821E+02 0.  0.
         23    2    1    2    0    0  0.92212283754E+02  0.69064530415E+02  0.11688287401E+02  0.14766625843E+03  0.91628015248E+02 0.  0.
        -11    1    3    3    0    0  0.60514589813E+01 -0.10021382634E+03  0.41381811884E+03  0.42582257646E+03  0.00000000000E+00 0.  1.
         12    1    3    3    0    0 -0.35224483386E+02 -0.15303136688E+02  0.84370702825E+02  0.92700408400E+02  0.00000000000E+00 0. -1.
        -13    1    4    4    0    0  0.65527399188E+02  0.83400192013E+02  0.32480342434E+02  0.11092522128E+03  0.00000000000E+00 0. -1.
         13    1    4    4    0    0  0.26684884566E+02 -0.14335661598E+02 -0.20792055033E+02  0.36741037142E+02  0.00000000000E+00 0.  1.
          1    1    1    2  501    0 -0.63039259350E+02  0.46452432615E+02  0.52676430094E+03  0.53255272552E+03  0.00000000000E+00 0. -1.
<scales pt_clust_5="13000.00000" pt_clust_6="13000.00000" pt_clust_7="13000.00000" pt_clust_8="13000.00000" pt_clust_9="13000.00000"></scales>
<clustering>
<clus scale="   80.491">  5  6 -1 -1</clus>
<clus scale="   91.628">  7  8 -1 -1</clus>
<clus scale="   78.306">  7  9 -1 -1</clus>
<clus scale="  143.785">  1  5  2 -1</clus>
<clus scale="  415.652">  2  5  1 -1</clus>
</clustering>
</event>
<event>
 9    2  0.3707658E-005  0.2425362E+03  0.7546771E-02  0.1146464E+00
          2   -1    0    0  502    0 -0.00000000000E+00  0.00000000000E+00  0.20278352470E+03  0.20278352470E+03  0.00000000000E+00 0. -1.
         21   -1    0    0  501  502  0.00000000000E+00 -0.00000000000E+00 -0.16770649955E+03  0.16770649955E+03  0.00000000000E+00 0.  1.
         24    2    1    2    0    0 -0.20893402606E+02 -0.92547667762E+02  0.40732645211E+02  0.12788785387E+03  0.75462240225E+02 0.  0.
         23    2    1    2    0    0  0.99200672030E+01 -0.97345872711E+01 -0.75470200348E+02  0.11827940736E+03  0.90006095028E+02 0.  0.
        -11    1    3    3    0    0 -0.46532485862E+02 -0.70595645582E+02  0.41367388570E+02  0.94129051056E+02  0.00000000000E+00 0.  1.
         12    1    3    3    0    0  0.25639083256E+02 -0.21952022179E+02 -0.63474335891E+00  0.33758802809E+02  0.00000000000E+00 0. -1.
        -11    1    4    4    0    0 -0.39291879925E+02 -0.90718506922E+01 -0.23366831938E+02  0.46606428075E+02  0.00000000000E+00 0. -1.
         11    1    4    4    0    0  0.49211947128E+02 -0.66273657888E+00 -0.52103368410E+02  0.71672979285E+02  0.00000000000E+00 0.  1.
          1    1    1    2  501    0  0.10973335403E+02  0.10228225503E+03  0.69814580290E+02  0.12432276302E+03  0.00000000000E+00 0. -1.
<scales pt_clust_5="13000.00000" pt_clust_6="13000.00000" pt_clust_7="13000.00000" pt_clust_8="13000.00000" pt_clust_9="13000.00000"></scales>
<clustering>
<clus scale="   75.462">  5  6 -1 -1</clus>
<clus scale="   90.006">  7  8 -1 -1</clus>
<clus scale="  102.869">  7  9 -1 -1</clus>
<clus scale="  121.228">  1  5  2 -1</clus>
<clus scale="  242.536">  2  5  1 -1</clus>
</clustering>
</event>
<event>
 9    2  0.3707658E-005  0.3315262E+03  0.7546771E-02  0.1116804E+00
          2   -1    0    0  502    0 -0.00000000000E+00  0.00000000000E+00  0.18458334358E+03  0.18458334358E+03  0.00000000000E+00 0. -1.
         21   -1    0    0  501  502  0.00000000000E+00 -0.00000000000E+00 -0.46514243770E+03  0.46514243770E+03  0.00000000000E+00 0. -1.
         24    2    1    2    0    0 -0.25022884595E+02 -0.50389062808E+02 -0.30196098176E+03  0.31750947514E+03  0.80415358584E+02 0.  0.
         23    2    1    2    0    0  0.13297036944E+02 -0.93101523868E+02  0.10138882270E+03  0.16751975564E+03  0.94543483238E+02 0.  0.
        -11    1    3    3    0    0 -0.20428290520E+02  0.19079079183E+02 -0.10271719147E+03  0.10645256098E+03  0.00000000000E+00 0.  1.
         12    1    3    3    0    0 -0.45945940748E+01 -0.69468141991E+02 -0.19924379029E+03  0.21105691416E+03  0.00000000000E+00 0. -1.
        -13    1    4    4    0    0  0.44009653419E+02 -0.29318656869E+02  0.75426147370E+02  0.92116974233E+02  0.00000000000E+00 0.  1.
         13    1    4    4    0    0 -0.30712616475E+02 -0.63782866999E+02  0.25962675325E+02  0.75402781403E+02  0.00000000000E+00 0. -1.
          1    1    1    2  501    0  0.11725847651E+02  0.14349058668E+03 -0.79986935064E+02  0.16469655051E+03  0.00000000000E+00 0. -1.
<scales pt_clust_5="13000.00000" pt_clust_6="13000.00000" pt_clust_7="13000.00000" pt_clust_8="13000.00000" pt_clust_9="13000.00000"></scales>
<clustering>
<clus scale="   80.415">  5  6 -1 -1</clus>
<clus scale="   94.543">  7  8 -1 -1</clus>
<clus scale="   98.142">  1  5  2 -1</clus>
<clus scale="  131.545">  7  9 -1 -1</clus>
<clus scale="  331.526">  2  5  1 -1</clus>
</clustering>
</event>
<event>
 9    2  0.3707658E-005  0.4462091E+03  0.7546771E-02  0.1055947E+00
         21   -1    0    0  501  502  0.00000000000E+00  0.00000000000E+00  0.81515579643E+02  0.81515579643E+02  0.00000000000E+00 0.  1.
         -3   -1    0    0    0  501 -0.00000000000E+00 -0.00000000000E+00 -0.13002436225E+04  0.13002436225E+04  0.00000000000E+00 0.  1.
         24    2    1    2    0    0 -0.14352491026E+03 -0.12034102057E+03 -0.42321544550E+03  0.46965017771E+03  0.79866232018E+02 0.  0.
         23    2    1    2    0    0 -0.72850184528E+02  0.67736915487E+02 -0.63537806165E+02  0.14701264589E+03  0.87636899388E+02 0.  0.
        -13    1    3    3    0    0 -0.14380429873E+03 -0.10078370363E+03 -0.32402988845E+03  0.36855447340E+03  0.00000000000E+00 0.  1.
         14    1    3    3    0    0  0.27938847023E+00 -0.19557316936E+02 -0.99185557042E+02  0.10109570431E+03  0.00000000000E+00 0. -1.
        -13    1    4    4    0    0 -0.42776151859E+02  0.33232066612E+02  0.14914964288E+02  0.56183855144E+02  0.00000000000E+00 0.  1.
         13    1    4    4    0    0 -0.30074032669E+02  0.34504848875E+02 -0.78452770453E+02  0.90828790747E+02  0.00000000000E+00 0. -1.
         -4    1    1    2    0  502  0.21637509479E+03  0.52604105079E+02 -0.73197479119E+03  0.76509637854E+03  0.00000000000E+00 0.  1.
<scales pt_clust_5="13000.00000" pt_clust_6="13000.00000" pt_clust_7="13000.00000" pt_clust_8="13000.00000" pt_clust_9="13000.00000"></scales>
<clustering>
<clus scale="   79.866">  5  6 -1 -1</clus>
<clus scale="   87.637">  7  8 -1 -1</clus>
<clus scale="  203.617">  2  5  1 -1</clus>
<clus scale="  104.867">  7  9 -1 -1</clus>
<clus scale="  446.209">  1  5  2 -1</clus>
</clustering>
</event>
<event>
 9    2  0.3707658E-005  0.3912085E+03  0.7546771E-02  0.1094268E+00
          4   -1    0    0  502    0 -0.00000000000E+00  0.00000000000E+00  0.58480947352E+03  0.58480947352E+03  0.00000000000E+00 0. -1.
         21   -1    0    0  501  502  0.00000000000E+00 -0.00000000000E+00 -0.10818614211E+03  0.10818614211E+03  0.00000000000E+00 0. -1.
         24    2    1    2    0    0  0.46961033889E+02 -0.67004130607E+02  0.63523868385E+02  0.12405336675E+03  0.68257334586E+02 0.  0.
         23    2    1    2    0    0  0.10336463353E+03  0.59459933284E+02  0.38844989439E+03  0.41642234057E+03  0.91074223249E+02 0.  0.
        -13    1    3    3    0    0  0.49687922296E+02 -0.58828860273E+02  0.76455313316E+02  0.10851331419E+03  0.00000000000E+00 0.  1.
         14    1    3    3    0    0 -0.27268884061E+01 -0.81752703341E+01 -0.12931444931E+02  0.15540052555E+02  0.00000000000E+00 0. -1.
        -13    1    4    4    0    0  0.19832766459E+02  0.38141740312E+02  0.24744448867E+03  0.25115116156E+03  0.00000000000E+00 0. -1.
         13    1    4    4    0    0  0.83531867073E+02  0.21318192972E+02  0.14100540572E+03  0.16527117901E+03  0.00000000000E+00 0.  1.
          3    1    1    2  501    0 -0.15032566742E+03  0.75441973231E+01  0.24649568637E+02  0.15251990832E+03  0.00000000000E+00 0. -1.
<scales pt_clust_5="13000.00000" pt_clust_6="13000.00000" pt_clust_7="13000.00000" pt_clust_8="13000.00000" pt_clust_9="13000.00000"></scales>
<clustering>
<clus scale="   68.257">  5  6 -1 -1</clus>
<clus scale="   91.074">  7  8 -1 -1</clus>
<clus scale="  106.555">  1  5  2 -1</clus>
<clus scale="  141.926">  7  9 -1 -1</clus>
<clus scale="  391.209">  2  5  1 -1</clus>
</clustering>
</event>
<event>
 9    2  0.3707658E-005  0.9949497E+03  0.7546771E-02  0.9954860E-01
         -1   -1    0    0    0  501 -0.00000000000E+00  0.00000000000E+00  0.10415509360E+04  0.10415509360E+04  0.00000000000E+00 0.  1.
         21   -1    0    0  501  502  0.00000000000E+00 -0.00000000000E+00 -0.36747762468E+03  0.36747762468E+03  0.00000000000E+00 0.  1.
         24    2    1    2    0    0 -0.94425805011E+01  0.77467572808E+02  0.34223244191E+03  0.36019908693E+03  0.80808110782E+02 0.  0.
         23    2    1    2    0    0 -0.13592264230E+03  0.16175164851E+03  0.61134915126E+03  0.65325171477E+03  0.91386309809E+02 0.  0.
        -11    1    3    3    0    0  0.30714469858E+02  0.37311497930E+02  0.95698608845E+02  0.10720890948E+03  0.00000000000E+00 0.  1.
         12    1    3    3    0    0 -0.40157050359E+02  0.40156074877E+02  0.24653383306E+03  0.25299017745E+03  0.00000000000E+00 0. -1.
        -11    1    4    4    0    0 -0.34364486252E+02  0.37159211048E+02  0.57757793624E+02  0.76796403597E+02  0.00000000000E+00 0. -1.
         11    1    4    4    0    0 -0.10155815605E+03  0.12459243746E+03  0.55359135763E+03  0.57645531117E+03  0.00000000000E+00 0.  1.
         -2    1    1    2    0  502  0.14536522280E+03 -0.23921922131E+03 -0.27950828180E+03  0.39557775903E+03  0.00000000000E+00 0.  1.
<scales pt_clust_5="13000.00000" pt_clust_6="13000.00000" pt_clust_7="13000.00000" pt_clust_8="13000.00000" pt_clust_9="13000.00000"></scales>
<clustering>
<clus scale="   80.808">  5  6 -1 -1</clus>
<clus scale="   91.386">  7  8 -1 -1</clus>
<clus scale="  112.340">  1  5  2 -1</clus>
<clus scale="  273.959">  7  9 -1 -1</clus>
<clus scale="  994.950">  2  5  1 -1</clus>
</clustering>
</event>
<event>
 9    2  0.3707658E-005  0.2623637E+03  0.7546771E-02  0.1129797E+00
         -3   -1    0    0    0  501 -0.00000000000E+00  0.00000000000E+00  0.26369460095E+03  0.26369460095E+03  0.00000000000E+00 0.  1.
         21   -1    0    0  501  502  0.00000000000E+00 -0.00000000000E+00 -0.16047387768E+03  0.16047387768E+03  0.00000000000E+00 0.  1.
         24    2    1    2    0    0 -0.11728277271E+03  0.55619619583E+00  0.70560234463E+02  0.15977970053E+03  0.82433293544E+02 0.  0.
         23    2    1    2    0    0  0.15757748934E+03 -0.22201042399E+02 -0.31157267135E+02  0.18587209499E+03  0.90852126935E+02 0.  0.
        -13    1    3    3    0    0 -0.11134250872E+03 -0.23851542168E+02  0.71823292989E+02  0.13462776730E+03  0.00000000000E+00 0.  1.
         14    1    3    3    0    0 -0.59402639882E+01  0.24407738363E+02 -0.12630585262E+01  0.25151933228E+02  0.00000000000E+00 0. -1.
        -11    1    4    4    0    0  0.72393708044E+02  0.25073489886E+02  0.15001400116E+02  0.78067732545E+02  0.00000000000E+00 0.  1.
         11    1    4    4    0    0  0.85183781296E+02 -0.47274532284E+02 -0.46158667251E+02  0.10780436244E+03  0.00000000000E+00 0. -1.
         -4    1    1    2    0  502 -0.40294716628E+02  0.21644846203E+02  0.63817755934E+02  0.78516683117E+02  0.00000000000E+00 0.  1.
<scales pt_clust_5="13000.00000" pt_clust_6="13000.00000" pt_clust_7="13000.00000" pt_clust_8="13000.00000" pt_clust_9="13000.00000"></scales>
<clustering>
<clus scale="   82.433">  5  6 -1 -1</clus>
<clus scale="   90.852">  7  8 -1 -1</clus>
<clus scale="   45.740">  7  9 -1 -1</clus>
<clus scale="  143.356">  1  5  2 -1</clus>
<clus scale="  262.364">  2  5  1 -1</clus>
</clustering>
</event>
<event>
 9    2  0.3707658E-005  0.3280999E+03  0.7546771E-02  0.1087956E+00
         21   -1    0    0  501  502  0.00000000000E+00  0.00000000000E+00  0.11819483984E+04  0.11819483984E+04  0.00000000000E+00 0.  1.
         -1   -1    0    0    0  501 -0.00000000000E+00 -0.00000000000E+00 -0.66130729224E+02  0.66130729224E+02  0.00000000000E+00 0.  1.
         24    2    1    2    0    0  0.13071877100E+03  0.14405789341E+03  0.59950946578E+03  0.63634083654E+03  0.87624123035E+02 0.  0.
         23    2    1    2    0    0 -0.12271138993E+02 -0.35964505469E+02  0.37252443424E+02  0.10655669680E+03  0.92317704617E+02 0.  0.
        -11    1    3    3    0    0  0.66995715490E+02  0.12671155669E+03  0.34934439051E+03  0.37760528025E+03  0.00000000000E+00 0.  1.
         12    1    3    3    0    0  0.63723055507E+02  0.17346336723E+02  0.25016507528E+03  0.25873555629E+03  0.00000000000E+00 0. -1.
        -11    1    4    4    0    0  0.72567690388E+01 -0.58622601055E+02  0.37233635172E+00  0.59071217067E+02  0.00000000000E+00 0. -1.
         11    1    4    4    0    0 -0.19527908032E+02  0.22658095587E+02  0.36880107072E+02  0.47485479732E+02  0.00000000000E+00 0.  1.
         -2    1    1    2    0  502 -0.11844763200E+03 -0.10809338795E+03  0.47905575993E+03  0.50518159425E+03  0.00000000000E+00 0.  1.
<scales pt_clust_5="13000.00000" pt_clust_6="13000.00000" pt_clust_7="13000.00000" pt_clust_8="13000.00000" pt_clust_9="13000.00000"></scales>
<clustering>
<clus scale="   87.624">  5  6 -1 -1</clus>
<clus scale="   92.318">  7  8 -1 -1</clus>
<clus scale="  160.356">  7  9 -1 -1</clus>
<clus scale="  213.350">  2  5  1 -1</clus>
<clus scale="  328.100">  1  5  2 -1</clus>
</clustering>
</event>
<event>
 9    2  0.4189348E-005  0.6611193E+03  0.7546771E-02  0.1007328E+00
          2   -1    0    0  502    0 -0.00000000000E+00  0.00000000000E+00  0.29936623131E+03  0.29936623131E+03  0.00000000000E+00 0. -1.
         21   -1    0    0  501  502  0.00000000000E+00 -0.00000000000E+00 -0.13804012713E+04  0.13804012713E+04  0.00000000000E+00 0.  1.
         24    2    1    2    0    0 -0.98415433040E+02  0.23120596423E+03 -0.97513696185E+03  0.10102205575E+04  0.80695012453E+02 0.  0.
         23    2    1    2    0    0 -0.10227985851E+03  0.66883298455E+02 -0.24132163870E+03  0.28552175149E+03  0.91389234610E+02 0.  0.
        -11    1    3    3    0    0 -0.62270881234E+02  0.94278875908E+02 -0.56876897285E+03  0.57988301714E+03  0.00000000000E+00 0.  1.
         12    1    3    3    0    0 -0.36144551806E+02  0.13692708832E+03 -0.40636798900E+03  0.43033754034E+03  0.00000000000E+00 0. -1.
        -13    1    4    4    0    0 -0.52076605859E+02 -0.16850059079E+02 -0.94385395819E+02  0.10910774635E+03  0.00000000000E+00 0. -1.
         13    1    4    4    0    0 -0.50203252648E+02  0.83733357534E+02 -0.14693624288E+03  0.17641400515E+03  0.00000000000E+00 0.  1.
          1    1    1    2  501    0  0.20069529155E+03 -0.29808926268E+03  0.13542356058E+03  0.38402519362E+03  0.00000000000E+00 0. -1.
<scales pt_clust_5="13000.00000" pt_clust_6="13000.00000" pt_clust_7="13000.00000" pt_clust_8="13000.00000" pt_clust_9="13000.00000"></scales>
<clustering>
<clus scale="   80.695">  5  6 -1 -1</clus>
<clus scale="   91.389">  7  8 -1 -1</clus>
<clus scale="  263.920">  1  5  2 -1</clus>
<clus scale="  139.021">  7  9 -1 -1</clus>
<clus scale="  661.119">  2  5  1 -1</clus>
</clustering>
</event>
<event>
 9    2  0.3707658E-005  0.6043284E+03  0.7546771E-02  0.1008717E+00
         21   -1    0    0  501  502  0.00000000000E+00  0.00000000000E+00  0.80736670570E+02  0.80736670570E+02  0.00000000000E+00 0.  1.
          2   -1    0    0  502    0 -0.00000000000E+00 -0.00000000000E+00 -0.29279511768E+04  0.29279511768E+04  0.00000000000E+00 0. -1.
         24    2    1    2    0    0  0.30940770250E+03  0.86062734170E+02 -0.64367824641E+03  0.72378416531E+03  0.80011952027E+02 0.  0.
         23    2    1    2    0    0  0.11381911243E+03  0.57998105524E+02 -0.53768143185E+03  0.56010028160E+03  0.91062795306E+02 0.  0.
        -11    1    3    3    0    0  0.26098782165E+03  0.99615658008E+02 -0.52023134093E+03  0.59049011038E+03  0.00000000000E+00 0.  1.
         12    1    3    3    0    0  0.48419880845E+02 -0.13552923839E+02 -0.12344690548E+03  0.13329405492E+03  0.00000000000E+00 0. -1.
        -13    1    4    4    0    0 -0.23829994757E+01  0.28935158647E+02 -0.49021469232E+02  0.56973911030E+02  0.00000000000E+00 0. -1.
         13    1    4    4    0    0  0.11620211191E+03  0.29062946876E+02 -0.48865996262E+03  0.50312637057E+03  0.00000000000E+00 0.  1.
          1    1    1    2  501    0 -0.42322681493E+03 -0.14406083969E+03 -0.16658548280E+04  0.17248034005E+04  0.00000000000E+00 0. -1.
<scales pt_clust_5="13000.00000" pt_clust_6="13000.00000" pt_clust_7="13000.00000" pt_clust_8="13000.00000" pt_clust_9="13000.00000"></scales>
<clustering>
<clus scale="   80.012">  5  6 -1 -1</clus>
<clus scale="   91.063">  7  8 -1 -1</clus>
<clus scale="  330.971">  2  5  1 -1</clus>
<clus scale="  205.320">  7  9 -1 -1</clus>
<clus scale="  604.328">  1  5  2 -1</clus>
</clustering>
</event>
<event>
 9    2  0.3707658E-005  0.2892417E+03  0.7546771E-02  0.1121957E+00
          2   -1    0    0  502    0 -0.00000000000E+00  0.00000000000E+00  0.14215181946E+04  0.14215181946E+04  0.00000000000E+00 0. -1.
         21   -1    0    0  501  502  0.00000000000E+00 -0.00000000000E+00 -0.34444620078E+02  0.34444620078E+02  0.00000000000E+00 0. -1.
         24    2    1    2    0    0 -0.95462836447E+02 -0.34799516673E+02  0.67502661670E+03  0.68741117516E+03  0.80926083422E+02 0.  0.
         23    2    1    2    0    0  0.45257348236E+02 -0.95216073549E+02  0.27852198191E+03  0.31317426910E+03  0.96898401374E+02 0.  0.
        -11    1    3    3    0    0 -0.52343798544E+01 -0.39130079460E+02  0.19396657281E+03  0.19794340914E+03  0.00000000000E+00 0.  1.
         12    1    3    3    0    0 -0.90228456592E+02  0.43305627875E+01  0.48106004389E+03  0.48946776603E+03  0.00000000000E+00 0. -1.
        -13    1    4    4    0    0 -0.26447073180E+02 -0.50249422471E+02  0.88437735190E+02  0.10509845453E+03  0.00000000000E+00 0.  1.
         13    1    4    4    0    0  0.71704421416E+02 -0.44966651078E+02  0.19008424672E+03  0.20807581457E+03  0.00000000000E+00 0. -1.
          1    1    1    2  501    0  0.50205488211E+02  0.13001559022E+03  0.43352497590E+03  0.45537737041E+03  0.00000000000E+00 0. -1.
<scales pt_clust_5="13000.00000" pt_clust_6="13000.00000" pt_clust_7="13000.00000" pt_clust_8="13000.00000" pt_clust_9="13000.00000"></scales>
<clustering>
<clus scale="   80.926">  5  6 -1 -1</clus>
<clus scale="   96.898">  7  8 -1 -1</clus>
<clus scale="  129.897">  1  5  2 -1</clus>
<clus scale="  109.354">  7  9 -1 -1</clus>
<clus scale="  289.242">  2  5  1 -1</clus>
</clustering>
</event>
<event>
 9    2  0.3707658E-005  0.7297835E+03  0.7546771E-02  0.1024619E+00
         -1   -1    0    0    0  501 -0.00000000000E+00  0.00000000000E+00  0.10774763399E+04  0.10774763399E+04  0.00000000000E+00 0.  1.
         21   -1    0    0  501  502  0.00000000000E+00 -0.00000000000E+00 -0.17309177514E+03  0.17309177514E+03  0.00000000000E+00 0.  1.
         24    2    1    2    0    0 -0.19479195769E+02  0.80437436519E+02  0.47752027253E+02  0.12522224712E+03  0.80936609790E+02 0.  0.
         23    2    1    2    0    0 -0.33394044734E+03  0.53339472056E+02  0.44677465598E+03  0.56786475751E+03  0.92203405309E+02 0.  0.
        -13    1    3    3    0    0  0.83301123747E+00  0.56787684395E+02  0.67580057965E+02  0.88275700174E+02  0.00000000000E+00 0.  1.
         14    1    3    3    0    0 -0.20312207007E+02  0.23649752123E+02 -0.19828030712E+02  0.36946546941E+02  0.00000000000E+00 0. -1.
        -11    1    4    4    0    0 -0.20049132396E+02  0.28115420946E+02  0.58641501982E+02  0.68053437529E+02  0.00000000000E+00 0. -1.
         11    1    4    4    0    0 -0.31389131494E+03  0.25224051109E+02  0.38813315400E+03  0.49981131999E+03  0.00000000000E+00 0.  1.
         -2    1    1    2    0  502  0.35341964311E+03 -0.13377690857E+03  0.40985788148E+03  0.55748111037E+03  0.00000000000E+00 0.  1.
<scales pt_clust_5="13000.00000" pt_clust_6="13000.00000" pt_clust_7="13000.00000" pt_clust_8="13000.00000" pt_clust_9="13000.00000"></scales>
<clustering>
<clus scale="   80.937">  5  6 -1 -1</clus>
<clus scale="   92.203">  7  8 -1 -1</clus>
<clus scale="  115.760">  1  5  2 -1</clus>
<clus scale="  356.665">  7  9 -1 -1</clus>
<clus scale="  729.784">  2  5  1 -1</clus>
</clustering>
</event>
<event>
 9    2  0.3707658E-005  0.2465950E+03  0.7546771E-02  0.1151019E+00
         21   -1    0    0  501  502  0.00000000000E+00  0.00000000000E+00  0.39543021868E+02  0.39543021868E+02  0.00000000000E+00 0. -1.
         -1   -1    0    0    0  501 -0.00000000000E+00 -0.00000000000E+00 -0.85595907636E+03  0.85595907636E+03  0.00000000000E+00 0.  1.
         24    2    1    2    0    0 -0.20702958002E+01  0.59271990714E+02 -0.13027936859E+03  0.16639808173E+03  0.84841927816E+02 0.  0.
         23    2    1    2    0    0  0.64289639431E+02 -0.99253472546E+02 -0.30596955529E+03  0.34180979654E+03  0.96084123028E+02 0.  0.
        -11    1    3    3    0    0 -0.36564604545E+01  0.59792553685E+02 -0.14223049639E+03  0.15433092134E+03  0.00000000000E+00 0.  1.
         12    1    3    3    0    0  0.15861646544E+01 -0.52056297113E+00  0.11951127801E+02  0.12067160388E+02  0.00000000000E+00 0. -1.
        -13    1    4    4    0    0  0.22816121659E+02 -0.97912937389E+02 -0.26528805990E+03  0.28369926584E+03  0.00000000000E+00 0.  1.
         13    1    4    4    0    0  0.41473517772E+02 -0.13405351570E+01 -0.40681495390E+02  0.58110530698E+02  0.00000000000E+00 0. -1.
         -2    1    1    2    0  502 -0.62219343630E+02  0.39981481832E+02 -0.38016713062E+03  0.38729421996E+03  0.00000000000E+00 0.  1.
<scales pt_clust_5="13000.00000" pt_clust_6="13000.00000" pt_clust_7="13000.00000" pt_clust_8="13000.00000" pt_clust_9="13000.00000"></scales>
<clustering>
<clus scale="   84.842">  5  6 -1 -1</clus>
<clus scale="   96.084">  7  8 -1 -1</clus>
<clus scale="   73.958">  7  9 -1 -1</clus>
<clus scale="  103.516">  2  5  1 -1</clus>
<clus scale="  246.595">  1  5  2 -1</clus>
</clustering>
</event>
<event>
 9    2  0.3707658E-005  0.1320594E+03  0.7546771E-02  0.1232518E+00
         21   -1    0    0  501  502  0.00000000000E+00  0.00000000000E+00  0.11396446171E+03  0.11396446171E+03  0.00000000000E+00 0.  1.
          2   -1    0    0  502    0 -0.00000000000E+00 -0.00000000000E+00 -0.17431052991E+03  0.17431052991E+03  0.00000000000E+00 0. -1.
         24    2    1    2    0    0  0.66562992945E+01  0.74512699360E+02 -0.10048556839E+03  0.15025011700E+03  0.82953598587E+02 0.  0.
         23    2    1    2    0    0 -0.12418794340E+02 -0.54402248023E+02  0.45046531914E+02  0.11653730698E+03  0.91858166968E+02 0.  0.
        -11    1    3    3    0    0 -0.54505777139E+01  0.51705071596E+02 -0.60434907966E+01  0.52341637414E+02  0.00000000000E+00 0.  1.
         12    1    3    3    0    0  0.12106877008E+02  0.22807627764E+02 -0.94442077595E+02  0.97908479590E+02  0.00000000000E+00 0. -1.
        -13    1    4    4    0    0  0.60955281557E+01  0.19601660345E+02 -0.96374503097E+01  0.22677323481E+02  0.00000000000E+00 0. -1.
         13    1    4    4    0    0 -0.18514322496E+02 -0.74003908368E+02  0.54683982223E+02  0.93859983502E+02  0.00000000000E+00 0.  1.
          1    1    1    2  501    0  0.57624950454E+01 -0.20110451337E+02 -0.49070317205E+01  0.21487567625E+02  0.00000000000E+00 0. -1.
<scales pt_clust_5="13000.00000" pt_clust_6="13000.00000" pt_clust_7="13000.00000" pt_clust_8="13000.00000" pt_clust_9="13000.00000"></scales>
<clustering>
<clus scale="   82.954">  5  6 -1 -1</clus>
<clus scale="   91.858">  7  8 -1 -1</clus>
<clus scale="   20.920">  7  9 -1 -1</clus>
<clus scale="  111.704">  2  5  1 -1</clus>
<clus scale="  132.059">  1  5  2 -1</clus>
</clustering>
</event>
<event>
 9    2  0.3707658E-005  0.3407895E+03  0.7546771E-02  0.1097037E+00
          2   -1    0    0  502    0 -0.00000000000E+00  0.00000000000E+00  0.49091451684E+03  0.49091451684E+03  0.00000000000E+00 0. -1.
         21   -1    0    0  501  502  0.00000000000E+00 -0.00000000000E+00 -0.12498541990E+03  0.12498541990E+03  0.00000000000E+00 0. -1.
         24    2    1    2    0    0  0.11163922728E+03  0.59402099526E+02  0.74120312172E+02  0.16724655193E+03  0.80533607638E+02 0.  0.
         23    2    1    2    0    0 -0.97289319080E+02  0.36081842341E+02 -0.29808286328E+01  0.13845341836E+03  0.91615243066E+02 0.  0.
        -13    1    3    3    0    0  0.81445932553E+02  0.16052801876E+02  0.91595473313E+01  0.83516643160E+02  0.00000000000E+00 0.  1.
         14    1    3    3    0    0  0.30193294725E+02  0.43349297650E+02  0.64960764841E+02  0.83729908765E+02  0.00000000000E+00 0. -1.
        -13    1    4    4    0    0 -0.96561466507E+02  0.11330897284E+02 -0.30055008091E+02  0.10176349816E+03  0.00000000000E+00 0. -1.
         13    1    4    4    0    0 -0.72785257394E+00  0.24750945056E+02  0.27074179459E+02  0.36689920195E+02  0.00000000000E+00 0.  1.
          1    1    1    2  501    0 -0.14349908198E+02 -0.95483941866E+02  0.29478961340E+03  0.31019996646E+03  0.00000000000E+00 0. -1.
<scales pt_clust_5="13000.00000" pt_clust_6="13000.00000" pt_clust_7="13000.00000" pt_clust_8="13000.00000" pt_clust_9="13000.00000"></scales>
<clustering>
<clus scale="   80.534">  5  6 -1 -1</clus>
<clus scale="   91.615">  7  8 -1 -1</clus>
<clus scale="   96.556">  7  9 -1 -1</clus>
<clus scale="  149.925">  1  5  2 -1</clus>
<clus scale="  340.790">  2  5  1 -1</clus>
</clustering>
</event>
<event>
 9    2  0.3707658E-005  0.2427790E+03  0.7546771E-02  0.1163251E+00
         21   -1    0    0  501  502  0.00000000000E+00  0.00000000000E+00  0.77669168071E+02  0.77669168071E+02  0.00000000000E+00 0. -1.
          2   -1    0    0  502    0 -0.00000000000E+00 -0.00000000000E+00 -0.37803716350E+03  0.37803716350E+03  0.00000000000E+00 0. -1.
         24    2    1    2    0    0 -0.79870592494E+01  0.45285596746E+01 -0.14837714526E+03  0.16927507529E+03  0.80956611285E+02 0.  0.
         23    2    1    2    0    0 -0.94687982294E+02 -0.30699514589E+02 -0.10160794306E+03  0.16910470188E+03  0.91454644056E+02 0.  0.
        -13    1    3    3    0    0  0.29265575732E+02 -0.20241317235E+02 -0.51855086765E+02  0.62889863012E+02  0.00000000000E+00 0.  1.
         14    1    3    3    0    0 -0.37252634981E+02  0.24769876910E+02 -0.96522058499E+02  0.10638521228E+03  0.00000000000E+00 0. -1.
        -11    1    4    4    0    0 -0.17639993693E+02  0.16868044022E+02 -0.68457859640E+02  0.72678599554E+02  0.00000000000E+00 0.  1.
         11    1    4    4    0    0 -0.77047988601E+02 -0.47567558612E+02 -0.33150083420E+02  0.96426102329E+02  0.00000000000E+00 0. -1.
          1    1    1    2  501    0  0.10267504154E+03  0.26170954915E+02 -0.50382907102E+02  0.11732655439E+03  0.00000000000E+00 0. -1.
<scales pt_clust_5="13000.00000" pt_clust_6="13000.00000" pt_clust_7="13000.00000" pt_clust_8="13000.00000" pt_clust_9="13000.00000"></scales>
<clustering>
<clus scale="   80.957">  5  6 -1 -1</clus>
<clus scale="   81.476">  2  5  1 -1</clus>
<clus scale="   91.455">  7  8 -1 -1</clus>
<clus scale="  103.454">  7  9 -1 -1</clus>
<clus scale="  242.779">  1  5  2 -1</clus>
</clustering>
</event>
<event>
 9    2  0.3707658E-005  0.4005463E+03  0.7546771E-02  0.1071754E+00
          2   -1    0    0  502    0 -0.00000000000E+00  0.00000000000E+00  0.14675036978E+04  0.14675036978E+04  0.00000000000E+00 0. -1.
         21   -1    0    0  501  502  0.00000000000E+00 -0.00000000000E+00 -0.63839995837E+02  0.63839995837E+02  0.00000000000E+00 0. -1.
         24    2    1    2    0    0 -0.14513909035E+03  0.74035968209E+02  0.68467829347E+03  0.70831433044E+03  0.79863289550E+02 0.  0.
         23    2    1    2    0    0 -0.14112617908E+02  0.11789233407E+03  0.23619878307E+03  0.27963217376E+03  0.91140106790E+02 0.  0.
        -11    1    3    3    0    0 -0.19539642440E+02 -0.98258059970E+01  0.34669139561E+02  0.40991381144E+02  0.00000000000E+00 0.  1.
         12    1    3    3    0    0 -0.12559944791E+03  0.83861774206E+02  0.65000915391E+03  0.66732294930E+03  0.00000000000E+00 0. -1.
        -11    1    4    4    0    0  0.10956234630E+02  0.11508842804E+03  0.14745115514E+03  0.18736923039E+03  0.00000000000E+00 0.  1.
         11    1    4    4    0    0 -0.25068852538E+02  0.28039060256E+01  0.88747627927E+02  0.92262943370E+02  0.00000000000E+00 0. -1.
          1    1    1    2  501    0  0.15925170826E+03 -0.19192830228E+03  0.48278662543E+03  0.54339718944E+03  0.00000000000E+00 0. -1.
<scales pt_clust_5="13000.00000" pt_clust_6="13000.00000" pt_clust_7="13000.00000" pt_clust_8="13000.00000" pt_clust_9="13000.00000"></scales>
<clustering>
<clus scale="   79.863">  5  6 -1 -1</clus>
<clus scale="   91.140">  7  8 -1 -1</clus>
<clus scale="  181.452">  1  5  2 -1</clus>
<clus scale="  155.815">  7  9 -1 -1</clus>
<clus scale="  400.546">  2  5  1 -1</clus>
</clustering>
</event>
<event>
 9    2  0.3707658E-005  0.3288532E+03  0.7546771E-02  0.1121922E+00
          2   -1    0    0  502    0 -0.00000000000E+00  0.00000000000E+00  0.15787368330E+03  0.15787368330E+03  0.00000000000E+00 0. -1.
         21   -1    0    0  501  502  0.00000000000E+00 -0.00000000000E+00 -0.27623150497E+03  0.27623150497E+03  0.00000000000E+00 0. -1.
         24    2    1    2    0    0 -0.11073425691E+02 -0.34824585206E+02 -0.17932664120E+02  0.90259790378E+02  0.80559771756E+02 0.  0.
         23    2    1    2    0    0  0.12198052081E+03  0.11480526144E+03 -0.73497213780E+02  0.20448110377E+03  0.91384822901E+02 0.  0.
        -11    1    3    3    0    0 -0.45715583773E+02 -0.21360151623E+02 -0.16413459581E+02  0.53061966911E+02  0.00000000000E+00 0.  1.
         12    1    3    3    0    0  0.34642158082E+02 -0.13464433582E+02 -0.15192045391E+01  0.37197823467E+02  0.00000000000E+00 0. -1.
        -11    1    4    4    0    0  0.34449674710E+02  0.62939137958E+02 -0.73531590702E+02  0.10273757835E+03  0.00000000000E+00 0.  1.
         11    1    4    4    0    0  0.87530846096E+02  0.51866123483E+02  0.34376922075E-01  0.10174352542E+03  0.00000000000E+00 0. -1.
          1    1    1    2  501    0 -0.11090709512E+03 -0.79980676235E+02 -0.26927943767E+02  0.13936429411E+03  0.00000000000E+00 0. -1.
<scales pt_clust_5="13000.00000" pt_clust_6="13000.00000" pt_clust_7="13000.00000" pt_clust_8="13000.00000" pt_clust_9="13000.00000"></scales>
<clustering>
<clus scale="   80.560">  5  6 -1 -1</clus>
<clus scale="   88.460">  1  5  2 -1</clus>
<clus scale="   91.385">  7  8 -1 -1</clus>
<clus scale="  150.631">  7  9 -1 -1</clus>
<clus scale="  328.853">  2  5  1 -1</clus>
</clustering>
</event>
<event>
 9    2  0.3707658E-005  0.5062712E+03  0.7546771E-02  0.1070049E+00
          2   -1    0    0  502    0 -0.00000000000E+00  0.00000000000E+00  0.24758498124E+03  0.24758498124E+03  0.00000000000E+00 0. -1.
         21   -1    0    0  501  502  0.00000000000E+00 -0.00000000000E+00 -0.38485174896E+03  0.38485174896E+03  0.00000000000E+00 0.  1.
         24    2    1    2    0    0 -0.37164415934E+02 -0.28205394369E+02  0.30688776912E+02  0.99032979316E+02  0.81786257285E+02 0.  0.
         23    2    1    2    0    0 -0.19191914853E+03  0.99295800737E+02 -0.17632878782E+03  0.29339700809E+03  0.91089776205E+02 0.  0.
        -11    1    3    3    0    0 -0.55633066716E+02 -0.28468482310E+02  0.43858375461E+02  0.76348213439E+02  0.00000000000E+00 0.  1.
         12    1    3    3    0    0  0.18468650782E+02  0.26308794059E+00 -0.13169598548E+02  0.22684765877E+02  0.00000000000E+00 0. -1.
        -11    1    4    4    0    0 -0.14961094176E+03  0.95773859091E+02 -0.94503695410E+02  0.20121385247E+03  0.00000000000E+00 0.  1.
         11    1    4    4    0    0 -0.42308206762E+02  0.35219416463E+01 -0.81825092408E+02  0.92183155619E+02  0.00000000000E+00 0. -1.
          1    1    1    2  501    0  0.22908356446E+03 -0.71090406368E+02  0.83732431806E+01  0.24000674279E+03  0.00000000000E+00 0. -1.
<scales pt_clust_5="13000.00000" pt_clust_6="13000.00000" pt_clust_7="13000.00000" pt_clust_8="13000.00000" pt_clust_9="13000.00000"></scales>
<clustering>
<clus scale="   81.786">  5  6 -1 -1</clus>
<clus scale="   91.090">  7  8 -1 -1</clus>
<clus scale="   94.158">  1  5  2 -1</clus>
<clus scale="  222.916">  7  9 -1 -1</clus>
<clus scale="  506.271">  2  5  1 -1</clus>
</clustering>
</event>
<event>
 9    2  0.3707658E-005  0.5999113E+03  0.7546771E-02  0.1025963E+00
          2   -1    0    0  502    0 -0.00000000000E+00  0.00000000000E+00  0.11845009494E+04  0.11845009494E+04  0.00000000000E+00 0. -1.
         21   -1    0    0  501  502  0.00000000000E+00 -0.00000000000E+00 -0.14024942243E+03  0.14024942243E+03  0.00000000000E+00 0. -1.
         24    2    1    2    0    0  0.70800006769E+02 -0.16930477047E+03  0.38137531375E+03  0.43071545078E+03  0.79949504918E+02 0.  0.
         23    2    1    2    0    0  0.90519338795E+02 -0.12700778729E+03  0.47214619252E+03  0.50647459807E+03  0.96279606647E+02 0.  0.
        -13    1    3    3    0    0  0.26006224709E+02 -0.13125764096E+02  0.11557648066E+03  0.11919115861E+03  0.00000000000E+00 0.  1.
         14    1    3    3    0    0  0.44793782060E+02 -0.15617900637E+03  0.26579883309E+03  0.31152429217E+03  0.00000000000E+00 0. -1.
        -13    1    4    4    0    0  0.26946365515E+02 -0.75065066453E+02  0.35224772932E+03  0.36116385980E+03  0.00000000000E+00 0. -1.
         13    1    4    4    0    0  0.63572973280E+02 -0.51942720836E+02  0.11989846319E+03  0.14531073827E+03  0.00000000000E+00 0.  1.
          1    1    1    2  501    0 -0.16131934556E+03  0.29631255776E+03  0.19073002066E+03  0.38756032294E+03  0.00000000000E+00 0. -1.
<scales pt_clust_5="13000.00000" pt_clust_6="13000.00000" pt_clust_7="13000.00000" pt_clust_8="13000.00000" pt_clust_9="13000.00000"></scales>
<clustering>
<clus scale="   79.950">  5  6 -1 -1</clus>
<clus scale="   96.280">  7  8 -1 -1</clus>
<clus scale="  200.172">  1  5  2 -1</clus>
<clus scale="  269.665">  7  9 -1 -1</clus>
<clus scale="  599.911">  2  5  1 -1</clus>
</clustering>
</event>
<event>
 9    2  0.3707658E-005  0.2193118E+03  0.7546771E-02  0.1157058E+00
          2   -1    0    0  502    0 -0.00000000000E+00  0.00000000000E+00  0.33126955758E+02  0.33126955758E+02  0.00000000000E+00 0. -1.
         21   -1    0    0  501  502  0.00000000000E+00 -0.00000000000E+00 -0.91400929399E+03  0.91400929399E+03  0.00000000000E+00 0.  1.
         24    2    1    2    0    0  0.21499673400E+02 -0.97981799362E+02 -0.28957120376E+03  0.31646475420E+03  0.78967016139E+02 0.  0.
         23    2    1    2    0    0  0.32340932675E+02 -0.13912566187E+02 -0.25309293064E+03  0.27037895704E+03  0.88369980463E+02 0.  0.
        -11    1    3    3    0    0  0.39682162630E+02 -0.73052233187E+02 -0.13272085542E+03  0.15660819987E+03  0.00000000000E+00 0.  1.
         12    1    3    3    0    0 -0.18182489230E+02 -0.24929566175E+02 -0.15685034835E+03  0.15985655433E+03  0.00000000000E+00 0. -1.
        -11    1    4    4    0    0  0.46442131660E+02  0.21973778210E+02 -0.99032266289E+02  0.11156660920E+03  0.00000000000E+00 0. -1.
         11    1    4    4    0    0 -0.14101198985E+02 -0.35886344397E+02 -0.15406066435E+03  0.15881234784E+03  0.00000000000E+00 0.  1.
          1    1    1    2  501    0 -0.53840606074E+02  0.11189436555E+03 -0.33821820383E+03  0.36029253851E+03  0.00000000000E+00 0. -1.
<scales pt_clust_5="13000.00000" pt_clust_6="13000.00000" pt_clust_7="13000.00000" pt_clust_8="13000.00000" pt_clust_9="13000.00000"></scales>
<clustering>
<clus scale="   78.967">  5  6 -1 -1</clus>
<clus scale="   88.370">  7  8 -1 -1</clus>
<clus scale="  124.174">  7  9 -1 -1</clus>
<clus scale="  127.665">  1  5  2 -1</clus>
<clus scale="  219.312">  2  5  1 -1</clus>
</clustering>
</event>
<event>
 9    2  0.3707658E-005  0.3503357E+03  0.7546771E-02  0.1072854E+00
          2   -1    0    0  502    0 -0.00000000000E+00  0.00000000000E+00  0.23841239694E+04  0.23841239694E+04  0.00000000000E+00 0. -1.
         21   -1    0    0  501  502  0.00000000000E+00 -0.00000000000E+00 -0.41081744928E+02  0.41081744928E+02  0.00000000000E+00 0. -1.
         24    2    1    2    0    0 -0.24817322470E+03  0.33905347834E+02  0.77343936100E+03  0.81698052831E+03  0.80679715061E+02 0.  0.
         23    2    1    2    0    0  0.95984812716E+01 -0.30795692711E+02  0.26092566302E+03  0.27797573831E+03  0.90265186706E+02 0.  0.
        -11    1    3    3    0    0 -0.71713951419E+02  0.32786686028E+02  0.15566625785E+03  0.17449882934E+03  0.00000000000E+00 0.  1.
         12    1    3    3    0    0 -0.17645927328E+03  0.11186618058E+01  0.61777310316E+03  0.64248169897E+03  0.00000000000E+00 0. -1.
        -11    1    4    4    0    0 -0.26681096605E+02 -0.31455669123E+02  0.21754240261E+03  0.22141823992E+03  0.00000000000E+00 0.  1.
         11    1    4    4    0    0  0.36279577877E+02  0.65997641240E+00  0.43383260416E+02  0.56557498390E+02  0.00000000000E+00 0. -1.
          1    1    1    2  501    0  0.23857474343E+03 -0.31096551230E+01  0.13086772004E+04  0.13302494477E+04  0.00000000000E+00 0. -1.
<scales pt_clust_5="13000.00000" pt_clust_6="13000.00000" pt_clust_7="13000.00000" pt_clust_8="13000.00000" pt_clust_9="13000.00000"></scales>
<clustering>
<clus scale="   80.680">  5  6 -1 -1</clus>
<clus scale="   90.265">  7  8 -1 -1</clus>
<clus scale="  238.595">  7  9 -1 -1</clus>
<clus scale="  263.152">  1  5  2 -1</clus>
<clus scale="  350.336">  2  5  1 -1</clus>
</clustering>
</event>
<event>
 9    2  0.3707658E-005  0.2361160E+03  0.7546771E-02  0.1155925E+00
         21   -1    0    0  501  502  0.00000000000E+00  0.00000000000E+00  0.36596009756E+03  0.36596009756E+03  0.00000000000E+00 0.  1.
         -3   -1    0    0    0  501 -0.00000000000E+00 -0.00000000000E+00 -0.82666487310E+02  0.82666487310E+02  0.00000000000E+00 0.  1.
         24    2    1    2    0    0  0.24209778195E+01 -0.67381811536E+02  0.48728079655E+02  0.11580268690E+03  0.80558468747E+02 0.  0.
         23    2    1    2    0    0  0.33475337886E+02 -0.53192164552E+02  0.10825559903E+03  0.15455211669E+03  0.90648096691E+02 0.  0.
        -11    1    3    3    0    0 -0.29610060723E+02 -0.30264412951E+02 -0.55017917766E+01  0.42696136828E+02  0.00000000000E+00 0.  1.
         12    1    3    3    0    0  0.32031038543E+02 -0.37117398585E+02  0.54229871431E+02  0.73106550071E+02  0.00000000000E+00 0. -1.
        -11    1    4    4    0    0 -0.20385899186E+02 -0.29166041962E+02  0.83168293414E+02  0.90461085107E+02  0.00000000000E+00 0.  1.
         11    1    4    4    0    0  0.53861237072E+02 -0.24026122590E+02  0.25087305618E+02  0.64091031579E+02  0.00000000000E+00 0. -1.
         -4    1    1    2    0  502 -0.35896315706E+02  0.12057397609E+03  0.12630993156E+03  0.17827178129E+03  0.00000000000E+00 0.  1.
<scales pt_clust_5="13000.00000" pt_clust_6="13000.00000" pt_clust_7="13000.00000" pt_clust_8="13000.00000" pt_clust_9="13000.00000"></scales>
<clustering>
<clus scale="   80.558">  5  6 -1 -1</clus>
<clus scale="   90.648">  7  8 -1 -1</clus>
<clus scale="  105.052">  2  5  1 -1</clus>
<clus scale="   91.723">  7  9 -1 -1</clus>
<clus scale="  236.116">  1  5  2 -1</clus>
</clustering>
</event>
<event>
 9    2  0.3707658E-005  0.2223356E+03  0.7546771E-02  0.1164136E+00
          2   -1    0    0  502    0 -0.00000000000E+00  0.00000000000E+00  0.27832722285E+03  0.27832722285E+03  0.00000000000E+00 0. -1.
         21   -1    0    0  501  502  0.00000000000E+00 -0.00000000000E+00 -0.11400205597E+03  0.11400205597E+03  0.00000000000E+00 0.  1.
         24    2    1    2    0    0 -0.39790748440E+02  0.51068263213E+02  0.13145473823E+03  0.16757704989E+03  0.81304663327E+02 0.  0.
         23    2    1    2    0    0  0.99929769935E+02 -0.68509474187E+02 -0.49784956832E-01  0.15400876131E+03  0.95074650192E+02 0.  0.
        -11    1    3    3    0    0  0.23686520647E+02  0.27314136775E+02  0.45373490931E+02  0.58016092659E+02  0.00000000000E+00 0.  1.
         12    1    3    3    0    0 -0.63477269087E+02  0.23754126438E+02  0.86081247296E+02  0.10956095723E+03  0.00000000000E+00 0. -1.
        -13    1    4    4    0    0  0.40932516479E+02  0.21426851126E+02  0.39829401034E+01  0.46372887190E+02  0.00000000000E+00 0. -1.
         13    1    4    4    0    0  0.58997253457E+02 -0.89936325313E+02 -0.40327250602E+01  0.10763587412E+03  0.00000000000E+00 0.  1.
          1    1    1    2  501    0 -0.60139021496E+02  0.17441210974E+02  0.32920213605E+02  0.70743467617E+02  0.00000000000E+00 0. -1.
<scales pt_clust_5="13000.00000" pt_clust_6="13000.00000" pt_clust_7="13000.00000" pt_clust_8="13000.00000" pt_clust_9="13000.00000"></scales>
<clustering>
<clus scale="   81.305">  5  6 -1 -1</clus>
<clus scale="   95.075">  7  8 -1 -1</clus>
<clus scale="   62.617">  7  9 -1 -1</clus>
<clus scale="  103.931">  1  5  2 -1</clus>
<clus scale="  222.336">  2  5  1 -1</clus>
</clustering>
</event>
<event>
 9    2  0.3707658E-005  0.2903947E+03  0.7546771E-02  0.1132405E+00
          2   -1    0    0  502    0 -0.00000000000E+00  0.00000000000E+00  0.47564927850E+03  0.47564927850E+03  0.00000000000E+00 0. -1.
         21   -1    0    0  501  502  0.00000000000E+00 -0.00000000000E+00 -0.41648866566E+03  0.41648866566E+03  0.00000000000E+00 0. -1.
         24    2    1    2    0    0  0.55145697885E+02 -0.17232878763E+02  0.41852086005E+03  0.43011104106E+03  0.80608791328E+02 0.  0.
         23    2    1    2    0    0  0.91669486995E+02  0.47979368078E+02 -0.20093677814E+03  0.24385715113E+03  0.91571866543E+02 0.  0.
        -11    1    3    3    0    0  0.53994806319E+02  0.22867104158E+02  0.22871095387E+03  0.23610811926E+03  0.00000000000E+00 0.  1.
         12    1    3    3    0    0  0.11508915660E+01 -0.40099982921E+02  0.18980990619E+03  0.19400292180E+03  0.00000000000E+00 0. -1.
        -13    1    4    4    0    0  0.76398130575E+02 -0.10050921493E+02 -0.12805045042E+03  0.14944769396E+03  0.00000000000E+00 0. -1.
         13    1    4    4    0    0  0.15271356420E+02  0.58030289571E+02 -0.72886327725E+02  0.94409457174E+02  0.00000000000E+00 0.  1.
          1    1    1    2  501    0 -0.14681518488E+03 -0.30746489315E+02 -0.15842346908E+03  0.21816975196E+03  0.00000000000E+00 0. -1.
<scales pt_clust_5="13000.00000" pt_clust_6="13000.00000" pt_clust_7="13000.00000" pt_clust_8="13000.00000" pt_clust_9="13000.00000"></scales>
<clustering>
<clus scale="   80.609">  5  6 -1 -1</clus>
<clus scale="   91.572">  7  8 -1 -1</clus>
<clus scale="   99.176">  1  5  2 -1</clus>
<clus scale="  121.754">  7  9 -1 -1</clus>
<clus scale="  290.395">  2  5  1 -1</clus>
</clustering>
</event>
<event>
 9    2  0.3707658E-005  0.1676479E+03  0.7546771E-02  0.1203122E+00
         21   -1    0    0  501  502  0.00000000000E+00  0.00000000000E+00  0.38570097527E+02  0.38570097527E+02  0.00000000000E+00 0. -1.
          2   -1    0    0  502    0 -0.00000000000E+00 -0.00000000000E+00 -0.86342849355E+03  0.86342849355E+03  0.00000000000E+00 0. -1.
         24    2    1    2    0    0 -0.15540812607E+02  0.58730975920E+02 -0.65690419710E+03  0.66469197394E+03  0.81249317864E+02 0.  0.
         23    2    1    2    0    0  0.37012515456E+02 -0.60892830344E+02 -0.66414131423E+02  0.13349865528E+03  0.91286313444E+02 0.  0.
        -11    1    3    3    0    0 -0.22636124703E+02 -0.13282055300E+02 -0.11373136595E+03  0.11672030987E+03  0.00000000000E+00 0.  1.
         12    1    3    3    0    0  0.70953120961E+01  0.72013031219E+02 -0.54317283115E+03  0.54797166407E+03  0.00000000000E+00 0. -1.
        -13    1    4    4    0    0 -0.40046347073E+01 -0.56815882286E+02 -0.72106557649E+02  0.91888177885E+02  0.00000000000E+00 0.  1.
         13    1    4    4    0    0  0.41017150164E+02 -0.40769480582E+01  0.56924262258E+01  0.41610477399E+02  0.00000000000E+00 0. -1.
          1    1    1    2  501    0 -0.21471702849E+02  0.21618544243E+01 -0.10154006750E+03  0.10380796186E+03  0.00000000000E+00 0. -1.
<scales pt_clust_5="13000.00000" pt_clust_6="13000.00000" pt_clust_7="13000.00000" pt_clust_8="13000.00000" pt_clust_9="13000.00000"></scales>
<clustering>
<clus scale="   81.249">  5  6 -1 -1</clus>
<clus scale="   91.286">  7  8 -1 -1</clus>
<clus scale="   21.580">  7  9 -1 -1</clus>
<clus scale="  101.451">  2  5  1 -1</clus>
<clus scale="  167.648">  1  5  2 -1</clus>
</clustering>
</event>
<event>
 9    2  0.3707658E-005  0.6958252E+03  0.7546771E-02  0.9889986E-01
          2   -1    0    0  502    0 -0.00000000000E+00  0.00000000000E+00  0.20856219928E+04  0.20856219928E+04  0.00000000000E+00 0. -1.
         21   -1    0    0  501  502  0.00000000000E+00 -0.00000000000E+00 -0.14574932748E+03  0.14574932748E+03  0.00000000000E+00 0. -1.
         24    2    1    2    0    0  0.33466463226E+03  0.21087552725E+03  0.64020751305E+03  0.75715892817E+03  0.83397114281E+02 0.  0.
         23    2    1    2    0    0  0.10424999682E+03 -0.40749368973E+02  0.68233339180E+03  0.69788291062E+03  0.94515218189E+02 0.  0.
        -11    1    3    3    0    0  0.13618917477E+02  0.29011131642E+02  0.29050611314E+02  0.43255735921E+02  0.00000000000E+00 0.  1.
         12    1    3    3    0    0  0.32104571478E+03  0.18186439561E+03  0.61115690173E+03  0.71390319225E+03  0.00000000000E+00 0. -1.
        -13    1    4    4    0    0  0.10490425046E+03 -0.50269583339E+01  0.58146748212E+03  0.59087613325E+03  0.00000000000E+00 0.  1.
         13    1    4    4    0    0 -0.65425364685E+00 -0.35722410639E+02  0.10086590967E+03  0.10700677737E+03  0.00000000000E+00 0. -1.
          1    1    1    2  501    0 -0.43891462907E+03 -0.17012615828E+03  0.61733176051E+03  0.77632948152E+03  0.00000000000E+00 0. -1.
<scales pt_clust_5="13000.00000" pt_clust_6="13000.00000" pt_clust_7="13000.00000" pt_clust_8="13000.00000" pt_clust_9="13000.00000"></scales>
<clustering>
<clus scale="   83.397">  5  6 -1 -1</clus>
<clus scale="   94.515">  7  8 -1 -1</clus>
<clus scale="  404.258">  1  5  2 -1</clus>
<clus scale="  278.273">  7  9 -1 -1</clus>
<clus scale="  695.825">  2  5  1 -1</clus>
</clustering>
</event>
<event>
 9    2  0.3707658E-005  0.1073703E+04  0.7546771E-02  0.9517008E-01
         21   -1    0    0  501  502  0.00000000000E+00  0.00000000000E+00  0.62185727691E+03  0.62185727691E+03  0.00000000000E+00 0. -1.
          2   -1    0    0  502    0 -0.00000000000E+00 -0.00000000000E+00 -0.88332488013E+03  0.88332488013E+03  0.00000000000E+00 0. -1.
         24    2    1    2    0    0 -0.90307350597E+02 -0.36502305092E+03  0.49514983698E+02  0.38735006078E+03  0.78683484282E+02 0.  0.
         23    2    1    2    0    0  0.23883900562E+03 -0.12506770389E+03 -0.49755052160E+03  0.57280164322E+03  0.88652127836E+02 0.  0.
        -11    1    3    3    0    0 -0.46407350256E+02 -0.99800639560E+02 -0.14468433468E+02  0.11100966346E+03  0.00000000000E+00 0.  1.
         12    1    3    3    0    0 -0.43900000341E+02 -0.26522241136E+03  0.63983417166E+02  0.27634039732E+03  0.00000000000E+00 0. -1.
        -13    1    4    4    0    0  0.19916390540E+03 -0.60801800237E+02 -0.36081632845E+03  0.41659517880E+03  0.00000000000E+00 0. -1.
         13    1    4    4    0    0  0.39675100225E+02 -0.64265903648E+02 -0.13673419315E+03  0.15620646442E+03  0.00000000000E+00 0.  1.
          1    1    1    2  501    0 -0.14853165503E+03  0.49009075481E+03  0.18656793468E+03  0.54503045304E+03  0.00000000000E+00 0. -1.
<scales pt_clust_5="13000.00000" pt_clust_6="13000.00000" pt_clust_7="13000.00000" pt_clust_8="13000.00000" pt_clust_9="13000.00000"></scales>
<clustering>
<clus scale="   78.683">  5  6 -1 -1</clus>
<clus scale="   88.652">  7  8 -1 -1</clus>
<clus scale="  384.172">  2  5  1 -1</clus>
<clus scale="  433.726">  7  9 -1 -1</clus>
<clus scale=" 1073.703">  1  5  2 -1</clus>
</clustering>
</event>
<event>
 9    2  0.3707658E-005  0.1453879E+03  0.7546771E-02  0.1229142E+00
         21   -1    0    0  501  502  0.00000000000E+00  0.00000000000E+00  0.40986356643E+02  0.40986356643E+02  0.00000000000E+00 0.  1.
          2   -1    0    0  502    0 -0.00000000000E+00 -0.00000000000E+00 -0.33947377918E+03  0.33947377918E+03  0.00000000000E+00 0. -1.
         24    2    1    2    0    0  0.23993665214E+01 -0.42816534354E+02 -0.99153978690E+02  0.13373870617E+03  0.78838553160E+02 0.  0.
         23    2    1    2    0    0  0.37178590740E+02  0.24089438566E+02 -0.12968861594E+03  0.16445648650E+03  0.90907921480E+02 0.  0.
        -11    1    3    3    0    0  0.99188132477E+01 -0.65162124444E+02 -0.77359675884E+02  0.10163171144E+03  0.00000000000E+00 0.  1.
         12    1    3    3    0    0 -0.75194467262E+01  0.22345590090E+02 -0.21794302807E+02  0.32106994727E+02  0.00000000000E+00 0. -1.
        -11    1    4    4    0    0 -0.25309622767E+02  0.38493731118E+01 -0.74130626108E+02  0.78426681717E+02  0.00000000000E+00 0.  1.
         11    1    4    4    0    0  0.62488213507E+02  0.20240065454E+02 -0.55557989829E+02  0.86029804781E+02  0.00000000000E+00 0. -1.
          1    1    1    2  501    0 -0.39577957261E+02  0.18727095788E+02 -0.69644827907E+02  0.82264943152E+02  0.00000000000E+00 0. -1.
<scales pt_clust_5="13000.00000" pt_clust_6="13000.00000" pt_clust_7="13000.00000" pt_clust_8="13000.00000" pt_clust_9="13000.00000"></scales>
<clustering>
<clus scale="   78.839">  5  6 -1 -1</clus>
<clus scale="   89.747">  2  5  1 -1</clus>
<clus scale="   90.908">  7  8 -1 -1</clus>
<clus scale="   38.982">  7  9 -1 -1</clus>
<clus scale="  145.388">  1  5  2 -1</clus>
</clustering>
</event>
<event>
 9    2  0.3707658E-005  0.2790985E+03  0.7546771E-02  0.1134613E+00
         21   -1    0    0  501  502  0.00000000000E+00  0.00000000000E+00  0.63697982522E+02  0.63697982522E+02  0.00000000000E+00 0.  1.
          4   -1    0    0  502    0 -0.00000000000E+00 -0.00000000000E+00 -0.58382752464E+03  0.58382752464E+03  0.00000000000E+00 0. -1.
         24    2    1    2    0    0 -0.65880187509E+02 -0.34393553225E+02 -0.16134864823E+03  0.19297111212E+03  0.75374718695E+02 0.  0.
         23    2    1    2    0    0  0.14005579891E+03  0.35355384472E+02 -0.13223269003E+03  0.21617017762E+03  0.91533771690E+02 0.  0.
        -11    1    3    3    0    0 -0.30694312682E+02  0.41797381170E+01 -0.95065642926E+01  0.32403484479E+02  0.00000000000E+00 0.  1.
         12    1    3    3    0    0 -0.35185874827E+02 -0.38573291342E+02 -0.15184208394E+03  0.16056762764E+03  0.00000000000E+00 0. -1.
        -13    1    4    4    0    0  0.85546174812E+01  0.33019683539E+02 -0.51740402983E+02  0.61972173450E+02  0.00000000000E+00 0. -1.
         13    1    4    4    0    0  0.13150118143E+03  0.23357009335E+01 -0.80492287049E+02  0.15419800417E+03  0.00000000000E+00 0.  1.
          3    1    1    2  501    0 -0.74175611398E+02 -0.96183124707E+00 -0.22654820386E+03  0.23838421742E+03  0.00000000000E+00 0. -1.
<scales pt_clust_5="13000.00000" pt_clust_6="13000.00000" pt_clust_7="13000.00000" pt_clust_8="13000.00000" pt_clust_9="13000.00000"></scales>
<clustering>
<clus scale="   75.375">  5  6 -1 -1</clus>
<clus scale="   91.534">  7  8 -1 -1</clus>
<clus scale="   74.182">  7  9 -1 -1</clus>
<clus scale="  105.851">  2  5  1 -1</clus>
<clus scale="  279.098">  1  5  2 -1</clus>
</clustering>
</event>
<event>
 9    2  0.3707658E-005  0.1215898E+03  0.7546771E-02  0.1257114E+00
          2   -1    0    0  502    0 -0.00000000000E+00  0.00000000000E+00  0.36940068443E+03  0.36940068443E+03  0.00000000000E+00 0. -1.
         21   -1    0    0  501  502  0.00000000000E+00 -0.00000000000E+00 -0.33302194394E+02  0.33302194394E+02  0.00000000000E+00 0.  1.
         24    2    1    2    0    0 -0.15839778069E+02  0.24540819135E+02  0.76289576049E+02  0.11584967093E+03  0.82145580944E+02 0.  0.
         23    2    1    2    0    0  0.16884269636E+01 -0.39689420795E+02  0.23472049374E+03  0.25430832041E+03  0.89447810153E+02 0.  0.
        -13    1    3    3    0    0 -0.45444527952E+02  0.26289124050E+01  0.22814558317E+02  0.50917780513E+02  0.00000000000E+00 0.  1.
         14    1    3    3    0    0  0.29604749882E+02  0.21911906730E+02  0.53475017732E+02  0.64931890421E+02  0.00000000000E+00 0. -1.
        -11    1    4    4    0    0  0.41356126203E+02 -0.16149484598E+02  0.67110393147E+02  0.80467011226E+02  0.00000000000E+00 0.  1.
         11    1    4    4    0    0 -0.39667699239E+02 -0.23539936197E+02  0.16761010059E+03  0.17384130919E+03  0.00000000000E+00 0. -1.
          1    1    1    2  501    0  0.14151351106E+02  0.15148601660E+02  0.25088420243E+02  0.32544887474E+02  0.00000000000E+00 0. -1.
<scales pt_clust_5="13000.00000" pt_clust_6="13000.00000" pt_clust_7="13000.00000" pt_clust_8="13000.00000" pt_clust_9="13000.00000"></scales>
<clustering>
<clus scale="   82.146">  5  6 -1 -1</clus>
<clus scale="   87.184">  1  5  2 -1</clus>
<clus scale="   89.448">  7  8 -1 -1</clus>
<clus scale="   21.687">  7  9 -1 -1</clus>
<clus scale="  121.590">  2  5  1 -1</clus>
</clustering>
</event>
<event>
 9    2  0.3707658E-005  0.2567582E+03  0.7546771E-02  0.1134482E+00
         21   -1    0    0  501  502  0.00000000000E+00  0.00000000000E+00  0.54242282202E+03  0.54242282202E+03  0.00000000000E+00 0. -1.
          4   -1    0    0  502    0 -0.00000000000E+00 -0.00000000000E+00 -0.12501429792E+03  0.12501429792E+03  0.00000000000E+00 0. -1.
         24    2    1    2    0    0  0.69467136917E+02 -0.87023567522E+02 -0.40657079815E+02  0.14231913757E+03  0.78758836740E+02 0.  0.
         23    2    1    2    0    0  0.32752454394E+02 -0.39795740726E+01  0.89956659886E+02  0.13239083625E+03  0.91359578520E+02 0.  0.
        -13    1    3    3    0    0  0.42952656026E+02 -0.46190005730E+01  0.65892637669E+01  0.43699933901E+02  0.00000000000E+00 0.  1.
         14    1    3    3    0    0  0.26514480891E+02 -0.82404566949E+02 -0.47246343581E+02  0.98619203671E+02  0.00000000000E+00 0. -1.
        -11    1    4    4    0    0  0.53525754972E+02  0.17768089483E+02  0.84853270337E+02  0.10188615674E+03  0.00000000000E+00 0.  1.
         11    1    4    4    0    0 -0.20773300578E+02 -0.21747663555E+02  0.51033895482E+01  0.30504679508E+02  0.00000000000E+00 0. -1.
          3    1    1    2  501    0 -0.10221959131E+03  0.91003141594E+02  0.36810894403E+03  0.39272714612E+03  0.00000000000E+00 0. -1.
<scales pt_clust_5="13000.00000" pt_clust_6="13000.00000" pt_clust_7="13000.00000" pt_clust_8="13000.00000" pt_clust_9="13000.00000"></scales>
<clustering>
<clus scale="   78.759">  5  6 -1 -1</clus>
<clus scale="   91.360">  7  8 -1 -1</clus>
<clus scale="  136.388">  2  5  1 -1</clus>
<clus scale="   96.811">  7  9 -1 -1</clus>
<clus scale="  256.758">  1  5  2 -1</clus>
</clustering>
</event>
<event>
 9    2  0.3707658E-005  0.2510878E+03  0.7546771E-02  0.1136839E+00
          2   -1    0    0  502    0 -0.00000000000E+00  0.00000000000E+00  0.51792865054E+03  0.51792865054E+03  0.00000000000E+00 0. -1.
         21   -1    0    0  501  502  0.00000000000E+00 -0.00000000000E+00 -0.75990604296E+02  0.75990604296E+02  0.00000000000E+00 0. -1.
         24    2    1    2    0    0 -0.90728295225E+02  0.60176392296E+02  0.21585644707E+03  0.25604652723E+03  0.84338583232E+02 0.  0.
         23    2    1    2    0    0  0.48717583352E+02 -0.13284679255E+03  0.13766224132E+03  0.21595525622E+03  0.87544884404E+02 0.  0.
        -13    1    3    3    0    0 -0.11645065519E+02  0.16831322670E+02 -0.17015149231E+01  0.20537675788E+02  0.00000000000E+00 0.  1.
         14    1    3    3    0    0 -0.79083229706E+02  0.43345069626E+02  0.21755796199E+03  0.23550885144E+03  0.00000000000E+00 0. -1.
        -13    1    4    4    0    0  0.71325283091E+02 -0.10912452571E+03  0.91203793467E+02  0.15910245147E+03  0.00000000000E+00 0. -1.
         13    1    4    4    0    0 -0.22607699739E+02 -0.23722266835E+02  0.46458447850E+02  0.56852804750E+02  0.00000000000E+00 0.  1.
          1    1    1    2  501    0  0.42010711872E+02  0.72670400253E+02  0.88419357853E+02  0.12191747138E+03  0.00000000000E+00 0. -1.
<scales pt_clust_5="13000.00000" pt_clust_6="13000.00000" pt_clust_7="13000.00000" pt_clust_8="13000.00000" pt_clust_9="13000.00000"></scales>
<clustering>
<clus scale="   84.339">  5  6 -1 -1</clus>
<clus scale="   87.545">  7  8 -1 -1</clus>
<clus scale="   83.940">  7  9 -1 -1</clus>
<clus scale="  137.716">  1  5  2 -1</clus>
<clus scale="  251.088">  2  5  1 -1</clus>
</clustering>
</event>
<event>
 9    2  0.3707658E-005  0.1740546E+03  0.7546771E-02  0.1195454E+00
         -3   -1    0    0    0  501 -0.00000000000E+00  0.00000000000E+00  0.31532608531E+03  0.31532608531E+03  0.00000000000E+00 0.  1.
         21   -1    0    0  501  502  0.00000000000E+00 -0.00000000000E+00 -0.94610760514E+02  0.94610760514E+02  0.00000000000E+00 0. -1.
         24    2    1    2    0    0 -0.35244610217E+02 -0.60092157108E+02  0.20977805556E+03  0.23553897315E+03  0.81354320010E+02 0.  0.
         23    2    1    2    0    0  0.69354962464E+02  0.18048651460E+02  0.25279295547E+02  0.11839013913E+03  0.90781703129E+02 0.  0.
        -13    1    3    3    0    0 -0.37869603884E+02 -0.69665140886E+02  0.21112273809E+03  0.22552194858E+03  0.00000000000E+00 0.  1.
         14    1    3    3    0    0  0.26249936663E+01  0.95729837778E+01 -0.13446825311E+01  0.10017024572E+02  0.00000000000E+00 0. -1.
        -13    1    4    4    0    0 -0.14569243036E+02 -0.18971808054E+02  0.45244761178E+01  0.24344675550E+02  0.00000000000E+00 0.  1.
         13    1    4    4    0    0  0.83924205500E+02  0.37020459513E+02  0.20754819429E+02  0.94045463585E+02  0.00000000000E+00 0. -1.
         -4    1    1    2    0  502 -0.34110352246E+02  0.42043505649E+02 -0.14342026308E+02  0.56007733539E+02  0.00000000000E+00 0.  1.
<scales pt_clust_5="13000.00000" pt_clust_6="13000.00000" pt_clust_7="13000.00000" pt_clust_8="13000.00000" pt_clust_9="13000.00000"></scales>
<clustering>
<clus scale="   81.354">  5  6 -1 -1</clus>
<clus scale="   90.782">  7  8 -1 -1</clus>
<clus scale="   54.140">  7  9 -1 -1</clus>
<clus scale="  107.106">  1  5  2 -1</clus>
<clus scale="  174.055">  2  5  1 -1</clus>
</clustering>
</event>
<event>
 9    2  0.3707658E-005  0.2815861E+03  0.7546771E-02  0.1123199E+00
         21   -1    0    0  501  502  0.00000000000E+00  0.00000000000E+00  0.57898857872E+02  0.57898857872E+02  0.00000000000E+00 0. -1.
          2   -1    0    0  502    0 -0.00000000000E+00 -0.00000000000E+00 -0.82532780601E+03  0.82532780601E+03  0.00000000000E+00 0. -1.
         24    2    1    2    0    0  0.43238474167E+02  0.98446648113E+02 -0.14010244341E+03  0.19560085028E+03  0.84081447467E+02 0.  0.
         23    2    1    2    0    0 -0.23107828523E+02  0.44719454362E+01 -0.59226408711E+02  0.10992762346E+03  0.89567543656E+02 0.  0.
        -13    1    3    3    0    0  0.25085189090E+02  0.15099196556E+02  0.25502696152E+01  0.29389731599E+02  0.00000000000E+00 0.  1.
         14    1    3    3    0    0  0.18153285076E+02  0.83347451557E+02 -0.14265271302E+03  0.16621111868E+03  0.00000000000E+00 0. -1.
        -13    1    4    4    0    0  0.13840784355E+02 -0.16772215404E+02 -0.63474262509E+02  0.67095875597E+02  0.00000000000E+00 0.  1.
         13    1    4    4    0    0 -0.36948612878E+02  0.21244160840E+02  0.42478537980E+01  0.42831747867E+02  0.00000000000E+00 0. -1.
          1    1    1    2  501    0 -0.20130645644E+02 -0.10291859355E+03 -0.56810009602E+03  0.57769819014E+03  0.00000000000E+00 0. -1.
<scales pt_clust_5="13000.00000" pt_clust_6="13000.00000" pt_clust_7="13000.00000" pt_clust_8="13000.00000" pt_clust_9="13000.00000"></scales>
<clustering>
<clus scale="   84.081">  5  6 -1 -1</clus>
<clus scale="   89.568">  7  8 -1 -1</clus>
<clus scale="  104.869">  7  9 -1 -1</clus>
<clus scale="  136.495">  2  5  1 -1</clus>
<clus scale="  281.586">  1  5  2 -1</clus>
</clustering>
</event>
<event>
 9    2  0.3707658E-005  0.9598263E+03  0.7546771E-02  0.9514312E-01
         21   -1    0    0  501  502  0.00000000000E+00  0.00000000000E+00  0.57961193584E+03  0.57961193584E+03  0.00000000000E+00 0. -1.
          2   -1    0    0  502    0 -0.00000000000E+00 -0.00000000000E+00 -0.16596217550E+04  0.16596217550E+04  0.00000000000E+00 0. -1.
         24    2    1    2    0    0  0.41686537097E+03 -0.33857880806E+03 -0.11552746700E+04  0.12764609604E+04  0.79250699434E+02 0.  0.
         23    2    1    2    0    0 -0.39881229889E+02  0.23670043931E+03 -0.31790769623E+03  0.40862392700E+03  0.91052731568E+02 0.  0.
        -11    1    3    3    0    0  0.20452645038E+03 -0.21571711886E+03 -0.61276632284E+03  0.68106351442E+03  0.00000000000E+00 0.  1.
         12    1    3    3    0    0  0.21233892059E+03 -0.12286168921E+03 -0.54250834721E+03  0.59539744597E+03  0.00000000000E+00 0. -1.
        -11    1    4    4    0    0 -0.50526404628E+02  0.12503212891E+03 -0.22786912287E+03  0.26478347377E+03  0.00000000000E+00 0.  1.
         11    1    4    4    0    0  0.10645174738E+02  0.11166831039E+03 -0.90038573367E+02  0.14384045323E+03  0.00000000000E+00 0. -1.
          1    1    1    2  501    0 -0.37698414108E+03  0.10187836876E+03  0.39317254708E+03  0.55414880350E+03  0.00000000000E+00 0. -1.
<scales pt_clust_5="13000.00000" pt_clust_6="13000.00000" pt_clust_7="13000.00000" pt_clust_8="13000.00000" pt_clust_9="13000.00000"></scales>
<clustering>
<clus scale="   79.251">  5  6 -1 -1</clus>
<clus scale="   91.053">  7  8 -1 -1</clus>
<clus scale="  390.508">  7  9 -1 -1</clus>
<clus scale="  542.856">  2  5  1 -1</clus>
<clus scale="  959.826">  1  5  2 -1</clus>
</clustering>
</event>
<event>
 9    2  0.3707658E-005  0.3027962E+03  0.7546771E-02  0.1104351E+00
         21   -1    0    0  501  502  0.00000000000E+00  0.00000000000E+00  0.48933908401E+03  0.48933908401E+03  0.00000000000E+00 0.  1.
          4   -1    0    0  502    0 -0.00000000000E+00 -0.00000000000E+00 -0.12174213414E+03  0.12174213414E+03  0.00000000000E+00 0. -1.
         24    2    1    2    0    0  0.13860263050E+03  0.73212405022E+02  0.19211142805E+03  0.26110880690E+03  0.81855133148E+02 0.  0.
         23    2    1    2    0    0  0.13267866559E+02  0.50463852680E+02  0.66801164201E+02  0.12597965649E+03  0.93197862639E+02 0.  0.
        -13    1    3    3    0    0  0.53695226927E+02  0.31354348638E+02  0.13967875457E+03  0.15289351540E+03  0.00000000000E+00 0.  1.
         14    1    3    3    0    0  0.84907403575E+02  0.41858056384E+02  0.52432673477E+02  0.10821529150E+03  0.00000000000E+00 0. -1.
        -13    1    4    4    0    0 -0.16980962739E+02  0.68316687521E+02  0.35081690330E+02  0.78652704249E+02  0.00000000000E+00 0.  1.
         13    1    4    4    0    0  0.30248829298E+02 -0.17852834841E+02  0.31719473871E+02  0.47326952241E+02  0.00000000000E+00 0. -1.
          3    1    1    2  501    0 -0.15187049706E+03 -0.12367625770E+03  0.10868435762E+03  0.22399275477E+03  0.00000000000E+00 0. -1.
<scales pt_clust_5="13000.00000" pt_clust_6="13000.00000" pt_clust_7="13000.00000" pt_clust_8="13000.00000" pt_clust_9="13000.00000"></scales>
<clustering>
<clus scale="   81.855">  5  6 -1 -1</clus>
<clus scale="   93.198">  7  8 -1 -1</clus>
<clus scale="  176.836">  2  5  1 -1</clus>
<clus scale="   96.449">  7  9 -1 -1</clus>
<clus scale="  302.796">  1  5  2 -1</clus>
</clustering>
</event>
<event>
 9    2  0.3707658E-005  0.1980893E+03  0.7546771E-02  0.1193794E+00
          2   -1    0    0  502    0 -0.00000000000E+00  0.00000000000E+00  0.13797047495E+04  0.13797047495E+04  0.00000000000E+00 0. -1.
         21   -1    0    0  501  502  0.00000000000E+00 -0.00000000000E+00 -0.17178278762E+02  0.17178278762E+02  0.00000000000E+00 0. -1.
         24    2    1    2    0    0 -0.32860375213E+01 -0.21212669550E+00  0.73454742954E+03  0.73840215188E+03  0.75279270834E+02 0.  0.
         23    2    1    2    0    0  0.65798664075E+02 -0.38028233162E+02  0.46710680380E+03  0.48170409520E+03  0.89857990550E+02 0.  0.
        -13    1    3    3    0    0 -0.17811336277E+02  0.21061400425E+02  0.11287783664E+03  0.11619910624E+03  0.00000000000E+00 0.  1.
         14    1    3    3    0    0  0.14525298756E+02 -0.21273527121E+02  0.62166959290E+03  0.62220304564E+03  0.00000000000E+00 0. -1.
        -13    1    4    4    0    0 -0.22603764739E+02 -0.10251334097E+02  0.11069952973E+03  0.11344781141E+03  0.00000000000E+00 0.  1.
         13    1    4    4    0    0  0.88402428815E+02 -0.27776899065E+02  0.35640727408E+03  0.36825628380E+03  0.00000000000E+00 0. -1.
          1    1    1    2  501    0 -0.62512626554E+02  0.38240359857E+02  0.16087223744E+03  0.17677678122E+03  0.00000000000E+00 0. -1.
<scales pt_clust_5="13000.00000" pt_clust_6="13000.00000" pt_clust_7="13000.00000" pt_clust_8="13000.00000" pt_clust_9="13000.00000"></scales>
<clustering>
<clus scale="   75.279">  5  6 -1 -1</clus>
<clus scale="   75.351">  1  5  2 -1</clus>
<clus scale="   89.858">  7  8 -1 -1</clus>
<clus scale="   73.990">  7  9 -1 -1</clus>
<clus scale="  198.089">  2  5  1 -1</clus>
</clustering>
</event>
<event>
 9    2  0.3707658E-005  0.3840505E+03  0.7546771E-02  0.1088120E+00
          2   -1    0    0  502    0 -0.00000000000E+00  0.00000000000E+00  0.83170147057E+03  0.83170147057E+03  0.00000000000E+00 0. -1.
         21   -1    0    0  501  502  0.00000000000E+00 -0.00000000000E+00 -0.82971681681E+02  0.82971681681E+02  0.00000000000E+00 0. -1.
         24    2    1    2    0    0 -0.30187946992E+02  0.10285273103E+03  0.12459358260E+03  0.18184250167E+03  0.77801916186E+02 0.  0.
         23    2    1    2    0    0 -0.74162072869E+02  0.95162738961E+02  0.32908468727E+03  0.36248695633E+03  0.92434312739E+02 0.  0.
        -13    1    3    3    0    0 -0.41071188567E+01  0.10353646922E+03  0.11293077112E+03  0.15326456847E+03  0.00000000000E+00 0.  1.
         14    1    3    3    0    0 -0.26080828135E+02 -0.68373818235E+00  0.11662811486E+02  0.28577933198E+02  0.00000000000E+00 0. -1.
        -13    1    4    4    0    0 -0.45384689509E+02  0.51899180031E+02  0.28830814563E+03  0.29643697773E+03  0.00000000000E+00 0. -1.
         13    1    4    4    0    0 -0.28777383360E+02  0.43263558929E+02  0.40776541643E+02  0.66049978596E+02  0.00000000000E+00 0.  1.
          1    1    1    2  501    0  0.10435001986E+03 -0.19801546999E+03  0.29505151901E+03  0.37034369425E+03  0.00000000000E+00 0. -1.
<scales pt_clust_5="13000.00000" pt_clust_6="13000.00000" pt_clust_7="13000.00000" pt_clust_8="13000.00000" pt_clust_9="13000.00000"></scales>
<clustering>
<clus scale="   77.802">  5  6 -1 -1</clus>
<clus scale="   92.434">  7  8 -1 -1</clus>
<clus scale="  132.451">  1  5  2 -1</clus>
<clus scale="  172.624">  7  9 -1 -1</clus>
<clus scale="  384.050">  2  5  1 -1</clus>
</clustering>
</event>
<event>
 9    2  0.3707658E-005  0.2363463E+03  0.7546771E-02  0.1164168E+00
          2   -1    0    0  502    0 -0.00000000000E+00  0.00000000000E+00  0.43961422292E+03  0.43961422292E+03  0.00000000000E+00 0. -1.
         21   -1    0    0  501  502  0.00000000000E+00 -0.00000000000E+00 -0.78521277101E+02  0.78521277101E+02  0.00000000000E+00 0. -1.
         24    2    1    2    0    0  0.27934640503E+02  0.11237728495E+02 -0.13445573623E+00  0.86458778502E+02  0.81046107988E+02 0.  0.
         23    2    1    2    0    0  0.41107374995E+00 -0.81484911638E+02  0.95196558658E+02  0.15507130648E+03  0.91349688049E+02 0.  0.
        -13    1    3    3    0    0  0.24556448306E+02  0.35412694565E+02 -0.26451249770E+02  0.50564282890E+02  0.00000000000E+00 0.  1.
         14    1    3    3    0    0  0.33781921978E+01 -0.24174966070E+02  0.26316794034E+02  0.35894495612E+02  0.00000000000E+00 0. -1.
        -13    1    4    4    0    0  0.15384078895E+02 -0.53474973374E+02  0.10747058130E+03  0.12102135558E+03  0.00000000000E+00 0.  1.
         13    1    4    4    0    0 -0.14973005145E+02 -0.28009938265E+02 -0.12274022641E+02  0.34049950903E+02  0.00000000000E+00 0. -1.
          1    1    1    2  501    0 -0.28345714253E+02  0.70247183144E+02  0.26603084290E+03  0.27660541504E+03  0.00000000000E+00 0. -1.
<scales pt_clust_5="13000.00000" pt_clust_6="13000.00000" pt_clust_7="13000.00000" pt_clust_8="13000.00000" pt_clust_9="13000.00000"></scales>
<clustering>
<clus scale="   81.046">  5  6 -1 -1</clus>
<clus scale="   86.459">  1  5  2 -1</clus>
<clus scale="   91.350">  7  8 -1 -1</clus>
<clus scale="   78.482">  7  9 -1 -1</clus>
<clus scale="  236.346">  2  5  1 -1</clus>
</clustering>
</event>
<event>
 9    2  0.3707658E-005  0.4021835E+03  0.7546771E-02  0.1093568E+00
         21   -1    0    0  501  502  0.00000000000E+00  0.00000000000E+00  0.23099466427E+03  0.23099466427E+03  0.00000000000E+00 0. -1.
          2   -1    0    0  502    0 -0.00000000000E+00 -0.00000000000E+00 -0.27401461804E+03  0.27401461804E+03  0.00000000000E+00 0. -1.
         24    2    1    2    0    0 -0.54049046518E+02  0.10531977601E+02 -0.21989455030E+02  0.10227629560E+03  0.83334761816E+02 0.  0.
         23    2    1    2    0    0 -0.11761089123E+03  0.10057653037E+03  0.49210094140E+02  0.18652481005E+03  0.91770971465E+02 0.  0.
        -13    1    3    3    0    0 -0.69206835420E+02  0.29780302108E+02 -0.15311117253E+02  0.76882265666E+02  0.00000000000E+00 0.  1.
         14    1    3    3    0    0  0.15157788902E+02 -0.19248324507E+02 -0.66783377771E+01  0.25394029931E+02  0.00000000000E+00 0. -1.
        -13    1    4    4    0    0 -0.79969940058E+02  0.76390579473E+02  0.76172767762E+02  0.13428701536E+03  0.00000000000E+00 0. -1.
         13    1    4    4    0    0 -0.37640951171E+02  0.24185950892E+02 -0.26962673623E+02  0.52237794694E+02  0.00000000000E+00 0.  1.
          1    1    1    2  501    0  0.17165993775E+03 -0.11110850797E+03 -0.70240592878E+02  0.21620817667E+03  0.00000000000E+00 0. -1.
<scales pt_clust_5="13000.00000" pt_clust_6="13000.00000" pt_clust_7="13000.00000" pt_clust_8="13000.00000" pt_clust_9="13000.00000"></scales>
<clustering>
<clus scale="   83.335">  5  6 -1 -1</clus>
<clus scale="   91.771">  7  8 -1 -1</clus>
<clus scale="   99.884">  2  5  1 -1</clus>
<clus scale="  170.507">  7  9 -1 -1</clus>
<clus scale="  402.184">  1  5  2 -1</clus>
</clustering>
</event>
<event>
 9    2  0.3707658E-005  0.3018357E+03  0.7546771E-02  0.1133112E+00
          4   -1    0    0  502    0 -0.00000000000E+00  0.00000000000E+00  0.31877130001E+03  0.31877130001E+03  0.00000000000E+00 0. -1.
         21   -1    0    0  501  502  0.00000000000E+00 -0.00000000000E+00 -0.16112648132E+03  0.16112648132E+03  0.00000000000E+00 0. -1.
         24    2    1    2    0    0 -0.27373713828E+02  0.96896281905E+01  0.15546017503E+03  0.17805413223E+03  0.81805860922E+02 0.  0.
         23    2    1    2    0    0  0.10021646262E+03  0.43840084707E+02  0.96294324733E+02  0.17135177853E+03  0.90130697446E+02 0.  0.
        -13    1    3    3    0    0 -0.22542445798E+02  0.44769331276E+02  0.10567432981E+03  0.11695947531E+03  0.00000000000E+00 0.  1.
         14    1    3    3    0    0 -0.48312680301E+01 -0.35079703085E+02  0.49785845219E+02  0.61094656915E+02  0.00000000000E+00 0. -1.
        -13    1    4    4    0    0  0.22958621471E+02  0.86215108610E+01  0.81571421477E+02  0.85178198802E+02  0.00000000000E+00 0.  1.
         13    1    4    4    0    0  0.77257841146E+02  0.35218573846E+02  0.14722903255E+02  0.86173579725E+02  0.00000000000E+00 0. -1.
          3    1    1    2  501    0 -0.72842748790E+02 -0.53529712897E+02 -0.94109681068E+02  0.13049187057E+03  0.00000000000E+00 0. -1.
<scales pt_clust_5="13000.00000" pt_clust_6="13000.00000" pt_clust_7="13000.00000" pt_clust_8="13000.00000" pt_clust_9="13000.00000"></scales>
<clustering>
<clus scale="   81.806">  5  6 -1 -1</clus>
<clus scale="   86.807">  1  5  2 -1</clus>
<clus scale="   90.131">  7  8 -1 -1</clus>
<clus scale="   92.394">  7  9 -1 -1</clus>
<clus scale="  301.836">  2  5  1 -1</clus>
</clustering>
</event>
<event>
 9    2  0.3707658E-005  0.2848869E+03  0.7546771E-02  0.1125705E+00
          2   -1    0    0  502    0 -0.00000000000E+00  0.00000000000E+00  0.70521853817E+03  0.70521853817E+03  0.00000000000E+00 0. -1.
         21   -1    0    0  501  502  0.00000000000E+00 -0.00000000000E+00 -0.69641732789E+02  0.69641732789E+02  0.00000000000E+00 0. -1.
         24    2    1    2    0    0 -0.62713403293E+02  0.69554510341E+02  0.35089896623E+03  0.37211715255E+03  0.81057324528E+02 0.  0.
         23    2    1    2    0    0 -0.75585354329E+02  0.12837438151E+02  0.15787380251E+03  0.19781814862E+03  0.91268487421E+02 0.  0.
        -11    1    3    3    0    0 -0.20129228368E+01  0.36009630311E+02  0.41234984595E+02  0.54782016101E+02  0.00000000000E+00 0.  1.
         12    1    3    3    0    0 -0.60700480456E+02  0.33544880030E+02  0.30966398163E+03  0.31733513645E+03  0.00000000000E+00 0. -1.
        -13    1    4    4    0    0 -0.64045647171E+02 -0.73272255958E+01  0.36171900356E+02  0.73918465432E+02  0.00000000000E+00 0. -1.
         13    1    4    4    0    0 -0.11539707158E+02  0.20164663747E+02  0.12170190216E+03  0.12389968319E+03  0.00000000000E+00 0.  1.
          1    1    1    2  501    0  0.13829875762E+03 -0.82391948492E+02  0.12680403664E+03  0.20492496979E+03  0.00000000000E+00 0. -1.
<scales pt_clust_5="13000.00000" pt_clust_6="13000.00000" pt_clust_7="13000.00000" pt_clust_8="13000.00000" pt_clust_9="13000.00000"></scales>
<clustering>
<clus scale="   81.057">  5  6 -1 -1</clus>
<clus scale="   91.268">  7  8 -1 -1</clus>
<clus scale="  123.859">  1  5  2 -1</clus>
<clus scale="  118.557">  7  9 -1 -1</clus>
<clus scale="  284.887">  2  5  1 -1</clus>
</clustering>
</event>
<event>
 9    2  0.3707658E-005  0.1314371E+03  0.7546771E-02  0.1240016E+00
          2   -1    0    0  502    0 -0.00000000000E+00  0.00000000000E+00  0.46283554800E+03  0.46283554800E+03  0.00000000000E+00 0. -1.
         21   -1    0    0  501  502  0.00000000000E+00 -0.00000000000E+00 -0.28563328109E+02  0.28563328109E+02  0.00000000000E+00 0. -1.
         24    2    1    2    0    0 -0.47260066053E+01 -0.54003077220E+02  0.15901408994E+03  0.18636976550E+03  0.80681727836E+02 0.  0.
         23    2    1    2    0    0  0.14076139912E+02  0.19466522054E+02  0.15290880913E+03  0.17755536844E+03  0.86992653470E+02 0.  0.
        -11    1    3    3    0    0 -0.33565670822E+02 -0.15847079206E+02  0.26833610399E+02  0.45802039520E+02  0.00000000000E+00 0.  1.
         12    1    3    3    0    0  0.28839664217E+02 -0.38155998014E+02  0.13218047954E+03  0.14056772598E+03  0.00000000000E+00 0. -1.
        -13    1    4    4    0    0  0.25792973750E+02  0.39781008105E+02  0.14539501959E+03  0.15292978069E+03  0.00000000000E+00 0.  1.
         13    1    4    4    0    0 -0.11716833838E+02 -0.20314486051E+02  0.75137895348E+01  0.24625587747E+02  0.00000000000E+00 0. -1.
          1    1    1    2  501    0 -0.93501333062E+01  0.34536555167E+02  0.12234932082E+03  0.12747374216E+03  0.00000000000E+00 0. -1.
<scales pt_clust_5="13000.00000" pt_clust_6="13000.00000" pt_clust_7="13000.00000" pt_clust_8="13000.00000" pt_clust_9="13000.00000"></scales>
<clustering>
<clus scale="   80.682">  5  6 -1 -1</clus>
<clus scale="   86.993">  7  8 -1 -1</clus>
<clus scale="   35.780">  7  9 -1 -1</clus>
<clus scale="   97.202">  1  5  2 -1</clus>
<clus scale="  131.437">  2  5  1 -1</clus>
</clustering>
</event>
<event>
 9    2  0.3707658E-005  0.1357005E+03  0.7546771E-02  0.1238547E+00
          2   -1    0    0  502    0 -0.00000000000E+00  0.00000000000E+00  0.32761301254E+03  0.32761301254E+03  0.00000000000E+00 0. -1.
         21   -1    0    0  501  502  0.00000000000E+00 -0.00000000000E+00 -0.39762425618E+02  0.39762425618E+02  0.00000000000E+00 0. -1.
         24    2    1    2    0    0  0.33413226008E+02  0.12623968567E+02  0.13698826482E+03  0.16446151618E+03  0.83701836006E+02 0.  0.
         23    2    1    2    0    0 -0.95912132234E+01  0.20820875099E+02  0.11179786913E+03  0.14623873034E+03  0.91441251629E+02 0.  0.
        -11    1    3    3    0    0 -0.22911100281E+02  0.87312094975E+01  0.11966632434E+02  0.27282830263E+02  0.00000000000E+00 0.  1.
         12    1    3    3    0    0  0.56324326289E+02  0.38927590699E+01  0.12502163238E+03  0.13717868591E+03  0.00000000000E+00 0. -1.
        -13    1    4    4    0    0  0.37148948952E+02 -0.44716624065E+01  0.26916067204E+02  0.46092459760E+02  0.00000000000E+00 0.  1.
         13    1    4    4    0    0 -0.46740162176E+02  0.25292537506E+02  0.84881801926E+02  0.10014627058E+03  0.00000000000E+00 0. -1.
          1    1    1    2  501    0 -0.23822012784E+02 -0.33444843667E+02  0.39064452974E+02  0.56675191637E+02  0.00000000000E+00 0. -1.
<scales pt_clust_5="13000.00000" pt_clust_6="13000.00000" pt_clust_7="13000.00000" pt_clust_8="13000.00000" pt_clust_9="13000.00000"></scales>
<clustering>
<clus scale="   83.702">  5  6 -1 -1</clus>
<clus scale="   91.004">  1  5  2 -1</clus>
<clus scale="   91.441">  7  8 -1 -1</clus>
<clus scale="   33.469">  7  9 -1 -1</clus>
<clus scale="  135.700">  2  5  1 -1</clus>
</clustering>
</event>
<event>
 9    2  0.3707658E-005  0.3324620E+03  0.7546771E-02  0.1118803E+00
         -3   -1    0    0    0  501 -0.00000000000E+00  0.00000000000E+00  0.53335859287E+03  0.53335859287E+03  0.00000000000E+00 0.  1.
         21   -1    0    0  501  502  0.00000000000E+00 -0.00000000000E+00 -0.11791586571E+03  0.11791586571E+03  0.00000000000E+00 0. -1.
         24    2    1    2    0    0  0.20965169517E+02 -0.39709350196E+02 -0.28320360181E+02  0.96786686864E+02  0.80927431242E+02 0.  0.
         23    2    1    2    0    0 -0.12918301047E+03  0.11667083118E+03  0.30161811836E+03  0.35996434674E+03  0.91107126806E+02 0.  0.
        -13    1    3    3    0    0  0.24525574009E+02 -0.18847625865E+01  0.22499316469E+02  0.33335796856E+02  0.00000000000E+00 0.  1.
         14    1    3    3    0    0 -0.35604044921E+01 -0.37824587610E+02 -0.50819676650E+02  0.63450890008E+02  0.00000000000E+00 0. -1.
        -11    1    4    4    0    0 -0.27794593997E+02  0.81677715973E+02  0.16576873617E+03  0.18687713245E+03  0.00000000000E+00 0. -1.
         11    1    4    4    0    0 -0.10138841648E+03  0.34993115211E+02  0.13584938219E+03  0.17308721429E+03  0.00000000000E+00 0.  1.
         -4    1    1    2    0  502  0.10821784096E+03 -0.76961480987E+02  0.14214496899E+03  0.19452342498E+03  0.00000000000E+00 0.  1.
<scales pt_clust_5="13000.00000" pt_clust_6="13000.00000" pt_clust_7="13000.00000" pt_clust_8="13000.00000" pt_clust_9="13000.00000"></scales>
<clustering>
<clus scale="   80.927">  5  6 -1 -1</clus>
<clus scale="   91.107">  7  8 -1 -1</clus>
<clus scale="   92.551">  1  5  2 -1</clus>
<clus scale="  146.476">  7  9 -1 -1</clus>
<clus scale="  332.462">  2  5  1 -1</clus>
</clustering>
</event>
<event>
 9    2  0.3707658E-005  0.2501435E+03  0.7546771E-02  0.1159382E+00
         -1   -1    0    0    0  501 -0.00000000000E+00  0.00000000000E+00  0.11471613727E+03  0.11471613727E+03  0.00000000000E+00 0.  1.
         21   -1    0    0  501  502  0.00000000000E+00 -0.00000000000E+00 -0.26176063357E+03  0.26176063357E+03  0.00000000000E+00 0.  1.
         24    2    1    2    0    0  0.11763203575E+02 -0.19295652224E+02 -0.87042918075E+02  0.11923761618E+03  0.78297154309E+02 0.  0.
         23    2    1    2    0    0  0.83915770922E+02  0.67260030063E+02 -0.45958590633E+02  0.14929355168E+03  0.92793341710E+02 0.  0.
        -13    1    3    3    0    0  0.38920446284E+02 -0.55056867977E+01 -0.78197752133E+02  0.87521438315E+02  0.00000000000E+00 0.  1.
         14    1    3    3    0    0 -0.27157242709E+02 -0.13789965427E+02 -0.88451659424E+01  0.31716177869E+02  0.00000000000E+00 0. -1.
        -13    1    4    4    0    0  0.25927562467E+01  0.54824536387E+02 -0.37754421680E+02  0.66617178951E+02  0.00000000000E+00 0. -1.
         13    1    4    4    0    0  0.81323014675E+02  0.12435493676E+02 -0.82041689529E+01  0.82676372725E+02  0.00000000000E+00 0.  1.
         -2    1    1    2    0  502 -0.95678974496E+02 -0.47964377839E+02 -0.14042987587E+02  0.10794560298E+03  0.00000000000E+00 0.  1.
<scales pt_clust_5="13000.00000" pt_clust_6="13000.00000" pt_clust_7="13000.00000" pt_clust_8="13000.00000" pt_clust_9="13000.00000"></scales>
<clustering>
<clus scale="   78.297">  5  6 -1 -1</clus>
<clus scale="   81.493">  1  5  2 -1</clus>
<clus scale="   92.793">  7  8 -1 -1</clus>
<clus scale="  106.679">  7  9 -1 -1</clus>
<clus scale="  250.144">  2  5  1 -1</clus>
</clustering>
</event>
<event>
 9    2  0.3707658E-005  0.1895093E+03  0.7546771E-02  0.1166076E+00
         21   -1    0    0  501  502  0.00000000000E+00  0.00000000000E+00  0.62562131277E+02  0.62562131277E+02  0.00000000000E+00 0. -1.
          4   -1    0    0  502    0 -0.00000000000E+00 -0.00000000000E+00 -0.49485426618E+03  0.49485426618E+03  0.00000000000E+00 0. -1.
         24    2    1    2    0    0 -0.12552454100E+03 -0.59951674019E+02 -0.22727068392E+03  0.27822548777E+03  0.80042767716E+02 0.  0.
         23    2    1    2    0    0  0.52621984701E+02  0.91614200433E+01 -0.50219521877E+02  0.10070261912E+03  0.69036310951E+02 0.  0.
        -11    1    3    3    0    0  0.35050063059E+01 -0.26426010901E+02 -0.46723077097E+02  0.53792797424E+02  0.00000000000E+00 0.  1.
         12    1    3    3    0    0 -0.12902954731E+03 -0.33525663117E+02 -0.18054760683E+03  0.22443269035E+03  0.00000000000E+00 0. -1.
        -11    1    4    4    0    0  0.41388460639E+02 -0.26490327965E+02 -0.35063920175E+02  0.60367380660E+02  0.00000000000E+00 0.  1.
         11    1    4    4    0    0  0.11233524062E+02  0.35651748009E+02 -0.15155601702E+02  0.40335238463E+02  0.00000000000E+00 0. -1.
          3    1    1    2  501    0  0.72902556300E+02  0.50790253975E+02 -0.15480192910E+03  0.17848829056E+03  0.00000000000E+00 0. -1.
<scales pt_clust_5="13000.00000" pt_clust_6="13000.00000" pt_clust_7="13000.00000" pt_clust_8="13000.00000" pt_clust_9="13000.00000"></scales>
<clustering>
<clus scale="   69.036">  7  8 -1 -1</clus>
<clus scale="   80.043">  5  6 -1 -1</clus>
<clus scale="   88.851">  7  9 -1 -1</clus>
<clus scale="  160.491">  2  5  1 -1</clus>
<clus scale="  189.509">  1  5  2 -1</clus>
</clustering>
</event>
<event>
 9    2  0.3707658E-005  0.2941693E+03  0.7546771E-02  0.1136971E+00
         21   -1    0    0  501  502  0.00000000000E+00  0.00000000000E+00  0.19883952014E+03  0.19883952014E+03  0.00000000000E+00 0. -1.
          2   -1    0    0  502    0 -0.00000000000E+00 -0.00000000000E+00 -0.18133663228E+03  0.18133663228E+03  0.00000000000E+00 0. -1.
         24    2    1    2    0    0 -0.95461608683E+01  0.22307552098E+02  0.95699800004E+01  0.85899927595E+02  0.81844101655E+02 0.  0.
         23    2    1    2    0    0 -0.10384081701E+03  0.35167330891E+02 -0.53203860320E+02  0.15321711186E+03  0.92871826598E+02 0.  0.
        -11    1    3    3    0    0  0.34995024438E+02  0.20600242449E+02  0.17544012251E+01  0.40646028688E+02  0.00000000000E+00 0.  1.
         12    1    3    3    0    0 -0.44541185307E+02  0.17073096486E+01  0.78155787752E+01  0.45253898908E+02  0.00000000000E+00 0. -1.
        -11    1    4    4    0    0  0.32060584674E+00  0.35126298271E+02 -0.30700032524E+02  0.46652455619E+02  0.00000000000E+00 0. -1.
         11    1    4    4    0    0 -0.10416142285E+03  0.41032619943E-01 -0.22503827796E+02  0.10656465624E+03  0.00000000000E+00 0.  1.
          1    1    1    2  501    0  0.11338697788E+03 -0.57474882989E+02  0.61136768173E+02  0.14105911296E+03  0.00000000000E+00 0. -1.
<scales pt_clust_5="13000.00000" pt_clust_6="13000.00000" pt_clust_7="13000.00000" pt_clust_8="13000.00000" pt_clust_9="13000.00000"></scales>
<clustering>
<clus scale="   81.844">  5  6 -1 -1</clus>
<clus scale="   85.365">  2  5  1 -1</clus>
<clus scale="   92.872">  7  8 -1 -1</clus>
<clus scale="  122.008">  7  9 -1 -1</clus>
<clus scale="  294.169">  1  5  2 -1</clus>
</clustering>
</event>
<event>
 9    2  0.3707658E-005  0.2414918E+03  0.7546771E-02  0.1161886E+00
          2   -1    0    0  502    0 -0.00000000000E+00  0.00000000000E+00  0.72453563842E+02  0.72453563842E+02  0.00000000000E+00 0. -1.
         21   -1    0    0  501  502  0.00000000000E+00 -0.00000000000E+00 -0.38074232367E+03  0.38074232367E+03  0.00000000000E+00 0.  1.
         24    2    1    2    0    0  0.72802505310E+01 -0.23304754992E+02 -0.47478323120E+02  0.97752001937E+02  0.81884974589E+02 0.  0.
         23    2    1    2    0    0 -0.31886137930E+02  0.50740560272E+02 -0.28953359866E+03  0.30871923322E+03  0.88806136936E+02 0.  0.
        -11    1    3    3    0    0  0.29387345548E+02 -0.55452371168E+01  0.11713584940E+02  0.32118122690E+02  0.00000000000E+00 0.  1.
         12    1    3    3    0    0 -0.22107095017E+02 -0.17759517875E+02 -0.59191908060E+02  0.65633879247E+02  0.00000000000E+00 0. -1.
        -13    1    4    4    0    0 -0.26969788619E+02  0.74760360367E+02 -0.24870070877E+03  0.26109102536E+03  0.00000000000E+00 0.  1.
         13    1    4    4    0    0 -0.49163493109E+01 -0.24019800095E+02 -0.40832889888E+02  0.47628207858E+02  0.00000000000E+00 0. -1.
          1    1    1    2  501    0  0.24605887399E+02 -0.27435805280E+02  0.28723161946E+02  0.46724652361E+02  0.00000000000E+00 0. -1.
<scales pt_clust_5="13000.00000" pt_clust_6="13000.00000" pt_clust_7="13000.00000" pt_clust_8="13000.00000" pt_clust_9="13000.00000"></scales>
<clustering>
<clus scale="   81.885">  5  6 -1 -1</clus>
<clus scale="   85.447">  1  5  2 -1</clus>
<clus scale="   88.806">  7  8 -1 -1</clus>
<clus scale="   55.156">  7  9 -1 -1</clus>
<clus scale="  241.492">  2  5  1 -1</clus>
</clustering>
</event>
<event>
 9    2  0.6875546E-005  0.8496241E+03  0.7546771E-02  0.9594915E-01
          2   -1    0    0  502    0 -0.00000000000E+00  0.00000000000E+00  0.23022862517E+04  0.23022862517E+04  0.00000000000E+00 0. -1.
         21   -1    0    0  501  502  0.00000000000E+00 -0.00000000000E+00 -0.27926027368E+03  0.27926027368E+03  0.00000000000E+00 0. -1.
         24    2    1    2    0    0  0.51050549172E+03 -0.28969907349E+03  0.14232063975E+04  0.15415250889E+04  0.79004679077E+02 0.  0.
         23    2    1    2    0    0  0.92180181097E+02  0.32551838623E+02  0.28273029516E+03  0.31207890068E+03  0.88882014282E+02 0.  0.
        -13    1    3    3    0    0  0.48338736822E+02 -0.21326612811E+02  0.79683011899E+02  0.95607741720E+02  0.00000000000E+00 0.  1.
         14    1    3    3    0    0  0.46216675490E+03 -0.26837246068E+03  0.13435233856E+04  0.14459173471E+04  0.00000000000E+00 0. -1.
        -13    1    4    4    0    0  0.63056050097E+02  0.52764044685E+02  0.11956270167E+03  0.14510461569E+03  0.00000000000E+00 0.  1.
         13    1    4    4    0    0  0.29124130999E+02 -0.20212206062E+02  0.16316759349E+03  0.16697428499E+03  0.00000000000E+00 0. -1.
          1    1    1    2  501    0 -0.60268567282E+03  0.25714723487E+03  0.31708928530E+03  0.72794253583E+03  0.00000000000E+00 0. -1.
<scales pt_clust_5="13000.00000" pt_clust_6="13000.00000" pt_clust_7="13000.00000" pt_clust_8="13000.00000" pt_clust_9="13000.00000"></scales>
<clustering>
<clus scale="   79.005">  5  6 -1 -1</clus>
<clus scale="   88.882">  7  8 -1 -1</clus>
<clus scale="  592.269">  1  5  2 -1</clus>
<clus scale="  286.679">  7  9 -1 -1</clus>
<clus scale="  849.624">  2  5  1 -1</clus>
</clustering>
</event>
<event>
 9    2  0.3707658E-005  0.5724804E+03  0.7546771E-02  0.1018333E+00
         21   -1    0    0  501  502  0.00000000000E+00  0.00000000000E+00  0.41597535426E+03  0.41597535426E+03  0.00000000000E+00 0. -1.
          2   -1    0    0  502    0 -0.00000000000E+00 -0.00000000000E+00 -0.45050275832E+03  0.45050275832E+03  0.00000000000E+00 0. -1.
         24    2    1    2    0    0 -0.74980088985E+02  0.26846597734E+03 -0.47939014150E+02  0.29384059308E+03  0.79675280526E+02 0.  0.
         23    2    1    2    0    0 -0.63223988687E+02  0.58705869022E+02 -0.13756738700E+03  0.18671467526E+03  0.92162531381E+02 0.  0.
        -11    1    3    3    0    0 -0.11118717932E+02  0.12386497307E+03 -0.54156684729E+02  0.13564329671E+03  0.00000000000E+00 0.  1.
         12    1    3    3    0    0 -0.63861371053E+02  0.14460100428E+03  0.62176705789E+01  0.15819729637E+03  0.00000000000E+00 0. -1.
        -11    1    4    4    0    0 -0.23357986456E+02 -0.24578087657E+02 -0.37569366531E+02  0.50607659753E+02  0.00000000000E+00 0.  1.
         11    1    4    4    0    0 -0.39866002231E+02  0.83283956679E+02 -0.99998020468E+02  0.13610701551E+03  0.00000000000E+00 0. -1.
          1    1    1    2  501    0  0.13820407767E+03 -0.32717184636E+03  0.15097899709E+03  0.38592284423E+03  0.00000000000E+00 0. -1.
<scales pt_clust_5="13000.00000" pt_clust_6="13000.00000" pt_clust_7="13000.00000" pt_clust_8="13000.00000" pt_clust_9="13000.00000"></scales>
<clustering>
<clus scale="   79.675">  5  6 -1 -1</clus>
<clus scale="   92.163">  7  8 -1 -1</clus>
<clus scale="  289.904">  2  5  1 -1</clus>
<clus scale="  239.470">  7  9 -1 -1</clus>
<clus scale="  572.480">  1  5  2 -1</clus>
</clustering>
</event>
<event>
 9    2  0.3707658E-005  0.3119755E+03  0.7546771E-02  0.1121173E+00
          2   -1    0    0  502    0 -0.00000000000E+00  0.00000000000E+00  0.13981167692E+03  0.13981167692E+03  0.00000000000E+00 0. -1.
         21   -1    0    0  501  502  0.00000000000E+00 -0.00000000000E+00 -0.33558874875E+03  0.33558874875E+03  0.00000000000E+00 0.  1.
         24    2    1    2    0    0  0.64244765226E+02  0.26420860142E+01 -0.10865055680E+03  0.15148724192E+03  0.83720191679E+02 0.  0.
         23    2    1    2    0    0 -0.78624139886E+02  0.88318769284E+02 -0.15012232005E+03  0.21233758131E+03  0.92566608882E+02 0.  0.
        -11    1    3    3    0    0  0.29438247294E+02  0.42220369799E+02 -0.41463382744E+02  0.66093737512E+02  0.00000000000E+00 0.  1.
         12    1    3    3    0    0  0.34806517932E+02 -0.39578283785E+02 -0.67187174054E+02  0.85393504409E+02  0.00000000000E+00 0. -1.
        -13    1    4    4    0    0 -0.81633358554E+02  0.40153704379E+02 -0.13298678433E+03  0.16112668932E+03  0.00000000000E+00 0.  1.
         13    1    4    4    0    0  0.30092186680E+01  0.48165064905E+02 -0.17135535715E+02  0.51210891992E+02  0.00000000000E+00 0. -1.
          1    1    1    2  501    0  0.14379374660E+02 -0.90960855298E+02  0.62995805011E+02  0.11157560245E+03  0.00000000000E+00 0. -1.
<scales pt_clust_5="13000.00000" pt_clust_6="13000.00000" pt_clust_7="13000.00000" pt_clust_8="13000.00000" pt_clust_9="13000.00000"></scales>
<clustering>
<clus scale="   83.720">  5  6 -1 -1</clus>
<clus scale="   92.567">  7  8 -1 -1</clus>
<clus scale="   92.090">  7  9 -1 -1</clus>
<clus scale="  105.563">  1  5  2 -1</clus>
<clus scale="  311.976">  2  5  1 -1</clus>
</clustering>
</event>
<event>
 9    2  0.3707658E-005  0.4452245E+03  0.7546771E-02  0.1088937E+00
         21   -1    0    0  501  502  0.00000000000E+00  0.00000000000E+00  0.42754924367E+03  0.42754924367E+03  0.00000000000E+00 0. -1.
          2   -1    0    0  502    0 -0.00000000000E+00 -0.00000000000E+00 -0.16356553576E+03  0.16356553576E+03  0.00000000000E+00 0. -1.
         24    2    1    2    0    0 -0.20684271045E+02 -0.78466282602E+01  0.32554403115E+02  0.89333582034E+02  0.80195330744E+02 0.  0.
         23    2    1    2    0    0  0.13288680218E+03 -0.16579301409E+03  0.79081519863E+02  0.24497391369E+03  0.92801432586E+02 0.  0.
        -13    1    3    3    0    0  0.10021601904E+02  0.29748958360E+02  0.94179425938E+00  0.31405732035E+02  0.00000000000E+00 0.  1.
         14    1    3    3    0    0 -0.30705872949E+02 -0.37595586620E+02  0.31612608856E+02  0.57927849999E+02  0.00000000000E+00 0. -1.
        -11    1    4    4    0    0  0.31770652330E+02 -0.49071064490E+02 -0.19659857338E+02  0.61675389826E+02  0.00000000000E+00 0.  1.
         11    1    4    4    0    0  0.10111614985E+03 -0.11672194960E+03  0.98741377202E+02  0.18329852386E+03  0.00000000000E+00 0. -1.
          1    1    1    2  501    0 -0.11220253114E+03  0.17363964235E+03  0.15234778493E+03  0.25680728370E+03  0.00000000000E+00 0. -1.
<scales pt_clust_5="13000.00000" pt_clust_6="13000.00000" pt_clust_7="13000.00000" pt_clust_8="13000.00000" pt_clust_9="13000.00000"></scales>
<clustering>
<clus scale="   80.195">  5  6 -1 -1</clus>
<clus scale="   83.191">  2  5  1 -1</clus>
<clus scale="   92.801">  7  8 -1 -1</clus>
<clus scale="  208.696">  7  9 -1 -1</clus>
<clus scale="  445.224">  1  5  2 -1</clus>
</clustering>
</event>
<event>
 9    2  0.3707658E-005  0.1899381E+03  0.7546771E-02  0.1192517E+00
         21   -1    0    0  501  502  0.00000000000E+00  0.00000000000E+00  0.44057598295E+02  0.44057598295E+02  0.00000000000E+00 0. -1.
          2   -1    0    0  502    0 -0.00000000000E+00 -0.00000000000E+00 -0.60276894230E+03  0.60276894230E+03  0.00000000000E+00 0. -1.
         24    2    1    2    0    0  0.18871970064E+02 -0.27040570596E+02 -0.36537065640E+03  0.37579682265E+03  0.81487371065E+02 0.  0.
         23    2    1    2    0    0  0.22773223924E+02  0.80444296134E+01 -0.28429496174E+02  0.99883942030E+02  0.92656532673E+02 0.  0.
        -11    1    3    3    0    0  0.35303770060E+02  0.17815987312E+02 -0.18734881229E+03  0.19147674285E+03  0.00000000000E+00 0.  1.
         12    1    3    3    0    0 -0.16431799997E+02 -0.44856557908E+02 -0.17802184410E+03  0.18432007980E+03  0.00000000000E+00 0. -1.
        -11    1    4    4    0    0 -0.20204728835E+02  0.15087082428E+02 -0.46369569355E+02  0.52782460019E+02  0.00000000000E+00 0.  1.
         11    1    4    4    0    0  0.42977952758E+02 -0.70426528142E+01  0.17940073181E+02  0.47101482011E+02  0.00000000000E+00 0. -1.
          1    1    1    2  501    0 -0.41645193987E+02  0.18996140983E+02 -0.16491119144E+03  0.17114577592E+03  0.00000000000E+00 0. -1.
<scales pt_clust_5="13000.00000" pt_clust_6="13000.00000" pt_clust_7="13000.00000" pt_clust_8="13000.00000" pt_clust_9="13000.00000"></scales>
<clustering>
<clus scale="   81.487">  5  6 -1 -1</clus>
<clus scale="   87.906">  2  5  1 -1</clus>
<clus scale="   92.657">  7  8 -1 -1</clus>
<clus scale="   27.994">  7  9 -1 -1</clus>
<clus scale="  189.938">  1  5  2 -1</clus>
</clustering>
</event>
<event>
 9    2  0.3707658E-005  0.1370973E+03  0.7546771E-02  0.1239737E+00
          2   -1    0    0  502    0 -0.00000000000E+00  0.00000000000E+00  0.25518782080E+03  0.25518782080E+03  0.00000000000E+00 0. -1.
         21   -1    0    0  501  502  0.00000000000E+00 -0.00000000000E+00 -0.13708021743E+03  0.13708021743E+03  0.00000000000E+00 0. -1.
         24    2    1    2    0    0  0.19957569114E+02  0.28834920443E+02  0.21016365181E+03  0.22713174440E+03  0.78678533103E+02 0.  0.
         23    2    1    2    0    0  0.11410252033E+02 -0.99241263861E+01 -0.85321128915E+02  0.12789495286E+03  0.94067751075E+02 0.  0.
        -13    1    3    3    0    0 -0.27778908052E+02  0.44970138616E+01  0.10993231084E+03  0.11347688678E+03  0.00000000000E+00 0.  1.
         14    1    3    3    0    0  0.47736477166E+02  0.24337906581E+02  0.10023134097E+03  0.11365485763E+03  0.00000000000E+00 0. -1.
        -11    1    4    4    0    0  0.37060875375E+02 -0.19482325948E+02 -0.90790846938E+02  0.99980235025E+02  0.00000000000E+00 0. -1.
         11    1    4    4    0    0 -0.25650623342E+02  0.95581995619E+01  0.54697180226E+01  0.27914717837E+02  0.00000000000E+00 0.  1.
          1    1    1    2  501    0 -0.31367821148E+02 -0.18910794057E+02 -0.67349195323E+01  0.37241340960E+02  0.00000000000E+00 0. -1.
<scales pt_clust_5="13000.00000" pt_clust_6="13000.00000" pt_clust_7="13000.00000" pt_clust_8="13000.00000" pt_clust_9="13000.00000"></scales>
<clustering>
<clus scale="   78.679">  5  6 -1 -1</clus>
<clus scale="   86.140">  1  5  2 -1</clus>
<clus scale="   94.068">  7  8 -1 -1</clus>
<clus scale="   24.041">  7  9 -1 -1</clus>
<clus scale="  137.097">  2  5  1 -1</clus>
</clustering>
</event>
<event>
 9    2  0.3707658E-005  0.3703721E+03  0.7546771E-02  0.1074199E+00
         -1   -1    0    0    0  501 -0.00000000000E+00  0.00000000000E+00  0.55617063518E+03  0.55617063518E+03  0.00000000000E+00 0.  1.
         21   -1    0    0  501  502  0.00000000000E+00 -0.00000000000E+00 -0.15407894532E+03  0.15407894532E+03  0.00000000000E+00 0.  1.
         24    2    1    2    0    0 -0.15312033801E+03  0.12739704271E+03  0.13483136118E+03  0.25351816616E+03  0.80100687943E+02 0.  0.
         23    2    1    2    0    0  0.12967597064E+03 -0.21494969291E+03  0.24757020761E+03  0.36398010283E+03  0.90395131035E+02 0.  0.
        -11    1    3    3    0    0 -0.87510071898E+02  0.56596065145E+02  0.24760462884E+02  0.10711772867E+03  0.00000000000E+00 0.  1.
         12    1    3    3    0    0 -0.65610266117E+02  0.70800977568E+02  0.11007089830E+03  0.14640043749E+03  0.00000000000E+00 0. -1.
        -13    1    4    4    0    0  0.96646912491E+02 -0.12810301292E+03  0.98397819380E+02  0.18823692112E+03  0.00000000000E+00 0.  1.
         13    1    4    4    0    0  0.33029058152E+02 -0.86846679992E+02  0.14917238823E+03  0.17574318171E+03  0.00000000000E+00 0. -1.
         -2    1    1    2    0  502  0.23444367372E+02  0.87552650197E+02  0.19690121070E+02  0.92751311504E+02  0.00000000000E+00 0.  1.
<scales pt_clust_5="13000.00000" pt_clust_6="13000.00000" pt_clust_7="13000.00000" pt_clust_8="13000.00000" pt_clust_9="13000.00000"></scales>
<clustering>
<clus scale="   80.101">  5  6 -1 -1</clus>
<clus scale="   90.395">  7  8 -1 -1</clus>
<clus scale="   90.637">  7  9 -1 -1</clus>
<clus scale="  214.690">  1  5  2 -1</clus>
<clus scale="  370.372">  2  5  1 -1</clus>
</clustering>
</event>
<event>
 9    2  0.3707658E-005  0.2028590E+03  0.7546771E-02  0.1180878E+00
          4   -1    0    0  502    0 -0.00000000000E+00  0.00000000000E+00  0.20163887183E+03  0.20163887183E+03  0.00000000000E+00 0. -1.
         21   -1    0    0  501  502  0.00000000000E+00 -0.00000000000E+00 -0.11701715197E+03  0.11701715197E+03  0.00000000000E+00 0. -1.
         24    2    1    2    0    0  0.37201764530E+02  0.28829465895E+02 -0.11530038238E+02  0.94163395155E+02  0.80738428381E+02 0.  0.
         23    2    1    2    0    0 -0.79902826240E+02 -0.68252659802E+02  0.41535100788E+02  0.14473958392E+03  0.90451618800E+02 0.  0.
        -13    1    3    3    0    0  0.21898431335E+02 -0.22196046787E+02  0.15058010793E+02  0.34625849837E+02  0.00000000000E+00 0.  1.
         14    1    3    3    0    0  0.15303333195E+02  0.51025512682E+02 -0.26588049030E+02  0.59537545318E+02  0.00000000000E+00 0. -1.
        -13    1    4    4    0    0 -0.32037407171E+02 -0.71792125953E+01 -0.25992520367E+02  0.41875382587E+02  0.00000000000E+00 0.  1.
         13    1    4    4    0    0 -0.47865419068E+02 -0.61073447207E+02  0.67527621155E+02  0.10286420133E+03  0.00000000000E+00 0. -1.
          3    1    1    2  501    0  0.42701061710E+02  0.39423193907E+02  0.54616657303E+02  0.79753044732E+02  0.00000000000E+00 0. -1.
<scales pt_clust_5="13000.00000" pt_clust_6="13000.00000" pt_clust_7="13000.00000" pt_clust_8="13000.00000" pt_clust_9="13000.00000"></scales>
<clustering>
<clus scale="   80.738">  5  6 -1 -1</clus>
<clus scale="   90.452">  7  8 -1 -1</clus>
<clus scale="   58.117">  7  9 -1 -1</clus>
<clus scale="   93.455">  1  5  2 -1</clus>
<clus scale="  202.859">  2  5  1 -1</clus>
</clustering>
</event>
<event>
 9    2  0.3707658E-005  0.2463570E+03  0.7546771E-02  0.1140582E+00
         21   -1    0    0  501  502  0.00000000000E+00  0.00000000000E+00  0.29765491378E+02  0.29765491378E+02  0.00000000000E+00 0.  1.
          2   -1    0    0  502    0 -0.00000000000E+00 -0.00000000000E+00 -0.12915528034E+04  0.12915528034E+04  0.00000000000E+00 0. -1.
         24    2    1    2    0    0  0.51566399617E+00  0.10472793220E+03 -0.29564021211E+03  0.32425661414E+03  0.82286153789E+02 0.  0.
         23    2    1    2    0    0 -0.24653457652E+02  0.19710805729E+02 -0.21834821289E+03  0.23859559173E+03  0.90860362572E+02 0.  0.
        -11    1    3    3    0    0 -0.33638192060E+02  0.69760223145E+02 -0.12771855371E+03  0.14936547680E+03  0.00000000000E+00 0.  1.
         12    1    3    3    0    0  0.34153856056E+02  0.34967709056E+02 -0.16792165840E+03  0.17489113734E+03  0.00000000000E+00 0. -1.
        -13    1    4    4    0    0  0.11792790007E+02  0.43924332029E+02 -0.15550735635E+03  0.16202146376E+03  0.00000000000E+00 0.  1.
         13    1    4    4    0    0 -0.36446247658E+02 -0.24213526300E+02 -0.62840856532E+02  0.76574127967E+02  0.00000000000E+00 0. -1.
          1    1    1    2  501    0  0.24137793655E+02 -0.12443873793E+03 -0.74779888705E+03  0.75846608893E+03  0.00000000000E+00 0. -1.
<scales pt_clust_5="13000.00000" pt_clust_6="13000.00000" pt_clust_7="13000.00000" pt_clust_8="13000.00000" pt_clust_9="13000.00000"></scales>
<clustering>
<clus scale="   82.286">  5  6 -1 -1</clus>
<clus scale="   90.860">  7  8 -1 -1</clus>
<clus scale="  126.758">  7  9 -1 -1</clus>
<clus scale="  133.189">  2  5  1 -1</clus>
<clus scale="  246.357">  1  5  2 -1</clus>
</clustering>
</event>
<event>
 9    2  0.3707658E-005  0.1426394E+03  0.7546771E-02  0.1232551E+00
          4   -1    0    0  502    0 -0.00000000000E+00  0.00000000000E+00  0.12236990944E+03  0.12236990944E+03  0.00000000000E+00 0. -1.
         21   -1    0    0  501  502  0.00000000000E+00 -0.00000000000E+00 -0.22157227509E+03  0.22157227509E+03  0.00000000000E+00 0. -1.
         24    2    1    2    0    0  0.30041372897E+01 -0.35744510683E+02  0.76908471831E+02  0.11731246665E+03  0.80997573461E+02 0.  0.
         23    2    1    2    0    0 -0.15438978463E+02 -0.76141808743E+01 -0.93218809059E+02  0.13225975559E+03  0.92231007694E+02 0.  0.
        -11    1    3    3    0    0  0.22714482281E+02 -0.42879029622E+02  0.13262732791E+02  0.50303667538E+02  0.00000000000E+00 0.  1.
         12    1    3    3    0    0 -0.19710344991E+02  0.71345189395E+01  0.63645739039E+02  0.67008799109E+02  0.00000000000E+00 0. -1.
        -11    1    4    4    0    0 -0.24822653453E+01  0.37630295502E+02 -0.14218738345E+02  0.40303514747E+02  0.00000000000E+00 0.  1.
         11    1    4    4    0    0 -0.12956713118E+02 -0.45244476376E+02 -0.79000070715E+02  0.91956240845E+02  0.00000000000E+00 0. -1.
          3    1    1    2  501    0  0.12434841174E+02  0.43358691557E+02 -0.82892028417E+02  0.94369962295E+02  0.00000000000E+00 0. -1.
<scales pt_clust_5="13000.00000" pt_clust_6="13000.00000" pt_clust_7="13000.00000" pt_clust_8="13000.00000" pt_clust_9="13000.00000"></scales>
<clustering>
<clus scale="   80.998">  5  6 -1 -1</clus>
<clus scale="   88.585">  1  5  2 -1</clus>
<clus scale="   92.231">  7  8 -1 -1</clus>
<clus scale="   37.600">  7  9 -1 -1</clus>
<clus scale="  142.639">  2  5  1 -1</clus>
</clustering>
</event>
<event>
 9    2  0.3707658E-005  0.1589428E+03  0.7546771E-02  0.1211747E+00
          4   -1    0    0  502    0 -0.00000000000E+00  0.00000000000E+00  0.70439774923E+02  0.70439774923E+02  0.00000000000E+00 0. -1.
         21   -1    0    0  501  502  0.00000000000E+00 -0.00000000000E+00 -0.23604774376E+03  0.23604774376E+03  0.00000000000E+00 0.  1.
         24    2    1    2    0    0 -0.44472828220E+02 -0.29326793107E+02 -0.64342879419E+02  0.11802685052E+03  0.83381281286E+02 0.  0.
         23    2    1    2    0    0  0.24255279839E+02  0.48829619328E+02 -0.11455898627E+03  0.15738274695E+03  0.93128499275E+02 0.  0.
        -13    1    3    3    0    0 -0.65096416654E+02 -0.26562627921E+02 -0.27068907409E+02  0.75338186941E+02  0.00000000000E+00 0.  1.
         14    1    3    3    0    0  0.20623588435E+02 -0.27641651859E+01 -0.37273972010E+02  0.42688663583E+02  0.00000000000E+00 0. -1.
        -11    1    4    4    0    0 -0.69129243136E+01 -0.19570284935E+02 -0.47319461730E+00  0.20760743921E+02  0.00000000000E+00 0.  1.
         11    1    4    4    0    0  0.31168204152E+02  0.68399904263E+02 -0.11408579165E+03  0.13662200303E+03  0.00000000000E+00 0. -1.
          3    1    1    2  501    0  0.20217548381E+02 -0.19502826221E+02  0.13293896855E+02  0.31077921210E+02  0.00000000000E+00 0. -1.
<scales pt_clust_5="13000.00000" pt_clust_6="13000.00000" pt_clust_7="13000.00000" pt_clust_8="13000.00000" pt_clust_9="13000.00000"></scales>
<clustering>
<clus scale="   83.381">  5  6 -1 -1</clus>
<clus scale="   93.128">  7  8 -1 -1</clus>
<clus scale="   28.091">  7  9 -1 -1</clus>
<clus scale="   98.946">  1  5  2 -1</clus>
<clus scale="  158.943">  2  5  1 -1</clus>
</clustering>
</event>
<event>
 9    2  0.3707658E-005  0.1866548E+03  0.7546771E-02  0.1188975E+00
         21   -1    0    0  501  502  0.00000000000E+00  0.00000000000E+00  0.33830870570E+02  0.33830870570E+02  0.00000000000E+00 0.  1.
         -3   -1    0    0    0  501 -0.00000000000E+00 -0.00000000000E+00 -0.61772413615E+03  0.61772413615E+03  0.00000000000E+00 0.  1.
         24    2    1    2    0    0 -0.39253198941E+02 -0.47455610228E+01 -0.24453327208E+03  0.26424993588E+03  0.92022679167E+02 0.  0.
         23    2    1    2    0    0 -0.30541900259E+02 -0.17330993513E+02 -0.26315106460E+03  0.28163326298E+03  0.93998090452E+02 0.  0.
        -11    1    3    3    0    0 -0.50168676009E+02  0.31292777811E+02 -0.18081160949E+03  0.19023399307E+03  0.00000000000E+00 0.  1.
         12    1    3    3    0    0  0.10915477069E+02 -0.36038338834E+02 -0.63721662590E+02  0.74015942802E+02  0.00000000000E+00 0. -1.
        -11    1    4    4    0    0  0.22498502740E+02  0.10321548655E+02 -0.21812495276E+02  0.32992452809E+02  0.00000000000E+00 0.  1.
         11    1    4    4    0    0 -0.53040403000E+02 -0.27652542168E+02 -0.24133856933E+03  0.24864081017E+03  0.00000000000E+00 0. -1.
         -4    1    1    2    0  502  0.69795099200E+02  0.22076554535E+02 -0.76208928897E+02  0.10567180786E+03  0.00000000000E+00 0.  1.
<scales pt_clust_5="13000.00000" pt_clust_6="13000.00000" pt_clust_7="13000.00000" pt_clust_8="13000.00000" pt_clust_9="13000.00000"></scales>
<clustering>
<clus scale="   92.023">  5  6 -1 -1</clus>
<clus scale="   93.998">  7  8 -1 -1</clus>
<clus scale="   73.203">  7  9 -1 -1</clus>
<clus scale="  100.157">  2  5  1 -1</clus>
<clus scale="  186.655">  1  5  2 -1</clus>
</clustering>
</event>
<event>
 9    2  0.3707658E-005  0.2283677E+03  0.7546771E-02  0.1170166E+00
         21   -1    0    0  501  502  0.00000000000E+00  0.00000000000E+00  0.17032901745E+03  0.17032901745E+03  0.00000000000E+00 0.  1.
         -3   -1    0    0    0  501 -0.00000000000E+00 -0.00000000000E+00 -0.16873878458E+03  0.16873878458E+03  0.00000000000E+00 0.  1.
         24    2    1    2    0    0 -0.18580973695E+02  0.91756357256E+01  0.60633783617E+02  0.10319083581E+03  0.80885400447E+02 0.  0.
         23    2    1    2    0    0  0.70822308000E+02 -0.67683734436E+02  0.52563406547E+01  0.13445295201E+03  0.91940632852E+02 0.  0.
        -13    1    3    3    0    0  0.17673172217E+02  0.24059273968E+02 -0.13202519021E+01  0.29881980275E+02  0.00000000000E+00 0.  1.
         14    1    3    3    0    0 -0.36254145912E+02 -0.14883638242E+02  0.61954035520E+02  0.73308855538E+02  0.00000000000E+00 0. -1.
        -11    1    4    4    0    0 -0.20895628132E+02 -0.13229873054E+02  0.12170730424E+02  0.27564170495E+02  0.00000000000E+00 0. -1.
         11    1    4    4    0    0  0.91717936131E+02 -0.54453861382E+02 -0.69143897694E+01  0.10688878151E+03  0.00000000000E+00 0.  1.
         -4    1    1    2    0  502 -0.52241334304E+02  0.58508098711E+02 -0.64299891405E+02  0.10142401421E+03  0.00000000000E+00 0.  1.
<scales pt_clust_5="13000.00000" pt_clust_6="13000.00000" pt_clust_7="13000.00000" pt_clust_8="13000.00000" pt_clust_9="13000.00000"></scales>
<clustering>
<clus scale="   80.885">  5  6 -1 -1</clus>
<clus scale="   83.498">  2  5  1 -1</clus>
<clus scale="   91.941">  7  8 -1 -1</clus>
<clus scale="   89.343">  7  9 -1 -1</clus>
<clus scale="  228.368">  1  5  2 -1</clus>
</clustering>
</event>
<event>
 9    2  0.3707658E-005  0.1856910E+03  0.7546771E-02  0.1196187E+00
         21   -1    0    0  501  502  0.00000000000E+00  0.00000000000E+00  0.64677985795E+02  0.64677985795E+02  0.00000000000E+00 0. -1.
          2   -1    0    0  502    0 -0.00000000000E+00 -0.00000000000E+00 -0.31454581103E+03  0.31454581103E+03  0.00000000000E+00 0. -1.
         24    2    1    2    0    0  0.29843975114E+02  0.14004845596E+02 -0.13618604347E+03  0.16149756449E+03  0.80299603669E+02 0.  0.
         23    2    1    2    0    0  0.37680070235E+02  0.37518938093E+02 -0.68665243105E+02  0.12159774676E+03  0.85109564668E+02 0.  0.
        -13    1    3    3    0    0  0.35534735859E+02  0.25658803802E+01 -0.13423836652E+02  0.38072307326E+02  0.00000000000E+00 0.  1.
         14    1    3    3    0    0 -0.56907607448E+01  0.11438965215E+02 -0.12276220682E+03  0.12342525716E+03  0.00000000000E+00 0. -1.
        -11    1    4    4    0    0  0.32384762079E+02 -0.19121154095E+02 -0.48211682373E+02  0.61145381396E+02  0.00000000000E+00 0.  1.
         11    1    4    4    0    0  0.52953081559E+01  0.56640092188E+02 -0.20453560732E+02  0.60452365364E+02  0.00000000000E+00 0. -1.
          1    1    1    2  501    0 -0.67524045349E+02 -0.51523783688E+02 -0.45016538660E+02  0.96128485575E+02  0.00000000000E+00 0. -1.
<scales pt_clust_5="13000.00000" pt_clust_6="13000.00000" pt_clust_7="13000.00000" pt_clust_8="13000.00000" pt_clust_9="13000.00000"></scales>
<clustering>
<clus scale="   80.300">  5  6 -1 -1</clus>
<clus scale="   85.110">  7  8 -1 -1</clus>
<clus scale="   84.936">  7  9 -1 -1</clus>
<clus scale="   86.803">  2  5  1 -1</clus>
<clus scale="  185.691">  1  5  2 -1</clus>
</clustering>
</event>
<event>
 9    2  0.3707658E-005  0.2914156E+03  0.7546771E-02  0.1124669E+00
          2   -1    0    0  502    0 -0.00000000000E+00  0.00000000000E+00  0.88360208398E+03  0.88360208398E+03  0.00000000000E+00 0. -1.
         21   -1    0    0  501  502  0.00000000000E+00 -0.00000000000E+00 -0.57076255513E+02  0.57076255513E+02  0.00000000000E+00 0. -1.
         24    2    1    2    0    0 -0.21955642402E+02 -0.85006336230E+02  0.91202385474E+02  0.14971461231E+03  0.79927858662E+02 0.  0.
         23    2    1    2    0    0  0.48775645638E+02 -0.61356238967E+02  0.18337894044E+03  0.21931344083E+03  0.91251837590E+02 0.  0.
        -13    1    3    3    0    0 -0.42018573109E+02 -0.27076315579E+02  0.15568878097E+02  0.52355298840E+02  0.00000000000E+00 0.  1.
         14    1    3    3    0    0  0.20062930707E+02 -0.57930020650E+02  0.75633507377E+02  0.97359313469E+02  0.00000000000E+00 0. -1.
        -11    1    4    4    0    0  0.48824774757E+02 -0.13120567081E+02  0.15569552100E+03  0.16369820759E+03  0.00000000000E+00 0.  1.
         11    1    4    4    0    0 -0.49129118754E-01 -0.48235671886E+02  0.27683419448E+02  0.55615233239E+02  0.00000000000E+00 0. -1.
          1    1    1    2  501    0 -0.26820003236E+02  0.14636257520E+03  0.55194450255E+03  0.57165028635E+03  0.00000000000E+00 0. -1.
<scales pt_clust_5="13000.00000" pt_clust_6="13000.00000" pt_clust_7="13000.00000" pt_clust_8="13000.00000" pt_clust_9="13000.00000"></scales>
<clustering>
<clus scale="   79.928">  5  6 -1 -1</clus>
<clus scale="   91.252">  7  8 -1 -1</clus>
<clus scale="  118.729">  1  5  2 -1</clus>
<clus scale="   94.166">  7  9 -1 -1</clus>
<clus scale="  291.416">  2  5  1 -1</clus>
</clustering>
</event>
<event>
 9    2  0.3707658E-005  0.2821235E+03  0.7546771E-02  0.1141763E+00
          2   -1    0    0  502    0 -0.00000000000E+00  0.00000000000E+00  0.87521846789E+03  0.87521846789E+03  0.00000000000E+00 0. -1.
         21   -1    0    0  501  502  0.00000000000E+00 -0.00000000000E+00 -0.42135377057E+02  0.42135377057E+02  0.00000000000E+00 0. -1.
         24    2    1    2    0    0 -0.29362557796E+02 -0.15964287072E+02  0.32457693957E+03  0.33582813705E+03  0.79456464009E+02 0.  0.
         23    2    1    2    0    0 -0.63465505466E+02 -0.59331372525E+02  0.11981787092E+03  0.17487467204E+03  0.93149055715E+02 0.  0.
        -11    1    3    3    0    0 -0.19366220854E+02  0.30601264823E+02  0.10272378971E+03  0.10892045213E+03  0.00000000000E+00 0.  1.
         12    1    3    3    0    0 -0.99963369419E+01 -0.46565551895E+02  0.22185314986E+03  0.22690768493E+03  0.00000000000E+00 0. -1.
        -13    1    4    4    0    0 -0.84947770847E+02 -0.60866971801E+02  0.10810650994E+03  0.15035933466E+03  0.00000000000E+00 0. -1.
         13    1    4    4    0    0  0.21482265381E+02  0.15355992760E+01  0.11711360981E+02  0.24515337384E+02  0.00000000000E+00 0.  1.
          1    1    1    2  501    0  0.92828063262E+02  0.75295659597E+02  0.38868828034E+03  0.40665103585E+03  0.00000000000E+00 0. -1.
<scales pt_clust_5="13000.00000" pt_clust_6="13000.00000" pt_clust_7="13000.00000" pt_clust_8="13000.00000" pt_clust_9="13000.00000"></scales>
<clustering>
<clus scale="   79.456">  5  6 -1 -1</clus>
<clus scale="   86.199">  1  5  2 -1</clus>
<clus scale="   93.149">  7  8 -1 -1</clus>
<clus scale="   95.653">  7  9 -1 -1</clus>
<clus scale="  282.123">  2  5  1 -1</clus>
</clustering>
</event>
<event>
 9    2  0.3707658E-005  0.3353815E+03  0.7546771E-02  0.1095223E+00
         -3   -1    0    0    0  501 -0.00000000000E+00  0.00000000000E+00  0.17384428960E+03  0.17384428960E+03  0.00000000000E+00 0.  1.
         21   -1    0    0  501  502  0.00000000000E+00 -0.00000000000E+00 -0.62144867445E+03  0.62144867445E+03  0.00000000000E+00 0.  1.
         24    2    1    2    0    0  0.38464366412E+02 -0.14239179280E+03  0.69477801250E+02  0.17896941497E+03  0.73810273611E+02 0.  0.
         23    2    1    2    0    0  0.56003485699E+02  0.13895984175E+03 -0.48600788105E+03  0.51681693721E+03  0.91923109816E+02 0.  0.
        -11    1    3    3    0    0 -0.20696972061E+02 -0.59940918399E+02  0.24821824537E+02  0.68098467856E+02  0.00000000000E+00 0.  1.
         12    1    3    3    0    0  0.59161338472E+02 -0.82450874398E+02  0.44655976713E+02  0.11087094712E+03  0.00000000000E+00 0. -1.
        -11    1    4    4    0    0  0.26663585939E+02  0.57253664380E+02 -0.34864825453E+03  0.35432264151E+03  0.00000000000E+00 0. -1.
         11    1    4    4    0    0  0.29339899761E+02  0.81706177368E+02 -0.13735962652E+03  0.16249429570E+03  0.00000000000E+00 0.  1.
         -4    1    1    2    0  502 -0.94467852111E+02  0.34319510483E+01 -0.31074305046E+02  0.99506611864E+02  0.00000000000E+00 0.  1.
<scales pt_clust_5="13000.00000" pt_clust_6="13000.00000" pt_clust_7="13000.00000" pt_clust_8="13000.00000" pt_clust_9="13000.00000"></scales>
<clustering>
<clus scale="   73.810">  5  6 -1 -1</clus>
<clus scale="   91.923">  7  8 -1 -1</clus>
<clus scale="   94.530">  7  9 -1 -1</clus>
<clus scale="  164.933">  1  5  2 -1</clus>
<clus scale="  335.381">  2  5  1 -1</clus>
</clustering>
</event>
<event>
 9    2  0.3707658E-005  0.1525085E+03  0.7546771E-02  0.1218136E+00
          2   -1    0    0  502    0 -0.00000000000E+00  0.00000000000E+00  0.39615195093E+03  0.39615195093E+03  0.00000000000E+00 0. -1.
         21   -1    0    0  501  502  0.00000000000E+00 -0.00000000000E+00 -0.92511607623E+02  0.92511607623E+02  0.00000000000E+00 0.  1.
         24    2    1    2    0    0 -0.53630265888E+02 -0.19569716085E+02  0.32061913844E+03  0.33521281597E+03  0.79446968787E+02 0.  0.
         23    2    1    2    0    0  0.72081803636E+02  0.41058852477E+02 -0.82203475293E+01  0.12380360725E+03  0.91532198016E+02 0.  0.
        -11    1    3    3    0    0 -0.41049722134E+02 -0.37003207092E+02  0.10620841440E+03  0.11972695733E+03  0.00000000000E+00 0.  1.
         12    1    3    3    0    0 -0.12580543754E+02  0.17433491008E+02  0.21441072404E+03  0.21548585864E+03  0.00000000000E+00 0. -1.
        -13    1    4    4    0    0 -0.55782933571E+01  0.19680946234E+02  0.28661324323E+02  0.35212618667E+02  0.00000000000E+00 0. -1.
         13    1    4    4    0    0  0.77660096993E+02  0.21377906242E+02 -0.36881671852E+02  0.88590988587E+02  0.00000000000E+00 0.  1.
          1    1    1    2  501    0 -0.18451537748E+02 -0.21489136392E+02 -0.87584476113E+01  0.29647135320E+02  0.00000000000E+00 0. -1.
<scales pt_clust_5="13000.00000" pt_clust_6="13000.00000" pt_clust_7="13000.00000" pt_clust_8="13000.00000" pt_clust_9="13000.00000"></scales>
<clustering>
<clus scale="   79.447">  5  6 -1 -1</clus>
<clus scale="   91.532">  7  8 -1 -1</clus>
<clus scale="   28.324">  7  9 -1 -1</clus>
<clus scale="   97.831">  1  5  2 -1</clus>
<clus scale="  152.509">  2  5  1 -1</clus>
</clustering>
</event>
<event>
 9    2  0.3707658E-005  0.2331056E+03  0.7546771E-02  0.1143660E+00
          2   -1    0    0  502    0 -0.00000000000E+00  0.00000000000E+00  0.11667734054E+04  0.11667734054E+04  0.00000000000E+00 0. -1.
         21   -1    0    0  501  502  0.00000000000E+00 -0.00000000000E+00 -0.31720862901E+02  0.31720862901E+02  0.00000000000E+00 0. -1.
         24    2    1    2    0    0 -0.11510763581E+03 -0.42741895938E+02  0.54059161763E+03  0.55996313505E+03  0.79011252821E+02 0.  0.
         23    2    1    2    0    0  0.39748723795E+02 -0.42633411582E+02  0.19331873187E+03  0.22153836621E+03  0.91156715538E+02 0.  0.
        -13    1    3    3    0    0 -0.10485700704E+02 -0.22856712966E+02  0.33944587079E+02  0.42244694801E+02  0.00000000000E+00 0.  1.
         14    1    3    3    0    0 -0.10462193511E+03 -0.19885182972E+02  0.50664703055E+03  0.51771844025E+03  0.00000000000E+00 0. -1.
        -13    1    4    4    0    0  0.38248444385E+02 -0.67502296114E+02  0.11024386001E+03  0.13480805669E+03  0.00000000000E+00 0. -1.
         13    1    4    4    0    0  0.15002794106E+01  0.24868884532E+02  0.83074871859E+02  0.86730309527E+02  0.00000000000E+00 0.  1.
          1    1    1    2  501    0  0.75358912017E+02  0.85375307520E+02  0.40114219299E+03  0.41699276703E+03  0.00000000000E+00 0. -1.
<scales pt_clust_5="13000.00000" pt_clust_6="13000.00000" pt_clust_7="13000.00000" pt_clust_8="13000.00000" pt_clust_9="13000.00000"></scales>
<clustering>
<clus scale="   79.011">  5  6 -1 -1</clus>
<clus scale="   91.157">  7  8 -1 -1</clus>
<clus scale="  113.877">  7  9 -1 -1</clus>
<clus scale="  146.012">  1  5  2 -1</clus>
<clus scale="  233.106">  2  5  1 -1</clus>
</clustering>
</event>
<event>
 9    2  0.3920823E-005  0.3036226E+03  0.7546771E-02  0.1130884E+00
         21   -1    0    0  501  502  0.00000000000E+00  0.00000000000E+00  0.27740915849E+03  0.27740915849E+03  0.00000000000E+00 0. -1.
          2   -1    0    0  502    0 -0.00000000000E+00 -0.00000000000E+00 -0.22468215769E+03  0.22468215769E+03  0.00000000000E+00 0. -1.
         24    2    1    2    0    0  0.26778180658E+02  0.32777083188E+02  0.15705433239E+03  0.18104478959E+03  0.79496819894E+02 0.  0.
         23    2    1    2    0    0  0.10146379113E+02 -0.35754097768E+02 -0.19801114504E+03  0.22030456595E+03  0.89131272296E+02 0.  0.
        -13    1    3    3    0    0 -0.15475177267E+02 -0.14814964403E+02  0.70019468953E+02  0.73223563927E+02  0.00000000000E+00 0.  1.
         14    1    3    3    0    0  0.42253357925E+02  0.47592047591E+02  0.87034863439E+02  0.10782122566E+03  0.00000000000E+00 0. -1.
        -13    1    4    4    0    0  0.29152208703E+02  0.18708033073E+02 -0.10779568549E+03  0.11322434184E+03  0.00000000000E+00 0.  1.
         13    1    4    4    0    0 -0.19005829590E+02 -0.54462130841E+02 -0.90215459546E+02  0.10708022411E+03  0.00000000000E+00 0. -1.
          1    1    1    2  501    0 -0.36924559771E+02  0.29770145802E+01  0.93683813449E+02  0.10074196063E+03  0.00000000000E+00 0. -1.
<scales pt_clust_5="13000.00000" pt_clust_6="13000.00000" pt_clust_7="13000.00000" pt_clust_8="13000.00000" pt_clust_9="13000.00000"></scales>
<clustering>
<clus scale="   79.497">  5  6 -1 -1</clus>
<clus scale="   89.131">  7  8 -1 -1</clus>
<clus scale="   37.044">  7  9 -1 -1</clus>
<clus scale="   90.062">  2  5  1 -1</clus>
<clus scale="  303.623">  1  5  2 -1</clus>
</clustering>
</event>
<event>
 9    2  0.3707658E-005  0.3775727E+03  0.7546771E-02  0.1102197E+00
         21   -1    0    0  501  502  0.00000000000E+00  0.00000000000E+00  0.57478751247E+02  0.57478751247E+02  0.00000000000E+00 0. -1.
          2   -1    0    0  502    0 -0.00000000000E+00 -0.00000000000E+00 -0.98518235361E+03  0.98518235361E+03  0.00000000000E+00 0. -1.
         24    2    1    2    0    0 -0.29497682165E+02  0.43644553594E+02 -0.15299844209E+03  0.18084370932E+03  0.80752483595E+02 0.  0.
         23    2    1    2    0    0  0.18859321777E+03 -0.48103466674E+02 -0.50682914113E+03  0.55022658536E+03  0.89398946525E+02 0.  0.
        -13    1    3    3    0    0  0.24520039714E+02  0.32803233732E+02 -0.57538397675E+02  0.70625432372E+02  0.00000000000E+00 0.  1.
         14    1    3    3    0    0 -0.54017721878E+02  0.10841319863E+02 -0.95460044420E+02  0.11021827695E+03  0.00000000000E+00 0. -1.
        -11    1    4    4    0    0  0.11035063514E+03 -0.71471325713E+02 -0.33852272228E+03  0.36315705497E+03  0.00000000000E+00 0.  1.
         11    1    4    4    0    0  0.78242582632E+02  0.23367859040E+02 -0.16830641885E+03  0.18706953039E+03  0.00000000000E+00 0. -1.
          1    1    1    2  501    0 -0.15909553561E+03  0.44589130793E+01 -0.26787601914E+03  0.31159081017E+03  0.00000000000E+00 0. -1.
<scales pt_clust_5="13000.00000" pt_clust_6="13000.00000" pt_clust_7="13000.00000" pt_clust_8="13000.00000" pt_clust_9="13000.00000"></scales>
<clustering>
<clus scale="   80.752">  5  6 -1 -1</clus>
<clus scale="   89.399">  7  8 -1 -1</clus>
<clus scale="   96.415">  2  5  1 -1</clus>
<clus scale="  170.706">  7  9 -1 -1</clus>
<clus scale="  377.573">  1  5  2 -1</clus>
</clustering>
</event>
<event>
 9    2  0.3707658E-005  0.1921374E+03  0.7546771E-02  0.1183875E+00
         -1   -1    0    0    0  501 -0.00000000000E+00  0.00000000000E+00  0.39667311532E+03  0.39667311532E+03  0.00000000000E+00 0.  1.
         21   -1    0    0  501  502  0.00000000000E+00 -0.00000000000E+00 -0.54842342780E+02  0.54842342780E+02  0.00000000000E+00 0.  1.
         24    2    1    2    0    0  0.55133377075E+02  0.35013132862E+02  0.11947185930E+03  0.15764430713E+03  0.79451832354E+02 0.  0.
         23    2    1    2    0    0  0.10979858766E+02 -0.12440092827E+02  0.50065703628E+02  0.10795328694E+03  0.94191423562E+02 0.  0.
        -13    1    3    3    0    0  0.42594617697E+02  0.49357297328E+02  0.12209652517E+03  0.13841244783E+03  0.00000000000E+00 0.  1.
         14    1    3    3    0    0  0.12538759377E+02 -0.14344164466E+02 -0.26246658717E+01  0.19231859293E+02  0.00000000000E+00 0. -1.
        -13    1    4    4    0    0  0.52247357039E+02 -0.65819267092E+01  0.19056155169E+02  0.56002188588E+02  0.00000000000E+00 0.  1.
         13    1    4    4    0    0 -0.41267498273E+02 -0.58581661175E+01  0.31009548459E+02  0.51951098349E+02  0.00000000000E+00 0. -1.
         -2    1    1    2    0  502 -0.66113235840E+02 -0.22573040036E+02  0.17229320961E+03  0.18591786404E+03  0.00000000000E+00 0.  1.
<scales pt_clust_5="13000.00000" pt_clust_6="13000.00000" pt_clust_7="13000.00000" pt_clust_8="13000.00000" pt_clust_9="13000.00000"></scales>
<clustering>
<clus scale="   79.452">  5  6 -1 -1</clus>
<clus scale="   94.191">  7  8 -1 -1</clus>
<clus scale="   69.861">  7  9 -1 -1</clus>
<clus scale="  102.850">  1  5  2 -1</clus>
<clus scale="  192.137">  2  5  1 -1</clus>
</clustering>
</event>
<event>
 9    2  0.3707658E-005  0.1777467E+03  0.7546771E-02  0.1201694E+00
         21   -1    0    0  501  502  0.00000000000E+00  0.00000000000E+00  0.45893838616E+03  0.45893838616E+03  0.00000000000E+00 0. -1.
          2   -1    0    0  502    0 -0.00000000000E+00 -0.00000000000E+00 -0.42250652794E+02  0.42250652794E+02  0.00000000000E+00 0. -1.
         24    2    1    2    0    0  0.35471195876E+02  0.10923382696E+02  0.72681300904E+02  0.11397553141E+03  0.79563334731E+02 0.  0.
         23    2    1    2    0    0  0.21875343192E+02  0.65394275815E+01  0.29537516186E+03  0.31002169601E+03  0.91354644133E+02 0.  0.
        -11    1    3    3    0    0 -0.42478930963E+01 -0.27936089324E+02  0.41650973445E+02  0.50331632910E+02  0.00000000000E+00 0.  1.
         12    1    3    3    0    0  0.39719088972E+02  0.38859472021E+02  0.31030327459E+02  0.63643898504E+02  0.00000000000E+00 0. -1.
        -11    1    4    4    0    0 -0.15043706902E+02 -0.34192000510E+02  0.90670142302E+02  0.98063656475E+02  0.00000000000E+00 0.  1.
         11    1    4    4    0    0  0.36919050094E+02  0.40731428092E+02  0.20470501955E+03  0.21195803954E+03  0.00000000000E+00 0. -1.
          1    1    1    2  501    0 -0.57346539068E+02 -0.17462810278E+02  0.48631270604E+02  0.77191811525E+02  0.00000000000E+00 0. -1.
<scales pt_clust_5="13000.00000" pt_clust_6="13000.00000" pt_clust_7="13000.00000" pt_clust_8="13000.00000" pt_clust_9="13000.00000"></scales>
<clustering>
<clus scale="   79.563">  5  6 -1 -1</clus>
<clus scale="   87.794">  2  5  1 -1</clus>
<clus scale="   91.355">  7  8 -1 -1</clus>
<clus scale="   35.413">  7  9 -1 -1</clus>
<clus scale="  177.747">  1  5  2 -1</clus>
</clustering>
</event>
<event>
 9    2  0.3707658E-005  0.2411864E+03  0.7546771E-02  0.1152228E+00
          2   -1    0    0  502    0 -0.00000000000E+00  0.00000000000E+00  0.21731042267E+03  0.21731042267E+03  0.00000000000E+00 0. -1.
         21   -1    0    0  501  502  0.00000000000E+00 -0.00000000000E+00 -0.13990767334E+03  0.13990767334E+03  0.00000000000E+00 0. -1.
         24    2    1    2    0    0 -0.46357537139E+02  0.62491133093E+02  0.25804885696E+02  0.11057415598E+03  0.74206393798E+02 0.  0.
         23    2    1    2    0    0 -0.45492214385E+01  0.45230360361E+02  0.73844956580E+02  0.12544018033E+03  0.90640390085E+02 0.  0.
        -13    1    3    3    0    0 -0.16218292167E+02 -0.14988670127E+02 -0.36332009492E+01  0.22380647492E+02  0.00000000000E+00 0.  1.
         14    1    3    3    0    0 -0.30139244972E+02  0.77479803221E+02  0.29438086645E+02  0.88193508490E+02  0.00000000000E+00 0. -1.
        -11    1    4    4    0    0 -0.37075486279E+02  0.50662222609E+02  0.27446874734E+02  0.68517030110E+02  0.00000000000E+00 0. -1.
         11    1    4    4    0    0  0.32526264840E+02 -0.54318622474E+01  0.46398081846E+02  0.56923150220E+02  0.00000000000E+00 0.  1.
          1    1    1    2  501    0  0.50906758577E+02 -0.10772149345E+03 -0.22247092947E+02  0.12120375970E+03  0.00000000000E+00 0. -1.
<scales pt_clust_5="13000.00000" pt_clust_6="13000.00000" pt_clust_7="13000.00000" pt_clust_8="13000.00000" pt_clust_9="13000.00000"></scales>
<clustering>
<clus scale="   74.206">  5  6 -1 -1</clus>
<clus scale="   90.640">  7  8 -1 -1</clus>
<clus scale="  107.521">  1  5  2 -1</clus>
<clus scale="   93.962">  7  9 -1 -1</clus>
<clus scale="  241.186">  2  5  1 -1</clus>
</clustering>
</event>
<event>
 9    2  0.3707658E-005  0.2840318E+03  0.7546771E-02  0.1131444E+00
         -3   -1    0    0    0  501 -0.00000000000E+00  0.00000000000E+00  0.48144939058E+02  0.48144939058E+02  0.00000000000E+00 0.  1.
         21   -1    0    0  501  502  0.00000000000E+00 -0.00000000000E+00 -0.87031559309E+03  0.87031559309E+03  0.00000000000E+00 0.  1.
         24    2    1    2    0    0 -0.70345172403E+02  0.19801631394E+02 -0.35990731143E+03  0.37590967221E+03  0.80213845133E+02 0.  0.
         23    2    1    2    0    0  0.94110071405E+02  0.98398890342E+02 -0.25512413721E+03  0.30287861672E+03  0.90044899441E+02 0.  0.
        -11    1    3    3    0    0 -0.20795648011E+02  0.37349999932E+02 -0.76186480557E+02  0.87360524786E+02  0.00000000000E+00 0.  1.
         12    1    3    3    0    0 -0.49549524392E+02 -0.17548368538E+02 -0.28372083088E+03  0.28854914742E+03  0.00000000000E+00 0. -1.
        -11    1    4    4    0    0  0.17288817373E+02  0.80565949407E+02 -0.10680878176E+03  0.13489955993E+03  0.00000000000E+00 0. -1.
         11    1    4    4    0    0  0.76821254033E+02  0.17832940935E+02 -0.14831535546E+03  0.16797905678E+03  0.00000000000E+00 0.  1.
         -4    1    1    2    0  502 -0.23764899002E+02 -0.11820052174E+03 -0.20713920538E+03  0.23967224322E+03  0.00000000000E+00 0.  1.
<scales pt_clust_5="13000.00000" pt_clust_6="13000.00000" pt_clust_7="13000.00000" pt_clust_8="13000.00000" pt_clust_9="13000.00000"></scales>
<clustering>
<clus scale="   80.214">  5  6 -1 -1</clus>
<clus scale="   90.045">  7  8 -1 -1</clus>
<clus scale="  108.512">  1  5  2 -1</clus>
<clus scale="  121.947">  7  9 -1 -1</clus>
<clus scale="  284.032">  2  5  1 -1</clus>
</clustering>
</event>
<event>
 9    2  0.3707658E-005  0.1265304E+03  0.7546771E-02  0.1250298E+00
          2   -1    0    0  502    0 -0.00000000000E+00  0.00000000000E+00  0.68451696548E+03  0.68451696548E+03  0.00000000000E+00 0. -1.
         21   -1    0    0  501  502  0.00000000000E+00 -0.00000000000E+00 -0.17207894237E+02  0.17207894237E+02  0.00000000000E+00 0. -1.
         24    2    1    2    0    0  0.96838006257E+01 -0.31309575285E+02  0.22957096998E+03  0.24606644761E+03  0.82290952604E+02 0.  0.
         23    2    1    2    0    0 -0.11710728475E+02 -0.57766465295E+01  0.35719557433E+03  0.36696458521E+03  0.83089215148E+02 0.  0.
        -13    1    3    3    0    0  0.24898139271E+02 -0.95440342150E+01  0.16521335694E+02  0.31368144054E+02  0.00000000000E+00 0.  1.
         14    1    3    3    0    0 -0.15214338646E+02 -0.21765541070E+02  0.21304963429E+03  0.21469830356E+03  0.00000000000E+00 0. -1.
        -11    1    4    4    0    0  0.32188516513E+02 -0.18563406788E+02  0.12960218071E+03  0.13482368453E+03  0.00000000000E+00 0.  1.
         11    1    4    4    0    0 -0.43899244988E+02  0.12786760258E+02  0.22759339362E+03  0.23214090068E+03  0.00000000000E+00 0. -1.
          1    1    1    2  501    0  0.20269278490E+01  0.37086221814E+02  0.80542526924E+02  0.88693826889E+02  0.00000000000E+00 0. -1.
<scales pt_clust_5="13000.00000" pt_clust_6="13000.00000" pt_clust_7="13000.00000" pt_clust_8="13000.00000" pt_clust_9="13000.00000"></scales>
<clustering>
<clus scale="   82.291">  5  6 -1 -1</clus>
<clus scale="   83.089">  7  8 -1 -1</clus>
<clus scale="   37.142">  7  9 -1 -1</clus>
<clus scale="   88.577">  1  5  2 -1</clus>
<clus scale="  126.530">  2  5  1 -1</clus>
</clustering>
</event>
<event>
 9    2  0.3707658E-005  0.2513420E+03  0.7546771E-02  0.1127329E+00
          2   -1    0    0  502    0 -0.00000000000E+00  0.00000000000E+00  0.10543764381E+04  0.10543764381E+04  0.00000000000E+00 0. -1.
         21   -1    0    0  501  502  0.00000000000E+00 -0.00000000000E+00 -0.46570386080E+02  0.46570386080E+02  0.00000000000E+00 0. -1.
         24    2    1    2    0    0  0.68364938382E+02 -0.13746004516E+03  0.26363195918E+03  0.31547378099E+03  0.80329744029E+02 0.  0.
         23    2    1    2    0    0  0.11974286841E+02  0.65855353610E+02  0.19449513337E+03  0.22535825010E+03  0.92074278909E+02 0.  0.
        -11    1    3    3    0    0 -0.65656329787E+01 -0.74323742987E+02  0.12785257973E+03  0.14803178190E+03  0.00000000000E+00 0.  1.
         12    1    3    3    0    0  0.74930571360E+02 -0.63136302172E+02  0.13577937946E+03  0.16744199910E+03  0.00000000000E+00 0. -1.
        -13    1    4    4    0    0 -0.21164448111E+02  0.25004919834E+01  0.12085125862E+03  0.12271598524E+03  0.00000000000E+00 0.  1.
         13    1    4    4    0    0  0.33138734953E+02  0.63354861627E+02  0.73643874755E+02  0.10264226486E+03  0.00000000000E+00 0. -1.
          1    1    1    2  501    0 -0.80339225223E+02  0.71604691548E+02  0.54967895946E+03  0.56011479308E+03  0.00000000000E+00 0. -1.
<scales pt_clust_5="13000.00000" pt_clust_6="13000.00000" pt_clust_7="13000.00000" pt_clust_8="13000.00000" pt_clust_9="13000.00000"></scales>
<clustering>
<clus scale="   80.330">  5  6 -1 -1</clus>
<clus scale="   92.074">  7  8 -1 -1</clus>
<clus scale="  107.618">  7  9 -1 -1</clus>
<clus scale="  173.268">  1  5  2 -1</clus>
<clus scale="  251.342">  2  5  1 -1</clus>
</clustering>
</event>
<event>
 9    2  0.3707658E-005  0.1600209E+03  0.7546771E-02  0.1221892E+00
         21   -1    0    0  501  502  0.00000000000E+00  0.00000000000E+00  0.10600785204E+03  0.10600785204E+03  0.00000000000E+00 0. -1.
          2   -1    0    0  502    0 -0.00000000000E+00 -0.00000000000E+00 -0.14506552341E+03  0.14506552341E+03  0.00000000000E+00 0. -1.
         24    2    1    2    0    0  0.43376051827E+02  0.66341044209E+01  0.19524696490E+02  0.80666295019E+02  0.64810062224E+02 0.  0.
         23    2    1    2    0    0 -0.56324214852E+01 -0.48830072588E+02 -0.36263942451E+02  0.10955321060E+03  0.90943566406E+02 0.  0.
        -11    1    3    3    0    0  0.43069921330E+02  0.10200154983E+02 -0.14406505918E+02  0.46546844123E+02  0.00000000000E+00 0.  1.
         12    1    3    3    0    0  0.30613049668E+00 -0.35660505622E+01  0.33931202409E+02  0.34119450895E+02  0.00000000000E+00 0. -1.
        -11    1    4    4    0    0 -0.93017148458E+01 -0.73440614984E+02 -0.12365853892E+02  0.75053049044E+02  0.00000000000E+00 0. -1.
         11    1    4    4    0    0  0.36692933606E+01  0.24610542396E+02 -0.23898088559E+02  0.34500161559E+02  0.00000000000E+00 0.  1.
          1    1    1    2  501    0 -0.37743630342E+02  0.42195968167E+02 -0.22318425403E+02  0.60853869831E+02  0.00000000000E+00 0. -1.
<scales pt_clust_5="13000.00000" pt_clust_6="13000.00000" pt_clust_7="13000.00000" pt_clust_8="13000.00000" pt_clust_9="13000.00000"></scales>
<clustering>
<clus scale="   64.810">  5  6 -1 -1</clus>
<clus scale="   78.268">  2  5  1 -1</clus>
<clus scale="   90.944">  7  8 -1 -1</clus>
<clus scale="   49.731">  7  9 -1 -1</clus>
<clus scale="  160.021">  1  5  2 -1</clus>
</clustering>
</event>
<event>
 9    2  0.3707658E-005  0.3252763E+03  0.7546771E-02  0.1113878E+00
         21   -1    0    0  501  502  0.00000000000E+00  0.00000000000E+00  0.94708165804E+03  0.94708165804E+03  0.00000000000E+00 0. -1.
          2   -1    0    0  502    0 -0.00000000000E+00 -0.00000000000E+00 -0.87564550227E+02  0.87564550227E+02  0.00000000000E+00 0. -1.
         24    2    1    2    0    0  0.51105427330E+02  0.57063643355E+02 -0.39568526548E+01  0.11193719028E+03  0.81524559430E+02 0.  0.
         23    2    1    2    0    0 -0.10058688738E+03  0.82446352766E+02  0.30038986591E+03  0.34049329211E+03  0.93736265309E+02 0.  0.
        -13    1    3    3    0    0  0.20370729479E+02  0.78255089765E+01  0.35557920058E+02  0.41720149677E+02  0.00000000000E+00 0.  1.
         14    1    3    3    0    0  0.30734697851E+02  0.49238134379E+02 -0.39514772713E+02  0.70217040607E+02  0.00000000000E+00 0. -1.
        -11    1    4    4    0    0  0.95606830755E+01  0.36696301172E+02  0.46643279264E+02  0.60113398515E+02  0.00000000000E+00 0.  1.
         11    1    4    4    0    0 -0.11014757046E+03  0.45750051594E+02  0.25374658665E+03  0.28037989360E+03  0.00000000000E+00 0. -1.
          1    1    1    2  501    0  0.49481460055E+02 -0.13950999612E+03  0.56308409455E+03  0.58221572586E+03  0.00000000000E+00 0. -1.
<scales pt_clust_5="13000.00000" pt_clust_6="13000.00000" pt_clust_7="13000.00000" pt_clust_8="13000.00000" pt_clust_9="13000.00000"></scales>
<clustering>
<clus scale="   81.525">  5  6 -1 -1</clus>
<clus scale="   93.736">  7  8 -1 -1</clus>
<clus scale="  111.867">  2  5  1 -1</clus>
<clus scale="  137.894">  7  9 -1 -1</clus>
<clus scale="  325.276">  1  5  2 -1</clus>
</clustering>
</event>
<event>
 9    2  0.3707658E-005  0.4076197E+03  0.7546771E-02  0.1094424E+00
          2   -1    0    0  502    0 -0.00000000000E+00  0.00000000000E+00  0.11737992173E+04  0.11737992173E+04  0.00000000000E+00 0. -1.
         21   -1    0    0  501  502  0.00000000000E+00 -0.00000000000E+00 -0.53674556519E+02  0.53674556519E+02  0.00000000000E+00 0. -1.
         24    2    1    2    0    0  0.41700557515E+02 -0.22231584366E+02  0.23332795608E+03  0.25148083982E+03  0.81040100369E+02 0.  0.
         23    2    1    2    0    0  0.73695926928E+02  0.16600191624E+03  0.31104643376E+03  0.37144795516E+03  0.90752264953E+02 0.  0.
        -11    1    3    3    0    0 -0.11766301394E+02  0.21403452784E+02  0.51554243983E+02  0.57047293645E+02  0.00000000000E+00 0.  1.
         12    1    3    3    0    0  0.53466858909E+02 -0.43635037150E+02  0.18177371210E+03  0.19443354618E+03  0.00000000000E+00 0. -1.
        -13    1    4    4    0    0  0.46517612969E+02  0.16921510148E+03  0.26359831887E+03  0.31667287948E+03  0.00000000000E+00 0. -1.
         13    1    4    4    0    0  0.27178313959E+02 -0.32131852395E+01  0.47448114893E+02  0.54775075682E+02  0.00000000000E+00 0.  1.
          1    1    1    2  501    0 -0.11539648444E+03 -0.14377033188E+03  0.57575027093E+03  0.60454497883E+03  0.00000000000E+00 0. -1.
<scales pt_clust_5="13000.00000" pt_clust_6="13000.00000" pt_clust_7="13000.00000" pt_clust_8="13000.00000" pt_clust_9="13000.00000"></scales>
<clustering>
<clus scale="   81.040">  5  6 -1 -1</clus>
<clus scale="   90.752">  7  8 -1 -1</clus>
<clus scale="   93.812">  1  5  2 -1</clus>
<clus scale="  181.205">  7  9 -1 -1</clus>
<clus scale="  407.620">  2  5  1 -1</clus>
</clustering>
</event>
<event>
 9    2  0.3707658E-005  0.4072547E+03  0.7546771E-02  0.1090099E+00
         21   -1    0    0  501  502  0.00000000000E+00  0.00000000000E+00  0.51592722030E+02  0.51592722030E+02  0.00000000000E+00 0. -1.
          2   -1    0    0  502    0 -0.00000000000E+00 -0.00000000000E+00 -0.14400067786E+04  0.14400067786E+04  0.00000000000E+00 0. -1.
         24    2    1    2    0    0  0.64834259857E+02  0.23647526156E+02 -0.12156246773E+03  0.16089691797E+03  0.79672441331E+02 0.  0.
         23    2    1    2    0    0  0.15355517655E+03  0.29670898762E+02 -0.53903410982E+03  0.56895782020E+03  0.93250603937E+02 0.  0.
        -11    1    3    3    0    0  0.75606070237E+01  0.40656558699E+02 -0.73019459543E+02  0.83916387051E+02  0.00000000000E+00 0.  1.
         12    1    3    3    0    0  0.57273652833E+02 -0.17009032543E+02 -0.48543008184E+02  0.76980530918E+02  0.00000000000E+00 0. -1.
        -11    1    4    4    0    0  0.99296851158E+02  0.33572869455E+02 -0.46740393565E+03  0.47901298654E+03  0.00000000000E+00 0. -1.
         11    1    4    4    0    0  0.54258325393E+02 -0.39019706933E+01 -0.71630174168E+02  0.89944833655E+02  0.00000000000E+00 0.  1.
          1    1    1    2  501    0 -0.21838943641E+03 -0.53318424918E+02 -0.72781747903E+03  0.76174476247E+03  0.00000000000E+00 0. -1.
<scales pt_clust_5="13000.00000" pt_clust_6="13000.00000" pt_clust_7="13000.00000" pt_clust_8="13000.00000" pt_clust_9="13000.00000"></scales>
<clustering>
<clus scale="   79.672">  5  6 -1 -1</clus>
<clus scale="   93.251">  7  8 -1 -1</clus>
<clus scale="  105.406">  2  5  1 -1</clus>
<clus scale="  185.521">  7  9 -1 -1</clus>
<clus scale="  407.255">  1  5  2 -1</clus>
</clustering>
</event>
<event>
 9    2  0.3707658E-005  0.3110222E+03  0.7546771E-02  0.1126610E+00
          2   -1    0    0  502    0 -0.00000000000E+00  0.00000000000E+00  0.79023177305E+03  0.79023177305E+03  0.00000000000E+00 0. -1.
         21   -1    0    0  501  502  0.00000000000E+00 -0.00000000000E+00 -0.51955671682E+02  0.51955671682E+02  0.00000000000E+00 0. -1.
         24    2    1    2    0    0  0.33090970795E+01 -0.43503248437E+02  0.14446932566E+03  0.17185817859E+03  0.82221437262E+02 0.  0.
         23    2    1    2    0    0  0.33661153530E+02 -0.10481631008E+03  0.38999254961E+03  0.41556323695E+03  0.92081936530E+02 0.  0.
        -13    1    3    3    0    0 -0.18023777876E+02  0.13476136882E+02  0.80453950634E+02  0.83542210929E+02  0.00000000000E+00 0.  1.
         14    1    3    3    0    0  0.21332874956E+02 -0.56979385319E+02  0.64015375023E+02  0.88315967665E+02  0.00000000000E+00 0. -1.
        -11    1    4    4    0    0 -0.39308392590E+01 -0.10567003098E+03  0.29655095595E+03  0.31483976308E+03  0.00000000000E+00 0. -1.
         11    1    4    4    0    0  0.37591992789E+02  0.85372089985E+00  0.93441593669E+02  0.10072347387E+03  0.00000000000E+00 0.  1.
          1    1    1    2  501    0 -0.36970250609E+02  0.14831955852E+03  0.20381422609E+03  0.25476602918E+03  0.00000000000E+00 0. -1.
<scales pt_clust_5="13000.00000" pt_clust_6="13000.00000" pt_clust_7="13000.00000" pt_clust_8="13000.00000" pt_clust_9="13000.00000"></scales>
<clustering>
<clus scale="   82.221">  5  6 -1 -1</clus>
<clus scale="   92.082">  7  8 -1 -1</clus>
<clus scale="   93.080">  1  5  2 -1</clus>
<clus scale="  137.280">  7  9 -1 -1</clus>
<clus scale="  311.022">  2  5  1 -1</clus>
</clustering>
</event>
<event>
 9    2  0.3707658E-005  0.3657564E+03  0.7546771E-02  0.1100515E+00
          4   -1    0    0  502    0 -0.00000000000E+00  0.00000000000E+00  0.34241117041E+03  0.34241117041E+03  0.00000000000E+00 0. -1.
         21   -1    0    0  501  502  0.00000000000E+00 -0.00000000000E+00 -0.31779061525E+03  0.31779061525E+03  0.00000000000E+00 0. -1.
         24    2    1    2    0    0  0.55611462084E+02 -0.52974055931E+02  0.21942293837E+03  0.24580380549E+03  0.79838584642E+02 0.  0.
         23    2    1    2    0    0  0.51799200391E+02 -0.11756455791E+03 -0.45116962760E+02  0.16334779729E+03  0.90235137897E+02 0.  0.
        -13    1    3    3    0    0  0.93473158634E+00 -0.55819276335E+02  0.11826920180E+03  0.13078329185E+03  0.00000000000E+00 0.  1.
         14    1    3    3    0    0  0.54676730497E+02  0.28452204033E+01  0.10115373657E+03  0.11502051364E+03  0.00000000000E+00 0. -1.
        -11    1    4    4    0    0  0.13619848497E+02 -0.70796800235E+02  0.19731524734E+02  0.74746372922E+02  0.00000000000E+00 0.  1.
         11    1    4    4    0    0  0.38179351894E+02 -0.46767757678E+02 -0.64848487494E+02  0.88601424365E+02  0.00000000000E+00 0. -1.
          3    1    1    2  501    0 -0.10741066247E+03  0.17053861384E+03 -0.14968542045E+03  0.25105018287E+03  0.00000000000E+00 0. -1.
<scales pt_clust_5="13000.00000" pt_clust_6="13000.00000" pt_clust_7="13000.00000" pt_clust_8="13000.00000" pt_clust_9="13000.00000"></scales>
<clustering>
<clus scale="   79.839">  5  6 -1 -1</clus>
<clus scale="   90.235">  7  8 -1 -1</clus>
<clus scale="  110.784">  1  5  2 -1</clus>
<clus scale="  167.400">  7  9 -1 -1</clus>
<clus scale="  365.756">  2  5  1 -1</clus>
</clustering>
</event>
<event>
 9    2  0.3707658E-005  0.1878630E+03  0.7546771E-02  0.1191210E+00
         21   -1    0    0  501  502  0.00000000000E+00  0.00000000000E+00  0.14399765281E+03  0.14399765281E+03  0.00000000000E+00 0.  1.
          2   -1    0    0  502    0 -0.00000000000E+00 -0.00000000000E+00 -0.15841357550E+03  0.15841357550E+03  0.00000000000E+00 0. -1.
         24    2    1    2    0    0  0.27316531312E+02 -0.31341412308E+02  0.47146526168E+02  0.10471844660E+03  0.83753693168E+02 0.  0.
         23    2    1    2    0    0  0.51061309626E+01 -0.47515892046E+02 -0.33631062774E+02  0.10797173732E+03  0.90791051904E+02 0.  0.
        -13    1    3    3    0    0  0.38765030748E+02  0.10913757116E+02  0.45704847050E+02  0.60916095961E+02  0.00000000000E+00 0.  1.
         14    1    3    3    0    0 -0.11448499436E+02 -0.42255169424E+02  0.14416791182E+01  0.43802350634E+02  0.00000000000E+00 0. -1.
        -11    1    4    4    0    0 -0.17211311155E+02 -0.66646352787E+02 -0.86086899062E+01  0.69369122190E+02  0.00000000000E+00 0.  1.
         11    1    4    4    0    0  0.22317442117E+02  0.19130460741E+02 -0.25022372867E+02  0.38602615128E+02  0.00000000000E+00 0. -1.
          1    1    1    2  501    0 -0.32422662274E+02  0.78857304353E+02 -0.27931386085E+02  0.89721044396E+02  0.00000000000E+00 0. -1.
<scales pt_clust_5="13000.00000" pt_clust_6="13000.00000" pt_clust_7="13000.00000" pt_clust_8="13000.00000" pt_clust_9="13000.00000"></scales>
<clustering>
<clus scale="   83.754">  5  6 -1 -1</clus>
<clus scale="   90.791">  7  8 -1 -1</clus>
<clus scale="   85.263">  7  9 -1 -1</clus>
<clus scale="   93.505">  2  5  1 -1</clus>
<clus scale="  187.863">  1  5  2 -1</clus>
</clustering>
</event>
<event>
 9    2  0.3707658E-005  0.3869166E+03  0.7546771E-02  0.1096971E+00
          2   -1    0    0  502    0 -0.00000000000E+00  0.00000000000E+00  0.14339204090E+03  0.14339204090E+03  0.00000000000E+00 0. -1.
         21   -1    0    0  501  502  0.00000000000E+00 -0.00000000000E+00 -0.68291088466E+03  0.68291088466E+03  0.00000000000E+00 0.  1.
         24    2    1    2    0    0 -0.61267310604E+02 -0.63188540174E+01  0.55409736089E+02  0.11662381054E+03  0.82080832522E+02 0.  0.
         23    2    1    2    0    0  0.16566227895E+03 -0.12434881626E+03 -0.32173845193E+03  0.38935865757E+03  0.71957723703E+02 0.  0.
        -13    1    3    3    0    0  0.18002752257E+02 -0.14060166754E+02  0.99428056002E+01  0.24912783088E+02  0.00000000000E+00 0.  1.
         14    1    3    3    0    0 -0.79270062862E+02  0.77413127366E+01  0.45466930489E+02  0.91711027456E+02  0.00000000000E+00 0. -1.
        -11    1    4    4    0    0  0.11497450127E+03 -0.93862528366E+02 -0.28019387955E+03  0.31707715198E+03  0.00000000000E+00 0.  1.
         11    1    4    4    0    0  0.50687777675E+02 -0.30486287890E+02 -0.41544572387E+02  0.72281505586E+02  0.00000000000E+00 0. -1.
          1    1    1    2  501    0 -0.10439496835E+03  0.13066767027E+03 -0.27319012791E+03  0.32032045744E+03  0.00000000000E+00 0. -1.
<scales pt_clust_5="13000.00000" pt_clust_6="13000.00000" pt_clust_7="13000.00000" pt_clust_8="13000.00000" pt_clust_9="13000.00000"></scales>
<clustering>
<clus scale="   71.958">  7  8 -1 -1</clus>
<clus scale="   82.081">  5  6 -1 -1</clus>
<clus scale="  102.620">  1  5  2 -1</clus>
<clus scale="  182.176">  7  9 -1 -1</clus>
<clus scale="  386.917">  2  5  1 -1</clus>
</clustering>
</event>
<event>
 9    2  0.3707658E-005  0.2580705E+03  0.7546771E-02  0.1147555E+00
          2   -1    0    0  502    0 -0.00000000000E+00  0.00000000000E+00  0.18054649754E+03  0.18054649754E+03  0.00000000000E+00 0. -1.
         21   -1    0    0  501  502  0.00000000000E+00 -0.00000000000E+00 -0.19585888447E+03  0.19585888447E+03  0.00000000000E+00 0. -1.
         24    2    1    2    0    0  0.22109522176E+02 -0.48442598198E+02 -0.59339899002E+02  0.11460625461E+03  0.82327721276E+02 0.  0.
         23    2    1    2    0    0  0.16472711910E+02 -0.66768053920E+02 -0.36729986416E+02  0.11590924869E+03  0.85770267395E+02 0.  0.
        -13    1    3    3    0    0 -0.21951709566E+02  0.61637690817E+01 -0.13731645529E+00  0.22801062650E+02  0.00000000000E+00 0.  1.
         14    1    3    3    0    0  0.44061231742E+02 -0.54606367280E+02 -0.59202582547E+02  0.91805191958E+02  0.00000000000E+00 0. -1.
        -11    1    4    4    0    0  0.35771787301E+02 -0.16905634343E+02 -0.47029946730E+02  0.61459231435E+02  0.00000000000E+00 0.  1.
         11    1    4    4    0    0 -0.19299075391E+02 -0.49862419577E+02  0.10299960314E+02  0.54450017259E+02  0.00000000000E+00 0. -1.
          1    1    1    2  501    0 -0.38582234086E+02  0.11521065212E+03  0.80757498486E+02  0.14588987871E+03  0.00000000000E+00 0. -1.
<scales pt_clust_5="13000.00000" pt_clust_6="13000.00000" pt_clust_7="13000.00000" pt_clust_8="13000.00000" pt_clust_9="13000.00000"></scales>
<clustering>
<clus scale="   82.328">  5  6 -1 -1</clus>
<clus scale="   85.770">  7  8 -1 -1</clus>
<clus scale="   98.048">  1  5  2 -1</clus>
<clus scale="   82.358">  7  9 -1 -1</clus>
<clus scale="  258.070">  2  5  1 -1</clus>
</clustering>
</event>
<event>
 9    2  0.3707658E-005  0.2302051E+03  0.7546771E-02  0.1159447E+00
          2   -1    0    0  502    0 -0.00000000000E+00  0.00000000000E+00  0.21998678946E+04  0.21998678946E+04  0.00000000000E+00 0. -1.
         21   -1    0    0  501  502  0.00000000000E+00 -0.00000000000E+00 -0.13453006950E+02  0.13453006950E+02  0.00000000000E+00 0. -1.
         24    2    1    2    0    0  0.51989519011E+02  0.40700883331E+02  0.94435462441E+03  0.95010749645E+03  0.80864863695E+02 0.  0.
         23    2    1    2    0    0  0.61411951871E+02 -0.22244591684E+02  0.49524143532E+03  0.50760842229E+03  0.90199675358E+02 0.  0.
        -11    1    3    3    0    0 -0.57791275734E+00  0.28650235317E+02  0.99798002601E+02  0.10383068569E+03  0.00000000000E+00 0.  1.
         12    1    3    3    0    0  0.52567431768E+02  0.12050648014E+02  0.84455662181E+03  0.84627681076E+03  0.00000000000E+00 0. -1.
        -11    1    4    4    0    0 -0.22173527249E+02 -0.14431907890E+02  0.14934998714E+03  0.15167519222E+03  0.00000000000E+00 0.  1.
         11    1    4    4    0    0  0.83585479120E+02 -0.78126837935E+01  0.34589144818E+03  0.35593323007E+03  0.00000000000E+00 0. -1.
          1    1    1    2  501    0 -0.11340147088E+03 -0.18456291647E+02  0.74681882792E+03  0.75560498280E+03  0.00000000000E+00 0. -1.
<scales pt_clust_5="13000.00000" pt_clust_6="13000.00000" pt_clust_7="13000.00000" pt_clust_8="13000.00000" pt_clust_9="13000.00000"></scales>
<clustering>
<clus scale="   80.865">  5  6 -1 -1</clus>
<clus scale="   90.200">  7  8 -1 -1</clus>
<clus scale="  104.396">  1  5  2 -1</clus>
<clus scale="   82.438">  7  9 -1 -1</clus>
<clus scale="  230.205">  2  5  1 -1</clus>
</clustering>
</event>
<event>
 9    2  0.3707658E-005  0.7193945E+03  0.7546771E-02  0.1008471E+00
          2   -1    0    0  502    0 -0.00000000000E+00  0.00000000000E+00  0.49513284392E+03  0.49513284392E+03  0.00000000000E+00 0. -1.
         21   -1    0    0  501  502  0.00000000000E+00 -0.00000000000E+00 -0.42477771439E+03  0.42477771439E+03  0.00000000000E+00 0. -1.
         24    2    1    2    0    0  0.18281394704E+03 -0.50298163222E+01  0.21270923922E+02  0.19884354212E+03  0.75100357888E+02 0.  0.
         23    2    1    2    0    0  0.21158476903E+03  0.93613027999E+02  0.16800352926E+03  0.29971308164E+03  0.89840035426E+02 0.  0.
        -13    1    3    3    0    0  0.10162541624E+03 -0.38997673270E+02  0.20875730881E+02  0.11083474133E+03  0.00000000000E+00 0.  1.
         14    1    3    3    0    0  0.81188530794E+02  0.33967856947E+02  0.39519304143E+00  0.88008800785E+02  0.00000000000E+00 0. -1.
        -11    1    4    4    0    0  0.14557303304E+03  0.10072107425E+03  0.94506421298E+02  0.20066814997E+03  0.00000000000E+00 0.  1.
         11    1    4    4    0    0  0.66011735991E+02 -0.71080462538E+01  0.73497107964E+02  0.99044931668E+02  0.00000000000E+00 0. -1.
          1    1    1    2  501    0 -0.39439871606E+03 -0.88583211677E+02 -0.11891932366E+03  0.42135393455E+03  0.00000000000E+00 0. -1.
<scales pt_clust_5="13000.00000" pt_clust_6="13000.00000" pt_clust_7="13000.00000" pt_clust_8="13000.00000" pt_clust_9="13000.00000"></scales>
<clustering>
<clus scale="   75.100">  5  6 -1 -1</clus>
<clus scale="   89.840">  7  8 -1 -1</clus>
<clus scale="  197.703">  1  5  2 -1</clus>
<clus scale="  335.078">  7  9 -1 -1</clus>
<clus scale="  719.394">  2  5  1 -1</clus>
</clustering>
</event>
<event>
 9    2  0.3707658E-005  0.1606239E+03  0.7546771E-02  0.1219149E+00
         21   -1    0    0  501  502  0.00000000000E+00  0.00000000000E+00  0.71496022165E+02  0.71496022165E+02  0.00000000000E+00 0.  1.
          4   -1    0    0  502    0 -0.00000000000E+00 -0.00000000000E+00 -0.38762517797E+03  0.38762517797E+03  0.00000000000E+00 0. -1.
         24    2    1    2    0    0  0.84225802020E+01  0.48818235019E+01 -0.28363532582E+03  0.29524355446E+03  0.81394019081E+02 0.  0.
         23    2    1    2    0    0  0.33402219973E+02 -0.24453042307E+02 -0.53223394854E+02  0.11326083646E+03  0.91003449046E+02 0.  0.
        -13    1    3    3    0    0 -0.13627231864E+01 -0.37982567723E+02 -0.13148721269E+03  0.13687008281E+03  0.00000000000E+00 0.  1.
         14    1    3    3    0    0  0.97853033884E+01  0.42864391225E+02 -0.15214811313E+03  0.15837347166E+03  0.00000000000E+00 0. -1.
        -11    1    4    4    0    0  0.32704557724E+02  0.86794946370E+01  0.15307149495E+02  0.37137993332E+02  0.00000000000E+00 0.  1.
         11    1    4    4    0    0  0.69766224880E+00 -0.33132536944E+02 -0.68530544349E+02  0.76122843127E+02  0.00000000000E+00 0. -1.
          3    1    1    2  501    0 -0.41824800175E+02  0.19571218805E+02  0.20729564868E+02  0.50616809212E+02  0.00000000000E+00 0. -1.
<scales pt_clust_5="13000.00000" pt_clust_6="13000.00000" pt_clust_7="13000.00000" pt_clust_8="13000.00000" pt_clust_9="13000.00000"></scales>
<clustering>
<clus scale="   81.394">  5  6 -1 -1</clus>
<clus scale="   81.974">  2  5  1 -1</clus>
<clus scale="   91.003">  7  8 -1 -1</clus>
<clus scale="   45.348">  7  9 -1 -1</clus>
<clus scale="  160.624">  1  5  2 -1</clus>
</clustering>
</event>
<event>
 9    2  0.3707658E-005  0.2591388E+03  0.7546771E-02  0.1148231E+00
         21   -1    0    0  501  502  0.00000000000E+00  0.00000000000E+00  0.22751579038E+03  0.22751579038E+03  0.00000000000E+00 0.  1.
          2   -1    0    0  502    0 -0.00000000000E+00 -0.00000000000E+00 -0.17603052555E+03  0.17603052555E+03  0.00000000000E+00 0. -1.
         24    2    1    2    0    0  0.50870980488E+02  0.55091673914E+01 -0.69113197184E+02  0.11771960562E+03  0.80393183423E+02 0.  0.
         23    2    1    2    0    0 -0.32615729102E+02 -0.77681354312E+02  0.15893534153E+03  0.20209024813E+03  0.92096943543E+02 0.  0.
        -13    1    3    3    0    0  0.33951048736E+02  0.16148458242E+02  0.76763886097E+01  0.38371517509E+02  0.00000000000E+00 0.  1.
         14    1    3    3    0    0  0.16919931752E+02 -0.10639290850E+02 -0.76789585794E+02  0.79348088109E+02  0.00000000000E+00 0. -1.
        -11    1    4    4    0    0 -0.50587612926E+02 -0.14277159534E+02  0.39761454331E+02  0.65908399438E+02  0.00000000000E+00 0. -1.
         11    1    4    4    0    0  0.17971883824E+02 -0.63404194778E+02  0.11917388719E+03  0.13618184869E+03  0.00000000000E+00 0.  1.
          1    1    1    2  501    0 -0.18255251386E+02  0.72172186921E+02 -0.38336879509E+02  0.83736462181E+02  0.00000000000E+00 0. -1.
<scales pt_clust_5="13000.00000" pt_clust_6="13000.00000" pt_clust_7="13000.00000" pt_clust_8="13000.00000" pt_clust_9="13000.00000"></scales>
<clustering>
<clus scale="   80.393">  5  6 -1 -1</clus>
<clus scale="   92.097">  7  8 -1 -1</clus>
<clus scale="   74.445">  7  9 -1 -1</clus>
<clus scale="   95.296">  2  5  1 -1</clus>
<clus scale="  259.139">  1  5  2 -1</clus>
</clustering>
</event>
<event>
 9    2  0.3707658E-005  0.1754253E+03  0.7546771E-02  0.1192947E+00
         -1   -1    0    0    0  501 -0.00000000000E+00  0.00000000000E+00  0.24383053570E+03  0.24383053570E+03  0.00000000000E+00 0.  1.
         21   -1    0    0  501  502  0.00000000000E+00 -0.00000000000E+00 -0.86862046298E+02  0.86862046298E+02  0.00000000000E+00 0.  1.
         24    2    1    2    0    0  0.61921842295E+02  0.42327723981E+02  0.91362351620E+02  0.14340078927E+03  0.81183473064E+02 0.  0.
         23    2    1    2    0    0 -0.42623558364E+01 -0.68001007042E+02  0.44961800044E+02  0.12088454521E+03  0.89158315216E+02 0.  0.
        -11    1    3    3    0    0  0.42348827061E+02  0.62353095644E+02  0.86918089390E+02  0.11504818970E+03  0.00000000000E+00 0.  1.
         12    1    3    3    0    0  0.19573015235E+02 -0.20025371662E+02  0.44442622297E+01  0.28352599570E+02  0.00000000000E+00 0. -1.
        -13    1    4    4    0    0  0.25618917480E+02 -0.76791629396E+02  0.30028981329E+02  0.86342475050E+02  0.00000000000E+00 0.  1.
         13    1    4    4    0    0 -0.29881273317E+02  0.87906223533E+01  0.14932818715E+02  0.34542070163E+02  0.00000000000E+00 0. -1.
         -2    1    1    2    0  502 -0.57659486459E+02  0.25673283061E+02  0.20644337737E+02  0.66407247514E+02  0.00000000000E+00 0.  1.
<scales pt_clust_5="13000.00000" pt_clust_6="13000.00000" pt_clust_7="13000.00000" pt_clust_8="13000.00000" pt_clust_9="13000.00000"></scales>
<clustering>
<clus scale="   81.183">  5  6 -1 -1</clus>
<clus scale="   89.158">  7  8 -1 -1</clus>
<clus scale="   63.117">  7  9 -1 -1</clus>
<clus scale="  110.529">  1  5  2 -1</clus>
<clus scale="  175.425">  2  5  1 -1</clus>
</clustering>
</event>
<event>
 9    2  0.3707658E-005  0.1911062E+03  0.7546771E-02  0.1194119E+00
          4   -1    0    0  502    0 -0.00000000000E+00  0.00000000000E+00  0.87280249613E+03  0.87280249613E+03  0.00000000000E+00 0. -1.
         21   -1    0    0  501  502  0.00000000000E+00 -0.00000000000E+00 -0.21582725441E+02  0.21582725441E+02  0.00000000000E+00 0. -1.
         24    2    1    2    0    0  0.23498058648E+02  0.45057598091E+01  0.24909246213E+03  0.26265833194E+03  0.79811553168E+02 0.  0.
         23    2    1    2    0    0 -0.63971993342E+02 -0.51083253559E+02  0.31123860527E+03  0.33436542605E+03  0.90713031068E+02 0.  0.
        -13    1    3    3    0    0 -0.14614735281E+02  0.30737939689E+02  0.72280252861E+02  0.79892717924E+02  0.00000000000E+00 0.  1.
         14    1    3    3    0    0  0.38112793929E+02 -0.26232179880E+02  0.17681220927E+03  0.18276561402E+03  0.00000000000E+00 0. -1.
        -11    1    4    4    0    0  0.99055861360E+01 -0.47156316417E+02  0.11952090302E+03  0.12886847975E+03  0.00000000000E+00 0.  1.
         11    1    4    4    0    0 -0.73877579478E+02 -0.39269371417E+01  0.19171770225E+03  0.20549694630E+03  0.00000000000E+00 0. -1.
          3    1    1    2  501    0  0.40473934695E+02  0.46577493750E+02  0.29088870330E+03  0.29736146358E+03  0.00000000000E+00 0. -1.
<scales pt_clust_5="13000.00000" pt_clust_6="13000.00000" pt_clust_7="13000.00000" pt_clust_8="13000.00000" pt_clust_9="13000.00000"></scales>
<clustering>
<clus scale="   79.812">  5  6 -1 -1</clus>
<clus scale="   83.321">  1  5  2 -1</clus>
<clus scale="   90.713">  7  8 -1 -1</clus>
<clus scale="   71.026">  7  9 -1 -1</clus>
<clus scale="  191.106">  2  5  1 -1</clus>
</clustering>
</event>
<event>
 9    2  0.3707658E-005  0.6759131E+03  0.7546771E-02  0.1026070E+00
          2   -1    0    0  502    0 -0.00000000000E+00  0.00000000000E+00  0.24404964652E+03  0.24404964652E+03  0.00000000000E+00 0. -1.
         21   -1    0    0  501  502  0.00000000000E+00 -0.00000000000E+00 -0.74008048922E+03  0.74008048922E+03  0.00000000000E+00 0. -1.
         24    2    1    2    0    0 -0.24753783894E+02  0.11210285388E+03  0.98708806620E+01  0.13985821460E+03  0.79265921064E+02 0.  0.
         23    2    1    2    0    0 -0.61611535955E+01  0.19332485096E+02  0.14953919233E+03  0.17506808399E+03  0.88742093707E+02 0.  0.
        -13    1    3    3    0    0  0.21003142615E+02  0.49757931459E+02  0.27400466199E+02  0.60562111016E+02  0.00000000000E+00 0.  1.
         14    1    3    3    0    0 -0.45756926509E+02  0.62344922418E+02 -0.17529585537E+02  0.79296103586E+02  0.00000000000E+00 0. -1.
        -11    1    4    4    0    0 -0.36652825982E+02  0.19055079849E+02  0.13520302487E+03  0.14137320699E+03  0.00000000000E+00 0. -1.
         11    1    4    4    0    0  0.30491672386E+02  0.27740524639E+00  0.14336167460E+02  0.33694877000E+02  0.00000000000E+00 0.  1.
          1    1    1    2  501    0  0.30914937489E+02 -0.13143533897E+03 -0.65544091569E+03  0.66920383715E+03  0.00000000000E+00 0. -1.
<scales pt_clust_5="13000.00000" pt_clust_6="13000.00000" pt_clust_7="13000.00000" pt_clust_8="13000.00000" pt_clust_9="13000.00000"></scales>
<clustering>
<clus scale="   79.266">  5  6 -1 -1</clus>
<clus scale="   88.742">  7  8 -1 -1</clus>
<clus scale="  135.022">  7  9 -1 -1</clus>
<clus scale="  139.509">  1  5  2 -1</clus>
<clus scale="  675.913">  2  5  1 -1</clus>
</clustering>
</event>
<event>
 9    2  0.3707658E-005  0.1780561E+03  0.7546771E-02  0.1194358E+00
          2   -1    0    0  502    0 -0.00000000000E+00  0.00000000000E+00  0.71950493681E+03  0.71950493681E+03  0.00000000000E+00 0. -1.
         21   -1    0    0  501  502  0.00000000000E+00 -0.00000000000E+00 -0.36477683936E+02  0.36477683936E+02  0.00000000000E+00 0.  1.
         24    2    1    2    0    0 -0.13742248494E+02  0.63808576967E+02  0.45645763678E+03  0.46781990284E+03  0.79003186152E+02 0.  0.
         23    2    1    2    0    0  0.10586980199E+01 -0.32765313210E+02  0.52975078762E+02  0.11135881505E+03  0.92302438365E+02 0.  0.
        -13    1    3    3    0    0 -0.17318470876E+02 -0.14919244675E+02  0.12921701581E+03  0.13122328479E+03  0.00000000000E+00 0.  1.
         14    1    3    3    0    0  0.35762223821E+01  0.78727821641E+02  0.32724062097E+03  0.33659661805E+03  0.00000000000E+00 0. -1.
        -13    1    4    4    0    0  0.25423258324E+02  0.22264302357E+02  0.34761505676E+02  0.48480960181E+02  0.00000000000E+00 0. -1.
         13    1    4    4    0    0 -0.24364560304E+02 -0.55029615567E+02  0.18213573087E+02  0.62877854869E+02  0.00000000000E+00 0.  1.
          1    1    1    2  501    0  0.12683550474E+02 -0.31043263756E+02  0.17359453733E+03  0.17680390286E+03  0.00000000000E+00 0. -1.
<scales pt_clust_5="13000.00000" pt_clust_6="13000.00000" pt_clust_7="13000.00000" pt_clust_8="13000.00000" pt_clust_9="13000.00000"></scales>
<clustering>
<clus scale="   79.003">  5  6 -1 -1</clus>
<clus scale="   92.302">  7  8 -1 -1</clus>
<clus scale="   33.534">  7  9 -1 -1</clus>
<clus scale="  102.479">  1  5  2 -1</clus>
<clus scale="  178.056">  2  5  1 -1</clus>
</clustering>
</event>
<event>
 9    2  0.3707658E-005  0.3067973E+03  0.7546771E-02  0.1129446E+00
          4   -1    0    0  502    0 -0.00000000000E+00  0.00000000000E+00  0.15750321834E+03  0.15750321834E+03  0.00000000000E+00 0. -1.
         21   -1    0    0  501  502  0.00000000000E+00 -0.00000000000E+00 -0.27471459373E+03  0.27471459373E+03  0.00000000000E+00 0. -1.
         24    2    1    2    0    0  0.37405170172E+02 -0.17102856435E+02  0.25346745516E+02  0.93917099881E+02  0.80537629019E+02 0.  0.
         23    2    1    2    0    0  0.41931789294E+02  0.35060438324E+02  0.58325752198E+02  0.12157240679E+03  0.91599385555E+02 0.  0.
        -13    1    3    3    0    0  0.13560625898E+01 -0.40733009375E+02  0.29937831765E+02  0.50569662143E+02  0.00000000000E+00 0.  1.
         14    1    3    3    0    0  0.36049107583E+02  0.23630152940E+02 -0.45910862492E+01  0.43347437738E+02  0.00000000000E+00 0. -1.
        -13    1    4    4    0    0  0.67746515268E+02  0.84228687699E+01  0.28514556753E+02  0.73983883353E+02  0.00000000000E+00 0. -1.
         13    1    4    4    0    0 -0.25814725974E+02  0.26637569554E+02  0.29811195446E+02  0.47588523435E+02  0.00000000000E+00 0.  1.
          3    1    1    2  501    0 -0.79336959466E+02 -0.17957581889E+02 -0.20088387310E+03  0.21672830539E+03  0.00000000000E+00 0. -1.
<scales pt_clust_5="13000.00000" pt_clust_6="13000.00000" pt_clust_7="13000.00000" pt_clust_8="13000.00000" pt_clust_9="13000.00000"></scales>
<clustering>
<clus scale="   80.538">  5  6 -1 -1</clus>
<clus scale="   90.432">  1  5  2 -1</clus>
<clus scale="   91.599">  7  8 -1 -1</clus>
<clus scale="   78.722">  7  9 -1 -1</clus>
<clus scale="  306.797">  2  5  1 -1</clus>
</clustering>
</event>
<event>
 9    2  0.3707658E-005  0.3287854E+03  0.7546771E-02  0.1129992E+00
         -1   -1    0    0    0  501 -0.00000000000E+00  0.00000000000E+00  0.11612860748E+03  0.11612860748E+03  0.00000000000E+00 0.  1.
         21   -1    0    0  501  502  0.00000000000E+00 -0.00000000000E+00 -0.34667912818E+03  0.34667912818E+03  0.00000000000E+00 0.  1.
         24    2    1    2    0    0 -0.87828984309E+01 -0.83257913393E+01 -0.40127065983E+02  0.82859102461E+02  0.71477208465E+02 0.  0.
         23    2    1    2    0    0 -0.29810534193E+02 -0.28235584313E+02  0.72971875401E+02  0.11124193965E+03  0.73239049468E+02 0.  0.
        -13    1    3    3    0    0 -0.33059285724E+02 -0.13894671997E+02 -0.44937139414E+02  0.57491954056E+02  0.00000000000E+00 0.  1.
         14    1    3    3    0    0  0.24276387294E+02  0.55688806576E+01  0.48100734304E+01  0.25367148405E+02  0.00000000000E+00 0. -1.
        -11    1    4    4    0    0 -0.87082122616E+01  0.24167232550E+02  0.33991393251E+02  0.42606371649E+02  0.00000000000E+00 0. -1.
         11    1    4    4    0    0 -0.21102321931E+02 -0.52402816863E+02  0.38980482150E+02  0.68635568000E+02  0.00000000000E+00 0.  1.
         -2    1    1    2    0  502  0.38593432624E+02  0.36561375652E+02 -0.26339533011E+03  0.26870669355E+03  0.00000000000E+00 0.  1.
<scales pt_clust_5="13000.00000" pt_clust_6="13000.00000" pt_clust_7="13000.00000" pt_clust_8="13000.00000" pt_clust_9="13000.00000"></scales>
<clustering>
<clus scale="   71.477">  5  6 -1 -1</clus>
<clus scale="   72.494">  1  5  2 -1</clus>
<clus scale="   73.239">  7  8 -1 -1</clus>
<clus scale="   52.823">  7  9 -1 -1</clus>
<clus scale="  328.785">  2  5  1 -1</clus>
</clustering>
</event>
<event>
 9    2  0.3707658E-005  0.3818345E+03  0.7546771E-02  0.1073649E+00
         21   -1    0    0  501  502  0.00000000000E+00  0.00000000000E+00  0.52606464275E+03  0.52606464275E+03  0.00000000000E+00 0.  1.
         -1   -1    0    0    0  501 -0.00000000000E+00 -0.00000000000E+00 -0.20527964323E+03  0.20527964323E+03  0.00000000000E+00 0.  1.
         24    2    1    2    0    0 -0.61652110476E+02  0.17105145186E+03 -0.43524494872E+02  0.20359530140E+03  0.80604486152E+02 0.  0.
         23    2    1    2    0    0  0.12592406974E+03  0.19494044766E+02  0.25345513153E+03  0.29812502939E+03  0.91663189623E+02 0.  0.
        -11    1    3    3    0    0 -0.87350584080E+01  0.12266831577E+03 -0.71293146846E+01  0.12318540525E+03  0.00000000000E+00 0.  1.
         12    1    3    3    0    0 -0.52917052068E+02  0.48383136091E+02 -0.36395180187E+02  0.80409896148E+02  0.00000000000E+00 0. -1.
        -11    1    4    4    0    0  0.10427963222E+02  0.38402767236E+02  0.58922582697E+02  0.71101235573E+02  0.00000000000E+00 0. -1.
         11    1    4    4    0    0  0.11549610651E+03 -0.18908722469E+02  0.19453254883E+03  0.22702379382E+03  0.00000000000E+00 0.  1.
         -2    1    1    2    0  502 -0.64271959260E+02 -0.19054549662E+03  0.11085436287E+03  0.22962395519E+03  0.00000000000E+00 0.  1.
<scales pt_clust_5="13000.00000" pt_clust_6="13000.00000" pt_clust_7="13000.00000" pt_clust_8="13000.00000" pt_clust_9="13000.00000"></scales>
<clustering>
<clus scale="   80.604">  5  6 -1 -1</clus>
<clus scale="   91.663">  7  8 -1 -1</clus>
<clus scale="  198.889">  2  5  1 -1</clus>
<clus scale="  127.614">  7  9 -1 -1</clus>
<clus scale="  381.834">  1  5  2 -1</clus>
</clustering>
</event>
<event>
 9    2  0.3707658E-005  0.2782573E+03  0.7546771E-02  0.1119125E+00
         21   -1    0    0  501  502  0.00000000000E+00  0.00000000000E+00  0.19431912068E+03  0.19431912068E+03  0.00000000000E+00 0. -1.
          2   -1    0    0  502    0 -0.00000000000E+00 -0.00000000000E+00 -0.27304361259E+03  0.27304361259E+03  0.00000000000E+00 0. -1.
         24    2    1    2    0    0  0.10678803869E+03 -0.82190852659E+02  0.44866546851E+02  0.16289291128E+03  0.79762598077E+02 0.  0.
         23    2    1    2    0    0 -0.18385958052E+02  0.67475827185E+02  0.34526721804E+02  0.12272085764E+03  0.94748528604E+02 0.  0.
        -13    1    3    3    0    0  0.55244993336E+01 -0.30864692234E+02  0.37846429639E+02  0.49147752299E+02  0.00000000000E+00 0.  1.
         14    1    3    3    0    0  0.10126353935E+03 -0.51326160425E+02  0.70201172116E+01  0.11374515898E+03  0.00000000000E+00 0. -1.
        -11    1    4    4    0    0  0.27455629747E+02 -0.27176287531E+01 -0.79846580689E+01  0.28721975477E+02  0.00000000000E+00 0. -1.
         11    1    4    4    0    0 -0.45841587799E+02  0.70193455938E+02  0.42511379873E+02  0.93998882159E+02  0.00000000000E+00 0.  1.
          1    1    1    2  501    0 -0.88402080634E+02  0.14715025474E+02 -0.15811776057E+03  0.18174896435E+03  0.00000000000E+00 0. -1.
<scales pt_clust_5="13000.00000" pt_clust_6="13000.00000" pt_clust_7="13000.00000" pt_clust_8="13000.00000" pt_clust_9="13000.00000"></scales>
<clustering>
<clus scale="   79.763">  5  6 -1 -1</clus>
<clus scale="   94.749">  7  8 -1 -1</clus>
<clus scale="   89.618">  7  9 -1 -1</clus>
<clus scale="  156.592">  2  5  1 -1</clus>
<clus scale="  278.257">  1  5  2 -1</clus>
</clustering>
</event>
<event>
 9    2  0.3810961E-005  0.4175495E+03  0.7546771E-02  0.1062076E+00
         21   -1    0    0  501  502  0.00000000000E+00  0.00000000000E+00  0.16782974841E+03  0.16782974841E+03  0.00000000000E+00 0.  1.
         -3   -1    0    0    0  501 -0.00000000000E+00 -0.00000000000E+00 -0.59587510394E+03  0.59587510394E+03  0.00000000000E+00 0.  1.
         24    2    1    2    0    0 -0.15047002163E+03 -0.12321518824E+03 -0.19235025023E+03  0.28422621674E+03  0.77218608473E+02 0.  0.
         23    2    1    2    0    0 -0.45154281621E+02 -0.71285002354E+02 -0.14521228845E+03  0.18915755077E+03  0.87025913314E+02 0.  0.
        -11    1    3    3    0    0 -0.85572464930E+02 -0.11230368739E+03 -0.11105226652E+03  0.17963120790E+03  0.00000000000E+00 0.  1.
         12    1    3    3    0    0 -0.64897556700E+02 -0.10911500851E+02 -0.81297983716E+02  0.10459500883E+03  0.00000000000E+00 0. -1.
        -11    1    4    4    0    0 -0.28292210335E+02  0.11037858155E+02 -0.70311461549E+02  0.76589719307E+02  0.00000000000E+00 0.  1.
         11    1    4    4    0    0 -0.16862071287E+02 -0.82322860509E+02 -0.74900826897E+02  0.11256783146E+03  0.00000000000E+00 0. -1.
         -4    1    1    2    0  502  0.19562430325E+03  0.19450019059E+03 -0.90482816847E+02  0.29032108485E+03  0.00000000000E+00 0.  1.
<scales pt_clust_5="13000.00000" pt_clust_6="13000.00000" pt_clust_7="13000.00000" pt_clust_8="13000.00000" pt_clust_9="13000.00000"></scales>
<clustering>
<clus scale="   77.219">  5  6 -1 -1</clus>
<clus scale="   87.026">  7  8 -1 -1</clus>
<clus scale="  209.251">  2  5  1 -1</clus>
<clus scale="  173.074">  7  9 -1 -1</clus>
<clus scale="  417.549">  1  5  2 -1</clus>
</clustering>
</event>
<event>
 9    2  0.3707658E-005  0.1926383E+03  0.7546771E-02  0.1178966E+00
         -1   -1    0    0    0  501 -0.00000000000E+00  0.00000000000E+00  0.16867799548E+03  0.16867799548E+03  0.00000000000E+00 0.  1.
         21   -1    0    0  501  502  0.00000000000E+00 -0.00000000000E+00 -0.36237024602E+03  0.36237024602E+03  0.00000000000E+00 0.  1.
         24    2    1    2    0    0 -0.39809162035E+02 -0.72219899378E+02  0.11838788343E+03  0.16430101253E+03  0.78604379821E+02 0.  0.
         23    2    1    2    0    0 -0.35648324145E+02  0.15949326617E+02 -0.17198928775E+03  0.19797029105E+03  0.89926286514E+02 0.  0.
        -13    1    3    3    0    0 -0.61989091704E+02 -0.51883731276E+02  0.10162765010E+03  0.12985664529E+03  0.00000000000E+00 0.  1.
         14    1    3    3    0    0  0.22179929669E+02 -0.20336168102E+02  0.16760233331E+02  0.34444367239E+02  0.00000000000E+00 0. -1.
        -13    1    4    4    0    0  0.28414699801E+02 -0.86132711989E+00 -0.30201805042E+02  0.41476331528E+02  0.00000000000E+00 0. -1.
         13    1    4    4    0    0 -0.64063023947E+02  0.16810653737E+02 -0.14178748270E+03  0.15649395952E+03  0.00000000000E+00 0.  1.
         -2    1    1    2    0  502  0.75457486180E+02  0.56270572762E+02 -0.14009084622E+03  0.16877693792E+03  0.00000000000E+00 0.  1.
<scales pt_clust_5="13000.00000" pt_clust_6="13000.00000" pt_clust_7="13000.00000" pt_clust_8="13000.00000" pt_clust_9="13000.00000"></scales>
<clustering>
<clus scale="   78.604">  5  6 -1 -1</clus>
<clus scale="   89.926">  7  8 -1 -1</clus>
<clus scale="   94.129">  7  9 -1 -1</clus>
<clus scale="  113.926">  1  5  2 -1</clus>
<clus scale="  192.638">  2  5  1 -1</clus>
</clustering>
</event>
<event>
 9    2  0.3707658E-005  0.1629187E+03  0.7546771E-02  0.1219337E+00
         21   -1    0    0  501  502  0.00000000000E+00  0.00000000000E+00  0.34248158648E+02  0.34248158648E+02  0.00000000000E+00 0.  1.
         -1   -1    0    0    0  501 -0.00000000000E+00 -0.00000000000E+00 -0.43879856521E+03  0.43879856521E+03  0.00000000000E+00 0.  1.
         24    2    1    2    0    0  0.86592798136E+01  0.13378544145E+02 -0.93578905422E+02  0.12198293714E+03  0.76608464573E+02 0.  0.
         23    2    1    2    0    0 -0.43078315031E+02  0.36808988668E+02 -0.21305114024E+03  0.23577347700E+03  0.83592471105E+02 0.  0.
        -13    1    3    3    0    0  0.41693943942E+02  0.40752058073E+01 -0.64958253554E+02  0.77295323071E+02  0.00000000000E+00 0.  1.
         14    1    3    3    0    0 -0.33034664128E+02  0.93033383372E+01 -0.28620651868E+02  0.44687614074E+02  0.00000000000E+00 0. -1.
        -11    1    4    4    0    0 -0.51238471544E+02 -0.22424091646E+01 -0.67029412982E+02  0.84399950057E+02  0.00000000000E+00 0.  1.
         11    1    4    4    0    0  0.81601565129E+01  0.39051397833E+02 -0.14602172726E+03  0.15137352694E+03  0.00000000000E+00 0. -1.
         -2    1    1    2    0  502  0.34419035217E+02 -0.50187532813E+02 -0.97920360895E+02  0.11529030971E+03  0.00000000000E+00 0.  1.
<scales pt_clust_5="13000.00000" pt_clust_6="13000.00000" pt_clust_7="13000.00000" pt_clust_8="13000.00000" pt_clust_9="13000.00000"></scales>
<clustering>
<clus scale="   76.608">  5  6 -1 -1</clus>
<clus scale="   78.249">  2  5  1 -1</clus>
<clus scale="   83.592">  7  8 -1 -1</clus>
<clus scale="   59.070">  7  9 -1 -1</clus>
<clus scale="  162.919">  1  5  2 -1</clus>
</clustering>
</event>
<event>
 9    2  0.3707658E-005  0.2998929E+03  0.7546771E-02  0.1103574E+00
          2   -1    0    0  502    0 -0.00000000000E+00  0.00000000000E+00  0.60376553092E+03  0.60376553092E+03  0.00000000000E+00 0. -1.
         21   -1    0    0  501  502  0.00000000000E+00 -0.00000000000E+00 -0.98018145543E+02  0.98018145543E+02  0.00000000000E+00 0. -1.
         24    2    1    2    0    0  0.14813929561E+03 -0.77374679910E+02  0.21485440641E+03  0.28398654042E+03  0.80955834809E+02 0.  0.
         23    2    1    2    0    0 -0.12297567453E+03  0.15148918472E+03  0.17825781163E+03  0.28063719812E+03  0.94389617819E+02 0.  0.
        -11    1    3    3    0    0  0.24645774474E+02 -0.52254737518E+02  0.87225219441E+02  0.10462414014E+03  0.00000000000E+00 0.  1.
         12    1    3    3    0    0  0.12349352114E+03 -0.25119942392E+02  0.12762918696E+03  0.17936240028E+03  0.00000000000E+00 0. -1.
        -11    1    4    4    0    0 -0.21330232959E-01  0.67629007725E+02  0.49020281392E+02  0.83526469628E+02  0.00000000000E+00 0.  1.
         11    1    4    4    0    0 -0.12295434429E+03  0.83860176992E+02  0.12923753023E+03  0.19711072849E+03  0.00000000000E+00 0. -1.
          1    1    1    2  501    0 -0.25163621086E+02 -0.74114504807E+02  0.11263516734E+03  0.13715993792E+03  0.00000000000E+00 0. -1.
<scales pt_clust_5="13000.00000" pt_clust_6="13000.00000" pt_clust_7="13000.00000" pt_clust_8="13000.00000" pt_clust_9="13000.00000"></scales>
<clustering>
<clus scale="   80.956">  5  6 -1 -1</clus>
<clus scale="   94.390">  7  8 -1 -1</clus>
<clus scale="   78.270">  7  9 -1 -1</clus>
<clus scale="  185.704">  1  5  2 -1</clus>
<clus scale="  299.893">  2  5  1 -1</clus>
</clustering>
</event>
<event>
 9    2  0.3707658E-005  0.1199319E+04  0.7546771E-02  0.9683579E-01
         21   -1    0    0  501  502  0.00000000000E+00  0.00000000000E+00  0.18611258853E+03  0.18611258853E+03  0.00000000000E+00 0.  1.
          2   -1    0    0  502    0 -0.00000000000E+00 -0.00000000000E+00 -0.24692581979E+04  0.24692581979E+04  0.00000000000E+00 0. -1.
         24    2    1    2    0    0  0.83727982863E+01  0.13334623940E+03 -0.29039126409E+03  0.32955141466E+03  0.80160622091E+02 0.  0.
         23    2    1    2    0    0 -0.46168447951E+03  0.24752901139E+03 -0.56478406178E+03  0.77996796636E+03  0.12225310638E+03 0.  0.
        -11    1    3    3    0    0 -0.17367905705E+02  0.12831145425E+03 -0.24579225594E+03  0.27781163856E+03  0.00000000000E+00 0.  1.
         12    1    3    3    0    0  0.25740703991E+02  0.50347851584E+01 -0.44599008153E+02  0.51739776109E+02  0.00000000000E+00 0. -1.
        -13    1    4    4    0    0 -0.39214831750E+03  0.22145918777E+03 -0.41330892607E+03  0.61126814341E+03  0.00000000000E+00 0.  1.
         13    1    4    4    0    0 -0.69536162003E+02  0.26069823615E+02 -0.15147513570E+03  0.16869982296E+03  0.00000000000E+00 0. -1.
          1    1    1    2  501    0  0.45331168122E+03 -0.38087525079E+03 -0.14279702835E+04  0.15458514054E+04  0.00000000000E+00 0. -1.
<scales pt_clust_5="13000.00000" pt_clust_6="13000.00000" pt_clust_7="13000.00000" pt_clust_8="13000.00000" pt_clust_9="13000.00000"></scales>
<clustering>
<clus scale="   80.161">  5  6 -1 -1</clus>
<clus scale="  122.253">  7  8 -1 -1</clus>
<clus scale="  155.811">  2  5  1 -1</clus>
<clus scale="  542.497">  7  9 -1 -1</clus>
<clus scale=" 1199.319">  1  5  2 -1</clus>
</clustering>
</event>
<event>
 9    2  0.3707658E-005  0.4539061E+03  0.7546771E-02  0.1077406E+00
          2   -1    0    0  502    0 -0.00000000000E+00  0.00000000000E+00  0.72283157399E+03  0.72283157399E+03  0.00000000000E+00 0. -1.
         21   -1    0    0  501  502  0.00000000000E+00 -0.00000000000E+00 -0.11688137784E+03  0.11688137784E+03  0.00000000000E+00 0. -1.
         24    2    1    2    0    0 -0.15534928214E+02 -0.44265284767E+02  0.21720126216E+03  0.24208722474E+03  0.96068135551E+02 0.  0.
         23    2    1    2    0    0  0.38216526680E+02 -0.18295617798E+02 -0.77722939818E+02  0.12643114893E+03  0.90270413223E+02 0.  0.
        -13    1    3    3    0    0  0.16420392715E+02 -0.66138229684E+02  0.14166042170E+03  0.15719914058E+03  0.00000000000E+00 0.  1.
         14    1    3    3    0    0 -0.31955320929E+02  0.21872944917E+02  0.75540840463E+02  0.84888084163E+02  0.00000000000E+00 0. -1.
        -13    1    4    4    0    0  0.25839484579E+02 -0.38571746727E+02 -0.13473052620E+01  0.46446462086E+02  0.00000000000E+00 0.  1.
         13    1    4    4    0    0  0.12377042101E+02  0.20276128928E+02 -0.76375634556E+02  0.79984686843E+02  0.00000000000E+00 0. -1.
          1    1    1    2  501    0 -0.22681598465E+02  0.62560902565E+02  0.46647187381E+03  0.47119457816E+03  0.00000000000E+00 0. -1.
<scales pt_clust_5="13000.00000" pt_clust_6="13000.00000" pt_clust_7="13000.00000" pt_clust_8="13000.00000" pt_clust_9="13000.00000"></scales>
<clustering>
<clus scale="   90.270">  7  8 -1 -1</clus>
<clus scale="   66.546">  7  9 -1 -1</clus>
<clus scale="   96.068">  5  6 -1 -1</clus>
<clus scale="  106.910">  1  5  2 -1</clus>
<clus scale="  453.906">  2  5  1 -1</clus>
</clustering>
</event>
<event>
 9    2  0.3707658E-005  0.5072537E+03  0.7546771E-02  0.1073167E+00
          2   -1    0    0  502    0 -0.00000000000E+00  0.00000000000E+00  0.15445799632E+04  0.15445799632E+04  0.00000000000E+00 0. -1.
         21   -1    0    0  501  502  0.00000000000E+00 -0.00000000000E+00 -0.67100897474E+02  0.67100897474E+02  0.00000000000E+00 0. -1.
         24    2    1    2    0    0 -0.14041013081E+02  0.30218543822E+02  0.53034158220E+03  0.53726208211E+03  0.79234087489E+02 0.  0.
         23    2    1    2    0    0 -0.20726889960E+03 -0.11801966657E+03  0.61521020553E+03  0.66593030568E+03  0.89947410111E+02 0.  0.
        -13    1    3    3    0    0  0.20768736287E+02 -0.16758118075E+02  0.13404903328E+03  0.13667961901E+03  0.00000000000E+00 0.  1.
         14    1    3    3    0    0 -0.34809749368E+02  0.46976661898E+02  0.39629254892E+03  0.40058246310E+03  0.00000000000E+00 0. -1.
        -13    1    4    4    0    0 -0.66613627283E+02 -0.32289536300E+02  0.31413630143E+03  0.32274077117E+03  0.00000000000E+00 0. -1.
         13    1    4    4    0    0 -0.14065527232E+03 -0.85730130272E+02  0.30107390410E+03  0.34318953451E+03  0.00000000000E+00 0.  1.
          1    1    1    2  501    0  0.22130991268E+03  0.87801122751E+02  0.33192727800E+03  0.40848847289E+03  0.00000000000E+00 0. -1.
<scales pt_clust_5="13000.00000" pt_clust_6="13000.00000" pt_clust_7="13000.00000" pt_clust_8="13000.00000" pt_clust_9="13000.00000"></scales>
<clustering>
<clus scale="   79.234">  5  6 -1 -1</clus>
<clus scale="   85.956">  1  5  2 -1</clus>
<clus scale="   89.947">  7  8 -1 -1</clus>
<clus scale="  237.704">  7  9 -1 -1</clus>
<clus scale="  507.254">  2  5  1 -1</clus>
</clustering>
</event>
<event>
 9    2  0.3707658E-005  0.5467146E+03  0.7546771E-02  0.1029311E+00
          2   -1    0    0  502    0 -0.00000000000E+00  0.00000000000E+00  0.27963381279E+03  0.27963381279E+03  0.00000000000E+00 0. -1.
         21   -1    0    0  501  502  0.00000000000E+00 -0.00000000000E+00 -0.64106647921E+03  0.64106647921E+03  0.00000000000E+00 0. -1.
         24    2    1    2    0    0 -0.21739446897E+03  0.61473841556E+02  0.39686767375E+02  0.24261942155E+03  0.79055397523E+02 0.  0.
         23    2    1    2    0    0 -0.69688228208E+02  0.11680490280E+03 -0.14728616153E+02  0.16476064908E+03  0.91811245947E+02 0.  0.
        -11    1    3    3    0    0 -0.66885084471E+02  0.34862587159E+02  0.48246258730E+02  0.89536115560E+02  0.00000000000E+00 0.  1.
         12    1    3    3    0    0 -0.15050938450E+03  0.26611254397E+02 -0.85594913546E+01  0.15308330599E+03  0.00000000000E+00 0. -1.
        -13    1    4    4    0    0 -0.21128874684E+02  0.83741108901E+02  0.29457711863E+02  0.91251079191E+02  0.00000000000E+00 0. -1.
         13    1    4    4    0    0 -0.48559353525E+02  0.33063793901E+02 -0.44186328015E+02  0.73509569890E+02  0.00000000000E+00 0.  1.
          1    1    1    2  501    0  0.28708269718E+03 -0.17827874436E+03 -0.38639081763E+03  0.51332022136E+03  0.00000000000E+00 0. -1.
<scales pt_clust_5="13000.00000" pt_clust_6="13000.00000" pt_clust_7="13000.00000" pt_clust_8="13000.00000" pt_clust_9="13000.00000"></scales>
<clustering>
<clus scale="   79.055">  5  6 -1 -1</clus>
<clus scale="   91.811">  7  8 -1 -1</clus>
<clus scale="  239.352">  1  5  2 -1</clus>
<clus scale="  240.146">  7  9 -1 -1</clus>
<clus scale="  546.715">  2  5  1 -1</clus>
</clustering>
</event>
<event>
 9    2  0.3707658E-005  0.5220839E+03  0.7546771E-02  0.1057947E+00
          2   -1    0    0  502    0 -0.00000000000E+00  0.00000000000E+00  0.23482065592E+03  0.23482065592E+03  0.00000000000E+00 0. -1.
         21   -1    0    0  501  502  0.00000000000E+00 -0.00000000000E+00 -0.45917863012E+03  0.45917863012E+03  0.00000000000E+00 0. -1.
         24    2    1    2    0    0  0.72254463684E+02 -0.52657446868E+02  0.12290276158E+02  0.12078553174E+03  0.80278138721E+02 0.  0.
         23    2    1    2    0    0  0.21011137173E+03  0.30400569730E+02 -0.15820958106E+03  0.27931163041E+03  0.88959160125E+02 0.  0.
        -13    1    3    3    0    0  0.22000825751E+02 -0.37990069025E+02 -0.30263738132E+02  0.53321435877E+02  0.00000000000E+00 0.  1.
         14    1    3    3    0    0  0.50253637933E+02 -0.14667377843E+02  0.42554014289E+02  0.67464095862E+02  0.00000000000E+00 0. -1.
        -11    1    4    4    0    0  0.81231995840E+02  0.38323761697E+02 -0.23777433277E+02  0.92912400636E+02  0.00000000000E+00 0.  1.
         11    1    4    4    0    0  0.12887937589E+03 -0.79231919670E+01 -0.13443214779E+03  0.18639922977E+03  0.00000000000E+00 0. -1.
          1    1    1    2  501    0 -0.28236583542E+03  0.22256877138E+02 -0.78438669290E+02  0.29390212389E+03  0.00000000000E+00 0. -1.
<scales pt_clust_5="13000.00000" pt_clust_6="13000.00000" pt_clust_7="13000.00000" pt_clust_8="13000.00000" pt_clust_9="13000.00000"></scales>
<clustering>
<clus scale="   80.278">  5  6 -1 -1</clus>
<clus scale="   88.959">  7  8 -1 -1</clus>
<clus scale="  120.159">  1  5  2 -1</clus>
<clus scale="  236.388">  7  9 -1 -1</clus>
<clus scale="  522.084">  2  5  1 -1</clus>
</clustering>
</event>
<event>
 9    2  0.3707658E-005  0.1801050E+03  0.7546771E-02  0.1198671E+00
          2   -1    0    0  502    0 -0.00000000000E+00  0.00000000000E+00  0.16325048433E+04  0.16325048433E+04  0.00000000000E+00 0. -1.
         21   -1    0    0  501  502  0.00000000000E+00 -0.00000000000E+00 -0.15170823510E+02  0.15170823510E+02  0.00000000000E+00 0.  1.
         24    2    1    2    0    0 -0.48821558900E+02  0.13515959140E+02  0.10149695619E+04  0.10189621105E+04  0.74527480199E+02 0.  0.
         23    2    1    2    0    0  0.11546998819E+02  0.26670611179E+02  0.19607993723E+03  0.21874835657E+03  0.92514036965E+02 0.  0.
        -13    1    3    3    0    0 -0.58370840486E+01  0.26967686763E+02  0.13242623519E+03  0.13527023119E+03  0.00000000000E+00 0.  1.
         14    1    3    3    0    0 -0.42984474851E+02 -0.13451727623E+02  0.88254332674E+03  0.88369187935E+03  0.00000000000E+00 0. -1.
        -13    1    4    4    0    0  0.34905170827E+02 -0.12173200171E+02  0.33225827736E+02  0.49704259190E+02  0.00000000000E+00 0.  1.
         13    1    4    4    0    0 -0.23358172008E+02  0.38843811350E+02  0.16285410950E+03  0.16904409738E+03  0.00000000000E+00 0. -1.
          1    1    1    2  501    0  0.37274560081E+02 -0.40186570319E+02  0.40628452060E+03  0.40996519967E+03  0.00000000000E+00 0. -1.
<scales pt_clust_5="13000.00000" pt_clust_6="13000.00000" pt_clust_7="13000.00000" pt_clust_8="13000.00000" pt_clust_9="13000.00000"></scales>
<clustering>
<clus scale="   74.527">  5  6 -1 -1</clus>
<clus scale="   90.114">  1  5  2 -1</clus>
<clus scale="   92.514">  7  8 -1 -1</clus>
<clus scale="   31.608">  7  9 -1 -1</clus>
<clus scale="  180.105">  2  5  1 -1</clus>
</clustering>
</event>
<event>
 9    2  0.3707658E-005  0.1715807E+03  0.7546771E-02  0.1202920E+00
         21   -1    0    0  501  502  0.00000000000E+00  0.00000000000E+00  0.63780444002E+03  0.63780444002E+03  0.00000000000E+00 0. -1.
          2   -1    0    0  502    0 -0.00000000000E+00 -0.00000000000E+00 -0.73821161782E+02  0.73821161782E+02  0.00000000000E+00 0. -1.
         24    2    1    2    0    0  0.15165717020E+02 -0.50102897581E+02 -0.24899541811E+02  0.98255488344E+02  0.79333816804E+02 0.  0.
         23    2    1    2    0    0 -0.31396266101E+02  0.21499699246E+02  0.56184977074E+03  0.57079829844E+03  0.93207135108E+02 0.  0.
        -11    1    3    3    0    0 -0.16764894152E+02  0.11681446551E+02  0.71904749249E+01  0.21661505005E+02  0.00000000000E+00 0.  1.
         12    1    3    3    0    0  0.31930611172E+02 -0.61784344132E+02 -0.32090016736E+02  0.76593983339E+02  0.00000000000E+00 0. -1.
        -11    1    4    4    0    0  0.16380356321E+02 -0.27644439779E+02  0.17757314153E+03  0.18045706336E+03  0.00000000000E+00 0. -1.
         11    1    4    4    0    0 -0.47776622422E+02  0.49144139026E+02  0.38427662921E+03  0.39034123508E+03  0.00000000000E+00 0.  1.
          1    1    1    2  501    0  0.16230549081E+02  0.28603198334E+02  0.27033049307E+02  0.42571815010E+02  0.00000000000E+00 0. -1.
<scales pt_clust_5="13000.00000" pt_clust_6="13000.00000" pt_clust_7="13000.00000" pt_clust_8="13000.00000" pt_clust_9="13000.00000"></scales>
<clustering>
<clus scale="   79.334">  5  6 -1 -1</clus>
<clus scale="   93.207">  7  8 -1 -1</clus>
<clus scale="   32.887">  7  9 -1 -1</clus>
<clus scale="   95.048">  2  5  1 -1</clus>
<clus scale="  171.581">  1  5  2 -1</clus>
</clustering>
</event>
<event>
 9    2  0.3707658E-005  0.2460230E+03  0.7546771E-02  0.1157780E+00
         21   -1    0    0  501  502  0.00000000000E+00  0.00000000000E+00  0.39292054106E+02  0.39292054106E+02  0.00000000000E+00 0.  1.
          2   -1    0    0  502    0 -0.00000000000E+00 -0.00000000000E+00 -0.84104096147E+03  0.84104096147E+03  0.00000000000E+00 0. -1.
         24    2    1    2    0    0 -0.32663287473E+02 -0.20526525194E+02 -0.39568979369E+03  0.40555800621E+03  0.80116508795E+02 0.  0.
         23    2    1    2    0    0  0.14223613248E+02 -0.79904126668E+02 -0.18080059667E+03  0.22745388835E+03  0.11162183898E+03 0.  0.
        -11    1    3    3    0    0  0.46785440289E+01 -0.28997229303E+02 -0.51840275164E+02  0.59583069831E+02  0.00000000000E+00 0.  1.
         12    1    3    3    0    0 -0.37341831502E+02  0.84707041088E+01 -0.34384951853E+03  0.34597493637E+03  0.00000000000E+00 0. -1.
        -13    1    4    4    0    0 -0.23753410975E+02 -0.49331828613E+02 -0.18195021717E+02  0.57696730086E+02  0.00000000000E+00 0.  1.
         13    1    4    4    0    0  0.37977024223E+02 -0.30572298055E+02 -0.16260557495E+03  0.16975715826E+03  0.00000000000E+00 0. -1.
          1    1    1    2  501    0  0.18439674225E+02  0.10043065186E+03 -0.22525851701E+03  0.24732112102E+03  0.00000000000E+00 0. -1.
<scales pt_clust_5="13000.00000" pt_clust_6="13000.00000" pt_clust_7="13000.00000" pt_clust_8="13000.00000" pt_clust_9="13000.00000"></scales>
<clustering>
<clus scale="   80.117">  5  6 -1 -1</clus>
<clus scale="   88.921">  2  5  1 -1</clus>
<clus scale="  111.622">  7  8 -1 -1</clus>
<clus scale="   89.423">  7  9 -1 -1</clus>
<clus scale="  246.023">  1  5  2 -1</clus>
</clustering>
</event>
<event>
 9    2  0.3707658E-005  0.5106734E+03  0.7546771E-02  0.1054458E+00
         21   -1    0    0  501  502  0.00000000000E+00  0.00000000000E+00  0.33047453841E+02  0.33047453841E+02  0.00000000000E+00 0. -1.
          2   -1    0    0  502    0 -0.00000000000E+00 -0.00000000000E+00 -0.32688371200E+04  0.32688371200E+04  0.00000000000E+00 0. -1.
         24    2    1    2    0    0 -0.11976858857E+03  0.36236943287E+00 -0.54822754744E+03  0.56623520198E+03  0.75658535980E+02 0.  0.
         23    2    1    2    0    0 -0.13161444757E+03  0.97444915121E+02 -0.55076983009E+03  0.58189892659E+03  0.91875354347E+02 0.  0.
        -11    1    3    3    0    0 -0.12866550247E+02 -0.25750001631E+02 -0.16618188076E+03  0.16865653914E+03  0.00000000000E+00 0.  1.
         12    1    3    3    0    0 -0.10690203833E+03  0.26112371064E+02 -0.38204566668E+03  0.39757866284E+03  0.00000000000E+00 0. -1.
        -13    1    4    4    0    0 -0.88940452754E+02  0.67232548539E+02 -0.48617085242E+03  0.49879125640E+03  0.00000000000E+00 0.  1.
         13    1    4    4    0    0 -0.42673994818E+02  0.30212366583E+02 -0.64598977670E+02  0.83107670189E+02  0.00000000000E+00 0. -1.
          1    1    1    2  501    0  0.25138303614E+03 -0.97807284554E+02 -0.21367922886E+04  0.21537504452E+04  0.00000000000E+00 0. -1.
<scales pt_clust_5="13000.00000" pt_clust_6="13000.00000" pt_clust_7="13000.00000" pt_clust_8="13000.00000" pt_clust_9="13000.00000"></scales>
<clustering>
<clus scale="   75.659">  5  6 -1 -1</clus>
<clus scale="   91.875">  7  8 -1 -1</clus>
<clus scale="  141.665">  2  5  1 -1</clus>
<clus scale="  184.507">  7  9 -1 -1</clus>
<clus scale="  510.673">  1  5  2 -1</clus>
</clustering>
</event>
<event>
 9    2  0.3707658E-005  0.1684388E+03  0.7546771E-02  0.1197212E+00
          2   -1    0    0  502    0 -0.00000000000E+00  0.00000000000E+00  0.15179012731E+03  0.15179012731E+03  0.00000000000E+00 0. -1.
         21   -1    0    0  501  502  0.00000000000E+00 -0.00000000000E+00 -0.13133553702E+03  0.13133553702E+03  0.00000000000E+00 0.  1.
         24    2    1    2    0    0 -0.75456037738E+02  0.28441846808E+02  0.13740304437E+02  0.11455311109E+03  0.80193933777E+02 0.  0.
         23    2    1    2    0    0  0.95713792501E+01  0.87393991408E+01 -0.82085346283E+01  0.91462736450E+02  0.90166865977E+02 0.  0.
        -13    1    3    3    0    0 -0.56113346529E+02 -0.98255836006E+01  0.34827937655E+02  0.66770015674E+02  0.00000000000E+00 0.  1.
         14    1    3    3    0    0 -0.19342691208E+02  0.38267430409E+02 -0.21087633218E+02  0.47783095421E+02  0.00000000000E+00 0. -1.
        -11    1    4    4    0    0 -0.12407367067E+02  0.18276512570E+02  0.35387924892E+02  0.41716650122E+02  0.00000000000E+00 0. -1.
         11    1    4    4    0    0  0.21978746317E+02 -0.95371134291E+01 -0.43596459520E+02  0.49746086328E+02  0.00000000000E+00 0.  1.
          1    1    1    2  501    0  0.65884658488E+02 -0.37181245949E+02  0.14922820483E+02  0.77109816791E+02  0.00000000000E+00 0. -1.
<scales pt_clust_5="13000.00000" pt_clust_6="13000.00000" pt_clust_7="13000.00000" pt_clust_8="13000.00000" pt_clust_9="13000.00000"></scales>
<clustering>
<clus scale="   80.194">  5  6 -1 -1</clus>
<clus scale="   90.167">  7  8 -1 -1</clus>
<clus scale="   75.652">  7  9 -1 -1</clus>
<clus scale="  113.726">  1  5  2 -1</clus>
<clus scale="  168.439">  2  5  1 -1</clus>
</clustering>
</event>
<event>
 9    2  0.3707658E-005  0.4028551E+03  0.7546771E-02  0.1055745E+00
          2   -1    0    0  502    0 -0.00000000000E+00  0.00000000000E+00  0.20720102251E+04  0.20720102251E+04  0.00000000000E+00 0. -1.
         21   -1    0    0  501  502  0.00000000000E+00 -0.00000000000E+00 -0.55975331873E+02  0.55975331873E+02  0.00000000000E+00 0.  1.
         24    2    1    2    0    0 -0.26324387581E+03  0.40734764233E+02  0.82167750549E+03  0.86751666728E+03  0.80464811013E+02 0.  0.
         23    2    1    2    0    0  0.95980738494E+02  0.79982284514E+02  0.25024968152E+03  0.29408960395E+03  0.90853310650E+02 0.  0.
        -13    1    3    3    0    0 -0.23327278087E+03  0.77013060692E+01  0.70312747951E+03  0.74085339498E+03  0.00000000000E+00 0.  1.
         14    1    3    3    0    0 -0.29971094946E+02  0.33033458163E+02  0.11855002598E+03  0.12666327230E+03  0.00000000000E+00 0. -1.
        -11    1    4    4    0    0  0.87762502645E+02  0.99870480896E+02  0.21438902080E+03  0.25226775867E+03  0.00000000000E+00 0.  1.
         11    1    4    4    0    0  0.82182358496E+01 -0.19888196382E+02  0.35860660721E+02  0.41821845287E+02  0.00000000000E+00 0. -1.
          1    1    1    2  501    0  0.16726313732E+03 -0.12071704875E+03  0.94410770624E+03  0.96637928576E+03  0.00000000000E+00 0. -1.
<scales pt_clust_5="13000.00000" pt_clust_6="13000.00000" pt_clust_7="13000.00000" pt_clust_8="13000.00000" pt_clust_9="13000.00000"></scales>
<clustering>
<clus scale="   80.465">  5  6 -1 -1</clus>
<clus scale="   90.853">  7  8 -1 -1</clus>
<clus scale="  206.276">  7  9 -1 -1</clus>
<clus scale="  278.265">  1  5  2 -1</clus>
<clus scale="  402.855">  2  5  1 -1</clus>
</clustering>
</event>
<event>
 9    2  0.3707658E-005  0.2145046E+03  0.7546771E-02  0.1154497E+00
          2   -1    0    0  502    0 -0.00000000000E+00  0.00000000000E+00  0.19942871898E+03  0.19942871898E+03  0.00000000000E+00 0. -1.
         21   -1    0    0  501  502  0.00000000000E+00 -0.00000000000E+00 -0.20594944606E+03  0.20594944606E+03  0.00000000000E+00 0. -1.
         24    2    1    2    0    0 -0.28224745619E+02  0.11707119992E+03 -0.95091587232E+02  0.17330704984E+03  0.80564393156E+02 0.  0.
         23    2    1    2    0    0 -0.21915381235E+02 -0.77886624871E+01  0.47573658782E+02  0.10503775018E+03  0.90712340696E+02 0.  0.
        -11    1    3    3    0    0  0.27798897699E+02  0.30829515066E+02 -0.20745651521E+02  0.46407109041E+02  0.00000000000E+00 0.  1.
         12    1    3    3    0    0 -0.56023643318E+02  0.86241684855E+02 -0.74345935711E+02  0.12689994080E+03  0.00000000000E+00 0. -1.
        -13    1    4    4    0    0 -0.10005870951E+02 -0.48266259152E+02  0.14363895773E+02  0.51342679398E+02  0.00000000000E+00 0.  1.
         13    1    4    4    0    0 -0.11909510284E+02  0.40477596665E+02  0.33209763009E+02  0.53695070780E+02  0.00000000000E+00 0. -1.
          1    1    1    2  501    0  0.50140126854E+02 -0.10928253743E+03  0.40997201372E+02  0.12703336502E+03  0.00000000000E+00 0. -1.
<scales pt_clust_5="13000.00000" pt_clust_6="13000.00000" pt_clust_7="13000.00000" pt_clust_8="13000.00000" pt_clust_9="13000.00000"></scales>
<clustering>
<clus scale="   80.564">  5  6 -1 -1</clus>
<clus scale="   90.712">  7  8 -1 -1</clus>
<clus scale="  120.236">  7  9 -1 -1</clus>
<clus scale="  144.889">  1  5  2 -1</clus>
<clus scale="  214.505">  2  5  1 -1</clus>
</clustering>
</event>
<event>
 9    2  0.3707658E-005  0.3437336E+03  0.7546771E-02  0.1103240E+00
         21   -1    0    0  501  502  0.00000000000E+00  0.00000000000E+00  0.83190498574E+02  0.83190498574E+02  0.00000000000E+00 0.  1.
          2   -1    0    0  502    0 -0.00000000000E+00 -0.00000000000E+00 -0.68806246119E+03  0.68806246119E+03  0.00000000000E+00 0. -1.
         24    2    1    2    0    0 -0.31175860329E+02 -0.94968941446E+02 -0.95832539822E+02  0.15702669196E+03  0.74043718127E+02 0.  0.
         23    2    1    2    0    0  0.11741033447E+03 -0.46265825851E+02 -0.35630463198E+03  0.38903399362E+03  0.92025779764E+02 0.  0.
        -11    1    3    3    0    0  0.18994337604E+02 -0.54215590851E+02 -0.60231463128E+02  0.83234273607E+02  0.00000000000E+00 0.  1.
         12    1    3    3    0    0 -0.50170197933E+02 -0.40753350595E+02 -0.35601076694E+02  0.73792418358E+02  0.00000000000E+00 0. -1.
        -11    1    4    4    0    0  0.74800220574E+02 -0.55545688888E+02 -0.31671718081E+03  0.33013659169E+03  0.00000000000E+00 0.  1.
         11    1    4    4    0    0  0.42610113899E+02  0.92798630366E+01 -0.39587451171E+02  0.58897401935E+02  0.00000000000E+00 0. -1.
          1    1    1    2  501    0 -0.86234474144E+02  0.14123476730E+03 -0.15273479082E+03  0.22519227418E+03  0.00000000000E+00 0. -1.
<scales pt_clust_5="13000.00000" pt_clust_6="13000.00000" pt_clust_7="13000.00000" pt_clust_8="13000.00000" pt_clust_9="13000.00000"></scales>
<clustering>
<clus scale="   74.044">  5  6 -1 -1</clus>
<clus scale="   92.026">  7  8 -1 -1</clus>
<clus scale="  124.393">  2  5  1 -1</clus>
<clus scale="  145.939">  7  9 -1 -1</clus>
<clus scale="  343.734">  1  5  2 -1</clus>
</clustering>
</event>
<event>
 9    2  0.3707658E-005  0.2811309E+03  0.7546771E-02  0.1134295E+00
         21   -1    0    0  501  502  0.00000000000E+00  0.00000000000E+00  0.35877184081E+03  0.35877184081E+03  0.00000000000E+00 0. -1.
         -1   -1    0    0    0  501 -0.00000000000E+00 -0.00000000000E+00 -0.10906345788E+03  0.10906345788E+03  0.00000000000E+00 0.  1.
         24    2    1    2    0    0  0.65796262172E+01 -0.70274330736E+02  0.11751288355E+03  0.15717437984E+03  0.76894309520E+02 0.  0.
         23    2    1    2    0    0 -0.25826838301E+02  0.14871446505E+03  0.26580112629E+02  0.17770258040E+03  0.89937128038E+02 0.  0.
        -13    1    3    3    0    0  0.34006468105E+01 -0.33145288382E+02 -0.59759961362E+00  0.33324640522E+02  0.00000000000E+00 0.  1.
         14    1    3    3    0    0  0.31789794067E+01 -0.37129042354E+02  0.11811048316E+03  0.12384973932E+03  0.00000000000E+00 0. -1.
        -13    1    4    4    0    0 -0.46750816603E+02  0.45139515603E+02 -0.10272701261E+02  0.65793184397E+02  0.00000000000E+00 0.  1.
         13    1    4    4    0    0  0.20923978302E+02  0.10357494945E+03  0.36852813890E+02  0.11190939600E+03  0.00000000000E+00 0. -1.
         -2    1    1    2    0  502  0.19247212084E+02 -0.78440134315E+02  0.10561538676E+03  0.13295833846E+03  0.00000000000E+00 0.  1.
<scales pt_clust_5="13000.00000" pt_clust_6="13000.00000" pt_clust_7="13000.00000" pt_clust_8="13000.00000" pt_clust_9="13000.00000"></scales>
<clustering>
<clus scale="   76.894">  5  6 -1 -1</clus>
<clus scale="   89.937">  7  8 -1 -1</clus>
<clus scale="   80.767">  7  9 -1 -1</clus>
<clus scale="  104.377">  2  5  1 -1</clus>
<clus scale="  281.131">  1  5  2 -1</clus>
</clustering>
</event>
<event>
 9    2  0.3707658E-005  0.6055101E+03  0.7546771E-02  0.1012989E+00
          2   -1    0    0  502    0 -0.00000000000E+00  0.00000000000E+00  0.93338096238E+03  0.93338096238E+03  0.00000000000E+00 0. -1.
         21   -1    0    0  501  502  0.00000000000E+00 -0.00000000000E+00 -0.21802758176E+03  0.21802758176E+03  0.00000000000E+00 0.  1.
         24    2    1    2    0    0 -0.22491736133E+03  0.16115163490E+03  0.30601016247E+03  0.42051565766E+03  0.81446485168E+02 0.  0.
         23    2    1    2    0    0 -0.13778176352E+03 -0.16746074544E+01  0.25799925331E+03  0.30676015591E+03  0.92474644525E+02 0.  0.
        -13    1    3    3    0    0 -0.18440366469E+03  0.14110708553E+03  0.20456366715E+03  0.30945470598E+03  0.00000000000E+00 0.  1.
         14    1    3    3    0    0 -0.40513696632E+02  0.20044549375E+02  0.10144649532E+03  0.11106095168E+03  0.00000000000E+00 0. -1.
        -11    1    4    4    0    0 -0.83054986354E+02 -0.99738431273E+01  0.22997786180E+03  0.24471907409E+03  0.00000000000E+00 0. -1.
         11    1    4    4    0    0 -0.54726777165E+02  0.82992356729E+01  0.28021391504E+02  0.62041081820E+02  0.00000000000E+00 0.  1.
          1    1    1    2  501    0  0.36269912485E+03 -0.15947702745E+03  0.15134396484E+03  0.42413273057E+03  0.00000000000E+00 0. -1.
<scales pt_clust_5="13000.00000" pt_clust_6="13000.00000" pt_clust_7="13000.00000" pt_clust_8="13000.00000" pt_clust_9="13000.00000"></scales>
<clustering>
<clus scale="   81.446">  5  6 -1 -1</clus>
<clus scale="   92.475">  7  8 -1 -1</clus>
<clus scale="  288.429">  1  5  2 -1</clus>
<clus scale="  261.149">  7  9 -1 -1</clus>
<clus scale="  605.510">  2  5  1 -1</clus>
</clustering>
</event>
<event>
 9    2  0.3707658E-005  0.3003668E+03  0.7546771E-02  0.1106026E+00
         21   -1    0    0  501  502  0.00000000000E+00  0.00000000000E+00  0.25056811779E+03  0.25056811779E+03  0.00000000000E+00 0.  1.
          4   -1    0    0  502    0 -0.00000000000E+00 -0.00000000000E+00 -0.22408987737E+03  0.22408987737E+03  0.00000000000E+00 0. -1.
         24    2    1    2    0    0  0.15401813294E+03  0.72332726012E+01  0.11902542089E+02  0.17393774504E+03  0.79616349675E+02 0.  0.
         23    2    1    2    0    0  0.29646682530E+02  0.48336325742E+02 -0.16599006828E+02  0.10631704298E+03  0.88388123802E+02 0.  0.
        -13    1    3    3    0    0  0.15517616858E+03 -0.30971729263E+01  0.25009342444E+02  0.15720910592E+03  0.00000000000E+00 0.  1.
         14    1    3    3    0    0 -0.11580356383E+01  0.10330445528E+02 -0.13106800356E+02  0.16728639123E+02  0.00000000000E+00 0. -1.
        -11    1    4    4    0    0  0.54835681221E+02  0.80233579560E+01 -0.19353961117E+02  0.58701805924E+02  0.00000000000E+00 0.  1.
         11    1    4    4    0    0 -0.25188998692E+02  0.40312967786E+02  0.27549542891E+01  0.47615237056E+02  0.00000000000E+00 0. -1.
          3    1    1    2  501    0 -0.18366481547E+03 -0.55569598343E+02  0.31174705161E+02  0.19440320713E+03  0.00000000000E+00 0. -1.
<scales pt_clust_5="13000.00000" pt_clust_6="13000.00000" pt_clust_7="13000.00000" pt_clust_8="13000.00000" pt_clust_9="13000.00000"></scales>
<clustering>
<clus scale="   79.616">  5  6 -1 -1</clus>
<clus scale="   88.388">  7  8 -1 -1</clus>
<clus scale="  173.530">  2  5  1 -1</clus>
<clus scale="  108.744">  7  9 -1 -1</clus>
<clus scale="  300.367">  1  5  2 -1</clus>
</clustering>
</event>
<event>
 9    2  0.3707658E-005  0.1411579E+03  0.7546771E-02  0.1236274E+00
         -1   -1    0    0    0  501 -0.00000000000E+00  0.00000000000E+00  0.17358238570E+03  0.17358238570E+03  0.00000000000E+00 0.  1.
         21   -1    0    0  501  502  0.00000000000E+00 -0.00000000000E+00 -0.10919224238E+03  0.10919224238E+03  0.00000000000E+00 0.  1.
         24    2    1    2    0    0  0.17675031033E+02 -0.27117912692E+02  0.10593971246E+03  0.13562873909E+03  0.78256912031E+02 0.  0.
         23    2    1    2    0    0 -0.39674732422E+02  0.27206504512E+01 -0.45026996922E+02  0.11411097156E+03  0.97017508971E+02 0.  0.
        -13    1    3    3    0    0  0.16756403965E+02 -0.45713865949E+02  0.10639331896E+03  0.11700458509E+03  0.00000000000E+00 0.  1.
         14    1    3    3    0    0  0.91862706790E+00  0.18595953257E+02 -0.45360650057E+00  0.18624153997E+02  0.00000000000E+00 0. -1.
        -13    1    4    4    0    0 -0.57777115284E+02 -0.10681368655E+02 -0.62367610085E+02  0.85685503293E+02  0.00000000000E+00 0.  1.
         13    1    4    4    0    0  0.18102382861E+02  0.13402019106E+02  0.17340613163E+02  0.28425468268E+02  0.00000000000E+00 0. -1.
         -2    1    1    2    0  502  0.21999701389E+02  0.24397262240E+02  0.34774277844E+01  0.33034917437E+02  0.00000000000E+00 0.  1.
<scales pt_clust_5="13000.00000" pt_clust_6="13000.00000" pt_clust_7="13000.00000" pt_clust_8="13000.00000" pt_clust_9="13000.00000"></scales>
<clustering>
<clus scale="   78.257">  5  6 -1 -1</clus>
<clus scale="   84.687">  1  5  2 -1</clus>
<clus scale="   97.018">  7  8 -1 -1</clus>
<clus scale="   31.873">  7  9 -1 -1</clus>
<clus scale="  141.158">  2  5  1 -1</clus>
</clustering>
</event>
<event>
 9    2  0.3707658E-005  0.4672283E+03  0.7546771E-02  0.1081599E+00
          4   -1    0    0  502    0 -0.00000000000E+00  0.00000000000E+00  0.25289912316E+03  0.25289912316E+03  0.00000000000E+00 0. -1.
         21   -1    0    0  501  502  0.00000000000E+00 -0.00000000000E+00 -0.33154727733E+03  0.33154727733E+03  0.00000000000E+00 0.  1.
         24    2    1    2    0    0  0.27916507228E+02  0.22419105889E+02  0.48693546436E+02  0.10017556818E+03  0.79888267670E+02 0.  0.
         23    2    1    2    0    0  0.18235113617E+03  0.93349796581E+02 -0.34797321452E+02  0.22701729443E+03  0.91432363022E+02 0.  0.
        -13    1    3    3    0    0  0.47792700733E+02  0.34860295590E+02  0.48862267670E+02  0.76726160166E+02  0.00000000000E+00 0.  1.
         14    1    3    3    0    0 -0.19876193505E+02 -0.12441189701E+02 -0.16872123465E+00  0.23449408015E+02  0.00000000000E+00 0. -1.
        -13    1    4    4    0    0  0.12780054985E+03  0.44072764048E+02 -0.61879246748E+02  0.14867558728E+03  0.00000000000E+00 0.  1.
         13    1    4    4    0    0  0.54550586312E+02  0.49277032533E+02  0.27081925295E+02  0.78341707155E+02  0.00000000000E+00 0. -1.
          3    1    1    2  501    0 -0.21026764340E+03 -0.11576890247E+03 -0.92544379156E+02  0.25725353788E+03  0.00000000000E+00 0. -1.
<scales pt_clust_5="13000.00000" pt_clust_6="13000.00000" pt_clust_7="13000.00000" pt_clust_8="13000.00000" pt_clust_9="13000.00000"></scales>
<clustering>
<clus scale="   79.888">  5  6 -1 -1</clus>
<clus scale="   87.545">  1  5  2 -1</clus>
<clus scale="   91.432">  7  8 -1 -1</clus>
<clus scale="  223.775">  7  9 -1 -1</clus>
<clus scale="  467.228">  2  5  1 -1</clus>
</clustering>
</event>
<event>
 9    2  0.3707658E-005  0.3891709E+03  0.7546771E-02  0.1092856E+00
          2   -1    0    0  502    0 -0.00000000000E+00  0.00000000000E+00  0.16123744681E+03  0.16123744681E+03  0.00000000000E+00 0. -1.
         21   -1    0    0  501  502  0.00000000000E+00 -0.00000000000E+00 -0.42600596818E+03  0.42600596818E+03  0.00000000000E+00 0. -1.
         24    2    1    2    0    0  0.26149313862E+02 -0.74723052806E+02 -0.13802517771E+03  0.17795391499E+03  0.79682651442E+02 0.  0.
         23    2    1    2    0    0 -0.51183821425E+02 -0.57104036028E+02 -0.21700016413E+03  0.24757555020E+03  0.91235559486E+02 0.  0.
        -13    1    3    3    0    0 -0.22189804537E+02 -0.56366337925E+02 -0.76820496662E+02  0.97831182063E+02  0.00000000000E+00 0.  1.
         14    1    3    3    0    0  0.48339118399E+02 -0.18356714881E+02 -0.61204681051E+02  0.80122732925E+02  0.00000000000E+00 0. -1.
        -11    1    4    4    0    0 -0.14614164886E+02  0.18747073244E+02 -0.13488110949E+02  0.27330490437E+02  0.00000000000E+00 0.  1.
         11    1    4    4    0    0 -0.36569656538E+02 -0.75851109272E+02 -0.20351205319E+03  0.22024505976E+03  0.00000000000E+00 0. -1.
          1    1    1    2  501    0  0.25034507563E+02  0.13182708883E+03  0.90256820474E+02  0.16171394981E+03  0.00000000000E+00 0. -1.
<scales pt_clust_5="13000.00000" pt_clust_6="13000.00000" pt_clust_7="13000.00000" pt_clust_8="13000.00000" pt_clust_9="13000.00000"></scales>
<clustering>
<clus scale="   79.683">  5  6 -1 -1</clus>
<clus scale="   91.236">  7  8 -1 -1</clus>
<clus scale="  112.324">  1  5  2 -1</clus>
<clus scale="   81.166">  7  9 -1 -1</clus>
<clus scale="  389.171">  2  5  1 -1</clus>
</clustering>
</event>
<event>
 9    2  0.3707658E-005  0.5191065E+03  0.7546771E-02  0.1044265E+00
         21   -1    0    0  501  502  0.00000000000E+00  0.00000000000E+00  0.55370907806E+02  0.55370907806E+02  0.00000000000E+00 0. -1.
          2   -1    0    0  502    0 -0.00000000000E+00 -0.00000000000E+00 -0.22096296491E+04  0.22096296491E+04  0.00000000000E+00 0. -1.
         24    2    1    2    0    0 -0.35406334917E+02  0.15732916954E+03 -0.55541810813E+03  0.58399999645E+03  0.80997807843E+02 0.  0.
         23    2    1    2    0    0  0.22884168218E+03 -0.18302505333E+03 -0.75666491659E+03  0.81651374760E+03  0.91028667849E+02 0.  0.
        -13    1    3    3    0    0  0.20589898041E+02  0.92567876073E+02 -0.29615371082E+03  0.31096587597E+03  0.00000000000E+00 0.  1.
         14    1    3    3    0    0 -0.55996232958E+02  0.64761293463E+02 -0.25926439730E+03  0.27303412048E+03  0.00000000000E+00 0. -1.
        -13    1    4    4    0    0  0.18918372575E+03 -0.12115125480E+03 -0.47542194074E+03  0.52582709171E+03  0.00000000000E+00 0. -1.
         13    1    4    4    0    0  0.39657956428E+02 -0.61873798527E+02 -0.28124297584E+03  0.29068665589E+03  0.00000000000E+00 0.  1.
          1    1    1    2  501    0 -0.19343534727E+03  0.25695883795E+02 -0.84217571663E+03  0.86448681291E+03  0.00000000000E+00 0. -1.
<scales pt_clust_5="13000.00000" pt_clust_6="13000.00000" pt_clust_7="13000.00000" pt_clust_8="13000.00000" pt_clust_9="13000.00000"></scales>
<clustering>
<clus scale="   80.998">  5  6 -1 -1</clus>
<clus scale="   91.029">  7  8 -1 -1</clus>
<clus scale="  180.463">  2  5  1 -1</clus>
<clus scale="  237.600">  7  9 -1 -1</clus>
<clus scale="  519.106">  1  5  2 -1</clus>
</clustering>
</event>
<event>
 9    2  0.7865434E-005  0.7939458E+03  0.7546771E-02  0.1020146E+00
         21   -1    0    0  501  502  0.00000000000E+00  0.00000000000E+00  0.19517030177E+03  0.19517030177E+03  0.00000000000E+00 0.  1.
          2   -1    0    0  502    0 -0.00000000000E+00 -0.00000000000E+00 -0.12387653920E+04  0.12387653920E+04  0.00000000000E+00 0. -1.
         24    2    1    2    0    0 -0.72761715810E+02 -0.10494858145E+02  0.21888786461E+02  0.10517465957E+03  0.71959576899E+02 0.  0.
         23    2    1    2    0    0 -0.10379536346E+03  0.13468487144E+03  0.44784409025E+02  0.19770346366E+03  0.90374355760E+02 0.  0.
        -13    1    3    3    0    0 -0.52408493980E+02 -0.36345886460E+02 -0.31085227347E+01  0.63854025851E+02  0.00000000000E+00 0.  1.
         14    1    3    3    0    0 -0.20353221830E+02  0.25851028314E+02  0.24997309196E+02  0.41320633717E+02  0.00000000000E+00 0. -1.
        -11    1    4    4    0    0 -0.33313860170E+02  0.10383925091E+03  0.51253805147E+02  0.12049628978E+03  0.00000000000E+00 0.  1.
         11    1    4    4    0    0 -0.70481503286E+02  0.30845620534E+02 -0.64693961221E+01  0.77207173875E+02  0.00000000000E+00 0. -1.
          1    1    1    2  501    0  0.17655707927E+03 -0.12419001330E+03 -0.11102682858E+04  0.11310575706E+04  0.00000000000E+00 0. -1.
<scales pt_clust_5="13000.00000" pt_clust_6="13000.00000" pt_clust_7="13000.00000" pt_clust_8="13000.00000" pt_clust_9="13000.00000"></scales>
<clustering>
<clus scale="   71.960">  5  6 -1 -1</clus>
<clus scale="   90.374">  7  8 -1 -1</clus>
<clus scale="  102.872">  2  5  1 -1</clus>
<clus scale="  172.394">  7  9 -1 -1</clus>
<clus scale="  793.946">  1  5  2 -1</clus>
</clustering>
</event>
<event>
 9    2  0.3707658E-005  0.2864583E+03  0.7546771E-02  0.1112158E+00
         21   -1    0    0  501  502  0.00000000000E+00  0.00000000000E+00  0.10657834596E+03  0.10657834596E+03  0.00000000000E+00 0. -1.
          2   -1    0    0  502    0 -0.00000000000E+00 -0.00000000000E+00 -0.49356711528E+03  0.49356711528E+03  0.00000000000E+00 0. -1.
         24    2    1    2    0    0 -0.15779068897E+02  0.14770677541E+03 -0.16567482323E+03  0.23815347361E+03  0.84868483093E+02 0.  0.
         23    2    1    2    0    0 -0.83075497042E+02 -0.19887861488E+02 -0.10196370985E+03  0.16110799410E+03  0.90896217695E+02 0.  0.
        -11    1    3    3    0    0  0.16143786403E+02  0.39230173892E+02 -0.65217245611E+01  0.42920406269E+02  0.00000000000E+00 0.  1.
         12    1    3    3    0    0 -0.31922855300E+02  0.10847660152E+03 -0.15915309867E+03  0.19523306734E+03  0.00000000000E+00 0. -1.
        -11    1    4    4    0    0 -0.32217917425E+02 -0.63903560341E+01 -0.10337832196E+03  0.10847077166E+03  0.00000000000E+00 0.  1.
         11    1    4    4    0    0 -0.50857579617E+02 -0.13497505454E+02  0.14146121097E+01  0.52637222432E+02  0.00000000000E+00 0. -1.
          1    1    1    2  501    0  0.98854565939E+02 -0.12781891393E+03 -0.11935023624E+03  0.20088399353E+03  0.00000000000E+00 0. -1.
<scales pt_clust_5="13000.00000" pt_clust_6="13000.00000" pt_clust_7="13000.00000" pt_clust_8="13000.00000" pt_clust_9="13000.00000"></scales>
<clustering>
<clus scale="   84.868">  5  6 -1 -1</clus>
<clus scale="   90.896">  7  8 -1 -1</clus>
<clus scale="  161.586">  7  9 -1 -1</clus>
<clus scale="  171.082">  2  5  1 -1</clus>
<clus scale="  286.458">  1  5  2 -1</clus>
</clustering>
</event>
<event>
 9    2  0.3707658E-005  0.4421423E+03  0.7546771E-02  0.1084814E+00
          2   -1    0    0  502    0 -0.00000000000E+00  0.00000000000E+00  0.69606897977E+03  0.69606897977E+03  0.00000000000E+00 0. -1.
         21   -1    0    0  501  502  0.00000000000E+00 -0.00000000000E+00 -0.13717443819E+03  0.13717443819E+03  0.00000000000E+00 0.  1.
         24    2    1    2    0    0 -0.31634667715E+02  0.35972594629E+02  0.31360969228E+03  0.32762056227E+03  0.81788837663E+02 0.  0.
         23    2    1    2    0    0  0.92037626680E+02 -0.14031522000E+03 -0.41611599039E+02  0.19442280268E+03  0.88934893815E+02 0.  0.
        -13    1    3    3    0    0 -0.32478355561E+02 -0.13502402757E+02  0.20849977144E+03  0.21144576882E+03  0.00000000000E+00 0.  1.
         14    1    3    3    0    0  0.84368784602E+00  0.49474997386E+02  0.10510992084E+03  0.11617479346E+03  0.00000000000E+00 0. -1.
        -13    1    4    4    0    0  0.19706547087E+02  0.87427466886E+01 -0.15834126469E+02  0.26748891170E+02  0.00000000000E+00 0. -1.
         13    1    4    4    0    0  0.72331079593E+02 -0.14905796669E+03 -0.25777472570E+02  0.16767391151E+03  0.00000000000E+00 0.  1.
          1    1    1    2  501    0 -0.60402958965E+02  0.10434262537E+03  0.28689644834E+03  0.31120005301E+03  0.00000000000E+00 0. -1.
<scales pt_clust_5="13000.00000" pt_clust_6="13000.00000" pt_clust_7="13000.00000" pt_clust_8="13000.00000" pt_clust_9="13000.00000"></scales>
<clustering>
<clus scale="   81.789">  5  6 -1 -1</clus>
<clus scale="   88.935">  7  8 -1 -1</clus>
<clus scale="   94.785">  1  5  2 -1</clus>
<clus scale="  158.161">  7  9 -1 -1</clus>
<clus scale="  442.142">  2  5  1 -1</clus>
</clustering>
</event>
<event>
 9    2  0.3707658E-005  0.6605168E+03  0.7546771E-02  0.1044036E+00
         21   -1    0    0  501  502  0.00000000000E+00  0.00000000000E+00  0.47537583120E+03  0.47537583120E+03  0.00000000000E+00 0.  1.
          2   -1    0    0  502    0 -0.00000000000E+00 -0.00000000000E+00 -0.38478738861E+03  0.38478738861E+03  0.00000000000E+00 0. -1.
         24    2    1    2    0    0 -0.35562463875E+01 -0.37248760606E+02 -0.13580743617E+03  0.16192436666E+03  0.79848129250E+02 0.  0.
         23    2    1    2    0    0 -0.10101728348E+03 -0.28808571744E+03  0.10741522316E+03  0.33639006959E+03  0.91773507043E+02 0.  0.
        -13    1    3    3    0    0 -0.33353149163E+02 -0.11789826460E+01 -0.25169783552E+02  0.41801202893E+02  0.00000000000E+00 0.  1.
         14    1    3    3    0    0  0.29796902776E+02 -0.36069777960E+02 -0.11063765262E+03  0.12012316377E+03  0.00000000000E+00 0. -1.
        -13    1    4    4    0    0 -0.34464098534E+02 -0.21045690293E+02 -0.15089261921E+01  0.40410048576E+02  0.00000000000E+00 0. -1.
         13    1    4    4    0    0 -0.66553184951E+02 -0.26704002714E+03  0.10892414936E+03  0.29598002101E+03  0.00000000000E+00 0.  1.
          1    1    1    2  501    0  0.10457352987E+03  0.32533447804E+03  0.11898065561E+03  0.36184878356E+03  0.00000000000E+00 0. -1.
<scales pt_clust_5="13000.00000" pt_clust_6="13000.00000" pt_clust_7="13000.00000" pt_clust_8="13000.00000" pt_clust_9="13000.00000"></scales>
<clustering>
<clus scale="   79.848">  5  6 -1 -1</clus>
<clus scale="   88.181">  2  5  1 -1</clus>
<clus scale="   91.774">  7  8 -1 -1</clus>
<clus scale="  322.942">  7  9 -1 -1</clus>
<clus scale="  660.517">  1  5  2 -1</clus>
</clustering>
</event>
<event>
 9    2  0.3707658E-005  0.5450286E+03  0.7546771E-02  0.1029768E+00
          2   -1    0    0  502    0 -0.00000000000E+00  0.00000000000E+00  0.15987942531E+04  0.15987942531E+04  0.00000000000E+00 0. -1.
         21   -1    0    0  501  502  0.00000000000E+00 -0.00000000000E+00 -0.14352690374E+03  0.14352690374E+03  0.00000000000E+00 0. -1.
         24    2    1    2    0    0  0.14347712629E+03 -0.17265033456E+03  0.10123296293E+04  0.10400035358E+04  0.80014075507E+02 0.  0.
         23    2    1    2    0    0 -0.10191482054E+02 -0.13542767025E+03  0.29041589097E+03  0.33361716217E+03  0.92274053718E+02 0.  0.
        -11    1    3    3    0    0  0.38403659412E+02 -0.98814340521E+02  0.36628142790E+03  0.38131509198E+03  0.00000000000E+00 0.  1.
         12    1    3    3    0    0  0.10507346687E+03 -0.73835994041E+02  0.64604820144E+03  0.65868844383E+03  0.00000000000E+00 0. -1.
        -11    1    4    4    0    0  0.30357900436E+02 -0.10593657785E+03  0.16364820873E+03  0.19729393520E+03  0.00000000000E+00 0.  1.
         11    1    4    4    0    0 -0.40549382491E+02 -0.29491092405E+02  0.12676768224E+03  0.13632322697E+03  0.00000000000E+00 0. -1.
          1    1    1    2  501    0 -0.13328564423E+03  0.30807800482E+03  0.15252182902E+03  0.36870045882E+03  0.00000000000E+00 0. -1.
<scales pt_clust_5="13000.00000" pt_clust_6="13000.00000" pt_clust_7="13000.00000" pt_clust_8="13000.00000" pt_clust_9="13000.00000"></scales>
<clustering>
<clus scale="   80.014">  5  6 -1 -1</clus>
<clus scale="   92.274">  7  8 -1 -1</clus>
<clus scale="  238.319">  1  5  2 -1</clus>
<clus scale="  239.361">  7  9 -1 -1</clus>
<clus scale="  545.029">  2  5  1 -1</clus>
</clustering>
</event>
<event>
 9    2  0.3707658E-005  0.1555408E+03  0.7546771E-02  0.1216779E+00
          2   -1    0    0  502    0 -0.00000000000E+00  0.00000000000E+00  0.59684040525E+03  0.59684040525E+03  0.00000000000E+00 0. -1.
         21   -1    0    0  501  502  0.00000000000E+00 -0.00000000000E+00 -0.36425193887E+02  0.36425193887E+02  0.00000000000E+00 0.  1.
         24    2    1    2    0    0  0.41552228390E+01  0.42887167034E+02  0.39487127862E+03  0.40611428384E+03  0.84551226390E+02 0.  0.
         23    2    1    2    0    0 -0.45476907828E+02 -0.29975270506E+02  0.88286906242E+02  0.13859146624E+03  0.91904029903E+02 0.  0.
        -11    1    3    3    0    0  0.83984046214E+00 -0.22676918079E+02  0.48105598329E+02  0.53189252074E+02  0.00000000000E+00 0.  1.
         12    1    3    3    0    0  0.33153823768E+01  0.65564085114E+02  0.34676568029E+03  0.35292503177E+03  0.00000000000E+00 0. -1.
        -11    1    4    4    0    0 -0.55360965642E+02 -0.52388924790E+02  0.84512781117E+02  0.11380617791E+03  0.00000000000E+00 0.  1.
         11    1    4    4    0    0  0.98840578132E+01  0.22413654284E+02  0.37741251254E+01  0.24785288332E+02  0.00000000000E+00 0. -1.
          1    1    1    2  501    0  0.41321684989E+02 -0.12911896528E+02  0.77257026494E+02  0.88559849057E+02  0.00000000000E+00 0. -1.
<scales pt_clust_5="13000.00000" pt_clust_6="13000.00000" pt_clust_7="13000.00000" pt_clust_8="13000.00000" pt_clust_9="13000.00000"></scales>
<clustering>
<clus scale="   84.551">  5  6 -1 -1</clus>
<clus scale="   91.904">  7  8 -1 -1</clus>
<clus scale="   43.292">  7  9 -1 -1</clus>
<clus scale="   94.897">  1  5  2 -1</clus>
<clus scale="  155.541">  2  5  1 -1</clus>
</clustering>
</event>
<event>
 9    2  0.3707658E-005  0.2740173E+03  0.7546771E-02  0.1120014E+00
         21   -1    0    0  501  502  0.00000000000E+00  0.00000000000E+00  0.53667518446E+02  0.53667518446E+02  0.00000000000E+00 0. -1.
          2   -1    0    0  502    0 -0.00000000000E+00 -0.00000000000E+00 -0.10115864590E+04  0.10115864590E+04  0.00000000000E+00 0. -1.
         24    2    1    2    0    0  0.11360742104E+03 -0.76120657012E+02 -0.55709901879E+03  0.57972118222E+03  0.83763547193E+02 0.  0.
         23    2    1    2    0    0  0.31986540662E+02  0.58659371858E+02 -0.26089198163E+03  0.28284503884E+03  0.86444370699E+02 0.  0.
        -13    1    3    3    0    0  0.88622129675E+02 -0.17468141914E+02 -0.24364813994E+03  0.25985271588E+03  0.00000000000E+00 0.  1.
         14    1    3    3    0    0  0.24985291368E+02 -0.58652515098E+02 -0.31345087885E+03  0.31986846634E+03  0.00000000000E+00 0. -1.
        -13    1    4    4    0    0  0.88176950442E+01  0.76831161798E+02 -0.15942934399E+03  0.17719620452E+03  0.00000000000E+00 0. -1.
         13    1    4    4    0    0  0.23168845618E+02 -0.18171789940E+02 -0.10146263764E+03  0.10564883432E+03  0.00000000000E+00 0.  1.
          1    1    1    2  501    0 -0.14559396171E+03  0.17461285154E+02 -0.13992794017E+03  0.20268775642E+03  0.00000000000E+00 0. -1.
<scales pt_clust_5="13000.00000" pt_clust_6="13000.00000" pt_clust_7="13000.00000" pt_clust_8="13000.00000" pt_clust_9="13000.00000"></scales>
<clustering>
<clus scale="   83.764">  5  6 -1 -1</clus>
<clus scale="   86.444">  7  8 -1 -1</clus>
<clus scale="  146.637">  7  9 -1 -1</clus>
<clus scale="  160.366">  2  5  1 -1</clus>
<clus scale="  274.017">  1  5  2 -1</clus>
</clustering>
</event>
<event>
 9    2  0.3707658E-005  0.5673044E+03  0.7546771E-02  0.1062569E+00
         21   -1    0    0  501  502  0.00000000000E+00  0.00000000000E+00  0.11232239074E+03  0.11232239074E+03  0.00000000000E+00 0.  1.
         -1   -1    0    0    0  501 -0.00000000000E+00 -0.00000000000E+00 -0.93974239054E+03  0.93974239054E+03  0.00000000000E+00 0.  1.
         24    2    1    2    0    0 -0.15153910216E+02 -0.15526105103E+02 -0.96753853701E+02  0.12702032344E+03  0.79386103482E+02 0.  0.
         23    2    1    2    0    0 -0.39461910699E+02  0.22989095502E+03 -0.63733353200E+03  0.68494832369E+03  0.92482871529E+02 0.  0.
        -13    1    3    3    0    0 -0.96338109019E+01 -0.45966576606E+02 -0.37210414063E+02  0.59919540987E+02  0.00000000000E+00 0.  1.
         14    1    3    3    0    0 -0.55200993136E+01  0.30440471503E+02 -0.59543439638E+02  0.67100782452E+02  0.00000000000E+00 0. -1.
        -13    1    4    4    0    0 -0.40621176911E+02  0.11229472120E+03 -0.20843853676E+03  0.24022241367E+03  0.00000000000E+00 0. -1.
         13    1    4    4    0    0  0.11592662123E+01  0.11759623382E+03 -0.42889499523E+03  0.44472591002E+03  0.00000000000E+00 0.  1.
         -2    1    1    2    0  502  0.54615820915E+02 -0.21436484992E+03 -0.93332614109E+02  0.24009613415E+03  0.00000000000E+00 0.  1.
<scales pt_clust_5="13000.00000" pt_clust_6="13000.00000" pt_clust_7="13000.00000" pt_clust_8="13000.00000" pt_clust_9="13000.00000"></scales>
<clustering>
<clus scale="   79.386">  5  6 -1 -1</clus>
<clus scale="   82.297">  2  5  1 -1</clus>
<clus scale="   92.483">  7  8 -1 -1</clus>
<clus scale="  223.521">  7  9 -1 -1</clus>
<clus scale="  567.304">  1  5  2 -1</clus>
</clustering>
</event>
<event>
 9    2  0.3707658E-005  0.4231374E+03  0.7546771E-02  0.1090688E+00
         21   -1    0    0  501  502  0.00000000000E+00  0.00000000000E+00  0.84125575689E+02  0.84125575689E+02  0.00000000000E+00 0. -1.
          2   -1    0    0  502    0 -0.00000000000E+00 -0.00000000000E+00 -0.12684614914E+04  0.12684614914E+04  0.00000000000E+00 0. -1.
         24    2    1    2    0    0 -0.18822837807E+02 -0.41367801469E+02 -0.71381890820E+03  0.71979049322E+03  0.80593586605E+02 0.  0.
         23    2    1    2    0    0 -0.50073779183E+02 -0.16787505653E+03 -0.17607090311E+03  0.26506321142E+03  0.92564167798E+02 0.  0.
        -11    1    3    3    0    0  0.22563323443E+02  0.12788797192E+01 -0.78215191501E+02  0.81414711691E+02  0.00000000000E+00 0.  1.
         12    1    3    3    0    0 -0.41386161250E+02 -0.42646681188E+02 -0.63560371670E+03  0.63837578153E+03  0.00000000000E+00 0. -1.
        -13    1    4    4    0    0 -0.11117843407E+00 -0.76204580037E+02 -0.13056151274E+03  0.15117360546E+03  0.00000000000E+00 0.  1.
         13    1    4    4    0    0 -0.49962600749E+02 -0.91670476493E+02 -0.45509390375E+02  0.11388960596E+03  0.00000000000E+00 0. -1.
          1    1    1    2  501    0  0.68896616990E+02  0.20924285800E+03 -0.29444610435E+03  0.36773336240E+03  0.00000000000E+00 0. -1.
<scales pt_clust_5="13000.00000" pt_clust_6="13000.00000" pt_clust_7="13000.00000" pt_clust_8="13000.00000" pt_clust_9="13000.00000"></scales>
<clustering>
<clus scale="   80.594">  5  6 -1 -1</clus>
<clus scale="   92.525">  2  5  1 -1</clus>
<clus scale="   92.564">  7  8 -1 -1</clus>
<clus scale="  193.201">  7  9 -1 -1</clus>
<clus scale="  423.137">  1  5  2 -1</clus>
</clustering>
</event>
<event>
 9    2  0.3707658E-005  0.1506172E+03  0.7546771E-02  0.1227716E+00
          2   -1    0    0  502    0 -0.00000000000E+00  0.00000000000E+00  0.40680216172E+03  0.40680216172E+03  0.00000000000E+00 0. -1.
         21   -1    0    0  501  502  0.00000000000E+00 -0.00000000000E+00 -0.17413948223E+03  0.17413948223E+03  0.00000000000E+00 0.  1.
         24    2    1    2    0    0 -0.16462522148E+02  0.91587465171E+01  0.36871639711E+03  0.37797326427E+03  0.80975982435E+02 0.  0.
         23    2    1    2    0    0 -0.10032366387E+02  0.44806576173E+01 -0.14436721991E+03  0.17203091398E+03  0.92908646048E+02 0.  0.
        -11    1    3    3    0    0  0.22173872987E+02 -0.23462793000E+02  0.15932737648E+03  0.16256505219E+03  0.00000000000E+00 0.  1.
         12    1    3    3    0    0 -0.38636395135E+02  0.32621539517E+02  0.20938902063E+03  0.21540821208E+03  0.00000000000E+00 0. -1.
        -11    1    4    4    0    0 -0.23353060803E+01 -0.25199059766E+02 -0.13852506917E+03  0.14081775831E+03  0.00000000000E+00 0.  1.
         11    1    4    4    0    0 -0.76970603067E+01  0.29679717384E+02 -0.58421507447E+01  0.31213155666E+02  0.00000000000E+00 0. -1.
          1    1    1    2  501    0  0.26494888535E+02 -0.13639404134E+02  0.83135023057E+01  0.30937465704E+02  0.00000000000E+00 0. -1.
<scales pt_clust_5="13000.00000" pt_clust_6="13000.00000" pt_clust_7="13000.00000" pt_clust_8="13000.00000" pt_clust_9="13000.00000"></scales>
<clustering>
<clus scale="   80.976">  5  6 -1 -1</clus>
<clus scale="   83.138">  1  5  2 -1</clus>
<clus scale="   92.909">  7  8 -1 -1</clus>
<clus scale="   18.758">  7  9 -1 -1</clus>
<clus scale="  150.617">  2  5  1 -1</clus>
</clustering>
</event>
<event>
 9    2  0.3707658E-005  0.7553941E+03  0.7546771E-02  0.9767113E-01
          2   -1    0    0  502    0 -0.00000000000E+00  0.00000000000E+00  0.91940960017E+03  0.91940960017E+03  0.00000000000E+00 0. -1.
         21   -1    0    0  501  502  0.00000000000E+00 -0.00000000000E+00 -0.41917804149E+03  0.41917804149E+03  0.00000000000E+00 0. -1.
         24    2    1    2    0    0  0.46252070532E+03 -0.47813833474E+02  0.29227288743E+03  0.55509095994E+03  0.80566541201E+02 0.  0.
         23    2    1    2    0    0  0.11789768845E+03 -0.63413973622E+02  0.11449133466E+02  0.16070206442E+03  0.88163903372E+02 0.  0.
        -13    1    3    3    0    0  0.22994653245E+03 -0.58799954997E+02  0.12375348388E+03  0.26767100565E+03  0.00000000000E+00 0.  1.
         14    1    3    3    0    0  0.23257417287E+03  0.10986121524E+02  0.16851940354E+03  0.28741995429E+03  0.00000000000E+00 0. -1.
        -13    1    4    4    0    0  0.21614574084E+02  0.20288767657E+02  0.14681769411E+02  0.33081388406E+02  0.00000000000E+00 0.  1.
         13    1    4    4    0    0  0.96283114370E+02 -0.83702741280E+02 -0.32326359444E+01  0.12762067601E+03  0.00000000000E+00 0. -1.
          1    1    1    2  501    0 -0.58041839377E+03  0.11122780710E+03  0.19650953779E+03  0.62279461730E+03  0.00000000000E+00 0. -1.
<scales pt_clust_5="13000.00000" pt_clust_6="13000.00000" pt_clust_7="13000.00000" pt_clust_8="13000.00000" pt_clust_9="13000.00000"></scales>
<clustering>
<clus scale="   80.567">  5  6 -1 -1</clus>
<clus scale="   88.164">  7  8 -1 -1</clus>
<clus scale="  471.914">  1  5  2 -1</clus>
<clus scale="  210.783">  7  9 -1 -1</clus>
<clus scale="  755.394">  2  5  1 -1</clus>
</clustering>
</event>
<event>
 9    2  0.3707658E-005  0.3154550E+03  0.7546771E-02  0.1130454E+00
         21   -1    0    0  501  502  0.00000000000E+00  0.00000000000E+00  0.17193736749E+03  0.17193736749E+03  0.00000000000E+00 0. -1.
         -1   -1    0    0    0  501 -0.00000000000E+00 -0.00000000000E+00 -0.37716782846E+03  0.37716782846E+03  0.00000000000E+00 0.  1.
         24    2    1    2    0    0  0.38587380601E+01 -0.15053991457E+02 -0.21879304985E+03  0.23335880059E+03  0.79651858947E+02 0.  0.
         23    2    1    2    0    0  0.12823002170E+03 -0.53248800631E+02  0.11471546145E+02  0.16702825820E+03  0.92132890071E+02 0.  0.
        -11    1    3    3    0    0  0.16040360629E+02 -0.45500145752E+02 -0.12406593166E+03  0.13311615917E+03  0.00000000000E+00 0.  1.
         12    1    3    3    0    0 -0.12181622569E+02  0.30446154295E+02 -0.94727118189E+02  0.10024264143E+03  0.00000000000E+00 0. -1.
        -11    1    4    4    0    0  0.11214672720E+03 -0.50227800178E+01 -0.81064951529E+01  0.11255146381E+03  0.00000000000E+00 0. -1.
         11    1    4    4    0    0  0.16083294492E+02 -0.48226020613E+02  0.19578041298E+02  0.54476794390E+02  0.00000000000E+00 0.  1.
         -2    1    1    2    0  502 -0.13208875976E+03  0.68302792088E+02  0.20910427256E+01  0.14871813716E+03  0.00000000000E+00 0.  1.
<scales pt_clust_5="13000.00000" pt_clust_6="13000.00000" pt_clust_7="13000.00000" pt_clust_8="13000.00000" pt_clust_9="13000.00000"></scales>
<clustering>
<clus scale="   79.652">  5  6 -1 -1</clus>
<clus scale="   81.154">  2  5  1 -1</clus>
<clus scale="   92.133">  7  8 -1 -1</clus>
<clus scale="  143.795">  7  9 -1 -1</clus>
<clus scale="  315.455">  1  5  2 -1</clus>
</clustering>
</event>
<event>
 9    2  0.3707658E-005  0.3458536E+03  0.7546771E-02  0.1073874E+00
         21   -1    0    0  501  502  0.00000000000E+00  0.00000000000E+00  0.22373045418E+03  0.22373045418E+03  0.00000000000E+00 0. -1.
          2   -1    0    0  502    0 -0.00000000000E+00 -0.00000000000E+00 -0.15852790969E+04  0.15852790969E+04  0.00000000000E+00 0. -1.
         24    2    1    2    0    0 -0.22756404552E+03  0.11103251843E+03 -0.14316237160E+04  0.14561281869E+04  0.81542734128E+02 0.  0.
         23    2    1    2    0    0  0.82771974919E+02 -0.64902676001E+01 -0.54787768419E+02  0.13497185273E+03  0.91227068661E+02 0.  0.
        -13    1    3    3    0    0 -0.12410948164E+03  0.27259161359E+02 -0.54838978621E+03  0.56291880670E+03  0.00000000000E+00 0.  1.
         14    1    3    3    0    0 -0.10345456388E+03  0.83773357068E+02 -0.88323392980E+03  0.89320938021E+03  0.00000000000E+00 0. -1.
        -11    1    4    4    0    0  0.30167099537E+02 -0.12379054974E+02 -0.72221274000E+02  0.79241449474E+02  0.00000000000E+00 0.  1.
         11    1    4    4    0    0  0.52604875382E+02  0.58887873738E+01  0.17433505581E+02  0.55730403260E+02  0.00000000000E+00 0. -1.
          1    1    1    2  501    0  0.14479207060E+03 -0.10454225083E+03  0.12486284174E+03  0.21790951141E+03  0.00000000000E+00 0. -1.
<scales pt_clust_5="13000.00000" pt_clust_6="13000.00000" pt_clust_7="13000.00000" pt_clust_8="13000.00000" pt_clust_9="13000.00000"></scales>
<clustering>
<clus scale="   81.543">  5  6 -1 -1</clus>
<clus scale="   91.227">  7  8 -1 -1</clus>
<clus scale="  178.589">  7  9 -1 -1</clus>
<clus scale="  266.013">  2  5  1 -1</clus>
<clus scale="  345.854">  1  5  2 -1</clus>
</clustering>
</event>
<event>
 9    2  0.3707658E-005  0.3416325E+03  0.7546771E-02  0.1120210E+00
          2   -1    0    0  502    0 -0.00000000000E+00  0.00000000000E+00  0.79372986514E+03  0.79372986514E+03  0.00000000000E+00 0. -1.
         21   -1    0    0  501  502  0.00000000000E+00 -0.00000000000E+00 -0.57214552263E+02  0.57214552263E+02  0.00000000000E+00 0. -1.
         24    2    1    2    0    0 -0.11569078974E+02 -0.38697063005E+01  0.17988076914E+03  0.19783280929E+03  0.81436546508E+02 0.  0.
         23    2    1    2    0    0 -0.87038498639E+02  0.12240482261E+03  0.37998951873E+03  0.41863881008E+03  0.91147013755E+02 0.  0.
        -11    1    3    3    0    0  0.19837809190E+02  0.15873882199E+02  0.16503184526E+02  0.30296433933E+02  0.00000000000E+00 0.  1.
         12    1    3    3    0    0 -0.31406888165E+02 -0.19743588500E+02  0.16337758462E+03  0.16753637535E+03  0.00000000000E+00 0. -1.
        -13    1    4    4    0    0 -0.45718179674E+02  0.12243864300E+03  0.32128108145E+03  0.34684709391E+03  0.00000000000E+00 0. -1.
         13    1    4    4    0    0 -0.41320318965E+02 -0.33820393186E-01  0.58708437274E+02  0.71791716168E+02  0.00000000000E+00 0.  1.
          1    1    1    2  501    0  0.98607577613E+02 -0.11853511631E+03  0.17664502501E+03  0.23447279805E+03  0.00000000000E+00 0. -1.
<scales pt_clust_5="13000.00000" pt_clust_6="13000.00000" pt_clust_7="13000.00000" pt_clust_8="13000.00000" pt_clust_9="13000.00000"></scales>
<clustering>
<clus scale="   81.437">  5  6 -1 -1</clus>
<clus scale="   82.345">  1  5  2 -1</clus>
<clus scale="   91.147">  7  8 -1 -1</clus>
<clus scale="  152.734">  7  9 -1 -1</clus>
<clus scale="  341.632">  2  5  1 -1</clus>
</clustering>
</event>
<event>
 9    2  0.3707658E-005  0.1723133E+03  0.7546771E-02  0.1183649E+00
          2   -1    0    0  502    0 -0.00000000000E+00  0.00000000000E+00  0.23735593364E+03  0.23735593364E+03  0.00000000000E+00 0. -1.
         21   -1    0    0  501  502  0.00000000000E+00 -0.00000000000E+00 -0.11336399686E+03  0.11336399686E+03  0.00000000000E+00 0.  1.
         24    2    1    2    0    0 -0.14588747151E+02  0.11720165242E+03  0.90635021409E+01  0.14359575569E+03  0.81169791844E+02 0.  0.
         23    2    1    2    0    0  0.60891433076E+00 -0.58342078140E+02  0.50304920138E+02  0.11860251735E+03  0.90176511767E+02 0.  0.
        -13    1    3    3    0    0 -0.35772802202E+02  0.10228620223E+03 -0.13552027134E+02  0.10920539357E+03  0.00000000000E+00 0.  1.
         14    1    3    3    0    0  0.21184055051E+02  0.14915450189E+02  0.22615529275E+02  0.34390362126E+02  0.00000000000E+00 0. -1.
        -11    1    4    4    0    0 -0.24689695191E+02 -0.72903130604E+02  0.44276518541E+02  0.88796720630E+02  0.00000000000E+00 0. -1.
         11    1    4    4    0    0  0.25298609522E+02  0.14561052463E+02  0.60284015963E+01  0.29805796725E+02  0.00000000000E+00 0.  1.
          1    1    1    2  501    0  0.13979832820E+02 -0.58859574283E+02  0.64623514505E+02  0.88521657449E+02  0.00000000000E+00 0. -1.
<scales pt_clust_5="13000.00000" pt_clust_6="13000.00000" pt_clust_7="13000.00000" pt_clust_8="13000.00000" pt_clust_9="13000.00000"></scales>
<clustering>
<clus scale="   81.170">  5  6 -1 -1</clus>
<clus scale="   90.177">  7  8 -1 -1</clus>
<clus scale="   60.497">  7  9 -1 -1</clus>
<clus scale="  143.310">  1  5  2 -1</clus>
<clus scale="  172.313">  2  5  1 -1</clus>
</clustering>
</event>
<event>
 9    2  0.3707658E-005  0.2834578E+03  0.7546771E-02  0.1137521E+00
         21   -1    0    0  501  502  0.00000000000E+00  0.00000000000E+00  0.28680354462E+03  0.28680354462E+03  0.00000000000E+00 0. -1.
          2   -1    0    0  502    0 -0.00000000000E+00 -0.00000000000E+00 -0.25103418181E+03  0.25103418181E+03  0.00000000000E+00 0. -1.
         24    2    1    2    0    0 -0.62076556663E+01  0.49568354193E+02 -0.16535193655E+03  0.19027747607E+03  0.79804124290E+02 0.  0.
         23    2    1    2    0    0  0.95775983111E+02 -0.10288447351E+03  0.70674065569E+02  0.18058248338E+03  0.88639471618E+02 0.  0.
        -13    1    3    3    0    0  0.91845124297E+01  0.68228563154E+02 -0.10856035001E+03  0.12854898557E+03  0.00000000000E+00 0.  1.
         14    1    3    3    0    0 -0.15392168096E+02 -0.18660208961E+02 -0.56791586543E+02  0.61728490499E+02  0.00000000000E+00 0. -1.
        -11    1    4    4    0    0  0.41749126136E+02  0.62309761337E+01  0.57654583984E+01  0.42603463559E+02  0.00000000000E+00 0.  1.
         11    1    4    4    0    0  0.54026856976E+02 -0.10911544964E+03  0.64908607171E+02  0.13797901982E+03  0.00000000000E+00 0. -1.
          1    1    1    2  501    0 -0.89568327445E+02  0.53316119316E+02  0.13044723380E+03  0.16697776698E+03  0.00000000000E+00 0. -1.
<scales pt_clust_5="13000.00000" pt_clust_6="13000.00000" pt_clust_7="13000.00000" pt_clust_8="13000.00000" pt_clust_9="13000.00000"></scales>
<clustering>
<clus scale="   79.804">  5  6 -1 -1</clus>
<clus scale="   88.639">  7  8 -1 -1</clus>
<clus scale="   94.150">  2  5  1 -1</clus>
<clus scale="  112.323">  7  9 -1 -1</clus>
<clus scale="  283.458">  1  5  2 -1</clus>
</clustering>
</event>
<event>
 9    2  0.3707658E-005  0.1934324E+03  0.7546771E-02  0.1162830E+00
         21   -1    0    0  501  502  0.00000000000E+00  0.00000000000E+00  0.37333146306E+03  0.37333146306E+03  0.00000000000E+00 0. -1.
          2   -1    0    0  502    0 -0.00000000000E+00 -0.00000000000E+00 -0.12014733813E+03  0.12014733813E+03  0.00000000000E+00 0. -1.
         24    2    1    2    0    0 -0.62504314917E+02  0.11248218258E+03  0.25211997960E+03  0.30004348715E+03  0.99511704274E+02 0.  0.
         23    2    1    2    0    0  0.89503862555E+02 -0.93302014586E+02 -0.10784261787E+02  0.15826090334E+03  0.90631152958E+02 0.  0.
        -13    1    3    3    0    0 -0.14147138623E+01  0.48334144618E+02  0.21354737064E+02  0.52860341906E+02  0.00000000000E+00 0.  1.
         14    1    3    3    0    0 -0.61089601055E+02  0.64148037963E+02  0.23076524253E+03  0.24718314524E+03  0.00000000000E+00 0. -1.
        -11    1    4    4    0    0  0.39120714487E+02  0.17470224393E+01 -0.29552044020E+02  0.49059206018E+02  0.00000000000E+00 0.  1.
         11    1    4    4    0    0  0.50383148068E+02 -0.95049037025E+02  0.18767782233E+02  0.10920169732E+03  0.00000000000E+00 0. -1.
          1    1    1    2  501    0 -0.26999547638E+02 -0.19180167996E+02  0.11848407120E+02  0.35174410703E+02  0.00000000000E+00 0. -1.
<scales pt_clust_5="13000.00000" pt_clust_6="13000.00000" pt_clust_7="13000.00000" pt_clust_8="13000.00000" pt_clust_9="13000.00000"></scales>
<clustering>
<clus scale="   90.631">  7  8 -1 -1</clus>
<clus scale="   33.119">  7  9 -1 -1</clus>
<clus scale="   99.512">  5  6 -1 -1</clus>
<clus scale="  162.670">  2  5  1 -1</clus>
<clus scale="  193.432">  1  5  2 -1</clus>
</clustering>
</event>
<event>
 9    2  0.3707658E-005  0.4425234E+03  0.7546771E-02  0.1059745E+00
          2   -1    0    0  502    0 -0.00000000000E+00  0.00000000000E+00  0.15671034424E+04  0.15671034424E+04  0.00000000000E+00 0. -1.
         21   -1    0    0  501  502  0.00000000000E+00 -0.00000000000E+00 -0.70511451084E+02  0.70511451084E+02  0.00000000000E+00 0.  1.
         24    2    1    2    0    0 -0.13029871299E+03 -0.11331976306E+03  0.71743457631E+03  0.74156064076E+03  0.73353182181E+02 0.  0.
         23    2    1    2    0    0 -0.12375112683E+03  0.23603387958E+02  0.17336826684E+03  0.23305286425E+03  0.91573032471E+02 0.  0.
        -13    1    3    3    0    0 -0.73588967240E+02 -0.16575807770E+02  0.29636925236E+03  0.30581829123E+03  0.00000000000E+00 0.  1.
         14    1    3    3    0    0 -0.56709745752E+02 -0.96743955293E+02  0.42106532395E+03  0.43574234954E+03  0.00000000000E+00 0. -1.
        -11    1    4    4    0    0 -0.78320455420E+02  0.11893620957E+02  0.34374631109E+02  0.86354891121E+02  0.00000000000E+00 0.  1.
         11    1    4    4    0    0 -0.45430671406E+02  0.11709767001E+02  0.13899363573E+03  0.14669797313E+03  0.00000000000E+00 0. -1.
          1    1    1    2  501    0  0.25404983982E+03  0.89716375105E+02  0.60578914817E+03  0.66300138847E+03  0.00000000000E+00 0. -1.
<scales pt_clust_5="13000.00000" pt_clust_6="13000.00000" pt_clust_7="13000.00000" pt_clust_8="13000.00000" pt_clust_9="13000.00000"></scales>
<clustering>
<clus scale="   73.353">  5  6 -1 -1</clus>
<clus scale="   91.573">  7  8 -1 -1</clus>
<clus scale="  187.616">  1  5  2 -1</clus>
<clus scale="  155.411">  7  9 -1 -1</clus>
<clus scale="  442.523">  2  5  1 -1</clus>
</clustering>
</event>
<event>
 9    2  0.3707658E-005  0.3614803E+03  0.7546771E-02  0.1108121E+00
          2   -1    0    0  502    0 -0.00000000000E+00  0.00000000000E+00  0.38367045531E+03  0.38367045531E+03  0.00000000000E+00 0. -1.
         21   -1    0    0  501  502  0.00000000000E+00 -0.00000000000E+00 -0.15482508344E+03  0.15482508344E+03  0.00000000000E+00 0. -1.
         24    2    1    2    0    0 -0.45830992958E+02  0.18425856868E+02  0.13557051640E+03  0.16517507282E+03  0.80395569825E+02 0.  0.
         23    2    1    2    0    0 -0.86095510600E+02  0.10685899972E+03 -0.58795932854E+01  0.16611886763E+03  0.93432466507E+02 0.  0.
        -13    1    3    3    0    0 -0.60928014804E+01 -0.19631580846E+02  0.93981291392E+02  0.96202933054E+02  0.00000000000E+00 0.  1.
         14    1    3    3    0    0 -0.39738191478E+02  0.38057437714E+02  0.41589225006E+02  0.68972139765E+02  0.00000000000E+00 0. -1.
        -13    1    4    4    0    0 -0.96604550497E+02  0.64045305197E+02 -0.24154863677E+02  0.11839635862E+03  0.00000000000E+00 0. -1.
         13    1    4    4    0    0  0.10509039897E+02  0.42813694521E+02  0.18275270392E+02  0.47722509008E+02  0.00000000000E+00 0.  1.
          1    1    1    2  501    0  0.13192650356E+03 -0.12528485659E+03  0.99154448755E+02  0.20720159830E+03  0.00000000000E+00 0. -1.
<scales pt_clust_5="13000.00000" pt_clust_6="13000.00000" pt_clust_7="13000.00000" pt_clust_8="13000.00000" pt_clust_9="13000.00000"></scales>
<clustering>
<clus scale="   80.396">  5  6 -1 -1</clus>
<clus scale="   93.432">  7  8 -1 -1</clus>
<clus scale="   94.358">  1  5  2 -1</clus>
<clus scale="  152.255">  7  9 -1 -1</clus>
<clus scale="  361.480">  2  5  1 -1</clus>
</clustering>
</event>
<event>
 9    2  0.3707658E-005  0.1836281E+03  0.7546771E-02  0.1193736E+00
         21   -1    0    0  501  502  0.00000000000E+00  0.00000000000E+00  0.97378205130E+02  0.97378205130E+02  0.00000000000E+00 0.  1.
          2   -1    0    0  502    0 -0.00000000000E+00 -0.00000000000E+00 -0.34013262563E+03  0.34013262563E+03  0.00000000000E+00 0. -1.
         24    2    1    2    0    0 -0.64186833715E+01  0.49536624424E+02  0.37987998356E+02  0.10204757145E+03  0.80470753471E+02 0.  0.
         23    2    1    2    0    0 -0.11449639323E+02  0.81716385932E+01 -0.61360811423E+02  0.10791587906E+03  0.87651684855E+02 0.  0.
        -11    1    3    3    0    0  0.20265769430E+02  0.15701223535E+02  0.50960460061E+02  0.57045581080E+02  0.00000000000E+00 0.  1.
         12    1    3    3    0    0 -0.26684452801E+02  0.33835400889E+02 -0.12972461705E+02  0.45001990370E+02  0.00000000000E+00 0. -1.
        -13    1    4    4    0    0  0.24944244977E+02  0.29559686095E+02 -0.73575412471E+01  0.39371611762E+02  0.00000000000E+00 0.  1.
         13    1    4    4    0    0 -0.36393884300E+02 -0.21388047502E+02 -0.54003270176E+02  0.68544267303E+02  0.00000000000E+00 0. -1.
          1    1    1    2  501    0  0.17868322694E+02 -0.57708263017E+02 -0.21938160743E+03  0.22754738025E+03  0.00000000000E+00 0. -1.
<scales pt_clust_5="13000.00000" pt_clust_6="13000.00000" pt_clust_7="13000.00000" pt_clust_8="13000.00000" pt_clust_9="13000.00000"></scales>
<clustering>
<clus scale="   80.471">  5  6 -1 -1</clus>
<clus scale="   87.652">  7  8 -1 -1</clus>
<clus scale="   60.411">  7  9 -1 -1</clus>
<clus scale="   94.713">  2  5  1 -1</clus>
<clus scale="  183.628">  1  5  2 -1</clus>
</clustering>
</event>
<event>
 9    2  0.3707658E-005  0.5364116E+03  0.7546771E-02  0.1058795E+00
          2   -1    0    0  502    0 -0.00000000000E+00  0.00000000000E+00  0.80003340804E+03  0.80003340804E+03  0.00000000000E+00 0. -1.
         21   -1    0    0  501  502  0.00000000000E+00 -0.00000000000E+00 -0.30918397366E+03  0.30918397366E+03  0.00000000000E+00 0. -1.
         24    2    1    2    0    0  0.26063866536E+02 -0.67938543473E+02  0.55820761272E+03  0.56859319007E+03  0.80046899134E+02 0.  0.
         23    2    1    2    0    0  0.17412781691E+03 -0.12132363735E+03  0.58757045325E+02  0.23763585382E+03  0.89322377078E+02 0.  0.
        -11    1    3    3    0    0  0.27950280213E+02  0.95261687602E+01  0.11945841846E+03  0.12305397107E+03  0.00000000000E+00 0.  1.
         12    1    3    3    0    0 -0.18864136774E+01 -0.77464712233E+02  0.43874919427E+03  0.44553921900E+03  0.00000000000E+00 0. -1.
        -11    1    4    4    0    0  0.28573018640E+02  0.62091085177E+01  0.30169027066E+02  0.42013576578E+02  0.00000000000E+00 0.  1.
         11    1    4    4    0    0  0.14555479827E+03 -0.12753274587E+03  0.28588018260E+02  0.19562227725E+03  0.00000000000E+00 0. -1.
          1    1    1    2  501    0 -0.20019168344E+03  0.18926218082E+03 -0.12611522367E+03  0.30298833781E+03  0.00000000000E+00 0. -1.
<scales pt_clust_5="13000.00000" pt_clust_6="13000.00000" pt_clust_7="13000.00000" pt_clust_8="13000.00000" pt_clust_9="13000.00000"></scales>
<clustering>
<clus scale="   80.047">  5  6 -1 -1</clus>
<clus scale="   89.322">  7  8 -1 -1</clus>
<clus scale="  108.178">  1  5  2 -1</clus>
<clus scale="  251.248">  7  9 -1 -1</clus>
<clus scale="  536.412">  2  5  1 -1</clus>
</clustering>
</event>
<event>
 9    2  0.3707658E-005  0.5479712E+03  0.7546771E-02  0.1060958E+00
         21   -1    0    0  501  502  0.00000000000E+00  0.00000000000E+00  0.40141568722E+02  0.40141568722E+02  0.00000000000E+00 0. -1.
          2   -1    0    0  502    0 -0.00000000000E+00 -0.00000000000E+00 -0.26135539205E+04  0.26135539205E+04  0.00000000000E+00 0. -1.
         24    2    1    2    0    0  0.47869036432E+02 -0.16581004465E+02 -0.28456215222E+03  0.30016460009E+03  0.80974034822E+02 0.  0.
         23    2    1    2    0    0  0.31287282274E+02  0.27140020579E+03 -0.11647957052E+04  0.11982399931E+04  0.66280317436E+02 0.  0.
        -11    1    3    3    0    0  0.24957072890E+02 -0.48347875231E+02 -0.13482699215E+03  0.14539150711E+03  0.00000000000E+00 0.  1.
         12    1    3    3    0    0  0.22911963543E+02  0.31766870765E+02 -0.14973516007E+03  0.15477309299E+03  0.00000000000E+00 0. -1.
        -11    1    4    4    0    0  0.19398381606E+02  0.15329095810E+02 -0.10915646468E+03  0.11192145535E+03  0.00000000000E+00 0.  1.
         11    1    4    4    0    0  0.11888900668E+02  0.25607110998E+03 -0.10556392405E+04  0.10863185377E+04  0.00000000000E+00 0. -1.
          1    1    1    2  501    0 -0.79156318707E+02 -0.25481920133E+03 -0.11240544944E+04  0.11552908961E+04  0.00000000000E+00 0. -1.
<scales pt_clust_5="13000.00000" pt_clust_6="13000.00000" pt_clust_7="13000.00000" pt_clust_8="13000.00000" pt_clust_9="13000.00000"></scales>
<clustering>
<clus scale="   66.280">  7  8 -1 -1</clus>
<clus scale="   80.974">  5  6 -1 -1</clus>
<clus scale="   95.515">  2  5  1 -1</clus>
<clus scale="  268.785">  7  9 -1 -1</clus>
<clus scale="  547.971">  1  5  2 -1</clus>
</clustering>
</event>
<event>
 9    2  0.3707658E-005  0.2351130E+03  0.7546771E-02  0.1147143E+00
         21   -1    0    0  501  502  0.00000000000E+00  0.00000000000E+00  0.22474697058E+02  0.22474697058E+02  0.00000000000E+00 0. -1.
          2   -1    0    0  502    0 -0.00000000000E+00 -0.00000000000E+00 -0.14911147446E+04  0.14911147446E+04  0.00000000000E+00 0. -1.
         24    2    1    2    0    0  0.90538851419E+02 -0.41293928712E+02 -0.51092757377E+03  0.52743971084E+03  0.85106937261E+02 0.  0.
         23    2    1    2    0    0  0.26099829391E+02 -0.16157852149E+02 -0.17168313452E+03  0.18943936239E+03  0.73958745702E+02 0.  0.
        -11    1    3    3    0    0  0.62431100545E+02 -0.17223232103E+02 -0.13538134288E+03  0.15007461490E+03  0.00000000000E+00 0.  1.
         12    1    3    3    0    0  0.28107750873E+02 -0.24070696608E+02 -0.37554623089E+03  0.37736509594E+03  0.00000000000E+00 0. -1.
        -11    1    4    4    0    0 -0.13537669284E+02 -0.30466028144E+02 -0.10838579987E+03  0.11339721766E+03  0.00000000000E+00 0.  1.
         11    1    4    4    0    0  0.39637498674E+02  0.14308175995E+02 -0.63297334648E+02  0.76042144729E+02  0.00000000000E+00 0. -1.
          1    1    1    2  501    0 -0.11663868081E+03  0.57451780861E+02 -0.78602933930E+03  0.79671036847E+03  0.00000000000E+00 0. -1.
<scales pt_clust_5="13000.00000" pt_clust_6="13000.00000" pt_clust_7="13000.00000" pt_clust_8="13000.00000" pt_clust_9="13000.00000"></scales>
<clustering>
<clus scale="   73.959">  7  8 -1 -1</clus>
<clus scale="   85.107">  5  6 -1 -1</clus>
<clus scale="  130.020">  7  9 -1 -1</clus>
<clus scale="  130.942">  2  5  1 -1</clus>
<clus scale="  235.113">  1  5  2 -1</clus>
</clustering>
</event>
<event>
 9    2  0.3707658E-005  0.2000146E+03  0.7546771E-02  0.1180149E+00
          2   -1    0    0  502    0 -0.00000000000E+00  0.00000000000E+00  0.95829575953E+02  0.95829575953E+02  0.00000000000E+00 0. -1.
         21   -1    0    0  501  502  0.00000000000E+00 -0.00000000000E+00 -0.24604562746E+03  0.24604562746E+03  0.00000000000E+00 0.  1.
         24    2    1    2    0    0 -0.27168311224E+02 -0.47738510293E+02 -0.87641347779E+02  0.13230079379E+03  0.82494919216E+02 0.  0.
         23    2    1    2    0    0 -0.48695789818E+01  0.10111515431E+03 -0.25671222925E+02  0.13720480667E+03  0.88984043832E+02 0.  0.
        -13    1    3    3    0    0 -0.48480425849E+02 -0.21750469751E+02 -0.20010190050E+02  0.56778889834E+02  0.00000000000E+00 0.  1.
         14    1    3    3    0    0  0.21312114625E+02 -0.25988040542E+02 -0.67631157729E+02  0.75521903954E+02  0.00000000000E+00 0. -1.
        -11    1    4    4    0    0  0.33638962827E+02  0.45802492866E+02  0.14624717647E+02  0.58679898935E+02  0.00000000000E+00 0.  1.
         11    1    4    4    0    0 -0.38508541809E+02  0.55312661448E+02 -0.40295940573E+02  0.78524907738E+02  0.00000000000E+00 0. -1.
          1    1    1    2  501    0  0.32037890206E+02 -0.53376644020E+02 -0.36903480799E+02  0.72369602948E+02  0.00000000000E+00 0. -1.
<scales pt_clust_5="13000.00000" pt_clust_6="13000.00000" pt_clust_7="13000.00000" pt_clust_8="13000.00000" pt_clust_9="13000.00000"></scales>
<clustering>
<clus scale="   82.495">  5  6 -1 -1</clus>
<clus scale="   88.984">  7  8 -1 -1</clus>
<clus scale="   62.253">  7  9 -1 -1</clus>
<clus scale="   99.109">  1  5  2 -1</clus>
<clus scale="  200.015">  2  5  1 -1</clus>
</clustering>
</event>
<event>
 9    2  0.3707658E-005  0.4106960E+03  0.7546771E-02  0.1098958E+00
         21   -1    0    0  501  502  0.00000000000E+00  0.00000000000E+00  0.49552807560E+02  0.49552807560E+02  0.00000000000E+00 0.  1.
         -3   -1    0    0    0  501 -0.00000000000E+00 -0.00000000000E+00 -0.12271559851E+04  0.12271559851E+04  0.00000000000E+00 0.  1.
         24    2    1    2    0    0 -0.28651917491E+01 -0.22669242150E+02 -0.22704390449E+03  0.24122138378E+03  0.78209446771E+02 0.  0.
         23    2    1    2    0    0  0.17713783627E+03  0.61146713462E+02 -0.33659467921E+03  0.39610959184E+03  0.92141722756E+02 0.  0.
        -13    1    3    3    0    0 -0.34022999206E+02 -0.32330547621E+02 -0.10734684702E+03  0.11715875703E+03  0.00000000000E+00 0.  1.
         14    1    3    3    0    0  0.31157807457E+02  0.96613054704E+01 -0.11969705747E+03  0.12406262675E+03  0.00000000000E+00 0. -1.
        -11    1    4    4    0    0  0.13988499878E+03  0.83285893369E+02 -0.28931135076E+03  0.33197200273E+03  0.00000000000E+00 0.  1.
         11    1    4    4    0    0  0.37252837487E+02 -0.22139179906E+02 -0.47283328443E+02  0.64137589107E+02  0.00000000000E+00 0. -1.
         -4    1    1    2    0  502 -0.17427264452E+03 -0.38477471312E+02 -0.61396459383E+03  0.63937781703E+03  0.00000000000E+00 0.  1.
<scales pt_clust_5="13000.00000" pt_clust_6="13000.00000" pt_clust_7="13000.00000" pt_clust_8="13000.00000" pt_clust_9="13000.00000"></scales>
<clustering>
<clus scale="   78.209">  5  6 -1 -1</clus>
<clus scale="   81.479">  2  5  1 -1</clus>
<clus scale="   92.142">  7  8 -1 -1</clus>
<clus scale="  183.822">  7  9 -1 -1</clus>
<clus scale="  410.696">  1  5  2 -1</clus>
</clustering>
</event>
<event>
 9    2  0.3707658E-005  0.2009279E+03  0.7546771E-02  0.1176323E+00
          2   -1    0    0  502    0 -0.00000000000E+00  0.00000000000E+00  0.21243513223E+03  0.21243513223E+03  0.00000000000E+00 0. -1.
         21   -1    0    0  501  502  0.00000000000E+00 -0.00000000000E+00 -0.11501701507E+03  0.11501701507E+03  0.00000000000E+00 0.  1.
         24    2    1    2    0    0 -0.34221114250E+02 -0.62048004789E+02  0.62402520647E+02  0.12349598925E+03  0.79599907158E+02 0.  0.
         23    2    1    2    0    0 -0.66120383714E+01  0.48981564773E+02 -0.44988240168E+02  0.11318891676E+03  0.91350294933E+02 0.  0.
        -13    1    3    3    0    0  0.15972871766E+02 -0.24798459997E+02 -0.67718963081E+01  0.30264745667E+02  0.00000000000E+00 0.  1.
         14    1    3    3    0    0 -0.50193986016E+02 -0.37249544791E+02  0.69174416956E+02  0.93231243585E+02  0.00000000000E+00 0. -1.
        -13    1    4    4    0    0  0.19866503519E+02  0.57013348469E+02 -0.34067015142E-02  0.60375490700E+02  0.00000000000E+00 0. -1.
         13    1    4    4    0    0 -0.26478541890E+02 -0.80317836960E+01 -0.44984833466E+02  0.52813426058E+02  0.00000000000E+00 0.  1.
          1    1    1    2  501    0  0.40833152621E+02  0.13066440016E+02  0.80003836686E+02  0.90767241294E+02  0.00000000000E+00 0. -1.
<scales pt_clust_5="13000.00000" pt_clust_6="13000.00000" pt_clust_7="13000.00000" pt_clust_8="13000.00000" pt_clust_9="13000.00000"></scales>
<clustering>
<clus scale="   79.600">  5  6 -1 -1</clus>
<clus scale="   91.350">  7  8 -1 -1</clus>
<clus scale="   42.873">  7  9 -1 -1</clus>
<clus scale="  106.570">  1  5  2 -1</clus>
<clus scale="  200.928">  2  5  1 -1</clus>
</clustering>
</event>
<event>
 9    2  0.3707658E-005  0.2803355E+03  0.7546771E-02  0.1117691E+00
          2   -1    0    0  502    0 -0.00000000000E+00  0.00000000000E+00  0.18948919661E+04  0.18948919661E+04  0.00000000000E+00 0. -1.
         21   -1    0    0  501  502  0.00000000000E+00 -0.00000000000E+00 -0.27339493713E+02  0.27339493713E+02  0.00000000000E+00 0. -1.
         24    2    1    2    0    0  0.13231337347E+03  0.20382718262E+02  0.44875821379E+03  0.47600702093E+03  0.85302201228E+02 0.  0.
         23    2    1    2    0    0 -0.10577120860E+02 -0.72720209509E+02  0.34476895758E+03  0.36405565563E+03  0.90943839454E+02 0.  0.
        -11    1    3    3    0    0  0.19160303843E+02  0.38830054332E+02  0.10279458794E+03  0.11154199959E+03  0.00000000000E+00 0.  1.
         12    1    3    3    0    0  0.11315306963E+03 -0.18447336070E+02  0.34596362585E+03  0.36446502135E+03  0.00000000000E+00 0. -1.
        -13    1    4    4    0    0  0.25369692217E+02  0.32610792673E+01  0.14632588509E+03  0.14854467533E+03  0.00000000000E+00 0.  1.
         13    1    4    4    0    0 -0.35946813077E+02 -0.75981288776E+02  0.19844307248E+03  0.21551098030E+03  0.00000000000E+00 0. -1.
          1    1    1    2  501    0 -0.12173625261E+03  0.52337491247E+02  0.10740253011E+04  0.10821687833E+04  0.00000000000E+00 0. -1.
<scales pt_clust_5="13000.00000" pt_clust_6="13000.00000" pt_clust_7="13000.00000" pt_clust_8="13000.00000" pt_clust_9="13000.00000"></scales>
<clustering>
<clus scale="   85.302">  5  6 -1 -1</clus>
<clus scale="   90.944">  7  8 -1 -1</clus>
<clus scale="  132.510">  7  9 -1 -1</clus>
<clus scale="  158.741">  1  5  2 -1</clus>
<clus scale="  280.335">  2  5  1 -1</clus>
</clustering>
</event>
<event>
 9    2  0.3707658E-005  0.2613824E+03  0.7546771E-02  0.1151017E+00
         21   -1    0    0  501  502  0.00000000000E+00  0.00000000000E+00  0.25386385892E+03  0.25386385892E+03  0.00000000000E+00 0.  1.
          2   -1    0    0  502    0 -0.00000000000E+00 -0.00000000000E+00 -0.24519921528E+03  0.24519921528E+03  0.00000000000E+00 0. -1.
         24    2    1    2    0    0 -0.31628220094E+02  0.65638892678E+00 -0.16413024035E+03  0.18572808403E+03  0.80965488011E+02 0.  0.
         23    2    1    2    0    0  0.76734063908E+02 -0.15804499917E+01  0.21836134702E+03  0.24921250122E+03  0.92382782529E+02 0.  0.
        -13    1    3    3    0    0 -0.48534314996E+02  0.21686446778E+02 -0.70551627193E+02  0.88336933417E+02  0.00000000000E+00 0.  1.
         14    1    3    3    0    0  0.16906094902E+02 -0.21030057851E+02 -0.93578613156E+02  0.97391150616E+02  0.00000000000E+00 0. -1.
        -13    1    4    4    0    0  0.88490238800E+01 -0.31491785171E+02  0.22308412546E+02  0.39594229721E+02  0.00000000000E+00 0. -1.
         13    1    4    4    0    0  0.67885040028E+02  0.29911335179E+02  0.19605293447E+03  0.20961827150E+03  0.00000000000E+00 0.  1.
          1    1    1    2  501    0 -0.45105843814E+02  0.92406106487E+00 -0.45566463026E+02  0.64122488939E+02  0.00000000000E+00 0. -1.
<scales pt_clust_5="13000.00000" pt_clust_6="13000.00000" pt_clust_7="13000.00000" pt_clust_8="13000.00000" pt_clust_9="13000.00000"></scales>
<clustering>
<clus scale="   80.965">  5  6 -1 -1</clus>
<clus scale="   86.926">  2  5  1 -1</clus>
<clus scale="   92.383">  7  8 -1 -1</clus>
<clus scale="   69.806">  7  9 -1 -1</clus>
<clus scale="  261.382">  1  5  2 -1</clus>
</clustering>
</event>
<event>
 9    2  0.3707658E-005  0.4395397E+03  0.7546771E-02  0.1078054E+00
         -3   -1    0    0    0  501 -0.00000000000E+00  0.00000000000E+00  0.30462292444E+03  0.30462292444E+03  0.00000000000E+00 0.  1.
         21   -1    0    0  501  502  0.00000000000E+00 -0.00000000000E+00 -0.26101885819E+03  0.26101885819E+03  0.00000000000E+00 0.  1.
         24    2    1    2    0    0 -0.71664144780E+02 -0.49961363325E-01  0.50048246743E+02  0.12605484864E+03  0.90825358354E+02 0.  0.
         23    2    1    2    0    0 -0.11092324568E+03 -0.46729075685E+02 -0.14187914221E+03  0.20748983724E+03  0.91840996388E+02 0.  0.
        -11    1    3    3    0    0 -0.72223011585E+02 -0.15516218068E+02  0.69344369105E+02  0.10131908977E+03  0.00000000000E+00 0.  1.
         12    1    3    3    0    0  0.55886680562E+00  0.15466256704E+02 -0.19296122361E+02  0.24735758867E+02  0.00000000000E+00 0. -1.
        -13    1    4    4    0    0 -0.32214799871E+01 -0.34319125966E+02 -0.68177265672E+02  0.76395810716E+02  0.00000000000E+00 0. -1.
         13    1    4    4    0    0 -0.10770176569E+03 -0.12409949719E+02 -0.73701876536E+02  0.13109402652E+03  0.00000000000E+00 0.  1.
         -4    1    1    2    0  502  0.18258739046E+03  0.46779037049E+02  0.13543496172E+03  0.23209709675E+03  0.00000000000E+00 0.  1.
<scales pt_clust_5="13000.00000" pt_clust_6="13000.00000" pt_clust_7="13000.00000" pt_clust_8="13000.00000" pt_clust_9="13000.00000"></scales>
<clustering>
<clus scale="   90.825">  5  6 -1 -1</clus>
<clus scale="   91.841">  7  8 -1 -1</clus>
<clus scale="  115.694">  1  5  2 -1</clus>
<clus scale="  130.439">  7  9 -1 -1</clus>
<clus scale="  439.540">  2  5  1 -1</clus>
</clustering>
</event>
<event>
 9    2  0.3707658E-005  0.2428328E+03  0.7546771E-02  0.1153683E+00
         -3   -1    0    0    0  501 -0.00000000000E+00  0.00000000000E+00  0.11569597343E+04  0.11569597343E+04  0.00000000000E+00 0.  1.
         21   -1    0    0  501  502  0.00000000000E+00 -0.00000000000E+00 -0.44462590014E+02  0.44462590014E+02  0.00000000000E+00 0.  1.
         24    2    1    2    0    0 -0.59972781275E+02  0.23536887214E+02  0.53615747760E+02  0.11505333934E+03  0.78815626188E+02 0.  0.
         23    2    1    2    0    0 -0.62383629908E+02 -0.69136132640E+01  0.43590483952E+03  0.45127275985E+03  0.98460953342E+02 0.  0.
        -11    1    3    3    0    0 -0.39227057645E+02  0.34011408529E+01 -0.13781945599E+02  0.41716565475E+02  0.00000000000E+00 0.  1.
         12    1    3    3    0    0 -0.20745723631E+02  0.20135746361E+02  0.67397693359E+02  0.73336773863E+02  0.00000000000E+00 0. -1.
        -11    1    4    4    0    0 -0.29257795740E+01  0.30660773610E+02  0.47923631719E+02  0.56967689979E+02  0.00000000000E+00 0. -1.
         11    1    4    4    0    0 -0.59457850334E+02 -0.37574386874E+02  0.38798120781E+03  0.39430506987E+03  0.00000000000E+00 0.  1.
         -4    1    1    2    0  502  0.12235641118E+03 -0.16623273950E+02  0.62297655697E+03  0.63509622509E+03  0.00000000000E+00 0.  1.
<scales pt_clust_5="13000.00000" pt_clust_6="13000.00000" pt_clust_7="13000.00000" pt_clust_8="13000.00000" pt_clust_9="13000.00000"></scales>
<clustering>
<clus scale="   78.816">  5  6 -1 -1</clus>
<clus scale="   98.461">  7  8 -1 -1</clus>
<clus scale="  101.797">  1  5  2 -1</clus>
<clus scale="   87.231">  7  9 -1 -1</clus>
<clus scale="  242.833">  2  5  1 -1</clus>
</clustering>
</event>
<event>
 9    2  0.3707658E-005  0.4423213E+03  0.7546771E-02  0.1060382E+00
          2   -1    0    0  502    0 -0.00000000000E+00  0.00000000000E+00  0.68003264941E+03  0.68003264941E+03  0.00000000000E+00 0. -1.
         21   -1    0    0  501  502  0.00000000000E+00 -0.00000000000E+00 -0.19434882994E+03  0.19434882994E+03  0.00000000000E+00 0. -1.
         24    2    1    2    0    0  0.13757777628E+03  0.94642116894E+02  0.37571659126E+03  0.41859539152E+03  0.78577159748E+02 0.  0.
         23    2    1    2    0    0  0.75617616880E+02 -0.17713898749E+03  0.44339232054E+02  0.21795202130E+03  0.91874214114E+02 0.  0.
        -13    1    3    3    0    0  0.75661092750E+02  0.94365521036E+02  0.22069486497E+03  0.25166580209E+03  0.00000000000E+00 0.  1.
         14    1    3    3    0    0  0.61916683525E+02  0.27659585715E+00  0.15502172629E+03  0.16692958943E+03  0.00000000000E+00 0. -1.
        -11    1    4    4    0    0  0.53652989534E+02 -0.18257416329E+03  0.44034679128E+02  0.19532286439E+03  0.00000000000E+00 0. -1.
         11    1    4    4    0    0  0.21964627347E+02  0.54351757944E+01  0.30455292610E+00  0.22629156919E+02  0.00000000000E+00 0.  1.
          1    1    1    2  501    0 -0.21319539316E+03  0.82496870599E+02  0.65627996151E+02  0.23783406653E+03  0.00000000000E+00 0. -1.
<scales pt_clust_5="13000.00000" pt_clust_6="13000.00000" pt_clust_7="13000.00000" pt_clust_8="13000.00000" pt_clust_9="13000.00000"></scales>
<clustering>
<clus scale="   78.577">  5  6 -1 -1</clus>
<clus scale="   91.874">  7  8 -1 -1</clus>
<clus scale="  184.551">  1  5  2 -1</clus>
<clus scale="  192.850">  7  9 -1 -1</clus>
<clus scale="  442.321">  2  5  1 -1</clus>
</clustering>
</event>
<event>
 9    2  0.3707658E-005  0.3743040E+03  0.7546771E-02  0.1090608E+00
          2   -1    0    0  502    0 -0.00000000000E+00  0.00000000000E+00  0.41715464731E+03  0.41715464731E+03  0.00000000000E+00 0. -1.
         21   -1    0    0  501  502  0.00000000000E+00 -0.00000000000E+00 -0.15793692608E+03  0.15793692608E+03  0.00000000000E+00 0. -1.
         24    2    1    2    0    0 -0.53885311480E+02 -0.91305396747E+02  0.33802846957E+02  0.13815299822E+03  0.81873782042E+02 0.  0.
         23    2    1    2    0    0  0.49731475033E+02 -0.49544175285E+02  0.26668512976E+03  0.29010843424E+03  0.90078300771E+02 0.  0.
        -11    1    3    3    0    0 -0.65909344604E+02 -0.86419692217E+02  0.48091793911E+02  0.11884959214E+03  0.00000000000E+00 0.  1.
         12    1    3    3    0    0  0.12024033124E+02 -0.48857045296E+01 -0.14288946955E+02  0.19303406083E+02  0.00000000000E+00 0. -1.
        -13    1    4    4    0    0  0.82961186610E+01 -0.68224232062E+02  0.15765686426E+03  0.17198563391E+03  0.00000000000E+00 0. -1.
         13    1    4    4    0    0  0.41435356372E+02  0.18680056777E+02  0.10902826550E+03  0.11812280033E+03  0.00000000000E+00 0.  1.
          1    1    1    2  501    0  0.41538364475E+01  0.14084957203E+03 -0.41270255486E+02  0.14683014093E+03  0.00000000000E+00 0. -1.
<scales pt_clust_5="13000.00000" pt_clust_6="13000.00000" pt_clust_7="13000.00000" pt_clust_8="13000.00000" pt_clust_9="13000.00000"></scales>
<clustering>
<clus scale="   81.874">  5  6 -1 -1</clus>
<clus scale="   90.078">  7  8 -1 -1</clus>
<clus scale="  133.954">  1  5  2 -1</clus>
<clus scale="  126.376">  7  9 -1 -1</clus>
<clus scale="  374.304">  2  5  1 -1</clus>
</clustering>
</event>
<event>
 9    2  0.3707658E-005  0.2828245E+03  0.7546771E-02  0.1128449E+00
         21   -1    0    0  501  502  0.00000000000E+00  0.00000000000E+00  0.27400456340E+03  0.27400456340E+03  0.00000000000E+00 0. -1.
          4   -1    0    0  502    0 -0.00000000000E+00 -0.00000000000E+00 -0.15733759680E+03  0.15733759680E+03  0.00000000000E+00 0. -1.
         24    2    1    2    0    0  0.70163150147E+02 -0.48279634075E+02  0.87248663298E+02  0.14699177356E+03  0.82100313891E+02 0.  0.
         23    2    1    2    0    0 -0.32632265849E+02  0.18349588544E+02 -0.10309817481E+03  0.14340716448E+03  0.92384030010E+02 0.  0.
        -11    1    3    3    0    0  0.29828746138E+02  0.21286969795E+02  0.17800128734E+02  0.40739830168E+02  0.00000000000E+00 0.  1.
         12    1    3    3    0    0  0.40334404009E+02 -0.69566603869E+02  0.69448534564E+02  0.10625194339E+03  0.00000000000E+00 0. -1.
        -13    1    4    4    0    0  0.31023135645E+02 -0.34348354146E+01 -0.22826620151E+02  0.38668949134E+02  0.00000000000E+00 0.  1.
         13    1    4    4    0    0 -0.63655401494E+02  0.21784423958E+02 -0.80271554657E+02  0.10473821535E+03  0.00000000000E+00 0. -1.
          3    1    1    2  501    0 -0.37530884298E+02  0.29930045531E+02  0.13251647811E+03  0.14094322216E+03  0.00000000000E+00 0. -1.
<scales pt_clust_5="13000.00000" pt_clust_6="13000.00000" pt_clust_7="13000.00000" pt_clust_8="13000.00000" pt_clust_9="13000.00000"></scales>
<clustering>
<clus scale="   82.100">  5  6 -1 -1</clus>
<clus scale="   92.384">  7  8 -1 -1</clus>
<clus scale="   48.004">  7  9 -1 -1</clus>
<clus scale="  118.297">  2  5  1 -1</clus>
<clus scale="  282.825">  1  5  2 -1</clus>
</clustering>
</event>
<event>
 9    2  0.3707658E-005  0.5717072E+03  0.7546771E-02  0.1057684E+00
          2   -1    0    0  502    0 -0.00000000000E+00  0.00000000000E+00  0.16641583791E+04  0.16641583791E+04  0.00000000000E+00 0. -1.
         21   -1    0    0  501  502  0.00000000000E+00 -0.00000000000E+00 -0.71150215886E+02  0.71150215886E+02  0.00000000000E+00 0. -1.
         24    2    1    2    0    0 -0.45174341522E+02 -0.75670912369E+01  0.42507327353E+03  0.43495442129E+03  0.80000492033E+02 0.  0.
         23    2    1    2    0    0  0.20840191857E+03 -0.20306848858E+03  0.64291879009E+03  0.71158215141E+03  0.91303980423E+02 0.  0.
        -13    1    3    3    0    0  0.23220268863E+02  0.10424333688E+01  0.10489050390E+03  0.10743502856E+03  0.00000000000E+00 0.  1.
         14    1    3    3    0    0 -0.68394610386E+02 -0.86095246057E+01  0.32018276963E+03  0.32751939273E+03  0.00000000000E+00 0. -1.
        -13    1    4    4    0    0  0.17035311194E+03 -0.12384650536E+03  0.38135929675E+03  0.43565244502E+03  0.00000000000E+00 0. -1.
         13    1    4    4    0    0  0.38048806626E+02 -0.79221983221E+02  0.26155949334E+03  0.27592970639E+03  0.00000000000E+00 0.  1.
          1    1    1    2  501    0 -0.16322757704E+03  0.21063557982E+03  0.52501609956E+03  0.58877202225E+03  0.00000000000E+00 0. -1.
<scales pt_clust_5="13000.00000" pt_clust_6="13000.00000" pt_clust_7="13000.00000" pt_clust_8="13000.00000" pt_clust_9="13000.00000"></scales>
<clustering>
<clus scale="   80.000">  5  6 -1 -1</clus>
<clus scale="   91.304">  7  8 -1 -1</clus>
<clus scale="   92.185">  1  5  2 -1</clus>
<clus scale="  276.865">  7  9 -1 -1</clus>
<clus scale="  571.707">  2  5  1 -1</clus>
</clustering>
</event>
<event>
 9    2  0.3707658E-005  0.2233969E+03  0.7546771E-02  0.1139938E+00
          2   -1    0    0  502    0 -0.00000000000E+00  0.00000000000E+00  0.15484498371E+04  0.15484498371E+04  0.00000000000E+00 0. -1.
         21   -1    0    0  501  502  0.00000000000E+00 -0.00000000000E+00 -0.27685430727E+02  0.27685430727E+02  0.00000000000E+00 0. -1.
         24    2    1    2    0    0  0.85726854266E+02  0.13734665521E+03  0.51992106056E+03  0.55066290845E+03  0.81844561747E+02 0.  0.
         23    2    1    2    0    0 -0.28658417135E+02 -0.62281218916E+02  0.35425690106E+03  0.37204626808E+03  0.90665420896E+02 0.  0.
        -13    1    3    3    0    0  0.25883797179E+02  0.11450213068E+02  0.29776248998E+02  0.41081666715E+02  0.00000000000E+00 0.  1.
         14    1    3    3    0    0  0.59843057087E+02  0.12589644214E+03  0.49014481157E+03  0.50958124174E+03  0.00000000000E+00 0. -1.
        -13    1    4    4    0    0 -0.27589548123E+02  0.17061116950E+02  0.13592710883E+03  0.13974420844E+03  0.00000000000E+00 0.  1.
         13    1    4    4    0    0 -0.10688690124E+01 -0.79342335866E+02  0.21832979223E+03  0.23230205964E+03  0.00000000000E+00 0. -1.
          1    1    1    2  501    0 -0.57068437131E+02 -0.75065436292E+02  0.64658644479E+03  0.65342609133E+03  0.00000000000E+00 0. -1.
<scales pt_clust_5="13000.00000" pt_clust_6="13000.00000" pt_clust_7="13000.00000" pt_clust_8="13000.00000" pt_clust_9="13000.00000"></scales>
<clustering>
<clus scale="   81.845">  5  6 -1 -1</clus>
<clus scale="   90.665">  7  8 -1 -1</clus>
<clus scale="   94.295">  7  9 -1 -1</clus>
<clus scale="  181.416">  1  5  2 -1</clus>
<clus scale="  223.397">  2  5  1 -1</clus>
</clustering>
</event>
<event>
 9    2  0.3707658E-005  0.2684190E+03  0.7546771E-02  0.1133997E+00
          2   -1    0    0  502    0 -0.00000000000E+00  0.00000000000E+00  0.25412874268E+03  0.25412874268E+03  0.00000000000E+00 0. -1.
         21   -1    0    0  501  502  0.00000000000E+00 -0.00000000000E+00 -0.20039674741E+03  0.20039674741E+03  0.00000000000E+00 0. -1.
         24    2    1    2    0    0  0.88880101265E+02 -0.12029048190E+02  0.12802488017E+03  0.17601484006E+03  0.80910342834E+02 0.  0.
         23    2    1    2    0    0  0.34879375641E+02 -0.21548936213E+02 -0.10755389512E+03  0.14603354272E+03  0.89872285763E+02 0.  0.
        -13    1    3    3    0    0  0.16339811823E+02  0.22698174434E+02  0.40801954404E+01  0.28263838520E+02  0.00000000000E+00 0.  1.
         14    1    3    3    0    0  0.72540289443E+02 -0.34727222623E+02  0.12394468473E+03  0.14775100154E+03  0.00000000000E+00 0. -1.
        -11    1    4    4    0    0  0.33153100327E+02  0.15572922362E+01 -0.11654565012E+03  0.12117937853E+03  0.00000000000E+00 0. -1.
         11    1    4    4    0    0  0.17262753139E+01 -0.23106228449E+02  0.89917550002E+01  0.24854164190E+02  0.00000000000E+00 0.  1.
          1    1    1    2  501    0 -0.12375947691E+03  0.33577984403E+02  0.33261010214E+02  0.13247710731E+03  0.00000000000E+00 0. -1.
<scales pt_clust_5="13000.00000" pt_clust_6="13000.00000" pt_clust_7="13000.00000" pt_clust_8="13000.00000" pt_clust_9="13000.00000"></scales>
<clustering>
<clus scale="   80.910">  5  6 -1 -1</clus>
<clus scale="   89.872">  7  8 -1 -1</clus>
<clus scale="  120.793">  1  5  2 -1</clus>
<clus scale="   56.855">  7  9 -1 -1</clus>
<clus scale="  268.419">  2  5  1 -1</clus>
</clustering>
</event>
<event>
 9    2  0.3707658E-005  0.2366546E+03  0.7546771E-02  0.1153323E+00
         21   -1    0    0  501  502  0.00000000000E+00  0.00000000000E+00  0.28523338456E+02  0.28523338456E+02  0.00000000000E+00 0. -1.
          2   -1    0    0  502    0 -0.00000000000E+00 -0.00000000000E+00 -0.11092420566E+04  0.11092420566E+04  0.00000000000E+00 0. -1.
         24    2    1    2    0    0 -0.39531564886E+02  0.59868263724E+02 -0.24032052124E+03  0.26468204058E+03  0.84591229191E+02 0.  0.
         23    2    1    2    0    0 -0.70847931637E+01  0.42467658125E+02 -0.22665314002E+03  0.24912123976E+03  0.94000265637E+02 0.  0.
        -13    1    3    3    0    0  0.80813546333E+01  0.33143154916E+02 -0.18047741851E+03  0.18367328495E+03  0.00000000000E+00 0.  1.
         14    1    3    3    0    0 -0.47612919519E+02  0.26725108807E+02 -0.59843102724E+02  0.81008755635E+02  0.00000000000E+00 0. -1.
        -11    1    4    4    0    0 -0.31847438054E+02 -0.12791457762E+02 -0.13482802836E+03  0.13912755994E+03  0.00000000000E+00 0.  1.
         11    1    4    4    0    0  0.24762644891E+02  0.55259115888E+02 -0.91825111656E+02  0.10999367982E+03  0.00000000000E+00 0. -1.
          1    1    1    2  501    0  0.46616358049E+02 -0.10233592185E+03 -0.61374505688E+03  0.62396211471E+03  0.00000000000E+00 0. -1.
<scales pt_clust_5="13000.00000" pt_clust_6="13000.00000" pt_clust_7="13000.00000" pt_clust_8="13000.00000" pt_clust_9="13000.00000"></scales>
<clustering>
<clus scale="   84.591">  5  6 -1 -1</clus>
<clus scale="   94.000">  7  8 -1 -1</clus>
<clus scale="  110.917">  2  5  1 -1</clus>
<clus scale="   61.790">  7  9 -1 -1</clus>
<clus scale="  236.655">  1  5  2 -1</clus>
</clustering>
</event>
<event>
 9    2  0.3707658E-005  0.2387199E+03  0.7546771E-02  0.1147431E+00
         -1   -1    0    0    0  501 -0.00000000000E+00  0.00000000000E+00  0.15378954349E+04  0.15378954349E+04  0.00000000000E+00 0.  1.
         21   -1    0    0  501  502  0.00000000000E+00 -0.00000000000E+00 -0.22228964414E+02  0.22228964414E+02  0.00000000000E+00 0.  1.
         24    2    1    2    0    0  0.38078865164E+02 -0.87567945155E+02  0.66943212462E+03  0.68086348702E+03  0.79483164847E+02 0.  0.
         23    2    1    2    0    0 -0.15329498485E+02 -0.49321938501E+02  0.33338802775E+03  0.34797217730E+03  0.85260846718E+02 0.  0.
        -11    1    3    3    0    0  0.60368303870E+02 -0.79278446554E+02  0.56856175527E+03  0.57722774860E+03  0.00000000000E+00 0.  1.
         12    1    3    3    0    0 -0.22289438706E+02 -0.82894986011E+01  0.10087036935E+03  0.10363573842E+03  0.00000000000E+00 0. -1.
        -11    1    4    4    0    0  0.26845631688E+02 -0.35204578916E+02  0.87157605923E+02  0.97757345440E+02  0.00000000000E+00 0.  1.
         11    1    4    4    0    0 -0.42175130173E+02 -0.14117359585E+02  0.24623042183E+03  0.25021483186E+03  0.00000000000E+00 0. -1.
         -2    1    1    2    0  502 -0.22749366679E+02  0.13688988366E+03  0.51284631812E+03  0.53128873500E+03  0.00000000000E+00 0.  1.
<scales pt_clust_5="13000.00000" pt_clust_6="13000.00000" pt_clust_7="13000.00000" pt_clust_8="13000.00000" pt_clust_9="13000.00000"></scales>
<clustering>
<clus scale="   79.483">  5  6 -1 -1</clus>
<clus scale="   85.261">  7  8 -1 -1</clus>
<clus scale="  124.241">  1  5  2 -1</clus>
<clus scale="   83.901">  7  9 -1 -1</clus>
<clus scale="  238.720">  2  5  1 -1</clus>
</clustering>
</event>
<event>
 9    2  0.3707658E-005  0.1937614E+03  0.7546771E-02  0.1171967E+00
         21   -1    0    0  501  502  0.00000000000E+00  0.00000000000E+00  0.60655397160E+02  0.60655397160E+02  0.00000000000E+00 0. -1.
          4   -1    0    0  502    0 -0.00000000000E+00 -0.00000000000E+00 -0.44294199754E+03  0.44294199754E+03  0.00000000000E+00 0. -1.
         24    2    1    2    0    0  0.36594269181E+02 -0.96653261670E+02 -0.12236555329E+03  0.17940233893E+03  0.80813841951E+02 0.  0.
         23    2    1    2    0    0 -0.13209242137E+02  0.36149965118E+01 -0.68547551197E+02  0.11012312113E+03  0.85092789086E+02 0.  0.
        -11    1    3    3    0    0 -0.44042256002E+01 -0.54290431269E+02 -0.10442948640E+03  0.11778100764E+03  0.00000000000E+00 0.  1.
         12    1    3    3    0    0  0.40998494782E+02 -0.42362830401E+02 -0.17936066891E+02  0.61621331286E+02  0.00000000000E+00 0. -1.
        -13    1    4    4    0    0 -0.37309511459E+02 -0.24045765332E+02 -0.55763489285E+02  0.71272471635E+02  0.00000000000E+00 0. -1.
         13    1    4    4    0    0  0.24100269322E+02  0.27660761843E+02 -0.12784061913E+02  0.38850649494E+02  0.00000000000E+00 0.  1.
          3    1    1    2  501    0 -0.23385027044E+02  0.93038265158E+02 -0.19137349589E+03  0.21407193464E+03  0.00000000000E+00 0. -1.
<scales pt_clust_5="13000.00000" pt_clust_6="13000.00000" pt_clust_7="13000.00000" pt_clust_8="13000.00000" pt_clust_9="13000.00000"></scales>
<clustering>
<clus scale="   80.814">  5  6 -1 -1</clus>
<clus scale="   85.093">  7  8 -1 -1</clus>
<clus scale="   95.932">  7  9 -1 -1</clus>
<clus scale="  131.194">  2  5  1 -1</clus>
<clus scale="  193.761">  1  5  2 -1</clus>
</clustering>
</event>
<event>
 9    2  0.3707658E-005  0.1624396E+03  0.7546771E-02  0.1213014E+00
         21   -1    0    0  501  502  0.00000000000E+00  0.00000000000E+00  0.48150212186E+02  0.48150212186E+02  0.00000000000E+00 0.  1.
         -1   -1    0    0    0  501 -0.00000000000E+00 -0.00000000000E+00 -0.41787227727E+03  0.41787227727E+03  0.00000000000E+00 0.  1.
         24    2    1    2    0    0  0.37893962003E+02 -0.49161100149E+01 -0.24541868791E+03  0.26147924600E+03  0.81737037028E+02 0.  0.
         23    2    1    2    0    0 -0.70378107580E+02 -0.72234769392E+01 -0.58482084157E+02  0.13014544846E+03  0.92262814511E+02 0.  0.
        -11    1    3    3    0    0  0.61130912918E+02 -0.17688486009E+02 -0.16834911403E+03  0.17997581850E+03  0.00000000000E+00 0.  1.
         12    1    3    3    0    0 -0.23236950916E+02  0.12772375994E+02 -0.77069573880E+02  0.81503427501E+02  0.00000000000E+00 0. -1.
        -11    1    4    4    0    0 -0.12506514260E+02  0.37496488578E+02 -0.36434853996E+02  0.53757772836E+02  0.00000000000E+00 0. -1.
         11    1    4    4    0    0 -0.57871593320E+02 -0.44719965517E+02 -0.22047230161E+02  0.76387675623E+02  0.00000000000E+00 0.  1.
         -2    1    1    2    0  502  0.32484145577E+02  0.12139586954E+02 -0.65821293023E+02  0.74397794998E+02  0.00000000000E+00 0.  1.
<scales pt_clust_5="13000.00000" pt_clust_6="13000.00000" pt_clust_7="13000.00000" pt_clust_8="13000.00000" pt_clust_9="13000.00000"></scales>
<clustering>
<clus scale="   81.737">  5  6 -1 -1</clus>
<clus scale="   90.228">  2  5  1 -1</clus>
<clus scale="   92.263">  7  8 -1 -1</clus>
<clus scale="   49.668">  7  9 -1 -1</clus>
<clus scale="  162.440">  1  5  2 -1</clus>
</clustering>
</event>
<event>
 9    2  0.3707658E-005  0.1776854E+03  0.7546771E-02  0.1179768E+00
          2   -1    0    0  502    0 -0.00000000000E+00  0.00000000000E+00  0.10967521598E+04  0.10967521598E+04  0.00000000000E+00 0. -1.
         21   -1    0    0  501  502  0.00000000000E+00 -0.00000000000E+00 -0.35615062564E+02  0.35615062564E+02  0.00000000000E+00 0. -1.
         24    2    1    2    0    0  0.11261009535E+03  0.33958918499E+02  0.82292529637E+03  0.83518549361E+03  0.80588607238E+02 0.  0.
         23    2    1    2    0    0 -0.89972059512E+02 -0.47226106505E+02  0.23361776646E+03  0.27054333358E+03  0.91055795607E+02 0.  0.
        -11    1    3    3    0    0  0.37061270217E+02  0.52827149263E+02  0.35221078026E+03  0.35807356671E+03  0.00000000000E+00 0.  1.
         12    1    3    3    0    0  0.75548825135E+02 -0.18868230764E+02  0.47071451611E+03  0.47711192690E+03  0.00000000000E+00 0. -1.
        -11    1    4    4    0    0 -0.87551046955E+01  0.22563163670E+02  0.77799292346E+02  0.81476856238E+02  0.00000000000E+00 0.  1.
         11    1    4    4    0    0 -0.81216954817E+02 -0.69789270175E+02  0.15581847411E+03  0.18906647734E+03  0.00000000000E+00 0. -1.
          1    1    1    2  501    0 -0.22638035839E+02  0.13267188006E+02  0.45940343936E+01  0.26638395152E+02  0.00000000000E+00 0. -1.
<scales pt_clust_5="13000.00000" pt_clust_6="13000.00000" pt_clust_7="13000.00000" pt_clust_8="13000.00000" pt_clust_9="13000.00000"></scales>
<clustering>
<clus scale="   80.589">  5  6 -1 -1</clus>
<clus scale="   91.056">  7  8 -1 -1</clus>
<clus scale="   26.239">  7  9 -1 -1</clus>
<clus scale="  142.579">  1  5  2 -1</clus>
<clus scale="  177.685">  2  5  1 -1</clus>
</clustering>
</event>
<event>
 9    2  0.3707658E-005  0.2312531E+03  0.7546771E-02  0.1153951E+00
          2   -1    0    0  502    0 -0.00000000000E+00  0.00000000000E+00  0.91598648218E+03  0.91598648218E+03  0.00000000000E+00 0. -1.
         21   -1    0    0  501  502  0.00000000000E+00 -0.00000000000E+00 -0.76296505354E+02  0.76296505354E+02  0.00000000000E+00 0. -1.
         24    2    1    2    0    0 -0.81364191130E+02 -0.25129007793E+02  0.72454180315E+03  0.73394774336E+03  0.80416831781E+02 0.  0.
         23    2    1    2    0    0  0.10678538903E+03  0.58874646304E+02  0.14220002096E+03  0.20816744710E+03  0.90793704546E+02 0.  0.
        -13    1    3    3    0    0 -0.24836103803E+02  0.25030696258E+02  0.13288299289E+03  0.13748184464E+03  0.00000000000E+00 0.  1.
         14    1    3    3    0    0 -0.56528087327E+02 -0.50159704051E+02  0.59165881027E+03  0.59646589872E+03  0.00000000000E+00 0. -1.
        -13    1    4    4    0    0  0.65650246626E+02 -0.11838210565E+02  0.86337751959E+02  0.10910685370E+03  0.00000000000E+00 0. -1.
         13    1    4    4    0    0  0.41135142402E+02  0.70712856869E+02  0.55862269000E+02  0.99060593400E+02  0.00000000000E+00 0.  1.
          1    1    1    2  501    0 -0.25421197898E+02 -0.33745638511E+02 -0.27051847290E+02  0.50167797070E+02  0.00000000000E+00 0. -1.
<scales pt_clust_5="13000.00000" pt_clust_6="13000.00000" pt_clust_7="13000.00000" pt_clust_8="13000.00000" pt_clust_9="13000.00000"></scales>
<clustering>
<clus scale="   80.417">  5  6 -1 -1</clus>
<clus scale="   90.794">  7  8 -1 -1</clus>
<clus scale="   42.249">  7  9 -1 -1</clus>
<clus scale="  117.126">  1  5  2 -1</clus>
<clus scale="  231.253">  2  5  1 -1</clus>
</clustering>
</event>
<event>
 9    2  0.3707658E-005  0.2377928E+03  0.7546771E-02  0.1158852E+00
         21   -1    0    0  501  502  0.00000000000E+00  0.00000000000E+00  0.33119203386E+03  0.33119203386E+03  0.00000000000E+00 0.  1.
         -1   -1    0    0    0  501 -0.00000000000E+00 -0.00000000000E+00 -0.86232518581E+02  0.86232518581E+02  0.00000000000E+00 0.  1.
         24    2    1    2    0    0  0.51433619957E+02 -0.11834828601E+02  0.42116348188E+02  0.10486936856E+03  0.80239125411E+02 0.  0.
         23    2    1    2    0    0  0.73318122616E+02 -0.17713789702E+02  0.10449859659E+03  0.15097618566E+03  0.78641760530E+02 0.  0.
        -11    1    3    3    0    0  0.69182526090E+02  0.54648840658E+01  0.21562913694E+02  0.72670806526E+02  0.00000000000E+00 0.  1.
         12    1    3    3    0    0 -0.17748906134E+02 -0.17299712667E+02  0.20553434494E+02  0.32198562030E+02  0.00000000000E+00 0. -1.
        -11    1    4    4    0    0  0.50413408016E+02  0.20937889488E+02  0.87107880690E+02  0.10279926946E+03  0.00000000000E+00 0. -1.
         11    1    4    4    0    0  0.22904714600E+02 -0.38651679190E+02  0.17390715899E+02  0.48176916201E+02  0.00000000000E+00 0.  1.
         -2    1    1    2    0  502 -0.12475174257E+03  0.29548618303E+02  0.98344570500E+02  0.16157899822E+03  0.00000000000E+00 0.  1.
<scales pt_clust_5="13000.00000" pt_clust_6="13000.00000" pt_clust_7="13000.00000" pt_clust_8="13000.00000" pt_clust_9="13000.00000"></scales>
<clustering>
<clus scale="   78.642">  7  8 -1 -1</clus>
<clus scale="   80.239">  5  6 -1 -1</clus>
<clus scale="   96.041">  2  5  1 -1</clus>
<clus scale="   97.785">  7  9 -1 -1</clus>
<clus scale="  237.793">  1  5  2 -1</clus>
</clustering>
</event>
<event>
 9    2  0.3707658E-005  0.1073958E+04  0.7546771E-02  0.9586465E-01
         21   -1    0    0  501  502  0.00000000000E+00  0.00000000000E+00  0.12979203843E+04  0.12979203843E+04  0.00000000000E+00 0.  1.
         -3   -1    0    0    0  501 -0.00000000000E+00 -0.00000000000E+00 -0.44175101716E+03  0.44175101716E+03  0.00000000000E+00 0.  1.
         24    2    1    2    0    0  0.29061105667E+03  0.50312484931E+01  0.54251442380E+03  0.62084835450E+03  0.81551698557E+02 0.  0.
         23    2    1    2    0    0  0.73801562574E+02  0.32069151049E+03 -0.21116145249E+03  0.40165910327E+03  0.91930194616E+02 0.  0.
        -13    1    3    3    0    0  0.28780153204E+03 -0.86191209680E+01  0.51859517271E+03  0.59316520822E+03  0.00000000000E+00 0.  1.
         14    1    3    3    0    0  0.28095246275E+01  0.13650369461E+02  0.23919251098E+02  0.27683146283E+02  0.00000000000E+00 0. -1.
        -13    1    4    4    0    0  0.69280937221E+02  0.16864004545E+03 -0.15567307634E+03  0.23973614639E+03  0.00000000000E+00 0. -1.
         13    1    4    4    0    0  0.45206253539E+01  0.15205146504E+03 -0.55488376152E+02  0.16192295688E+03  0.00000000000E+00 0.  1.
         -4    1    1    2    0  502 -0.36441261924E+03 -0.32572275898E+03  0.52481639579E+03  0.71716394365E+03  0.00000000000E+00 0.  1.
<scales pt_clust_5="13000.00000" pt_clust_6="13000.00000" pt_clust_7="13000.00000" pt_clust_8="13000.00000" pt_clust_9="13000.00000"></scales>
<clustering>
<clus scale="   81.552">  5  6 -1 -1</clus>
<clus scale="   91.930">  7  8 -1 -1</clus>
<clus scale="  301.879">  2  5  1 -1</clus>
<clus scale="  438.557">  7  9 -1 -1</clus>
<clus scale=" 1073.958">  1  5  2 -1</clus>
</clustering>
</event>
<event>
 9    2  0.3707658E-005  0.1035623E+04  0.7546771E-02  0.9686665E-01
          2   -1    0    0  502    0 -0.00000000000E+00  0.00000000000E+00  0.13545221763E+04  0.13545221763E+04  0.00000000000E+00 0. -1.
         21   -1    0    0  501  502  0.00000000000E+00 -0.00000000000E+00 -0.31850233059E+03  0.31850233059E+03  0.00000000000E+00 0. -1.
         24    2    1    2    0    0  0.20812740802E+03 -0.85967093847E+02  0.37326378870E+03  0.44348809327E+03  0.81538173449E+02 0.  0.
         23    2    1    2    0    0  0.40504593492E+03  0.72768371385E+02  0.25464418150E+03  0.49284715913E+03  0.93258875285E+02 0.  0.
        -13    1    3    3    0    0  0.11811669721E+03 -0.60864668651E+01  0.20393575255E+03  0.23575069546E+03  0.00000000000E+00 0.  1.
         14    1    3    3    0    0  0.90010710808E+02 -0.79880626982E+02  0.16932803614E+03  0.20773739782E+03  0.00000000000E+00 0. -1.
        -11    1    4    4    0    0  0.83067572502E+02  0.49180754163E+02  0.82461669428E+02  0.12696021072E+03  0.00000000000E+00 0.  1.
         11    1    4    4    0    0  0.32197836241E+03  0.23587617222E+02  0.17218251207E+03  0.36588694841E+03  0.00000000000E+00 0. -1.
          1    1    1    2  501    0 -0.61317334294E+03  0.13198722462E+02  0.40811187553E+03  0.73668925451E+03  0.00000000000E+00 0. -1.
<scales pt_clust_5="13000.00000" pt_clust_6="13000.00000" pt_clust_7="13000.00000" pt_clust_8="13000.00000" pt_clust_9="13000.00000"></scales>
<clustering>
<clus scale="   81.538">  5  6 -1 -1</clus>
<clus scale="   93.259">  7  8 -1 -1</clus>
<clus scale="  239.491">  1  5  2 -1</clus>
<clus scale="  488.804">  7  9 -1 -1</clus>
<clus scale=" 1035.623">  2  5  1 -1</clus>
</clustering>
</event>
<event>
 9    2  0.3707658E-005  0.3321458E+03  0.7546771E-02  0.1083239E+00
         -1   -1    0    0    0  501 -0.00000000000E+00  0.00000000000E+00  0.12046190003E+04  0.12046190003E+04  0.00000000000E+00 0.  1.
         21   -1    0    0  501  502  0.00000000000E+00 -0.00000000000E+00 -0.87966180622E+02  0.87966180622E+02  0.00000000000E+00 0.  1.
         24    2    1    2    0    0  0.21986458009E+03 -0.42198428185E+01  0.80143663463E+03  0.83467465540E+03  0.77607089810E+02 0.  0.
         23    2    1    2    0    0 -0.33629065577E+02 -0.73882700823E+02  0.72523317989E+02  0.14218358351E+03  0.91471155208E+02 0.  0.
        -11    1    3    3    0    0  0.16141905620E+03  0.24509593815E+02  0.64233431298E+03  0.66275953522E+03  0.00000000000E+00 0.  1.
         12    1    3    3    0    0  0.58445523893E+02 -0.28729436634E+02  0.15910232165E+03  0.17191512018E+03  0.00000000000E+00 0. -1.
        -13    1    4    4    0    0 -0.65462641290E+02 -0.46384386725E+02  0.47303396157E+02  0.93136888635E+02  0.00000000000E+00 0. -1.
         13    1    4    4    0    0  0.31833575714E+02 -0.27498314098E+02  0.25219921831E+02  0.49046694875E+02  0.00000000000E+00 0.  1.
         -2    1    1    2    0  502 -0.18623551451E+03  0.78102543642E+02  0.24269286704E+03  0.31572694199E+03  0.00000000000E+00 0.  1.
<scales pt_clust_5="13000.00000" pt_clust_6="13000.00000" pt_clust_7="13000.00000" pt_clust_8="13000.00000" pt_clust_9="13000.00000"></scales>
<clustering>
<clus scale="   77.607">  5  6 -1 -1</clus>
<clus scale="   91.471">  7  8 -1 -1</clus>
<clus scale="  201.950">  7  9 -1 -1</clus>
<clus scale="  233.198">  1  5  2 -1</clus>
<clus scale="  332.146">  2  5  1 -1</clus>
</clustering>
</event>
<event>
 9    2  0.3707658E-005  0.1888953E+03  0.7546771E-02  0.1195444E+00
          2   -1    0    0  502    0 -0.00000000000E+00  0.00000000000E+00  0.26784705714E+03  0.26784705714E+03  0.00000000000E+00 0. -1.
         21   -1    0    0  501  502  0.00000000000E+00 -0.00000000000E+00 -0.36111325158E+03  0.36111325158E+03  0.00000000000E+00 0. -1.
         24    2    1    2    0    0  0.19402268089E+02  0.15812282762E+02  0.23540189829E+03  0.24987700057E+03  0.79987407768E+02 0.  0.
         23    2    1    2    0    0 -0.10497082272E+02  0.43588245323E+02 -0.96290115240E+02  0.13906820551E+03  0.89766673233E+02 0.  0.
        -13    1    3    3    0    0  0.39830084685E+02 -0.11607538840E+02  0.73467657715E+02  0.84372195266E+02  0.00000000000E+00 0.  1.
         14    1    3    3    0    0 -0.20427816596E+02  0.27419821601E+02  0.16193424058E+03  0.16550480530E+03  0.00000000000E+00 0. -1.
        -13    1    4    4    0    0 -0.37320174033E+02  0.15094850698E+02 -0.60511154540E+01  0.40709530895E+02  0.00000000000E+00 0.  1.
         13    1    4    4    0    0  0.26823091761E+02  0.28493394625E+02 -0.90238999786E+02  0.98358674612E+02  0.00000000000E+00 0. -1.
          1    1    1    2  501    0 -0.89051858166E+01 -0.59400528085E+02 -0.23237797749E+03  0.24001510264E+03  0.00000000000E+00 0. -1.
<scales pt_clust_5="13000.00000" pt_clust_6="13000.00000" pt_clust_7="13000.00000" pt_clust_8="13000.00000" pt_clust_9="13000.00000"></scales>
<clustering>
<clus scale="   79.987">  5  6 -1 -1</clus>
<clus scale="   83.812">  1  5  2 -1</clus>
<clus scale="   89.767">  7  8 -1 -1</clus>
<clus scale="   57.317">  7  9 -1 -1</clus>
<clus scale="  188.895">  2  5  1 -1</clus>
</clustering>
</event>
<event>
 9    2  0.3707658E-005  0.2024092E+03  0.7546771E-02  0.1171436E+00
         21   -1    0    0  501  502  0.00000000000E+00  0.00000000000E+00  0.53537787362E+02  0.53537787362E+02  0.00000000000E+00 0.  1.
         -1   -1    0    0    0  501 -0.00000000000E+00 -0.00000000000E+00 -0.47684843138E+03  0.47684843138E+03  0.00000000000E+00 0.  1.
         24    2    1    2    0    0  0.12290788500E+01 -0.83137682606E+02 -0.17126198805E+03  0.20712472142E+03  0.81587969510E+02 0.  0.
         23    2    1    2    0    0  0.44278311805E+01 -0.98406797268E+01 -0.58457685751E+02  0.10842565245E+03  0.90677320312E+02 0.  0.
        -13    1    3    3    0    0  0.82196955164E+01 -0.47656681010E+02 -0.16300967576E+03  0.17003198825E+03  0.00000000000E+00 0.  1.
         14    1    3    3    0    0 -0.69906166664E+01 -0.35481001596E+02 -0.82523122940E+01  0.37092733167E+02  0.00000000000E+00 0. -1.
        -13    1    4    4    0    0 -0.37176337626E+02 -0.60276443706E+01 -0.54790911341E+02  0.66486513982E+02  0.00000000000E+00 0. -1.
         13    1    4    4    0    0  0.41604168807E+02 -0.38130353562E+01 -0.36667744104E+01  0.41939138466E+02  0.00000000000E+00 0.  1.
         -2    1    1    2    0  502 -0.56569100305E+01  0.92978362332E+02 -0.19359097022E+03  0.21483584487E+03  0.00000000000E+00 0.  1.
<scales pt_clust_5="13000.00000" pt_clust_6="13000.00000" pt_clust_7="13000.00000" pt_clust_8="13000.00000" pt_clust_9="13000.00000"></scales>
<clustering>
<clus scale="   81.588">  5  6 -1 -1</clus>
<clus scale="   90.677">  7  8 -1 -1</clus>
<clus scale="   93.150">  7  9 -1 -1</clus>
<clus scale="  116.490">  2  5  1 -1</clus>
<clus scale="  202.409">  1  5  2 -1</clus>
</clustering>
</event>
<event>
 9    2  0.3707658E-005  0.5678661E+03  0.7546771E-02  0.1022794E+00
         21   -1    0    0  501  502  0.00000000000E+00  0.00000000000E+00  0.11711856350E+03  0.11711856350E+03  0.00000000000E+00 0. -1.
          2   -1    0    0  502    0 -0.00000000000E+00 -0.00000000000E+00 -0.14648533773E+04  0.14648533773E+04  0.00000000000E+00 0. -1.
         24    2    1    2    0    0  0.41245537970E+02  0.24354252196E+03 -0.45917527124E+03  0.52745308597E+03  0.79691114768E+02 0.  0.
         23    2    1    2    0    0 -0.64733689899E+02  0.52644567875E+02 -0.96775862320E+01  0.12677321155E+03  0.94952042410E+02 0.  0.
        -11    1    3    3    0    0  0.16243021452E+01  0.61134954360E+02 -0.54974379139E+02  0.82233225425E+02  0.00000000000E+00 0.  1.
         12    1    3    3    0    0  0.39621235825E+02  0.18240756760E+03 -0.40420089210E+03  0.44521986054E+03  0.00000000000E+00 0. -1.
        -13    1    4    4    0    0  0.13804641211E+02  0.19544173275E+02 -0.30764956879E+02  0.38974676390E+02  0.00000000000E+00 0.  1.
         13    1    4    4    0    0 -0.78538331110E+02  0.33100394599E+02  0.21087370647E+02  0.87798535164E+02  0.00000000000E+00 0. -1.
          1    1    1    2  501    0  0.23488151929E+02 -0.29618708983E+03 -0.87888195633E+03  0.92774564328E+03  0.00000000000E+00 0. -1.
<scales pt_clust_5="13000.00000" pt_clust_6="13000.00000" pt_clust_7="13000.00000" pt_clust_8="13000.00000" pt_clust_9="13000.00000"></scales>
<clustering>
<clus scale="   79.691">  5  6 -1 -1</clus>
<clus scale="   94.952">  7  8 -1 -1</clus>
<clus scale="  259.547">  2  5  1 -1</clus>
<clus scale="   93.212">  7  9 -1 -1</clus>
<clus scale="  567.866">  1  5  2 -1</clus>
</clustering>
</event>
<event>
 9    2  0.3707658E-005  0.4574798E+03  0.7546771E-02  0.1089391E+00
          2   -1    0    0  502    0 -0.00000000000E+00  0.00000000000E+00  0.38311472169E+03  0.38311472169E+03  0.00000000000E+00 0. -1.
         21   -1    0    0  501  502  0.00000000000E+00 -0.00000000000E+00 -0.20779769125E+03  0.20779769125E+03  0.00000000000E+00 0.  1.
         24    2    1    2    0    0  0.34016272460E+02 -0.25413737359E+02  0.10282520217E+03  0.12772468428E+03  0.62750362036E+02 0.  0.
         23    2    1    2    0    0 -0.57200869483E+02 -0.80534740547E+02 -0.15846910705E+03  0.20802981842E+03  0.91685132690E+02 0.  0.
        -13    1    3    3    0    0  0.38219019560E+02 -0.19747058862E+02  0.10972482687E+03  0.11785659686E+03  0.00000000000E+00 0.  1.
         14    1    3    3    0    0 -0.42027471000E+01 -0.56666784963E+01 -0.68996247068E+01  0.98680874267E+01  0.00000000000E+00 0. -1.
        -13    1    4    4    0    0 -0.57510637668E+02 -0.23000893606E+02 -0.12963905134E+03  0.14367601812E+03  0.00000000000E+00 0.  1.
         13    1    4    4    0    0  0.30976818417E+00 -0.57533846941E+02 -0.28830055717E+02  0.64353800299E+02  0.00000000000E+00 0. -1.
          1    1    1    2  501    0  0.23184597024E+02  0.10594847791E+03  0.23096093532E+03  0.25515791023E+03  0.00000000000E+00 0. -1.
<scales pt_clust_5="13000.00000" pt_clust_6="13000.00000" pt_clust_7="13000.00000" pt_clust_8="13000.00000" pt_clust_9="13000.00000"></scales>
<clustering>
<clus scale="   62.750">  5  6 -1 -1</clus>
<clus scale="   75.767">  1  5  2 -1</clus>
<clus scale="   91.685">  7  8 -1 -1</clus>
<clus scale="   98.954">  7  9 -1 -1</clus>
<clus scale="  457.480">  2  5  1 -1</clus>
</clustering>
</event>
<event>
 9    2  0.3707658E-005  0.2767527E+03  0.7546771E-02  0.1138320E+00
         21   -1    0    0  501  502  0.00000000000E+00  0.00000000000E+00  0.11835913376E+04  0.11835913376E+04  0.00000000000E+00 0.  1.
         -1   -1    0    0    0  501 -0.00000000000E+00 -0.00000000000E+00 -0.35456398475E+02  0.35456398475E+02  0.00000000000E+00 0.  1.
         24    2    1    2    0    0 -0.51438412039E+02  0.26950501105E+02  0.12751562899E+03  0.16157157557E+03  0.80454326491E+02 0.  0.
         23    2    1    2    0    0 -0.85136741591E+02 -0.88985295293E+00  0.30018811179E+03  0.32375070673E+03  0.86328216950E+02 0.  0.
        -13    1    3    3    0    0 -0.52258206056E+02  0.42245796219E+02  0.53239593724E+02  0.85732617703E+02  0.00000000000E+00 0.  1.
         14    1    3    3    0    0  0.81979401768E+00 -0.15295295113E+02  0.74276035265E+02  0.75838957862E+02  0.00000000000E+00 0. -1.
        -11    1    4    4    0    0 -0.89279851147E+02  0.20838015776E+02  0.27667341307E+03  0.29146748056E+03  0.00000000000E+00 0.  1.
         11    1    4    4    0    0  0.41431095562E+01 -0.21727868729E+02  0.23514698719E+02  0.32283226173E+02  0.00000000000E+00 0. -1.
         -2    1    1    2    0  502  0.13657515363E+03 -0.26060648153E+02  0.72043119830E+03  0.73372545373E+03  0.00000000000E+00 0.  1.
<scales pt_clust_5="13000.00000" pt_clust_6="13000.00000" pt_clust_7="13000.00000" pt_clust_8="13000.00000" pt_clust_9="13000.00000"></scales>
<clustering>
<clus scale="   80.454">  5  6 -1 -1</clus>
<clus scale="   86.328">  7  8 -1 -1</clus>
<clus scale="   99.223">  2  5  1 -1</clus>
<clus scale="  119.147">  7  9 -1 -1</clus>
<clus scale="  276.753">  1  5  2 -1</clus>
</clustering>
</event>
<event>
 9    2  0.3707658E-005  0.3882422E+03  0.7546771E-02  0.1094989E+00
         -3   -1    0    0    0  501 -0.00000000000E+00  0.00000000000E+00  0.11053046818E+04  0.11053046818E+04  0.00000000000E+00 0.  1.
         21   -1    0    0  501  502  0.00000000000E+00 -0.00000000000E+00 -0.58647999574E+02  0.58647999574E+02  0.00000000000E+00 0.  1.
         24    2    1    2    0    0 -0.30314414582E+01  0.71422038638E+02  0.12924836032E+03  0.16777495574E+03  0.79580147580E+02 0.  0.
         23    2    1    2    0    0 -0.86870485943E+02  0.61835669385E+02  0.12248637729E+03  0.18516547460E+03  0.88956219705E+02 0.  0.
        -13    1    3    3    0    0  0.14490553232E+01  0.87458642248E+02  0.12068766704E+03  0.14905242984E+03  0.00000000000E+00 0.  1.
         14    1    3    3    0    0 -0.44804967815E+01 -0.16036603610E+02  0.85606932714E+01  0.18722525899E+02  0.00000000000E+00 0. -1.
        -13    1    4    4    0    0 -0.70945377454E+02  0.41200381089E+02  0.27283385452E+02  0.86458667036E+02  0.00000000000E+00 0.  1.
         13    1    4    4    0    0 -0.15925108490E+02  0.20635288296E+02  0.95202991841E+02  0.98706807561E+02  0.00000000000E+00 0. -1.
         -4    1    1    2    0  502  0.89901927401E+02 -0.13325770802E+03  0.79492194461E+03  0.81101225103E+03  0.00000000000E+00 0.  1.
<scales pt_clust_5="13000.00000" pt_clust_6="13000.00000" pt_clust_7="13000.00000" pt_clust_8="13000.00000" pt_clust_9="13000.00000"></scales>
<clustering>
<clus scale="   79.580">  5  6 -1 -1</clus>
<clus scale="   88.956">  7  8 -1 -1</clus>
<clus scale="  106.973">  1  5  2 -1</clus>
<clus scale="  114.048">  7  9 -1 -1</clus>
<clus scale="  388.242">  2  5  1 -1</clus>
</clustering>
</event>
<event>
 9    2  0.3707658E-005  0.3973353E+03  0.7546771E-02  0.1056101E+00
         21   -1    0    0  501  502  0.00000000000E+00  0.00000000000E+00  0.69109174195E+02  0.69109174195E+02  0.00000000000E+00 0. -1.
          2   -1    0    0  502    0 -0.00000000000E+00 -0.00000000000E+00 -0.21782342788E+04  0.21782342788E+04  0.00000000000E+00 0. -1.
         24    2    1    2    0    0  0.21598391093E+03  0.17125525990E+03 -0.39842023194E+03  0.49110130395E+03  0.80401465779E+02 0.  0.
         23    2    1    2    0    0 -0.25257208305E+03 -0.85645736844E+02 -0.98221152993E+03  0.10218238519E+04  0.90866084952E+02 0.  0.
        -11    1    3    3    0    0  0.14582577248E+02  0.33908097339E+02 -0.94768541494E+02  0.10170293546E+03  0.00000000000E+00 0.  1.
         12    1    3    3    0    0  0.20140133368E+03  0.13734716256E+03 -0.30365169044E+03  0.38939836849E+03  0.00000000000E+00 0. -1.
        -13    1    4    4    0    0 -0.66559621084E+01 -0.28472739256E+02 -0.96969013169E+02  0.10128172702E+03  0.00000000000E+00 0.  1.
         13    1    4    4    0    0 -0.24591612095E+03 -0.57172997588E+02 -0.88524251676E+03  0.92054212488E+03  0.00000000000E+00 0. -1.
          1    1    1    2  501    0  0.36588172124E+02 -0.85609523058E+02 -0.72849334271E+03  0.73441829713E+03  0.00000000000E+00 0. -1.
<scales pt_clust_5="13000.00000" pt_clust_6="13000.00000" pt_clust_7="13000.00000" pt_clust_8="13000.00000" pt_clust_9="13000.00000"></scales>
<clustering>
<clus scale="   80.401">  5  6 -1 -1</clus>
<clus scale="   90.866">  7  8 -1 -1</clus>
<clus scale="   93.100">  7  9 -1 -1</clus>
<clus scale="  287.127">  2  5  1 -1</clus>
<clus scale="  397.335">  1  5  2 -1</clus>
</clustering>
</event>
<event>
 9    2  0.3707658E-005  0.1636187E+03  0.7546771E-02  0.1212055E+00
          2   -1    0    0  502    0 -0.00000000000E+00  0.00000000000E+00  0.15477543205E+04  0.15477543205E+04  0.00000000000E+00 0. -1.
         21   -1    0    0  501  502  0.00000000000E+00 -0.00000000000E+00 -0.47416439398E+02  0.47416439398E+02  0.00000000000E+00 0. -1.
         24    2    1    2    0    0 -0.33326410371E+02  0.31881128437E+02  0.14007124867E+04  0.14036079707E+04  0.77413236318E+02 0.  0.
         23    2    1    2    0    0  0.63744177959E+02 -0.56840223715E+02  0.72249248731E+02  0.14362897675E+03  0.90084392460E+02 0.  0.
        -13    1    3    3    0    0 -0.23141690708E+02  0.80324455329E+01  0.11256821018E+03  0.11520269083E+03  0.00000000000E+00 0.  1.
         14    1    3    3    0    0 -0.10184719662E+02  0.23848682904E+02  0.12881442765E+04  0.12884052799E+04  0.00000000000E+00 0. -1.
        -11    1    4    4    0    0  0.84794287288E+02 -0.53597931777E+02  0.69760611515E+02  0.12218572898E+03  0.00000000000E+00 0. -1.
         11    1    4    4    0    0 -0.21050109329E+02 -0.32422919380E+01  0.24886372153E+01  0.21443247771E+02  0.00000000000E+00 0.  1.
          1    1    1    2  501    0 -0.30417767589E+02  0.24959095277E+02  0.27376145728E+02  0.47933812461E+02  0.00000000000E+00 0. -1.
<scales pt_clust_5="13000.00000" pt_clust_6="13000.00000" pt_clust_7="13000.00000" pt_clust_8="13000.00000" pt_clust_9="13000.00000"></scales>
<clustering>
<clus scale="   77.413">  5  6 -1 -1</clus>
<clus scale="   90.084">  7  8 -1 -1</clus>
<clus scale="   39.347">  7  9 -1 -1</clus>
<clus scale="   90.110">  1  5  2 -1</clus>
<clus scale="  163.619">  2  5  1 -1</clus>
</clustering>
</event>
<event>
 9    2  0.3707658E-005  0.2966751E+03  0.7546771E-02  0.1123773E+00
         21   -1    0    0  501  502  0.00000000000E+00  0.00000000000E+00  0.46824580067E+03  0.46824580067E+03  0.00000000000E+00 0.  1.
         -1   -1    0    0    0  501 -0.00000000000E+00 -0.00000000000E+00 -0.99917416658E+02  0.99917416658E+02  0.00000000000E+00 0.  1.
         24    2    1    2    0    0  0.61541356298E+02 -0.48144462705E+02  0.18969305788E+03  0.22185890966E+03  0.84455264846E+02 0.  0.
         23    2    1    2    0    0  0.67392483618E+01  0.29970570190E+02 -0.49096799469E+02  0.10786259075E+03  0.90995550542E+02 0.  0.
        -13    1    3    3    0    0  0.60864649261E+02 -0.62555742015E+02  0.10779238453E+03  0.13869724061E+03  0.00000000000E+00 0.  1.
         14    1    3    3    0    0  0.67670703698E+00  0.14411279310E+02  0.81900673348E+02  0.83161669047E+02  0.00000000000E+00 0. -1.
        -13    1    4    4    0    0 -0.11373521278E+02 -0.28582525515E+02 -0.24872395912E+01  0.30862665340E+02  0.00000000000E+00 0. -1.
         13    1    4    4    0    0  0.18112769640E+02  0.58553095705E+02 -0.46609559877E+02  0.76999925407E+02  0.00000000000E+00 0.  1.
         -2    1    1    2    0  502 -0.68280604660E+02  0.18173892514E+02  0.22773212559E+03  0.23844171692E+03  0.00000000000E+00 0.  1.
<scales pt_clust_5="13000.00000" pt_clust_6="13000.00000" pt_clust_7="13000.00000" pt_clust_8="13000.00000" pt_clust_9="13000.00000"></scales>
<clustering>
<clus scale="   84.455">  5  6 -1 -1</clus>
<clus scale="   90.996">  7  8 -1 -1</clus>
<clus scale="   70.658">  7  9 -1 -1</clus>
<clus scale="  115.056">  2  5  1 -1</clus>
<clus scale="  296.675">  1  5  2 -1</clus>
</clustering>
</event>
<event>
 9    2  0.3707658E-005  0.2022956E+03  0.7546771E-02  0.1166891E+00
         21   -1    0    0  501  502  0.00000000000E+00  0.00000000000E+00  0.86603302384E+03  0.86603302384E+03  0.00000000000E+00 0. -1.
          4   -1    0    0  502    0 -0.00000000000E+00 -0.00000000000E+00 -0.95256173989E+02  0.95256173989E+02  0.00000000000E+00 0. -1.
         24    2    1    2    0    0 -0.71865033309E+02  0.71821158410E+02 -0.32026357289E+02  0.13339034163E+03  0.80277231333E+02 0.  0.
         23    2    1    2    0    0  0.88764485269E+02 -0.19211384338E+02  0.35286508363E+03  0.37458032052E+03  0.86881748039E+02 0.  0.
        -13    1    3    3    0    0 -0.21683366036E+02  0.16594405758E+00  0.21742768184E+02  0.30707391104E+02  0.00000000000E+00 0.  1.
         14    1    3    3    0    0 -0.50181667273E+02  0.71655214353E+02 -0.53769125474E+02  0.10268295052E+03  0.00000000000E+00 0. -1.
        -13    1    4    4    0    0  0.44671123333E+02 -0.50550280634E+02  0.24191860148E+03  0.25114826274E+03  0.00000000000E+00 0. -1.
         13    1    4    4    0    0  0.44093361936E+02  0.31338896296E+02  0.11094648215E+03  0.12343205778E+03  0.00000000000E+00 0.  1.
          3    1    1    2  501    0 -0.16899451961E+02 -0.52609774072E+02  0.44993812351E+03  0.45331853568E+03  0.00000000000E+00 0. -1.
<scales pt_clust_5="13000.00000" pt_clust_6="13000.00000" pt_clust_7="13000.00000" pt_clust_8="13000.00000" pt_clust_9="13000.00000"></scales>
<clustering>
<clus scale="   80.277">  5  6 -1 -1</clus>
<clus scale="   86.882">  7  8 -1 -1</clus>
<clus scale="   55.257">  7  9 -1 -1</clus>
<clus scale="  129.489">  2  5  1 -1</clus>
<clus scale="  202.296">  1  5  2 -1</clus>
</clustering>
</event>
<event>
 9    2  0.3707658E-005  0.2117438E+03  0.7546771E-02  0.1174459E+00
         21   -1    0    0  501  502  0.00000000000E+00  0.00000000000E+00  0.30715188698E+03  0.30715188698E+03  0.00000000000E+00 0.  1.
         -1   -1    0    0    0  501 -0.00000000000E+00 -0.00000000000E+00 -0.76581269923E+02  0.76581269923E+02  0.00000000000E+00 0.  1.
         24    2    1    2    0    0  0.40259749703E+02 -0.35072435460E+02  0.72515378721E+02  0.11950431680E+03  0.78561303503E+02 0.  0.
         23    2    1    2    0    0  0.45173381775E+02 -0.33384263874E+02  0.61997458417E+02  0.11858462730E+03  0.84044544661E+02 0.  0.
        -13    1    3    3    0    0  0.23451481816E+02 -0.58930992590E+02  0.61393273970E+02  0.88272124568E+02  0.00000000000E+00 0.  1.
         14    1    3    3    0    0  0.16808267887E+02  0.23858557130E+02  0.11122104751E+02  0.31232192234E+02  0.00000000000E+00 0. -1.
        -13    1    4    4    0    0 -0.79025387588E+01 -0.36425280045E+02  0.47640599747E+00  0.37275703989E+02  0.00000000000E+00 0. -1.
         13    1    4    4    0    0  0.53075920534E+02  0.30410161709E+01  0.61521052419E+02  0.81308923315E+02  0.00000000000E+00 0.  1.
         -2    1    1    2    0  502 -0.85433131478E+02  0.68456699334E+02  0.96057779920E+02  0.14564421280E+03  0.00000000000E+00 0.  1.
<scales pt_clust_5="13000.00000" pt_clust_6="13000.00000" pt_clust_7="13000.00000" pt_clust_8="13000.00000" pt_clust_9="13000.00000"></scales>
<clustering>
<clus scale="   78.561">  5  6 -1 -1</clus>
<clus scale="   84.045">  7  8 -1 -1</clus>
<clus scale="   94.988">  2  5  1 -1</clus>
<clus scale="   84.567">  7  9 -1 -1</clus>
<clus scale="  211.744">  1  5  2 -1</clus>
</clustering>
</event>
<event>
 9    2  0.3707658E-005  0.2410204E+03  0.7546771E-02  0.1153525E+00
         21   -1    0    0  501  502  0.00000000000E+00  0.00000000000E+00  0.24950802189E+03  0.24950802189E+03  0.00000000000E+00 0.  1.
          2   -1    0    0  502    0 -0.00000000000E+00 -0.00000000000E+00 -0.12355379822E+03  0.12355379822E+03  0.00000000000E+00 0. -1.
         24    2    1    2    0    0 -0.24940574002E+02  0.64094218186E+02  0.82150791025E+01  0.10482064997E+03  0.78675155534E+02 0.  0.
         23    2    1    2    0    0  0.46758089260E+02 -0.11307308405E+03  0.14276435827E+03  0.20907027700E+03  0.91415958594E+02 0.  0.
        -13    1    3    3    0    0 -0.26122575796E+02 -0.37713367080E+01 -0.18120201111E+02  0.32014897081E+02  0.00000000000E+00 0.  1.
         14    1    3    3    0    0  0.11820017936E+01  0.67865554894E+02  0.26335280214E+02  0.72805752886E+02  0.00000000000E+00 0. -1.
        -13    1    4    4    0    0 -0.17789469589E+02 -0.73073259933E+02  0.55985442422E+02  0.93757859984E+02  0.00000000000E+00 0. -1.
         13    1    4    4    0    0  0.64547558849E+02 -0.39999824116E+02  0.86778915852E+02  0.11531241702E+03  0.00000000000E+00 0.  1.
          1    1    1    2  501    0 -0.21817515258E+02  0.48978865863E+02 -0.25025213704E+02  0.59170893133E+02  0.00000000000E+00 0. -1.
<scales pt_clust_5="13000.00000" pt_clust_6="13000.00000" pt_clust_7="13000.00000" pt_clust_8="13000.00000" pt_clust_9="13000.00000"></scales>
<clustering>
<clus scale="   78.675">  5  6 -1 -1</clus>
<clus scale="   91.416">  7  8 -1 -1</clus>
<clus scale="   53.618">  7  9 -1 -1</clus>
<clus scale="  104.498">  2  5  1 -1</clus>
<clus scale="  241.020">  1  5  2 -1</clus>
</clustering>
</event>
<event>
 9    2  0.3707658E-005  0.1733633E+03  0.7546771E-02  0.1207411E+00
          4   -1    0    0  502    0 -0.00000000000E+00  0.00000000000E+00  0.29822962443E+03  0.29822962443E+03  0.00000000000E+00 0. -1.
         21   -1    0    0  501  502  0.00000000000E+00 -0.00000000000E+00 -0.58874504497E+02  0.58874504497E+02  0.00000000000E+00 0. -1.
         24    2    1    2    0    0  0.12295020884E+02 -0.18453956355E+02  0.12134912963E+03  0.14738946613E+03  0.80661808931E+02 0.  0.
         23    2    1    2    0    0  0.35892307844E+02 -0.37179647177E+02  0.82428797219E+02  0.12796594318E+03  0.83127565074E+02 0.  0.
        -13    1    3    3    0    0  0.43146605494E+02 -0.97875014260E+01  0.98656180163E+02  0.10812246128E+03  0.00000000000E+00 0.  1.
         14    1    3    3    0    0 -0.30851584610E+02 -0.86664549288E+01  0.22692949469E+02  0.39267004846E+02  0.00000000000E+00 0. -1.
        -13    1    4    4    0    0  0.37567269919E+01 -0.55341836730E+02  0.27827740403E+02  0.62058158419E+02  0.00000000000E+00 0.  1.
         13    1    4    4    0    0  0.32135580853E+02  0.18162189553E+02  0.54601056816E+02  0.65907784757E+02  0.00000000000E+00 0. -1.
          3    1    1    2  501    0 -0.48187328729E+02  0.55633603532E+02  0.35577193079E+02  0.81748719619E+02  0.00000000000E+00 0. -1.
<scales pt_clust_5="13000.00000" pt_clust_6="13000.00000" pt_clust_7="13000.00000" pt_clust_8="13000.00000" pt_clust_9="13000.00000"></scales>
<clustering>
<clus scale="   80.662">  5  6 -1 -1</clus>
<clus scale="   83.128">  7  8 -1 -1</clus>
<clus scale="   73.601">  7  9 -1 -1</clus>
<clus scale="   83.654">  1  5  2 -1</clus>
<clus scale="  173.363">  2  5  1 -1</clus>
</clustering>
</event>
<event>
 9    2  0.3707658E-005  0.1981049E+03  0.7546771E-02  0.1182211E+00
         21   -1    0    0  501  502  0.00000000000E+00  0.00000000000E+00  0.47369389106E+02  0.47369389106E+02  0.00000000000E+00 0. -1.
          4   -1    0    0  502    0 -0.00000000000E+00 -0.00000000000E+00 -0.54666767976E+03  0.54666767976E+03  0.00000000000E+00 0. -1.
         24    2    1    2    0    0  0.25553205940E+02 -0.48048162359E+02 -0.28970313464E+03  0.30563513802E+03  0.80767190940E+02 0.  0.
         23    2    1    2    0    0  0.53353636225E+02  0.26205895663E+02 -0.70273486442E+02  0.12680396685E+03  0.87221119268E+02 0.  0.
        -13    1    3    3    0    0  0.53998770394E+02 -0.31018998810E+02 -0.21642360423E+03  0.22520484444E+03  0.00000000000E+00 0.  1.
         14    1    3    3    0    0 -0.28445564454E+02 -0.17029163549E+02 -0.73279530411E+02  0.80430293581E+02  0.00000000000E+00 0. -1.
        -11    1    4    4    0    0  0.28260299811E+02  0.55562344435E+02 -0.60717279707E+02  0.87019576645E+02  0.00000000000E+00 0.  1.
         11    1    4    4    0    0  0.25093336414E+02 -0.29356448772E+02 -0.95562067354E+01  0.39784390206E+02  0.00000000000E+00 0. -1.
          3    1    1    2  501    0 -0.78906842165E+02  0.21842266696E+02 -0.13932166957E+03  0.16159796399E+03  0.00000000000E+00 0. -1.
<scales pt_clust_5="13000.00000" pt_clust_6="13000.00000" pt_clust_7="13000.00000" pt_clust_8="13000.00000" pt_clust_9="13000.00000"></scales>
<clustering>
<clus scale="   80.767">  5  6 -1 -1</clus>
<clus scale="   87.221">  7  8 -1 -1</clus>
<clus scale="   81.874">  7  9 -1 -1</clus>
<clus scale="   97.391">  2  5  1 -1</clus>
<clus scale="  198.105">  1  5  2 -1</clus>
</clustering>
</event>
<event>
 9    2  0.3707658E-005  0.2913967E+03  0.7546771E-02  0.1137061E+00
         21   -1    0    0  501  502  0.00000000000E+00  0.00000000000E+00  0.13856794618E+03  0.13856794618E+03  0.00000000000E+00 0.  1.
          2   -1    0    0  502    0 -0.00000000000E+00 -0.00000000000E+00 -0.27620682658E+03  0.27620682658E+03  0.00000000000E+00 0. -1.
         24    2    1    2    0    0  0.93279196194E+01 -0.26447032802E+02 -0.78040023166E+02  0.11734566152E+03  0.83025920246E+02 0.  0.
         23    2    1    2    0    0 -0.71893800668E+02  0.10500944109E+03  0.34184955193E+02  0.16001752170E+03  0.90781577408E+02 0.  0.
        -11    1    3    3    0    0  0.16909897530E+02  0.24406237135E+02 -0.85420686319E+01  0.30896213070E+02  0.00000000000E+00 0.  1.
         12    1    3    3    0    0 -0.75819779105E+01 -0.50853269937E+02 -0.69497954534E+02  0.86449448447E+02  0.00000000000E+00 0. -1.
        -11    1    4    4    0    0 -0.57797410727E+02  0.75901184816E+02 -0.19470419290E+02  0.97368515294E+02  0.00000000000E+00 0.  1.
         11    1    4    4    0    0 -0.14096389941E+02  0.29108256273E+02  0.53655374483E+02  0.62649006405E+02  0.00000000000E+00 0. -1.
          1    1    1    2  501    0  0.62565881049E+02 -0.78562408287E+02 -0.93783812426E+02  0.13741158954E+03  0.00000000000E+00 0. -1.
<scales pt_clust_5="13000.00000" pt_clust_6="13000.00000" pt_clust_7="13000.00000" pt_clust_8="13000.00000" pt_clust_9="13000.00000"></scales>
<clustering>
<clus scale="   83.026">  5  6 -1 -1</clus>
<clus scale="   87.634">  2  5  1 -1</clus>
<clus scale="   90.782">  7  8 -1 -1</clus>
<clus scale="  117.742">  7  9 -1 -1</clus>
<clus scale="  291.397">  1  5  2 -1</clus>
</clustering>
</event>
<event>
 9    2  0.3707658E-005  0.3000691E+03  0.7546771E-02  0.1129202E+00
         21   -1    0    0  501  502  0.00000000000E+00  0.00000000000E+00  0.23161883373E+03  0.23161883373E+03  0.00000000000E+00 0. -1.
          2   -1    0    0  502    0 -0.00000000000E+00 -0.00000000000E+00 -0.24462779032E+03  0.24462779032E+03  0.00000000000E+00 0. -1.
         24    2    1    2    0    0  0.22934264662E+02 -0.50203332447E+02  0.11449592188E+03  0.15021143995E+03  0.80048769378E+02 0.  0.
         23    2    1    2    0    0  0.19391404515E+02 -0.50387274958E+02 -0.17118175116E+03  0.20848688859E+03  0.10605982622E+03 0.  0.
        -13    1    3    3    0    0 -0.20278119832E+02  0.16119120963E+01  0.39793004975E+01  0.20727644270E+02  0.00000000000E+00 0.  1.
         14    1    3    3    0    0  0.43212384494E+02 -0.51815244544E+02  0.11051662139E+03  0.12948379568E+03  0.00000000000E+00 0. -1.
        -11    1    4    4    0    0 -0.40007432368E+02 -0.42263988253E+02 -0.71810951083E+02  0.92431877851E+02  0.00000000000E+00 0.  1.
         11    1    4    4    0    0  0.59398836884E+02 -0.81232867054E+01 -0.99370800075E+02  0.11605501074E+03  0.00000000000E+00 0. -1.
          1    1    1    2  501    0 -0.42325669178E+02  0.10059060741E+03  0.43676872688E+02  0.11754829551E+03  0.00000000000E+00 0. -1.
<scales pt_clust_5="13000.00000" pt_clust_6="13000.00000" pt_clust_7="13000.00000" pt_clust_8="13000.00000" pt_clust_9="13000.00000"></scales>
<clustering>
<clus scale="   80.049">  5  6 -1 -1</clus>
<clus scale="   97.233">  2  5  1 -1</clus>
<clus scale="  106.060">  7  8 -1 -1</clus>
<clus scale="  100.147">  7  9 -1 -1</clus>
<clus scale="  300.069">  1  5  2 -1</clus>
</clustering>
</event>
<event>
 9    2  0.3707658E-005  0.2496895E+03  0.7546771E-02  0.1147407E+00
         21   -1    0    0  501  502  0.00000000000E+00  0.00000000000E+00  0.98893046653E+02  0.98893046653E+02  0.00000000000E+00 0.  1.
         -1   -1    0    0    0  501 -0.00000000000E+00 -0.00000000000E+00 -0.46291829050E+03  0.46291829050E+03  0.00000000000E+00 0.  1.
         24    2    1    2    0    0 -0.41750574574E+02  0.58721872891E+02 -0.27674908114E+03  0.29730805938E+03  0.81305961842E+02 0.  0.
         23    2    1    2    0    0 -0.10829154172E+02  0.62113292918E+02 -0.64389817779E+02  0.13075145552E+03  0.94734168863E+02 0.  0.
        -11    1    3    3    0    0 -0.44976556151E+01  0.68821062934E+02 -0.19667474012E+03  0.20841670041E+03  0.00000000000E+00 0.  1.
         12    1    3    3    0    0 -0.37252918959E+02 -0.10099190043E+02 -0.80074341017E+02  0.88891358972E+02  0.00000000000E+00 0. -1.
        -11    1    4    4    0    0  0.37551281987E+02  0.47904095957E+02 -0.48670839548E+02  0.77934278791E+02  0.00000000000E+00 0.  1.
         11    1    4    4    0    0 -0.48380436159E+02  0.14209196961E+02 -0.15718978231E+02  0.52817176731E+02  0.00000000000E+00 0. -1.
         -2    1    1    2    0  502  0.52579728746E+02 -0.12083516581E+03 -0.22886344936E+02  0.13375182225E+03  0.00000000000E+00 0.  1.
<scales pt_clust_5="13000.00000" pt_clust_6="13000.00000" pt_clust_7="13000.00000" pt_clust_8="13000.00000" pt_clust_9="13000.00000"></scales>
<clustering>
<clus scale="   81.306">  5  6 -1 -1</clus>
<clus scale="   94.734">  7  8 -1 -1</clus>
<clus scale="  108.637">  2  5  1 -1</clus>
<clus scale="  100.604">  7  9 -1 -1</clus>
<clus scale="  249.690">  1  5  2 -1</clus>
</clustering>
</event>
<event>
 9    2  0.3707658E-005  0.1135243E+03  0.7546771E-02  0.1268233E+00
          2   -1    0    0  502    0 -0.00000000000E+00  0.00000000000E+00  0.66693428304E+02  0.66693428304E+02  0.00000000000E+00 0. -1.
         21   -1    0    0  501  502  0.00000000000E+00 -0.00000000000E+00 -0.16081005314E+03  0.16081005314E+03  0.00000000000E+00 0. -1.
         24    2    1    2    0    0  0.11018871228E+02 -0.27479906326E+02 -0.70992148694E+02  0.11164794000E+03  0.80924758599E+02 0.  0.
         23    2    1    2    0    0  0.98459133831E+00  0.80555623921E+01 -0.30617451050E+02  0.91823626758E+02  0.86187520075E+02 0.  0.
        -13    1    3    3    0    0 -0.30685117499E+02  0.48689897679E+01 -0.14336937950E+02  0.34217412045E+02  0.00000000000E+00 0.  1.
         14    1    3    3    0    0  0.41703988728E+02 -0.32348896094E+02 -0.56655210744E+02  0.77430527951E+02  0.00000000000E+00 0. -1.
        -11    1    4    4    0    0  0.25382913150E+02 -0.82597469760E+01  0.19971145969E+02  0.33337102025E+02  0.00000000000E+00 0.  1.
         11    1    4    4    0    0 -0.24398321812E+02  0.16315309368E+02 -0.50588597019E+02  0.58486524733E+02  0.00000000000E+00 0. -1.
          1    1    1    2  501    0 -0.12003462567E+02  0.19424343934E+02  0.74929749051E+01  0.24031914693E+02  0.00000000000E+00 0. -1.
<scales pt_clust_5="13000.00000" pt_clust_6="13000.00000" pt_clust_7="13000.00000" pt_clust_8="13000.00000" pt_clust_9="13000.00000"></scales>
<clustering>
<clus scale="   80.925">  5  6 -1 -1</clus>
<clus scale="   86.171">  1  5  2 -1</clus>
<clus scale="   86.188">  7  8 -1 -1</clus>
<clus scale="   13.032">  7  9 -1 -1</clus>
<clus scale="  113.524">  2  5  1 -1</clus>
</clustering>
</event>
<event>
 9    2  0.3707658E-005  0.1959496E+03  0.7546771E-02  0.1179591E+00
         -1   -1    0    0    0  501 -0.00000000000E+00  0.00000000000E+00  0.23784351409E+03  0.23784351409E+03  0.00000000000E+00 0.  1.
         21   -1    0    0  501  502  0.00000000000E+00 -0.00000000000E+00 -0.97278684949E+02  0.97278684949E+02  0.00000000000E+00 0. -1.
         24    2    1    2    0    0 -0.66587681774E+02  0.20483089231E+02  0.65835038785E+02  0.12540624798E+03  0.80864073555E+02 0.  0.
         23    2    1    2    0    0  0.31863300599E+02  0.19585016434E+01 -0.26369588466E+02  0.10048915926E+03  0.91562056983E+02 0.  0.
        -13    1    3    3    0    0 -0.80488454562E+02 -0.15644254471E+01  0.46655350750E+02  0.93046012803E+02  0.00000000000E+00 0.  1.
         14    1    3    3    0    0  0.13900772788E+02  0.22047514678E+02  0.19179688035E+02  0.32360235177E+02  0.00000000000E+00 0. -1.
        -13    1    4    4    0    0 -0.25157748065E+02 -0.22941863687E+02 -0.15144646905E+02  0.37263946745E+02  0.00000000000E+00 0.  1.
         13    1    4    4    0    0  0.57021048665E+02  0.24900365330E+02 -0.11224941561E+02  0.63225212514E+02  0.00000000000E+00 0. -1.
         -2    1    1    2    0  502  0.34724381175E+02 -0.22441590874E+02  0.10109937882E+03  0.10922679180E+03  0.00000000000E+00 0.  1.
<scales pt_clust_5="13000.00000" pt_clust_6="13000.00000" pt_clust_7="13000.00000" pt_clust_8="13000.00000" pt_clust_9="13000.00000"></scales>
<clustering>
<clus scale="   80.864">  5  6 -1 -1</clus>
<clus scale="   91.562">  7  8 -1 -1</clus>
<clus scale="   41.345">  7  9 -1 -1</clus>
<clus scale="  106.736">  1  5  2 -1</clus>
<clus scale="  195.950">  2  5  1 -1</clus>
</clustering>
</event>
<event>
 9    2  0.3707658E-005  0.1477149E+03  0.7546771E-02  0.1224056E+00
         21   -1    0    0  501  502  0.00000000000E+00  0.00000000000E+00  0.31849159859E+02  0.31849159859E+02  0.00000000000E+00 0.  1.
          2   -1    0    0  502    0 -0.00000000000E+00 -0.00000000000E+00 -0.86426253013E+03  0.86426253013E+03  0.00000000000E+00 0. -1.
         24    2    1    2    0    0 -0.38897537397E+02  0.41829159290E+02 -0.66942111615E+03  0.67614312150E+03  0.76040732680E+02 0.  0.
         23    2    1    2    0    0  0.63956749101E+02 -0.47262045813E+02 -0.12816491180E+03  0.17672016828E+03  0.92084779036E+02 0.  0.
        -13    1    3    3    0    0  0.14542238580E+02  0.27518300682E+02 -0.12100885791E+03  0.12494749804E+03  0.00000000000E+00 0.  1.
         14    1    3    3    0    0 -0.53439775977E+02  0.14310858608E+02 -0.54841225824E+03  0.55119562346E+03  0.00000000000E+00 0. -1.
        -13    1    4    4    0    0  0.35741012170E+02  0.13313129206E+02 -0.76223184474E+01  0.38894203922E+02  0.00000000000E+00 0. -1.
         13    1    4    4    0    0  0.28215736931E+02 -0.60575175019E+02 -0.12054259335E+03  0.13782596435E+03  0.00000000000E+00 0.  1.
          1    1    1    2  501    0 -0.25059211704E+02  0.54328865229E+01 -0.34827342319E+02  0.43248400204E+02  0.00000000000E+00 0. -1.
<scales pt_clust_5="13000.00000" pt_clust_6="13000.00000" pt_clust_7="13000.00000" pt_clust_8="13000.00000" pt_clust_9="13000.00000"></scales>
<clustering>
<clus scale="   76.041">  5  6 -1 -1</clus>
<clus scale="   92.085">  7  8 -1 -1</clus>
<clus scale="   25.641">  7  9 -1 -1</clus>
<clus scale="   95.105">  2  5  1 -1</clus>
<clus scale="  147.715">  1  5  2 -1</clus>
</clustering>
</event>
<event>
 9    2  0.3707658E-005  0.2542911E+03  0.7546771E-02  0.1152905E+00
         21   -1    0    0  501  502  0.00000000000E+00  0.00000000000E+00  0.45069793381E+02  0.45069793381E+02  0.00000000000E+00 0. -1.
          2   -1    0    0  502    0 -0.00000000000E+00 -0.00000000000E+00 -0.65901329712E+03  0.65901329712E+03  0.00000000000E+00 0. -1.
         24    2    1    2    0    0 -0.19489939284E+02 -0.10352542749E+02 -0.16857454548E+03  0.19123077799E+03  0.87548844623E+02 0.  0.
         23    2    1    2    0    0 -0.74075074168E+02  0.61798772681E+02 -0.16031239658E+03  0.20845393919E+03  0.91906340100E+02 0.  0.
        -13    1    3    3    0    0  0.30641296352E+02 -0.23314064493E+02 -0.72923645226E+02  0.82463887117E+02  0.00000000000E+00 0.  1.
         14    1    3    3    0    0 -0.50131235636E+02  0.12961521745E+02 -0.95650900252E+02  0.10876689088E+03  0.00000000000E+00 0. -1.
        -11    1    4    4    0    0 -0.57775789718E+02  0.78846766999E+02 -0.85008222438E+02  0.12954247344E+03  0.00000000000E+00 0. -1.
         11    1    4    4    0    0 -0.16299284450E+02 -0.17047994318E+02 -0.75304174139E+02  0.78911465749E+02  0.00000000000E+00 0.  1.
          1    1    1    2  501    0  0.93565013452E+02 -0.51446229932E+02 -0.28505656169E+03  0.30439837332E+03  0.00000000000E+00 0. -1.
<scales pt_clust_5="13000.00000" pt_clust_6="13000.00000" pt_clust_7="13000.00000" pt_clust_8="13000.00000" pt_clust_9="13000.00000"></scales>
<clustering>
<clus scale="   87.549">  5  6 -1 -1</clus>
<clus scale="   90.288">  2  5  1 -1</clus>
<clus scale="   91.906">  7  8 -1 -1</clus>
<clus scale="   99.986">  7  9 -1 -1</clus>
<clus scale="  254.291">  1  5  2 -1</clus>
</clustering>
</event>
<event>
 9    2  0.3707658E-005  0.1738607E+03  0.7546771E-02  0.1205400E+00
         21   -1    0    0  501  502  0.00000000000E+00  0.00000000000E+00  0.10863024234E+03  0.10863024234E+03  0.00000000000E+00 0. -1.
          2   -1    0    0  502    0 -0.00000000000E+00 -0.00000000000E+00 -0.18209735512E+04  0.18209735512E+04  0.00000000000E+00 0. -1.
         24    2    1    2    0    0 -0.17305669018E+02 -0.13222916864E+02 -0.17496447270E+04  0.17517866320E+04  0.83817669430E+02 0.  0.
         23    2    1    2    0    0  0.15557377258E+02 -0.40521538409E+02 -0.16289972833E+02  0.10189904653E+03  0.90741530769E+02 0.  0.
        -13    1    3    3    0    0  0.97004762370E+01 -0.20476827840E+02 -0.13416196552E+03  0.13606187089E+03  0.00000000000E+00 0.  1.
         14    1    3    3    0    0 -0.27006145255E+02  0.72539109761E+01 -0.16154827615E+04  0.16157247611E+04  0.00000000000E+00 0. -1.
        -13    1    4    4    0    0 -0.29990950640E+02 -0.12411786955E+02  0.19168502939E+02  0.37695372138E+02  0.00000000000E+00 0.  1.
         13    1    4    4    0    0  0.45548327897E+02 -0.28109751454E+02 -0.35458475772E+02  0.64203674390E+02  0.00000000000E+00 0. -1.
          1    1    1    2  501    0  0.17482917602E+01  0.53744455273E+02  0.53591390980E+02  0.75918114991E+02  0.00000000000E+00 0. -1.
<scales pt_clust_5="13000.00000" pt_clust_6="13000.00000" pt_clust_7="13000.00000" pt_clust_8="13000.00000" pt_clust_9="13000.00000"></scales>
<clustering>
<clus scale="   83.818">  5  6 -1 -1</clus>
<clus scale="   86.601">  2  5  1 -1</clus>
<clus scale="   90.742">  7  8 -1 -1</clus>
<clus scale="   51.653">  7  9 -1 -1</clus>
<clus scale="  173.861">  1  5  2 -1</clus>
</clustering>
</event>
<event>
 9    2  0.3707658E-005  0.4590379E+03  0.7546771E-02  0.1077664E+00
         21   -1    0    0  501  502  0.00000000000E+00  0.00000000000E+00  0.54347494522E+03  0.54347494522E+03  0.00000000000E+00 0.  1.
         -3   -1    0    0    0  501 -0.00000000000E+00 -0.00000000000E+00 -0.32474771060E+03  0.32474771060E+03  0.00000000000E+00 0.  1.
         24    2    1    2    0    0  0.58120618745E+01 -0.58581870277E+02 -0.21401980667E+03  0.23736152090E+03  0.84085660910E+02 0.  0.
         23    2    1    2    0    0  0.69118209917E+02 -0.92830854257E+02  0.43746059227E+03  0.46185647125E+03  0.92437740124E+02 0.  0.
        -11    1    3    3    0    0 -0.27401037512E+02 -0.60410641122E+02 -0.16763631645E+03  0.18028365708E+03  0.00000000000E+00 0.  1.
         12    1    3    3    0    0  0.33213099386E+02  0.18287708446E+01 -0.46383490216E+02  0.57077863820E+02  0.00000000000E+00 0. -1.
        -13    1    4    4    0    0  0.37960054872E+02 -0.63842478374E+02  0.39433048701E+03  0.40126470166E+03  0.00000000000E+00 0.  1.
         13    1    4    4    0    0  0.31158155046E+02 -0.28988375883E+02  0.43130105258E+02  0.60591769588E+02  0.00000000000E+00 0. -1.
         -4    1    1    2    0  502 -0.74930271792E+02  0.15141272453E+03 -0.47135509815E+01  0.16900466368E+03  0.00000000000E+00 0.  1.
<scales pt_clust_5="13000.00000" pt_clust_6="13000.00000" pt_clust_7="13000.00000" pt_clust_8="13000.00000" pt_clust_9="13000.00000"></scales>
<clustering>
<clus scale="   84.086">  5  6 -1 -1</clus>
<clus scale="   92.438">  7  8 -1 -1</clus>
<clus scale="  102.645">  2  5  1 -1</clus>
<clus scale="  122.007">  7  9 -1 -1</clus>
<clus scale="  459.038">  1  5  2 -1</clus>
</clustering>
</event>
<event>
 9    2  0.3707658E-005  0.2640227E+03  0.7546771E-02  0.1124036E+00
         21   -1    0    0  501  502  0.00000000000E+00  0.00000000000E+00  0.19542693974E+02  0.19542693974E+02  0.00000000000E+00 0.  1.
          2   -1    0    0  502    0 -0.00000000000E+00 -0.00000000000E+00 -0.24133488669E+04  0.24133488669E+04  0.00000000000E+00 0. -1.
         24    2    1    2    0    0 -0.13153329489E+03  0.49746749907E+02 -0.69363587961E+03  0.71234309397E+03  0.80784919659E+02 0.  0.
         23    2    1    2    0    0 -0.25374645959E+02 -0.36835230595E+02 -0.60695999269E+03  0.61605963915E+03  0.95542343509E+02 0.  0.
        -11    1    3    3    0    0 -0.13230582899E+03  0.21699159572E+02 -0.57996007572E+03  0.59525572264E+03  0.00000000000E+00 0.  1.
         12    1    3    3    0    0  0.77253410053E+00  0.28047590334E+02 -0.11367580389E+03  0.11708737132E+03  0.00000000000E+00 0. -1.
        -13    1    4    4    0    0 -0.20526821182E+02 -0.69404411493E+02 -0.43389817332E+03  0.43989310922E+03  0.00000000000E+00 0.  1.
         13    1    4    4    0    0 -0.48478247772E+01  0.32569180897E+02 -0.17306181936E+03  0.17616652994E+03  0.00000000000E+00 0. -1.
          1    1    1    2  501    0  0.15690794085E+03 -0.12911519311E+02 -0.10932103006E+04  0.11044888278E+04  0.00000000000E+00 0. -1.
<scales pt_clust_5="13000.00000" pt_clust_6="13000.00000" pt_clust_7="13000.00000" pt_clust_8="13000.00000" pt_clust_9="13000.00000"></scales>
<clustering>
<clus scale="   80.785">  5  6 -1 -1</clus>
<clus scale="   95.542">  7  8 -1 -1</clus>
<clus scale="  157.438">  7  9 -1 -1</clus>
<clus scale="  162.179">  2  5  1 -1</clus>
<clus scale="  264.023">  1  5  2 -1</clus>
</clustering>
</event>
<event>
 9    2  0.3707658E-005  0.3641518E+03  0.7546771E-02  0.1096293E+00
         21   -1    0    0  501  502  0.00000000000E+00  0.00000000000E+00  0.58093590524E+02  0.58093590524E+02  0.00000000000E+00 0. -1.
          2   -1    0    0  502    0 -0.00000000000E+00 -0.00000000000E+00 -0.12744152005E+04  0.12744152005E+04  0.00000000000E+00 0. -1.
         24    2    1    2    0    0  0.93226206365E+02  0.15615492928E+02 -0.10639303797E+03  0.16437012326E+03  0.82238006539E+02 0.  0.
         23    2    1    2    0    0  0.99807004605E+02 -0.82841356609E+02 -0.47067310727E+03  0.49699882653E+03  0.93008231560E+02 0.  0.
        -13    1    3    3    0    0  0.18924162579E+02 -0.23449159224E+02 -0.63083662800E+02  0.69910911236E+02  0.00000000000E+00 0.  1.
         14    1    3    3    0    0  0.74302043786E+02  0.39064652152E+02 -0.43309375168E+02  0.94459212023E+02  0.00000000000E+00 0. -1.
        -13    1    4    4    0    0 -0.10685107323E+02 -0.39454988172E+02 -0.11664225217E+03  0.12359725969E+03  0.00000000000E+00 0.  1.
         13    1    4    4    0    0  0.11049211193E+03 -0.43386368437E+02 -0.35403085510E+03  0.37340156685E+03  0.00000000000E+00 0. -1.
          1    1    1    2  501    0 -0.19303321097E+03  0.67225863681E+02 -0.63925546472E+03  0.67113984121E+03  0.00000000000E+00 0. -1.
<scales pt_clust_5="13000.00000" pt_clust_6="13000.00000" pt_clust_7="13000.00000" pt_clust_8="13000.00000" pt_clust_9="13000.00000"></scales>
<clustering>
<clus scale="   82.238">  5  6 -1 -1</clus>
<clus scale="   93.008">  7  8 -1 -1</clus>
<clus scale="  125.292">  2  5  1 -1</clus>
<clus scale="  158.878">  7  9 -1 -1</clus>
<clus scale="  364.152">  1  5  2 -1</clus>
</clustering>
</event>
<event>
 9    2  0.3707658E-005  0.1915049E+03  0.7546771E-02  0.1182320E+00
         21   -1    0    0  501  502  0.00000000000E+00  0.00000000000E+00  0.76045329978E+02  0.76045329978E+02  0.00000000000E+00 0.  1.
          4   -1    0    0  502    0 -0.00000000000E+00 -0.00000000000E+00 -0.29492164974E+03  0.29492164974E+03  0.00000000000E+00 0. -1.
         24    2    1    2    0    0 -0.70137408461E+02 -0.15404516354E+02 -0.68928110747E+02  0.12774160486E+03  0.80064211546E+02 0.  0.
         23    2    1    2    0    0  0.30480665848E+02 -0.27179462917E+02 -0.21644368163E+02  0.10234269991E+03  0.91311310119E+02 0.  0.
        -11    1    3    3    0    0 -0.61236049249E+02  0.18756765337E+02 -0.19396244840E+02  0.66916995505E+02  0.00000000000E+00 0.  1.
         12    1    3    3    0    0 -0.89013592118E+01 -0.34161281691E+02 -0.49531865906E+02  0.60824609351E+02  0.00000000000E+00 0. -1.
        -11    1    4    4    0    0 -0.10777684103E+02 -0.38523861019E+02 -0.39277620953E+02  0.56062267615E+02  0.00000000000E+00 0. -1.
         11    1    4    4    0    0  0.41258349951E+02  0.11344398102E+02  0.17633252790E+02  0.46280432290E+02  0.00000000000E+00 0.  1.
          3    1    1    2  501    0  0.39656742612E+02  0.42583979271E+02 -0.12830384086E+03  0.14088267496E+03  0.00000000000E+00 0. -1.
<scales pt_clust_5="13000.00000" pt_clust_6="13000.00000" pt_clust_7="13000.00000" pt_clust_8="13000.00000" pt_clust_9="13000.00000"></scales>
<clustering>
<clus scale="   80.064">  5  6 -1 -1</clus>
<clus scale="   91.311">  7  8 -1 -1</clus>
<clus scale="   58.190">  7  9 -1 -1</clus>
<clus scale="  107.549">  2  5  1 -1</clus>
<clus scale="  191.505">  1  5  2 -1</clus>
</clustering>
</event>
<event>
 9    2  0.3707658E-005  0.1497996E+03  0.7546771E-02  0.1217040E+00
         21   -1    0    0  501  502  0.00000000000E+00  0.00000000000E+00  0.46727451144E+03  0.46727451144E+03  0.00000000000E+00 0.  1.
         -1   -1    0    0    0  501 -0.00000000000E+00 -0.00000000000E+00 -0.34913036187E+02  0.34913036187E+02  0.00000000000E+00 0.  1.
         24    2    1    2    0    0 -0.16366414135E+02 -0.66417944671E+02  0.18014467355E+03  0.20883924408E+03  0.80514120353E+02 0.  0.
         23    2    1    2    0    0  0.42278486868E+02  0.67391315426E+02  0.22944880106E+03  0.25884084323E+03  0.89569916643E+02 0.  0.
        -13    1    3    3    0    0  0.15841227832E+02 -0.69486232129E+02  0.10369105990E+03  0.12582176623E+03  0.00000000000E+00 0.  1.
         14    1    3    3    0    0 -0.32207641968E+02  0.30682874581E+01  0.76453613651E+02  0.83017477855E+02  0.00000000000E+00 0. -1.
        -13    1    4    4    0    0 -0.96515603922E+01  0.64148136219E+02  0.98591983511E+02  0.11801913070E+03  0.00000000000E+00 0.  1.
         13    1    4    4    0    0  0.51930047260E+02  0.32431792063E+01  0.13085681755E+03  0.14082171253E+03  0.00000000000E+00 0. -1.
         -2    1    1    2    0  502 -0.25912072733E+02 -0.97337075501E+00  0.22768000641E+02  0.34507460311E+02  0.00000000000E+00 0.  1.
<scales pt_clust_5="13000.00000" pt_clust_6="13000.00000" pt_clust_7="13000.00000" pt_clust_8="13000.00000" pt_clust_9="13000.00000"></scales>
<clustering>
<clus scale="   80.514">  5  6 -1 -1</clus>
<clus scale="   89.570">  7  8 -1 -1</clus>
<clus scale="   25.930">  7  9 -1 -1</clus>
<clus scale="  105.649">  2  5  1 -1</clus>
<clus scale="  149.800">  1  5  2 -1</clus>
</clustering>
</event>
<event>
 9    2  0.3707658E-005  0.4504023E+03  0.7546771E-02  0.1066888E+00
         21   -1    0    0  501  502  0.00000000000E+00  0.00000000000E+00  0.32215523157E+03  0.32215523157E+03  0.00000000000E+00 0.  1.
          2   -1    0    0  502    0 -0.00000000000E+00 -0.00000000000E+00 -0.38602234805E+03  0.38602234805E+03  0.00000000000E+00 0. -1.
         24    2    1    2    0    0 -0.19531477566E+02  0.12127757287E+03  0.15029256010E+03  0.20945257494E+03  0.78694340531E+02 0.  0.
         23    2    1    2    0    0 -0.15507848231E+03  0.46175913304E+02 -0.16715311335E+02  0.18645335132E+03  0.91125736993E+02 0.  0.
        -11    1    3    3    0    0  0.29717191770E+02  0.35205430336E+02  0.57106447362E+02  0.73373565691E+02  0.00000000000E+00 0.  1.
         12    1    3    3    0    0 -0.49248669337E+02  0.86072142534E+02  0.93186112738E+02  0.13607900925E+03  0.00000000000E+00 0. -1.
        -11    1    4    4    0    0 -0.10742230213E+03 -0.17390363825E+01  0.20395154504E+02  0.10935509850E+03  0.00000000000E+00 0.  1.
         11    1    4    4    0    0 -0.47656180179E+02  0.47914949687E+02 -0.37110465839E+02  0.77098252818E+02  0.00000000000E+00 0. -1.
          1    1    1    2  501    0  0.17460995987E+03 -0.16745348617E+03 -0.19744436525E+03  0.31227165335E+03  0.00000000000E+00 0. -1.
<scales pt_clust_5="13000.00000" pt_clust_6="13000.00000" pt_clust_7="13000.00000" pt_clust_8="13000.00000" pt_clust_9="13000.00000"></scales>
<clustering>
<clus scale="   78.694">  5  6 -1 -1</clus>
<clus scale="   91.126">  7  8 -1 -1</clus>
<clus scale="  145.885">  2  5  1 -1</clus>
<clus scale="  179.793">  7  9 -1 -1</clus>
<clus scale="  450.402">  1  5  2 -1</clus>
</clustering>
</event>
<event>
 9    2  0.3707658E-005  0.5883977E+03  0.7546771E-02  0.1038213E+00
          2   -1    0    0  502    0 -0.00000000000E+00  0.00000000000E+00  0.92486572931E+03  0.92486572931E+03  0.00000000000E+00 0. -1.
         21   -1    0    0  501  502  0.00000000000E+00 -0.00000000000E+00 -0.36478689004E+03  0.36478689004E+03  0.00000000000E+00 0.  1.
         24    2    1    2    0    0 -0.37497328892E+02  0.11631324821E+03  0.67428369647E+03  0.69027412035E+03  0.82976120184E+02 0.  0.
         23    2    1    2    0    0 -0.16260377630E+03 -0.26241834562E+03 -0.14034382006E+03  0.35023918622E+03  0.87565538596E+02 0.  0.
        -13    1    3    3    0    0 -0.34575691278E+02  0.18397327393E+02  0.94847323993E+02  0.10261556876E+03  0.00000000000E+00 0.  1.
         14    1    3    3    0    0 -0.29216376148E+01  0.97915920821E+02  0.57943637247E+03  0.58765855159E+03  0.00000000000E+00 0. -1.
        -13    1    4    4    0    0 -0.83546042166E+02 -0.20979436241E+03 -0.10282471524E+03  0.24812605209E+03  0.00000000000E+00 0.  1.
         13    1    4    4    0    0 -0.79057734138E+02 -0.52623983209E+02 -0.37519104819E+02  0.10211313413E+03  0.00000000000E+00 0. -1.
          1    1    1    2  501    0  0.20010110520E+03  0.14610509741E+03  0.26138962858E+02  0.24913931277E+03  0.00000000000E+00 0. -1.
<scales pt_clust_5="13000.00000" pt_clust_6="13000.00000" pt_clust_7="13000.00000" pt_clust_8="13000.00000" pt_clust_9="13000.00000"></scales>
<clustering>
<clus scale="   82.976">  5  6 -1 -1</clus>
<clus scale="   87.566">  7  8 -1 -1</clus>
<clus scale="  147.715">  1  5  2 -1</clus>
<clus scale="  277.425">  7  9 -1 -1</clus>
<clus scale="  588.398">  2  5  1 -1</clus>
</clustering>
</event>
<event>
 9    2  0.3707658E-005  0.1673419E+03  0.7546771E-02  0.1212186E+00
         21   -1    0    0  501  502  0.00000000000E+00  0.00000000000E+00  0.21265693903E+02  0.21265693903E+02  0.00000000000E+00 0. -1.
          2   -1    0    0  502    0 -0.00000000000E+00 -0.00000000000E+00 -0.74865727645E+03  0.74865727645E+03  0.00000000000E+00 0. -1.
         24    2    1    2    0    0  0.13799646694E+02  0.18532449902E+02 -0.27667046937E+03  0.28913941561E+03  0.80753768253E+02 0.  0.
         23    2    1    2    0    0 -0.32767504160E+02 -0.64686337618E+02 -0.32499881346E+03  0.34552063443E+03  0.92207637752E+02 0.  0.
        -11    1    3    3    0    0  0.24861788860E+02 -0.11087885551E+02 -0.30236511840E+02  0.40685333962E+02  0.00000000000E+00 0.  1.
         12    1    3    3    0    0 -0.11062142167E+02  0.29620335452E+02 -0.24643395753E+03  0.24845408164E+03  0.00000000000E+00 0. -1.
        -13    1    4    4    0    0 -0.33917110079E+02 -0.12155130104E+02 -0.33084837892E+02  0.48915478555E+02  0.00000000000E+00 0. -1.
         13    1    4    4    0    0  0.11496059187E+01 -0.52531207514E+02 -0.29191397557E+03  0.29660515587E+03  0.00000000000E+00 0.  1.
          1    1    1    2  501    0  0.18967857466E+02  0.46153887716E+02 -0.12572229972E+03  0.13526292032E+03  0.00000000000E+00 0. -1.
<scales pt_clust_5="13000.00000" pt_clust_6="13000.00000" pt_clust_7="13000.00000" pt_clust_8="13000.00000" pt_clust_9="13000.00000"></scales>
<clustering>
<clus scale="   80.754">  5  6 -1 -1</clus>
<clus scale="   83.994">  2  5  1 -1</clus>
<clus scale="   92.208">  7  8 -1 -1</clus>
<clus scale="   56.195">  7  9 -1 -1</clus>
<clus scale="  167.342">  1  5  2 -1</clus>
</clustering>
</event>
<event>
 9    2  0.3707658E-005  0.2854010E+03  0.7546771E-02  0.1123991E+00
          2   -1    0    0  502    0 -0.00000000000E+00  0.00000000000E+00  0.15638603498E+04  0.15638603498E+04  0.00000000000E+00 0. -1.
         21   -1    0    0  501  502  0.00000000000E+00 -0.00000000000E+00 -0.38382448690E+02  0.38382448690E+02  0.00000000000E+00 0. -1.
         24    2    1    2    0    0 -0.61034883287E+02 -0.80785880798E+02  0.96259934393E+03  0.97114373781E+03  0.79189942775E+02 0.  0.
         23    2    1    2    0    0 -0.86564461448E+02  0.54455882181E+02  0.25993599205E+03  0.29308569829E+03  0.88733632221E+02 0.  0.
        -11    1    3    3    0    0 -0.54692330203E+02 -0.12151872348E+02  0.32099364393E+03  0.32584634174E+03  0.00000000000E+00 0.  1.
         12    1    3    3    0    0 -0.63425530847E+01 -0.68634008449E+02  0.64160570000E+03  0.64529739606E+03  0.00000000000E+00 0. -1.
        -13    1    4    4    0    0 -0.63511450889E+02  0.19798590752E+02  0.62397039151E+02  0.91208985767E+02  0.00000000000E+00 0. -1.
         13    1    4    4    0    0 -0.23053010558E+02  0.34657291429E+02  0.19753895290E+03  0.20187671252E+03  0.00000000000E+00 0.  1.
          1    1    1    2  501    0  0.14759934474E+03  0.26329998616E+02  0.30294256517E+03  0.33801336243E+03  0.00000000000E+00 0. -1.
<scales pt_clust_5="13000.00000" pt_clust_6="13000.00000" pt_clust_7="13000.00000" pt_clust_8="13000.00000" pt_clust_9="13000.00000"></scales>
<clustering>
<clus scale="   79.190">  5  6 -1 -1</clus>
<clus scale="   88.734">  7  8 -1 -1</clus>
<clus scale="  128.541">  1  5  2 -1</clus>
<clus scale="  116.091">  7  9 -1 -1</clus>
<clus scale="  285.401">  2  5  1 -1</clus>
</clustering>
</event>
<event>
 9    2  0.3707658E-005  0.3818461E+03  0.7546771E-02  0.1077182E+00
          2   -1    0    0  502    0 -0.00000000000E+00  0.00000000000E+00  0.40325203218E+03  0.40325203218E+03  0.00000000000E+00 0. -1.
         21   -1    0    0  501  502  0.00000000000E+00 -0.00000000000E+00 -0.19653550679E+03  0.19653550679E+03  0.00000000000E+00 0. -1.
         24    2    1    2    0    0  0.83787025035E+02  0.13972415147E+03  0.54353333618E+02  0.18866590596E+03  0.78086075128E+02 0.  0.
         23    2    1    2    0    0  0.14968067407E+02  0.91522322438E+02  0.58799663658E+02  0.14282770134E+03  0.91334403576E+02 0.  0.
        -11    1    3    3    0    0  0.50954915984E+02  0.12283585100E+03  0.67926869299E+02  0.14932886301E+03  0.00000000000E+00 0.  1.
         12    1    3    3    0    0  0.32832109051E+02  0.16888300463E+02 -0.13573535681E+02  0.39337042951E+02  0.00000000000E+00 0. -1.
        -13    1    4    4    0    0 -0.17271779639E+02  0.85805204217E+02  0.16060034203E+02  0.88987483059E+02  0.00000000000E+00 0. -1.
         13    1    4    4    0    0  0.32239847046E+02  0.57171182214E+01  0.42739629455E+02  0.53840218278E+02  0.00000000000E+00 0.  1.
          1    1    1    2  501    0 -0.98755092442E+02 -0.23124647391E+03  0.93563528111E+02  0.26829393167E+03  0.00000000000E+00 0. -1.
<scales pt_clust_5="13000.00000" pt_clust_6="13000.00000" pt_clust_7="13000.00000" pt_clust_8="13000.00000" pt_clust_9="13000.00000"></scales>
<clustering>
<clus scale="   78.086">  5  6 -1 -1</clus>
<clus scale="   91.334">  7  8 -1 -1</clus>
<clus scale="  180.667">  1  5  2 -1</clus>
<clus scale="  148.486">  7  9 -1 -1</clus>
<clus scale="  381.846">  2  5  1 -1</clus>
</clustering>
</event>
<event>
 9    2  0.3707658E-005  0.2082941E+03  0.7546771E-02  0.1174931E+00
          2   -1    0    0  502    0 -0.00000000000E+00  0.00000000000E+00  0.66102784231E+02  0.66102784231E+02  0.00000000000E+00 0. -1.
         21   -1    0    0  501  502  0.00000000000E+00 -0.00000000000E+00 -0.37010057958E+03  0.37010057958E+03  0.00000000000E+00 0. -1.
         24    2    1    2    0    0  0.17185936564E+02  0.51090446827E+02 -0.60567403050E+02  0.11582113801E+03  0.82707530040E+02 0.  0.
         23    2    1    2    0    0 -0.42979137666E+02 -0.10042862443E+03 -0.21459355767E+03  0.25768367698E+03  0.91746212509E+02 0.  0.
        -13    1    3    3    0    0  0.32046362766E+02  0.65573507771E+02 -0.30077528947E+02  0.78939926751E+02  0.00000000000E+00 0.  1.
         14    1    3    3    0    0 -0.14860426202E+02 -0.14483060943E+02 -0.30489874103E+02  0.36881211260E+02  0.00000000000E+00 0. -1.
        -11    1    4    4    0    0  0.26275622407E+02 -0.86177897464E+01 -0.41840607923E+02  0.50152877329E+02  0.00000000000E+00 0.  1.
         11    1    4    4    0    0 -0.69254760074E+02 -0.91810834684E+02 -0.17275294975E+03  0.20753079966E+03  0.00000000000E+00 0. -1.
          1    1    1    2  501    0  0.25793201103E+02  0.49338177603E+02 -0.28836834623E+02  0.62698548814E+02  0.00000000000E+00 0. -1.
<scales pt_clust_5="13000.00000" pt_clust_6="13000.00000" pt_clust_7="13000.00000" pt_clust_8="13000.00000" pt_clust_9="13000.00000"></scales>
<clustering>
<clus scale="   82.708">  5  6 -1 -1</clus>
<clus scale="   91.746">  7  8 -1 -1</clus>
<clus scale="   55.674">  7  9 -1 -1</clus>
<clus scale="   98.722">  1  5  2 -1</clus>
<clus scale="  208.294">  2  5  1 -1</clus>
</clustering>
</event>
<event>
 9    2  0.3707658E-005  0.3435711E+03  0.7546771E-02  0.1110580E+00
         21   -1    0    0  501  502  0.00000000000E+00  0.00000000000E+00  0.21140417065E+03  0.21140417065E+03  0.00000000000E+00 0.  1.
          2   -1    0    0  502    0 -0.00000000000E+00 -0.00000000000E+00 -0.82340110894E+03  0.82340110894E+03  0.00000000000E+00 0. -1.
         24    2    1    2    0    0 -0.23875542327E+02  0.60570027537E+02 -0.67726904783E+03  0.68508886316E+03  0.80091307414E+02 0.  0.
         23    2    1    2    0    0  0.41500191159E+02  0.12076905135E+03  0.57859904119E+02  0.16737215256E+03  0.91423406845E+02 0.  0.
        -11    1    3    3    0    0  0.73278394095E+01  0.45695070052E+02 -0.15715671114E+03  0.16382908323E+03  0.00000000000E+00 0.  1.
         12    1    3    3    0    0 -0.31203381736E+02  0.14874957484E+02 -0.52011233669E+03  0.52125977993E+03  0.00000000000E+00 0. -1.
        -13    1    4    4    0    0 -0.16344854509E+01  0.24614893758E+02 -0.23625712231E+02  0.34157558692E+02  0.00000000000E+00 0. -1.
         13    1    4    4    0    0  0.43134676610E+02  0.96154157590E+02  0.81485616351E+02  0.13321459387E+03  0.00000000000E+00 0.  1.
          1    1    1    2  501    0 -0.17624648832E+02 -0.18133907888E+03  0.74122054134E+01  0.18234426387E+03  0.00000000000E+00 0. -1.
<scales pt_clust_5="13000.00000" pt_clust_6="13000.00000" pt_clust_7="13000.00000" pt_clust_8="13000.00000" pt_clust_9="13000.00000"></scales>
<clustering>
<clus scale="   80.091">  5  6 -1 -1</clus>
<clus scale="   91.423">  7  8 -1 -1</clus>
<clus scale="  103.215">  2  5  1 -1</clus>
<clus scale="  147.667">  7  9 -1 -1</clus>
<clus scale="  343.571">  1  5  2 -1</clus>
</clustering>
</event>
<event>
 9    2  0.3707658E-005  0.7414646E+03  0.7546771E-02  0.1027953E+00
          4   -1    0    0  502    0 -0.00000000000E+00  0.00000000000E+00  0.21543774552E+03  0.21543774552E+03  0.00000000000E+00 0. -1.
         21   -1    0    0  501  502  0.00000000000E+00 -0.00000000000E+00 -0.10627146502E+04  0.10627146502E+04  0.00000000000E+00 0. -1.
         24    2    1    2    0    0  0.12600995360E+02  0.57637612479E+02  0.51991881246E+02  0.11262499119E+03  0.80624769579E+02 0.  0.
         23    2    1    2    0    0  0.16485508303E+03  0.24711980475E+03 -0.17811631238E+03  0.36276428054E+03  0.10782906011E+03 0.  0.
        -13    1    3    3    0    0  0.27382021095E+02 -0.85081670404E+00 -0.69713998808E+01  0.28268345983E+02  0.00000000000E+00 0.  1.
         14    1    3    3    0    0 -0.14781025735E+02  0.58488429183E+02  0.58963281127E+02  0.84356645211E+02  0.00000000000E+00 0. -1.
        -13    1    4    4    0    0  0.81604686609E+02  0.82205449296E+02 -0.12527603534E+03  0.17061988688E+03  0.00000000000E+00 0.  1.
         13    1    4    4    0    0  0.83250396418E+02  0.16491435545E+03 -0.52840277045E+02  0.19214439366E+03  0.00000000000E+00 0. -1.
          3    1    1    2  501    0 -0.17745607839E+03 -0.30475741723E+03 -0.72115247355E+03  0.80276312397E+03  0.00000000000E+00 0. -1.
<scales pt_clust_5="13000.00000" pt_clust_6="13000.00000" pt_clust_7="13000.00000" pt_clust_8="13000.00000" pt_clust_9="13000.00000"></scales>
<clustering>
<clus scale="   80.625">  5  6 -1 -1</clus>
<clus scale="   99.906">  1  5  2 -1</clus>
<clus scale="  107.829">  7  8 -1 -1</clus>
<clus scale="  335.494">  7  9 -1 -1</clus>
<clus scale="  741.465">  2  5  1 -1</clus>
</clustering>
</event>
<event>
 9    2  0.3707658E-005  0.6401124E+03  0.7546771E-02  0.1015292E+00
          2   -1    0    0  502    0 -0.00000000000E+00  0.00000000000E+00  0.89922789814E+03  0.89922789814E+03  0.00000000000E+00 0. -1.
         21   -1    0    0  501  502  0.00000000000E+00 -0.00000000000E+00 -0.22063108463E+03  0.22063108463E+03  0.00000000000E+00 0. -1.
         24    2    1    2    0    0  0.37083146598E+02 -0.20822298330E+03  0.29879305472E+03  0.37555074228E+03  0.83839727740E+02 0.  0.
         23    2    1    2    0    0  0.12748481417E+02 -0.13150299160E+03  0.36730015676E+03  0.40071943211E+03  0.90615106572E+02 0.  0.
        -11    1    3    3    0    0  0.31308033835E+02 -0.66614402505E+02  0.49225330393E+02  0.88548318765E+02  0.00000000000E+00 0.  1.
         12    1    3    3    0    0  0.57751127628E+01 -0.14160858079E+03  0.24956772432E+03  0.28700242352E+03  0.00000000000E+00 0. -1.
        -13    1    4    4    0    0  0.48984851758E+02 -0.49885147301E+02  0.13945253260E+03  0.15599696302E+03  0.00000000000E+00 0. -1.
         13    1    4    4    0    0 -0.36236370342E+02 -0.81617844302E+02  0.22784762416E+03  0.24472246909E+03  0.00000000000E+00 0.  1.
          1    1    1    2  501    0 -0.49831628015E+02  0.33972597490E+03  0.12503602033E+02  0.34358880837E+03  0.00000000000E+00 0. -1.
<scales pt_clust_5="13000.00000" pt_clust_6="13000.00000" pt_clust_7="13000.00000" pt_clust_8="13000.00000" pt_clust_9="13000.00000"></scales>
<clustering>
<clus scale="   83.840">  5  6 -1 -1</clus>
<clus scale="   90.615">  7  8 -1 -1</clus>
<clus scale="  227.511">  1  5  2 -1</clus>
<clus scale="  276.402">  7  9 -1 -1</clus>
<clus scale="  640.112">  2  5  1 -1</clus>
</clustering>
</event>
<event>
 9    2  0.3707658E-005  0.1996666E+03  0.7546771E-02  0.1178427E+00
          2   -1    0    0  502    0 -0.00000000000E+00  0.00000000000E+00  0.53427334445E+03  0.53427334445E+03  0.00000000000E+00 0. -1.
         21   -1    0    0  501  502  0.00000000000E+00 -0.00000000000E+00 -0.46618096410E+02  0.46618096410E+02  0.00000000000E+00 0.  1.
         24    2    1    2    0    0  0.62567723475E+02 -0.23267768246E+02  0.24931364136E+03  0.26996788388E+03  0.79178642925E+02 0.  0.
         23    2    1    2    0    0 -0.25016634878E+02 -0.55749550101E+02  0.11337097507E+03  0.15837363198E+03  0.92170412614E+02 0.  0.
        -13    1    3    3    0    0  0.51044241148E+02 -0.46068313617E+02  0.22271619450E+03  0.23308862556E+03  0.00000000000E+00 0.  1.
         14    1    3    3    0    0  0.11523482328E+02  0.22800545371E+02  0.26597446859E+02  0.36879258311E+02  0.00000000000E+00 0. -1.
        -11    1    4    4    0    0  0.29309743538E+02 -0.10290839228E+02  0.91961497351E+01  0.32396475244E+02  0.00000000000E+00 0. -1.
         11    1    4    4    0    0 -0.54326378416E+02 -0.45458710873E+02  0.10417482534E+03  0.12597715674E+03  0.00000000000E+00 0.  1.
          1    1    1    2  501    0 -0.37551088597E+02  0.79017318347E+02  0.12497063161E+03  0.15254992500E+03  0.00000000000E+00 0. -1.
<scales pt_clust_5="13000.00000" pt_clust_6="13000.00000" pt_clust_7="13000.00000" pt_clust_8="13000.00000" pt_clust_9="13000.00000"></scales>
<clustering>
<clus scale="   79.179">  5  6 -1 -1</clus>
<clus scale="   92.170">  7  8 -1 -1</clus>
<clus scale="   87.486">  7  9 -1 -1</clus>
<clus scale="  103.563">  1  5  2 -1</clus>
<clus scale="  199.667">  2  5  1 -1</clus>
</clustering>
</event>
<event>
 9    2  0.3707658E-005  0.2998754E+03  0.7546771E-02  0.1111335E+00
         -1   -1    0    0    0  501 -0.00000000000E+00  0.00000000000E+00  0.70972788941E+03  0.70972788941E+03  0.00000000000E+00 0.  1.
         21   -1    0    0  501  502  0.00000000000E+00 -0.00000000000E+00 -0.10867692309E+03  0.10867692309E+03  0.00000000000E+00 0. -1.
         24    2    1    2    0    0 -0.10623665035E+03 -0.43449590232E+02  0.63910218769E+01  0.15241254860E+03  0.10007320841E+03 0.  0.
         23    2    1    2    0    0  0.12018252993E+03  0.12607749453E+03  0.29766253878E+03  0.35739978653E+03  0.93766973328E+02 0.  0.
        -13    1    3    3    0    0  0.82634879091E+01  0.18269437428E+02 -0.79068891261E+01  0.21554036096E+02  0.00000000000E+00 0.  1.
         14    1    3    3    0    0 -0.11450013826E+03 -0.61719027659E+02  0.14297911003E+02  0.13085851250E+03  0.00000000000E+00 0. -1.
        -13    1    4    4    0    0  0.50368312337E+02  0.11622676235E+03  0.17717930892E+03  0.21780297216E+03  0.00000000000E+00 0.  1.
         13    1    4    4    0    0  0.69814217593E+02  0.98507321859E+01  0.12048322987E+03  0.13959681437E+03  0.00000000000E+00 0. -1.
         -2    1    1    2    0  502 -0.13945879583E+02 -0.82627904300E+02  0.29699740565E+03  0.30859247737E+03  0.00000000000E+00 0.  1.
<scales pt_clust_5="13000.00000" pt_clust_6="13000.00000" pt_clust_7="13000.00000" pt_clust_8="13000.00000" pt_clust_9="13000.00000"></scales>
<clustering>
<clus scale="   93.767">  7  8 -1 -1</clus>
<clus scale="   83.797">  7  9 -1 -1</clus>
<clus scale="  100.073">  5  6 -1 -1</clus>
<clus scale="  152.279">  1  5  2 -1</clus>
<clus scale="  299.875">  2  5  1 -1</clus>
</clustering>
</event>
<event>
 9    2  0.7074914E-005  0.3167055E+03  0.7546771E-02  0.1115477E+00
          2   -1    0    0  502    0 -0.00000000000E+00  0.00000000000E+00  0.11371475148E+04  0.11371475148E+04  0.00000000000E+00 0. -1.
         21   -1    0    0  501  502  0.00000000000E+00 -0.00000000000E+00 -0.97339018618E+02  0.97339018618E+02  0.00000000000E+00 0. -1.
         24    2    1    2    0    0  0.13762707678E+02  0.59774613317E+02  0.86488856459E+03  0.87268633800E+03  0.98928251100E+02 0.  0.
         23    2    1    2    0    0  0.31775596363E+02  0.64617122099E+01  0.23976887007E+03  0.25852206234E+03  0.91066477991E+02 0.  0.
        -13    1    3    3    0    0 -0.28262141172E+02  0.34172106047E+02  0.15852179069E+03  0.16460753196E+03  0.00000000000E+00 0.  1.
         14    1    3    3    0    0  0.42024848850E+02  0.25602507270E+02  0.70636677389E+03  0.70807880604E+03  0.00000000000E+00 0. -1.
        -13    1    4    4    0    0  0.85920250294E+01 -0.40942746334E+02  0.80222136529E+02  0.90474983066E+02  0.00000000000E+00 0.  1.
         13    1    4    4    0    0  0.23183571333E+02  0.47404458543E+02  0.15954673354E+03  0.16804707928E+03  0.00000000000E+00 0. -1.
          1    1    1    2  501    0 -0.45538304041E+02 -0.66236325527E+02 -0.64848938461E+02  0.10327813309E+03  0.00000000000E+00 0. -1.
<scales pt_clust_5="13000.00000" pt_clust_6="13000.00000" pt_clust_7="13000.00000" pt_clust_8="13000.00000" pt_clust_9="13000.00000"></scales>
<clustering>
<clus scale="   91.066">  7  8 -1 -1</clus>
<clus scale="   80.380">  7  9 -1 -1</clus>
<clus scale="   98.928">  5  6 -1 -1</clus>
<clus scale="  116.401">  1  5  2 -1</clus>
<clus scale="  316.706">  2  5  1 -1</clus>
</clustering>
</event>
<event>
 9    2  0.3707658E-005  0.5193607E+03  0.7546771E-02  0.1056108E+00
         21   -1    0    0  501  502  0.00000000000E+00  0.00000000000E+00  0.29025639937E+03  0.29025639937E+03  0.00000000000E+00 0. -1.
          2   -1    0    0  502    0 -0.00000000000E+00 -0.00000000000E+00 -0.36899825074E+03  0.36899825074E+03  0.00000000000E+00 0. -1.
         24    2    1    2    0    0 -0.83995362449E+02 -0.55926386756E+02  0.21446964785E+02  0.13031856833E+03  0.79623961870E+02 0.  0.
         23    2    1    2    0    0 -0.19758934429E+03  0.81557486333E+02 -0.16234844806E+02  0.23398664605E+03  0.93771039173E+02 0.  0.
        -11    1    3    3    0    0 -0.34275928814E+02 -0.21791919753E+02  0.49309873688E+02  0.63884197621E+02  0.00000000000E+00 0.  1.
         12    1    3    3    0    0 -0.49719433635E+02 -0.34134467003E+02 -0.27862908903E+02  0.66434370706E+02  0.00000000000E+00 0. -1.
        -11    1    4    4    0    0 -0.16722581100E+03  0.92145420576E+02 -0.38628404139E+02  0.19480093430E+03  0.00000000000E+00 0. -1.
         11    1    4    4    0    0 -0.30363533287E+02 -0.10587934243E+02  0.22393559333E+02  0.39185711743E+02  0.00000000000E+00 0.  1.
          1    1    1    2  501    0  0.28158470674E+03 -0.25631099577E+02 -0.83953971354E+02  0.29494943574E+03  0.00000000000E+00 0. -1.
<scales pt_clust_5="13000.00000" pt_clust_6="13000.00000" pt_clust_7="13000.00000" pt_clust_8="13000.00000" pt_clust_9="13000.00000"></scales>
<clustering>
<clus scale="   79.624">  5  6 -1 -1</clus>
<clus scale="   93.771">  7  8 -1 -1</clus>
<clus scale="  128.542">  2  5  1 -1</clus>
<clus scale="  238.490">  7  9 -1 -1</clus>
<clus scale="  519.361">  1  5  2 -1</clus>
</clustering>
</event>
<event>
 9    2  0.3707658E-005  0.4402764E+03  0.7546771E-02  0.1044967E+00
          4   -1    0    0  502    0 -0.00000000000E+00  0.00000000000E+00  0.85003188332E+02  0.85003188332E+02  0.00000000000E+00 0. -1.
         21   -1    0    0  501  502  0.00000000000E+00 -0.00000000000E+00 -0.19322465970E+04  0.19322465970E+04  0.00000000000E+00 0.  1.
         24    2    1    2    0    0 -0.26027102762E+03 -0.97066107423E+02 -0.11996081905E+04  0.12341312368E+04  0.82808586027E+02 0.  0.
         23    2    1    2    0    0 -0.40853510570E+02  0.19247335672E+02 -0.30054393459E+03  0.31706693351E+03  0.90362129503E+02 0.  0.
        -11    1    3    3    0    0 -0.14822355854E+03 -0.17660861543E+02 -0.53204022602E+03  0.55258386824E+03  0.00000000000E+00 0.  1.
         12    1    3    3    0    0 -0.11204746908E+03 -0.79405245880E+02 -0.66756796445E+03  0.68154736854E+03  0.00000000000E+00 0. -1.
        -11    1    4    4    0    0 -0.18285899937E+02  0.55433345927E+02 -0.17426391304E+03  0.18378014409E+03  0.00000000000E+00 0.  1.
         11    1    4    4    0    0 -0.22567610633E+02 -0.36186010256E+02 -0.12628002156E+03  0.13328678941E+03  0.00000000000E+00 0. -1.
          3    1    1    2  501    0  0.30112453819E+03  0.77818771751E+02 -0.34709128363E+03  0.46605161507E+03  0.00000000000E+00 0. -1.
<scales pt_clust_5="13000.00000" pt_clust_6="13000.00000" pt_clust_7="13000.00000" pt_clust_8="13000.00000" pt_clust_9="13000.00000"></scales>
<clustering>
<clus scale="   82.809">  5  6 -1 -1</clus>
<clus scale="   90.362">  7  8 -1 -1</clus>
<clus scale="  289.862">  1  5  2 -1</clus>
<clus scale="   72.972">  7  9 -1 -1</clus>
<clus scale="  440.276">  2  5  1 -1</clus>
</clustering>
</event>
<event>
 9    2  0.3707658E-005  0.6305168E+03  0.7546771E-02  0.1018296E+00
          2   -1    0    0  502    0 -0.00000000000E+00  0.00000000000E+00  0.16560168569E+04  0.16560168569E+04  0.00000000000E+00 0. -1.
         21   -1    0    0  501  502  0.00000000000E+00 -0.00000000000E+00 -0.13090390075E+03  0.13090390075E+03  0.00000000000E+00 0. -1.
         24    2    1    2    0    0 -0.18845511534E+03 -0.73068112401E+02  0.78569441536E+03  0.81517428436E+03  0.79618590820E+02 0.  0.
         23    2    1    2    0    0  0.18737897810E+03 -0.75999709400E+02  0.78506958013E+03  0.81584140289E+03  0.91521100074E+02 0.  0.
        -11    1    3    3    0    0 -0.53556554752E+02  0.11074442530E+01  0.11250961132E+03  0.12461116976E+03  0.00000000000E+00 0.  1.
         12    1    3    3    0    0 -0.13489856058E+03 -0.74175556654E+02  0.67318480404E+03  0.69056311460E+03  0.00000000000E+00 0. -1.
        -11    1    4    4    0    0  0.50386929228E+02 -0.67724518291E+02  0.31976740455E+03  0.33072140244E+03  0.00000000000E+00 0.  1.
         11    1    4    4    0    0  0.13699204887E+03 -0.82751911084E+01  0.46530217558E+03  0.48512000045E+03  0.00000000000E+00 0. -1.
          1    1    1    2  501    0  0.10761372361E+01  0.14906782180E+03 -0.45651039378E+02  0.15590507036E+03  0.00000000000E+00 0. -1.
<scales pt_clust_5="13000.00000" pt_clust_6="13000.00000" pt_clust_7="13000.00000" pt_clust_8="13000.00000" pt_clust_9="13000.00000"></scales>
<clustering>
<clus scale="   79.619">  5  6 -1 -1</clus>
<clus scale="   91.521">  7  8 -1 -1</clus>
<clus scale="  149.072">  7  9 -1 -1</clus>
<clus scale="  217.240">  1  5  2 -1</clus>
<clus scale="  630.517">  2  5  1 -1</clus>
</clustering>
</event>
<event>
 9    2  0.3707658E-005  0.5448486E+03  0.7546771E-02  0.1052237E+00
         -1   -1    0    0    0  501 -0.00000000000E+00  0.00000000000E+00  0.13331474147E+04  0.13331474147E+04  0.00000000000E+00 0.  1.
         21   -1    0    0  501  502  0.00000000000E+00 -0.00000000000E+00 -0.99180629526E+02  0.99180629526E+02  0.00000000000E+00 0.  1.
         24    2    1    2    0    0  0.55118865078E+00  0.99270075387E+02  0.51763757883E+03  0.53233496758E+03  0.74679334544E+02 0.  0.
         23    2    1    2    0    0 -0.24813051522E+03 -0.60838111464E+02  0.24250983229E+03  0.36401048550E+03  0.91774650120E+02 0.  0.
        -11    1    3    3    0    0 -0.74925201245E+01  0.10476657893E+03  0.50757631108E+03  0.51832990025E+03  0.00000000000E+00 0.  1.
         12    1    3    3    0    0  0.80437087753E+01 -0.54965035475E+01  0.10061267751E+02  0.14005067328E+02  0.00000000000E+00 0. -1.
        -11    1    4    4    0    0 -0.16306794420E+03 -0.67711535384E+02  0.20565266104E+03  0.27105169883E+03  0.00000000000E+00 0.  1.
         11    1    4    4    0    0 -0.85062571020E+02  0.68734239196E+01  0.36857171253E+02  0.92958786662E+02  0.00000000000E+00 0. -1.
         -2    1    1    2    0  502  0.24757932657E+03 -0.38431963923E+02  0.47381937405E+03  0.53598259116E+03  0.00000000000E+00 0.  1.
<scales pt_clust_5="13000.00000" pt_clust_6="13000.00000" pt_clust_7="13000.00000" pt_clust_8="13000.00000" pt_clust_9="13000.00000"></scales>
<clustering>
<clus scale="   74.679">  5  6 -1 -1</clus>
<clus scale="   91.775">  7  8 -1 -1</clus>
<clus scale="  124.225">  1  5  2 -1</clus>
<clus scale="  249.043">  7  9 -1 -1</clus>
<clus scale="  544.849">  2  5  1 -1</clus>
</clustering>
</event>
<event>
 9    2  0.4957006E-005  0.1068461E+04  0.7546771E-02  0.9716260E-01
         21   -1    0    0  501  502  0.00000000000E+00  0.00000000000E+00  0.33897778780E+03  0.33897778780E+03  0.00000000000E+00 0. -1.
          2   -1    0    0  502    0 -0.00000000000E+00 -0.00000000000E+00 -0.12490487658E+04  0.12490487658E+04  0.00000000000E+00 0. -1.
         24    2    1    2    0    0 -0.16952820134E+03  0.84989490453E+02 -0.22040212681E+02  0.19870761502E+03  0.55099190155E+02 0.  0.
         23    2    1    2    0    0  0.58128826414E+03 -0.10984861678E+03 -0.73778147080E+03  0.95029823751E+03  0.93714870385E+02 0.  0.
        -11    1    3    3    0    0 -0.69094348806E+02  0.44572398702E+02 -0.35601684586E+02  0.89600266229E+02  0.00000000000E+00 0.  1.
         12    1    3    3    0    0 -0.10043385253E+03  0.40417091751E+02  0.13561471905E+02  0.10910734879E+03  0.00000000000E+00 0. -1.
        -11    1    4    4    0    0  0.17632356922E+02 -0.17758816504E+02 -0.52965240527E+02  0.58579794113E+02  0.00000000000E+00 0.  1.
         11    1    4    4    0    0  0.56365590721E+03 -0.92089800275E+02 -0.68481623027E+03  0.89171844340E+03  0.00000000000E+00 0. -1.
          1    1    1    2  501    0 -0.41176006280E+03  0.24859126326E+02 -0.15024929454E+03  0.43902070109E+03  0.00000000000E+00 0. -1.
<scales pt_clust_5="13000.00000" pt_clust_6="13000.00000" pt_clust_7="13000.00000" pt_clust_8="13000.00000" pt_clust_9="13000.00000"></scales>
<clustering>
<clus scale="   55.099">  5  6 -1 -1</clus>
<clus scale="   93.715">  7  8 -1 -1</clus>
<clus scale="  197.482">  2  5  1 -1</clus>
<clus scale="  458.029">  7  9 -1 -1</clus>
<clus scale=" 1068.461">  1  5  2 -1</clus>
</clustering>
</event>
<event>
 9    2  0.3707658E-005  0.1658232E+03  0.7546771E-02  0.1207898E+00
         21   -1    0    0  501  502  0.00000000000E+00  0.00000000000E+00  0.79671613885E+02  0.79671613885E+02  0.00000000000E+00 0. -1.
         -3   -1    0    0    0  501 -0.00000000000E+00 -0.00000000000E+00 -0.22581748558E+03  0.22581748558E+03  0.00000000000E+00 0.  1.
         24    2    1    2    0    0  0.50949992225E+02 -0.32305822734E+01 -0.18898190516E+02  0.96469262704E+02  0.79641940410E+02 0.  0.
         23    2    1    2    0    0  0.23338007698E+01 -0.38688942502E+02 -0.76422421104E+02  0.12428722076E+03  0.90025806845E+02 0.  0.
        -13    1    3    3    0    0  0.10099724643E+02  0.21460728051E+02  0.22939253782E+02  0.32996615742E+02  0.00000000000E+00 0.  1.
         14    1    3    3    0    0  0.40850267582E+02 -0.24691310324E+02 -0.41837444297E+02  0.63472646962E+02  0.00000000000E+00 0. -1.
        -11    1    4    4    0    0 -0.34493363863E+02 -0.30451664021E+02 -0.73137825405E+02  0.86407392608E+02  0.00000000000E+00 0.  1.
         11    1    4    4    0    0  0.36827164633E+02 -0.82372784805E+01 -0.32845956992E+01  0.37879828149E+02  0.00000000000E+00 0. -1.
         -4    1    1    2    0  502 -0.53283792995E+02  0.41919524775E+02 -0.50825260075E+02  0.84732616004E+02  0.00000000000E+00 0.  1.
<scales pt_clust_5="13000.00000" pt_clust_6="13000.00000" pt_clust_7="13000.00000" pt_clust_8="13000.00000" pt_clust_9="13000.00000"></scales>
<clustering>
<clus scale="   79.642">  5  6 -1 -1</clus>
<clus scale="   90.026">  7  8 -1 -1</clus>
<clus scale="   67.797">  7  9 -1 -1</clus>
<clus scale="   94.600">  2  5  1 -1</clus>
<clus scale="  165.823">  1  5  2 -1</clus>
</clustering>
</event>
<event>
 9    2  0.3707658E-005  0.1460800E+03  0.7546771E-02  0.1214472E+00
         21   -1    0    0  501  502  0.00000000000E+00  0.00000000000E+00  0.51022901583E+03  0.51022901583E+03  0.00000000000E+00 0.  1.
         -1   -1    0    0    0  501 -0.00000000000E+00 -0.00000000000E+00 -0.36182950830E+02  0.36182950830E+02  0.00000000000E+00 0.  1.
         24    2    1    2    0    0 -0.70036527918E+02 -0.53369352667E+02  0.16111073674E+03  0.20106012433E+03  0.81945720174E+02 0.  0.
         23    2    1    2    0    0  0.59687492244E+02  0.19979350897E+02  0.23980119326E+03  0.26429262657E+03  0.91565326289E+02 0.  0.
        -11    1    3    3    0    0 -0.81304675578E+02 -0.63796236362E+02  0.14980414834E+03  0.18199366172E+03  0.00000000000E+00 0.  1.
         12    1    3    3    0    0  0.11268147660E+02  0.10426883694E+02  0.11306588397E+02  0.19066462609E+02  0.00000000000E+00 0. -1.
        -13    1    4    4    0    0  0.81883396539E+02  0.17215578425E+02  0.21595300536E+03  0.23159656149E+03  0.00000000000E+00 0.  1.
         13    1    4    4    0    0 -0.22195904295E+02  0.27637724716E+01  0.23848187898E+02  0.32696065081E+02  0.00000000000E+00 0. -1.
         -2    1    1    2    0  502  0.10349035675E+02  0.33390001770E+02  0.73134134997E+02  0.81059215758E+02  0.00000000000E+00 0.  1.
<scales pt_clust_5="13000.00000" pt_clust_6="13000.00000" pt_clust_7="13000.00000" pt_clust_8="13000.00000" pt_clust_9="13000.00000"></scales>
<clustering>
<clus scale="   81.946">  5  6 -1 -1</clus>
<clus scale="   91.565">  7  8 -1 -1</clus>
<clus scale="   34.957">  7  9 -1 -1</clus>
<clus scale="  120.285">  2  5  1 -1</clus>
<clus scale="  146.080">  1  5  2 -1</clus>
</clustering>
</event>
<event>
 9    2  0.3707658E-005  0.2979320E+03  0.7546771E-02  0.1131219E+00
          2   -1    0    0  502    0 -0.00000000000E+00  0.00000000000E+00  0.14400789631E+04  0.14400789631E+04  0.00000000000E+00 0. -1.
         21   -1    0    0  501  502  0.00000000000E+00 -0.00000000000E+00 -0.28228524355E+02  0.28228524355E+02  0.00000000000E+00 0. -1.
         24    2    1    2    0    0 -0.43924212269E+02  0.19832205327E+02  0.21383872490E+03  0.23380533652E+03  0.81334385884E+02 0.  0.
         23    2    1    2    0    0 -0.82473788225E+02  0.11797915133E+02  0.26386021889E+03  0.29130761396E+03  0.91086740493E+02 0.  0.
        -13    1    3    3    0    0 -0.41470231108E+02  0.45199695101E+02  0.18695516971E+03  0.19676134780E+03  0.00000000000E+00 0.  1.
         14    1    3    3    0    0 -0.24539811605E+01 -0.25367489774E+02  0.26883555192E+02  0.37043988726E+02  0.00000000000E+00 0. -1.
        -13    1    4    4    0    0 -0.71664882386E+02 -0.31763743443E+02  0.16032335329E+03  0.17846111166E+03  0.00000000000E+00 0. -1.
         13    1    4    4    0    0 -0.10808905839E+02  0.43561658576E+02  0.10353686560E+03  0.11284650230E+03  0.00000000000E+00 0.  1.
          1    1    1    2  501    0  0.12639800049E+03 -0.31630120460E+02  0.93415149493E+03  0.94319453695E+03  0.00000000000E+00 0. -1.
<scales pt_clust_5="13000.00000" pt_clust_6="13000.00000" pt_clust_7="13000.00000" pt_clust_8="13000.00000" pt_clust_9="13000.00000"></scales>
<clustering>
<clus scale="   81.334">  5  6 -1 -1</clus>
<clus scale="   91.087">  7  8 -1 -1</clus>
<clus scale="   94.541">  1  5  2 -1</clus>
<clus scale="   93.928">  7  9 -1 -1</clus>
<clus scale="  297.932">  2  5  1 -1</clus>
</clustering>
</event>
<event>
 9    2  0.3707658E-005  0.3780620E+03  0.7546771E-02  0.1075799E+00
         -1   -1    0    0    0  501 -0.00000000000E+00  0.00000000000E+00  0.16144139680E+04  0.16144139680E+04  0.00000000000E+00 0.  1.
         21   -1    0    0  501  502  0.00000000000E+00 -0.00000000000E+00 -0.58214925623E+02  0.58214925623E+02  0.00000000000E+00 0.  1.
         24    2    1    2    0    0 -0.14557547396E+03 -0.99103247431E+02  0.84899498897E+03  0.87071340017E+03  0.79596869791E+02 0.  0.
         23    2    1    2    0    0 -0.67335275513E+02 -0.41364727240E+02  0.29594735542E+03  0.31797922617E+03  0.85328020644E+02 0.  0.
        -13    1    3    3    0    0 -0.10559361285E+03 -0.34329136843E+02  0.60554791217E+03  0.61564338269E+03  0.00000000000E+00 0.  1.
         14    1    3    3    0    0 -0.39981861114E+02 -0.64774110588E+02  0.24344707679E+03  0.25507001749E+03  0.00000000000E+00 0. -1.
        -11    1    4    4    0    0 -0.26129590717E+02  0.17350730269E+02  0.17145062352E+03  0.17429606896E+03  0.00000000000E+00 0. -1.
         11    1    4    4    0    0 -0.41205684797E+02 -0.58715457508E+02  0.12449673190E+03  0.14368315720E+03  0.00000000000E+00 0.  1.
         -2    1    1    2    0  502  0.21291074948E+03  0.14046797467E+03  0.41125669802E+03  0.48393626731E+03  0.00000000000E+00 0.  1.
<scales pt_clust_5="13000.00000" pt_clust_6="13000.00000" pt_clust_7="13000.00000" pt_clust_8="13000.00000" pt_clust_9="13000.00000"></scales>
<clustering>
<clus scale="   79.597">  5  6 -1 -1</clus>
<clus scale="   85.328">  7  8 -1 -1</clus>
<clus scale="  193.260">  1  5  2 -1</clus>
<clus scale="  150.627">  7  9 -1 -1</clus>
<clus scale="  378.062">  2  5  1 -1</clus>
</clustering>
</event>
<event>
 9    2  0.3707658E-005  0.2386913E+03  0.7546771E-02  0.1137347E+00
          2   -1    0    0  502    0 -0.00000000000E+00  0.00000000000E+00  0.26301103210E+03  0.26301103210E+03  0.00000000000E+00 0. -1.
         21   -1    0    0  501  502  0.00000000000E+00 -0.00000000000E+00 -0.18322352333E+03  0.18322352333E+03  0.00000000000E+00 0. -1.
         24    2    1    2    0    0 -0.63774319413E+02 -0.11969828926E+03  0.12692180009E+03  0.20293400680E+03  0.81720398384E+02 0.  0.
         23    2    1    2    0    0 -0.13001876998E+02  0.29099064371E+02  0.33068076299E+02  0.99999384435E+02  0.88828907820E+02 0.  0.
        -13    1    3    3    0    0 -0.80005130084E+02 -0.11609314439E+03  0.11908785649E+03  0.18455448132E+03  0.00000000000E+00 0.  1.
         14    1    3    3    0    0  0.16230810671E+02 -0.36051448713E+01  0.78339435985E+01  0.18379525480E+02  0.00000000000E+00 0. -1.
        -11    1    4    4    0    0 -0.17299093753E+02  0.49496154806E+02 -0.88601073205E+01  0.53175459443E+02  0.00000000000E+00 0.  1.
         11    1    4    4    0    0  0.42972167547E+01 -0.20397090435E+02  0.41928183620E+02  0.46823924992E+02  0.00000000000E+00 0. -1.
          1    1    1    2  501    0  0.76776196411E+02  0.90599224887E+02 -0.80202367620E+02  0.14330116419E+03  0.00000000000E+00 0. -1.
<scales pt_clust_5="13000.00000" pt_clust_6="13000.00000" pt_clust_7="13000.00000" pt_clust_8="13000.00000" pt_clust_9="13000.00000"></scales>
<clustering>
<clus scale="   81.720">  5  6 -1 -1</clus>
<clus scale="   88.829">  7  8 -1 -1</clus>
<clus scale="  118.755">  7  9 -1 -1</clus>
<clus scale="  158.345">  1  5  2 -1</clus>
<clus scale="  238.691">  2  5  1 -1</clus>
</clustering>
</event>
<event>
 9    2  0.3707658E-005  0.3176298E+03  0.7546771E-02  0.1105899E+00
          2   -1    0    0  502    0 -0.00000000000E+00  0.00000000000E+00  0.12499214568E+04  0.12499214568E+04  0.00000000000E+00 0. -1.
         21   -1    0    0  501  502  0.00000000000E+00 -0.00000000000E+00 -0.76304523661E+02  0.76304523661E+02  0.00000000000E+00 0.  1.
         24    2    1    2    0    0 -0.73551981138E+02 -0.98601582077E+02  0.88465584560E+03  0.89682264749E+03  0.80887143535E+02 0.  0.
         23    2    1    2    0    0  0.17367481063E+03  0.52310697731E+02  0.22207466079E+03  0.30040247623E+03  0.89583167057E+02 0.  0.
        -13    1    3    3    0    0 -0.76578319367E+02 -0.71074837667E+02  0.48091621744E+03  0.49213441227E+03  0.00000000000E+00 0.  1.
         14    1    3    3    0    0  0.30263382287E+01 -0.27526744409E+02  0.40373962815E+03  0.40468823522E+03  0.00000000000E+00 0. -1.
        -13    1    4    4    0    0  0.29133578849E+02  0.45544355478E+02  0.37171386474E+02  0.65610713339E+02  0.00000000000E+00 0. -1.
         13    1    4    4    0    0  0.14454123178E+03  0.67663422532E+01  0.18490327431E+03  0.23479176289E+03  0.00000000000E+00 0.  1.
          1    1    1    2  501    0 -0.10012282949E+03  0.46290884346E+02  0.66886426793E+02  0.12900085677E+03  0.00000000000E+00 0. -1.
<scales pt_clust_5="13000.00000" pt_clust_6="13000.00000" pt_clust_7="13000.00000" pt_clust_8="13000.00000" pt_clust_9="13000.00000"></scales>
<clustering>
<clus scale="   80.887">  5  6 -1 -1</clus>
<clus scale="   89.583">  7  8 -1 -1</clus>
<clus scale="  110.306">  7  9 -1 -1</clus>
<clus scale="  147.224">  1  5  2 -1</clus>
<clus scale="  317.630">  2  5  1 -1</clus>
</clustering>
</event>
<event>
 9    2  0.3707658E-005  0.3507694E+03  0.7546771E-02  0.1120652E+00
          2   -1    0    0  502    0 -0.00000000000E+00  0.00000000000E+00  0.63002186861E+03  0.63002186861E+03  0.00000000000E+00 0. -1.
         21   -1    0    0  501  502  0.00000000000E+00 -0.00000000000E+00 -0.72040891465E+02  0.72040891465E+02  0.00000000000E+00 0. -1.
         24    2    1    2    0    0  0.11824296370E+02  0.28540145780E+02  0.10367345550E+03  0.12809894281E+03  0.68606121203E+02 0.  0.
         23    2    1    2    0    0  0.18716695155E+02  0.14330073868E+03  0.28404124055E+03  0.33013467994E+03  0.86163009337E+02 0.  0.
        -11    1    3    3    0    0 -0.11286678088E+02 -0.19131099334E+02  0.28517421870E+02  0.36147356945E+02  0.00000000000E+00 0.  1.
         12    1    3    3    0    0  0.23110974458E+02  0.47671245114E+02  0.75156033631E+02  0.91951585860E+02  0.00000000000E+00 0. -1.
        -13    1    4    4    0    0 -0.32506424057E+02  0.74030400809E+02  0.11751243536E+03  0.14264059840E+03  0.00000000000E+00 0. -1.
         13    1    4    4    0    0  0.51223119212E+02  0.69270337871E+02  0.16652880519E+03  0.18749408153E+03  0.00000000000E+00 0.  1.
          1    1    1    2  501    0 -0.30540991525E+02 -0.17184088446E+03  0.17026628109E+03  0.24382913733E+03  0.00000000000E+00 0. -1.
<scales pt_clust_5="13000.00000" pt_clust_6="13000.00000" pt_clust_7="13000.00000" pt_clust_8="13000.00000" pt_clust_9="13000.00000"></scales>
<clustering>
<clus scale="   68.606">  5  6 -1 -1</clus>
<clus scale="   75.241">  1  5  2 -1</clus>
<clus scale="   86.163">  7  8 -1 -1</clus>
<clus scale="  162.407">  7  9 -1 -1</clus>
<clus scale="  350.769">  2  5  1 -1</clus>
</clustering>
</event>
<event>
 9    2  0.3707658E-005  0.2931296E+03  0.7546771E-02  0.1097143E+00
         21   -1    0    0  501  502  0.00000000000E+00  0.00000000000E+00  0.21412261120E+03  0.21412261120E+03  0.00000000000E+00 0. -1.
          2   -1    0    0  502    0 -0.00000000000E+00 -0.00000000000E+00 -0.32775108856E+03  0.32775108856E+03  0.00000000000E+00 0. -1.
         24    2    1    2    0    0 -0.13831945329E+03  0.17265944163E+03 -0.28682147848E+02  0.23668381554E+03  0.79075969749E+02 0.  0.
         23    2    1    2    0    0  0.56118547802E+02 -0.76289561688E+01 -0.39862726793E+02  0.11538845843E+03  0.92292832715E+02 0.  0.
        -11    1    3    3    0    0 -0.13065410055E+02  0.45159324956E+02 -0.33764809333E+02  0.57880324115E+02  0.00000000000E+00 0.  1.
         12    1    3    3    0    0 -0.12525404324E+03  0.12750011668E+03  0.50826614848E+01  0.17880349143E+03  0.00000000000E+00 0. -1.
        -11    1    4    4    0    0 -0.25148008088E+02  0.67449881947E-01 -0.14989189996E+01  0.25192729476E+02  0.00000000000E+00 0.  1.
         11    1    4    4    0    0  0.81266555890E+02 -0.76964060507E+01 -0.38363807794E+02  0.90195728950E+02  0.00000000000E+00 0. -1.
          1    1    1    2  501    0  0.82200905488E+02 -0.16503048546E+03 -0.45083602722E+02  0.18980142579E+03  0.00000000000E+00 0. -1.
<scales pt_clust_5="13000.00000" pt_clust_6="13000.00000" pt_clust_7="13000.00000" pt_clust_8="13000.00000" pt_clust_9="13000.00000"></scales>
<clustering>
<clus scale="   79.076">  5  6 -1 -1</clus>
<clus scale="   92.293">  7  8 -1 -1</clus>
<clus scale="  184.369">  7  9 -1 -1</clus>
<clus scale="  234.940">  2  5  1 -1</clus>
<clus scale="  293.130">  1  5  2 -1</clus>
</clustering>
</event>
<event>
 9    2  0.3707658E-005  0.3224353E+03  0.7546771E-02  0.1101672E+00
         21   -1    0    0  501  502  0.00000000000E+00  0.00000000000E+00  0.25056668332E+03  0.25056668332E+03  0.00000000000E+00 0. -1.
          2   -1    0    0  502    0 -0.00000000000E+00 -0.00000000000E+00 -0.23517153082E+03  0.23517153082E+03  0.00000000000E+00 0. -1.
         24    2    1    2    0    0  0.39274448352E+02 -0.12941183166E+03 -0.31049138720E+02  0.15997508322E+03  0.79612020256E+02 0.  0.
         23    2    1    2    0    0 -0.58558719887E+00 -0.66899646554E+02 -0.14633917043E+02  0.11656090345E+03  0.94320660851E+02 0.  0.
        -13    1    3    3    0    0  0.26082105644E+02 -0.62079897625E+02  0.24541392346E+02  0.71669169538E+02  0.00000000000E+00 0.  1.
         14    1    3    3    0    0  0.13192342708E+02 -0.67331934031E+02 -0.55590531067E+02  0.88305913680E+02  0.00000000000E+00 0. -1.
        -11    1    4    4    0    0  0.42732056434E+02 -0.54833267093E+02 -0.16880907011E+02  0.71537967882E+02  0.00000000000E+00 0.  1.
         11    1    4    4    0    0 -0.43317643633E+02 -0.12066379461E+02  0.22469899685E+01  0.45022935567E+02  0.00000000000E+00 0. -1.
          1    1    1    2  501    0 -0.38688861153E+02  0.19631147821E+03  0.61078208264E+02  0.20920222747E+03  0.00000000000E+00 0. -1.
<scales pt_clust_5="13000.00000" pt_clust_6="13000.00000" pt_clust_7="13000.00000" pt_clust_8="13000.00000" pt_clust_9="13000.00000"></scales>
<clustering>
<clus scale="   79.612">  5  6 -1 -1</clus>
<clus scale="   94.321">  7  8 -1 -1</clus>
<clus scale="  156.933">  2  5  1 -1</clus>
<clus scale="  128.927">  7  9 -1 -1</clus>
<clus scale="  322.435">  1  5  2 -1</clus>
</clustering>
</event>
<event>
 9    2  0.3707658E-005  0.4006250E+03  0.7546771E-02  0.1099314E+00
         21   -1    0    0  501  502  0.00000000000E+00  0.00000000000E+00  0.63481307665E+02  0.63481307665E+02  0.00000000000E+00 0. -1.
          2   -1    0    0  502    0 -0.00000000000E+00 -0.00000000000E+00 -0.93668813653E+03  0.93668813653E+03  0.00000000000E+00 0. -1.
         24    2    1    2    0    0 -0.28931824039E+02 -0.21908746535E+02 -0.16363238470E+03  0.18530977664E+03  0.79038676478E+02 0.  0.
         23    2    1    2    0    0 -0.14499701390E+03 -0.65547838335E+02 -0.18500046147E+03  0.25532614915E+03  0.75137331206E+02 0.  0.
        -13    1    3    3    0    0  0.26559084518E+02 -0.51904438243E+01 -0.35142525391E+02  0.44354512379E+02  0.00000000000E+00 0.  1.
         14    1    3    3    0    0 -0.55490908557E+02 -0.16718302711E+02 -0.12848985931E+03  0.14095526427E+03  0.00000000000E+00 0. -1.
        -13    1    4    4    0    0 -0.83096301946E+02 -0.66590002388E+02 -0.15077233836E+03  0.18458472805E+03  0.00000000000E+00 0. -1.
         13    1    4    4    0    0 -0.61900711958E+02  0.10421640531E+01 -0.34228123118E+02  0.70741421099E+02  0.00000000000E+00 0.  1.
          1    1    1    2  501    0  0.17392883794E+03  0.87456584870E+02 -0.52457398268E+03  0.55953351840E+03  0.00000000000E+00 0. -1.
<scales pt_clust_5="13000.00000" pt_clust_6="13000.00000" pt_clust_7="13000.00000" pt_clust_8="13000.00000" pt_clust_9="13000.00000"></scales>
<clustering>
<clus scale="   75.137">  7  8 -1 -1</clus>
<clus scale="   79.039">  5  6 -1 -1</clus>
<clus scale="   86.972">  2  5  1 -1</clus>
<clus scale="  169.362">  7  9 -1 -1</clus>
<clus scale="  400.625">  1  5  2 -1</clus>
</clustering>
</event>
<event>
 9    2  0.3707658E-005  0.1809400E+03  0.7546771E-02  0.1175579E+00
         21   -1    0    0  501  502  0.00000000000E+00  0.00000000000E+00  0.15977368621E+02  0.15977368621E+02  0.00000000000E+00 0. -1.
          2   -1    0    0  502    0 -0.00000000000E+00 -0.00000000000E+00 -0.20650994867E+04  0.20650994867E+04  0.00000000000E+00 0. -1.
         24    2    1    2    0    0  0.36731795028E+02  0.11858841483E+03 -0.13787635345E+04  0.13867283046E+04  0.81326930813E+02 0.  0.
         23    2    1    2    0    0 -0.13508705480E+02 -0.77799537001E+02 -0.58181217605E+03  0.59413123326E+03  0.90836452260E+02 0.  0.
        -11    1    3    3    0    0 -0.20881581616E+02  0.36201463327E+02 -0.24722063443E+03  0.25072819643E+03  0.00000000000E+00 0.  1.
         12    1    3    3    0    0  0.57613376644E+02  0.82386951499E+02 -0.11315429001E+04  0.11360001081E+04  0.00000000000E+00 0. -1.
        -13    1    4    4    0    0 -0.23281843611E+02  0.11119062568E+02 -0.70933756425E+02  0.75480299382E+02  0.00000000000E+00 0. -1.
         13    1    4    4    0    0  0.97731381306E+01 -0.88918599569E+02 -0.51087841963E+03  0.51865093388E+03  0.00000000000E+00 0.  1.
          1    1    1    2  501    0 -0.23223089548E+02 -0.40788877826E+02 -0.88546407545E+02  0.10021731752E+03  0.00000000000E+00 0. -1.
<scales pt_clust_5="13000.00000" pt_clust_6="13000.00000" pt_clust_7="13000.00000" pt_clust_8="13000.00000" pt_clust_9="13000.00000"></scales>
<clustering>
<clus scale="   81.327">  5  6 -1 -1</clus>
<clus scale="   90.836">  7  8 -1 -1</clus>
<clus scale="   46.937">  7  9 -1 -1</clus>
<clus scale="  148.413">  2  5  1 -1</clus>
<clus scale="  180.940">  1  5  2 -1</clus>
</clustering>
</event>
<event>
 9    2  0.3707658E-005  0.1324062E+03  0.7546771E-02  0.1245940E+00
         21   -1    0    0  501  502  0.00000000000E+00  0.00000000000E+00  0.11323217007E+03  0.11323217007E+03  0.00000000000E+00 0. -1.
          2   -1    0    0  502    0 -0.00000000000E+00 -0.00000000000E+00 -0.37045051439E+03  0.37045051439E+03  0.00000000000E+00 0. -1.
         24    2    1    2    0    0 -0.26280518743E+02  0.14788002915E+02 -0.32441384393E+03  0.33520155274E+03  0.78780632980E+02 0.  0.
         23    2    1    2    0    0 -0.11229988625E+02 -0.97674302205E+01  0.50865032362E+02  0.10726307168E+03  0.93255561186E+02 0.  0.
        -13    1    3    3    0    0 -0.26168076636E+02 -0.10174441722E+02 -0.35734512793E+02  0.45444943654E+02  0.00000000000E+00 0.  1.
         14    1    3    3    0    0 -0.11244210710E+00  0.24962444637E+02 -0.28867933113E+03  0.28975660909E+03  0.00000000000E+00 0. -1.
        -11    1    4    4    0    0  0.20845715332E+02  0.33894110719E+02  0.26842705250E+02  0.47998806384E+02  0.00000000000E+00 0. -1.
         11    1    4    4    0    0 -0.32075703958E+02 -0.43661540939E+02  0.24022327112E+02  0.59264265299E+02  0.00000000000E+00 0.  1.
          1    1    1    2  501    0  0.37510507369E+02 -0.50205726944E+01  0.16330467244E+02  0.41218060042E+02  0.00000000000E+00 0. -1.
<scales pt_clust_5="13000.00000" pt_clust_6="13000.00000" pt_clust_7="13000.00000" pt_clust_8="13000.00000" pt_clust_9="13000.00000"></scales>
<clustering>
<clus scale="   78.781">  5  6 -1 -1</clus>
<clus scale="   84.355">  2  5  1 -1</clus>
<clus scale="   93.256">  7  8 -1 -1</clus>
<clus scale="   29.468">  7  9 -1 -1</clus>
<clus scale="  132.406">  1  5  2 -1</clus>
</clustering>
</event>
<event>
 9    2  0.3707658E-005  0.1709652E+03  0.7546771E-02  0.1202043E+00
         21   -1    0    0  501  502  0.00000000000E+00  0.00000000000E+00  0.44801073974E+03  0.44801073974E+03  0.00000000000E+00 0.  1.
         -3   -1    0    0    0  501 -0.00000000000E+00 -0.00000000000E+00 -0.40910557983E+02  0.40910557983E+02  0.00000000000E+00 0.  1.
         24    2    1    2    0    0  0.13537504996E+02  0.35354037059E+02  0.12131650342E+03  0.15590268078E+03  0.90303819922E+02 0.  0.
         23    2    1    2    0    0  0.17091401151E+02 -0.46687305996E+02  0.27949787279E+03  0.29976077234E+03  0.96258190324E+02 0.  0.
        -11    1    3    3    0    0 -0.11693403140E+02  0.60777850290E+02  0.71893071353E+02  0.94864621811E+02  0.00000000000E+00 0.  1.
         12    1    3    3    0    0  0.25230908136E+02 -0.25423813231E+02  0.49423432070E+02  0.61038058964E+02  0.00000000000E+00 0. -1.
        -11    1    4    4    0    0  0.34763273667E+02  0.86451927809E+01  0.18800098574E+03  0.19138337230E+03  0.00000000000E+00 0.  1.
         11    1    4    4    0    0 -0.17671872516E+02 -0.55332498777E+02  0.91496887055E+02  0.10837740004E+03  0.00000000000E+00 0. -1.
         -4    1    1    2    0  502 -0.30628906147E+02  0.11333268937E+02  0.62858055420E+01  0.33257844607E+02  0.00000000000E+00 0.  1.
<scales pt_clust_5="13000.00000" pt_clust_6="13000.00000" pt_clust_7="13000.00000" pt_clust_8="13000.00000" pt_clust_9="13000.00000"></scales>
<clustering>
<clus scale="   90.304">  5  6 -1 -1</clus>
<clus scale="   96.258">  7  8 -1 -1</clus>
<clus scale="   32.658">  7  9 -1 -1</clus>
<clus scale="   97.918">  2  5  1 -1</clus>
<clus scale="  170.965">  1  5  2 -1</clus>
</clustering>
</event>
<event>
 9    2  0.3707658E-005  0.4306042E+03  0.7546771E-02  0.1086847E+00
         21   -1    0    0  501  502  0.00000000000E+00  0.00000000000E+00  0.10848255539E+03  0.10848255539E+03  0.00000000000E+00 0. -1.
          2   -1    0    0  502    0 -0.00000000000E+00 -0.00000000000E+00 -0.65805943695E+03  0.65805943695E+03  0.00000000000E+00 0. -1.
         24    2    1    2    0    0  0.23451562632E+02 -0.50969101443E+02 -0.15225554320E+03  0.18063734590E+03  0.79374272945E+02 0.  0.
         23    2    1    2    0    0  0.17498698199E+03 -0.37143828313E+02 -0.25998366838E+03  0.32899341669E+03  0.92978774735E+02 0.  0.
        -13    1    3    3    0    0 -0.13672824737E+02 -0.30295213415E+02 -0.12684293911E+03  0.13112542582E+03  0.00000000000E+00 0.  1.
         14    1    3    3    0    0  0.37124387369E+02 -0.20673888027E+02 -0.25412604087E+02  0.49511920082E+02  0.00000000000E+00 0. -1.
        -13    1    4    4    0    0  0.15851849163E+03  0.10617363968E+01 -0.22103608578E+03  0.27200402698E+03  0.00000000000E+00 0. -1.
         13    1    4    4    0    0  0.16468490361E+02 -0.38205564710E+02 -0.38947582601E+02  0.56989389714E+02  0.00000000000E+00 0.  1.
          1    1    1    2  501    0 -0.19843854462E+03  0.88112929756E+02 -0.13733766998E+03  0.25691122976E+03  0.00000000000E+00 0. -1.
<scales pt_clust_5="13000.00000" pt_clust_6="13000.00000" pt_clust_7="13000.00000" pt_clust_8="13000.00000" pt_clust_9="13000.00000"></scales>
<clustering>
<clus scale="   79.374">  5  6 -1 -1</clus>
<clus scale="   92.979">  7  8 -1 -1</clus>
<clus scale="   97.201">  2  5  1 -1</clus>
<clus scale="  200.784">  7  9 -1 -1</clus>
<clus scale="  430.604">  1  5  2 -1</clus>
</clustering>
</event>
<event>
 9    2  0.3707658E-005  0.7317845E+03  0.7546771E-02  0.1029395E+00
         21   -1    0    0  501  502  0.00000000000E+00  0.00000000000E+00  0.21631947157E+03  0.21631947157E+03  0.00000000000E+00 0. -1.
          2   -1    0    0  502    0 -0.00000000000E+00 -0.00000000000E+00 -0.81640622143E+03  0.81640622143E+03  0.00000000000E+00 0. -1.
         24    2    1    2    0    0  0.21848556341E+02 -0.52638264143E+02 -0.26752875234E+02  0.10309117642E+03  0.81632885879E+02 0.  0.
         23    2    1    2    0    0  0.40562404795E+02 -0.31787657555E+03 -0.15723148438E+03  0.36899419187E+03  0.93510149116E+02 0.  0.
        -11    1    3    3    0    0 -0.77558880045E+01 -0.51637128160E+02  0.12716842204E+02  0.53742579757E+02  0.00000000000E+00 0.  1.
         12    1    3    3    0    0  0.29604444346E+02 -0.10011359833E+01 -0.39469717438E+02  0.49348596666E+02  0.00000000000E+00 0. -1.
        -11    1    4    4    0    0  0.38818839428E+02 -0.11755921654E+03 -0.10407548550E+03  0.16173675640E+03  0.00000000000E+00 0.  1.
         11    1    4    4    0    0  0.17435653667E+01 -0.20031735902E+03 -0.53155998877E+02  0.20725743548E+03  0.00000000000E+00 0. -1.
          1    1    1    2  501    0 -0.62410961137E+02  0.37051483970E+03 -0.41610239025E+03  0.56064032470E+03  0.00000000000E+00 0. -1.
<scales pt_clust_5="13000.00000" pt_clust_6="13000.00000" pt_clust_7="13000.00000" pt_clust_8="13000.00000" pt_clust_9="13000.00000"></scales>
<clustering>
<clus scale="   81.633">  5  6 -1 -1</clus>
<clus scale="   93.510">  7  8 -1 -1</clus>
<clus scale="   99.559">  2  5  1 -1</clus>
<clus scale="  339.745">  7  9 -1 -1</clus>
<clus scale="  731.785">  1  5  2 -1</clus>
</clustering>
</event>
<event>
 9    2  0.3707658E-005  0.2692394E+03  0.7546771E-02  0.1148459E+00
         21   -1    0    0  501  502  0.00000000000E+00  0.00000000000E+00  0.41095796002E+02  0.41095796002E+02  0.00000000000E+00 0. -1.
          2   -1    0    0  502    0 -0.00000000000E+00 -0.00000000000E+00 -0.91081148409E+03  0.91081148409E+03  0.00000000000E+00 0. -1.
         24    2    1    2    0    0 -0.24477313748E+01  0.30480160989E+02 -0.41452713312E+03  0.42305336972E+03  0.78780568249E+02 0.  0.
         23    2    1    2    0    0  0.65473101049E+01  0.87735996338E+02 -0.34044800823E+03  0.36405931257E+03  0.94307287310E+02 0.  0.
        -13    1    3    3    0    0 -0.28876470439E+02 -0.28181164720E+01 -0.68036942917E+02  0.73964977705E+02  0.00000000000E+00 0.  1.
         14    1    3    3    0    0  0.26428739064E+02  0.33298277461E+02 -0.34649019021E+03  0.34908839202E+03  0.00000000000E+00 0. -1.
        -13    1    4    4    0    0  0.33244130219E+02  0.41489647253E+02 -0.27250831921E+03  0.27764608238E+03  0.00000000000E+00 0.  1.
         13    1    4    4    0    0 -0.26696820114E+02  0.46246349085E+02 -0.67939689019E+02  0.86413230190E+02  0.00000000000E+00 0. -1.
          1    1    1    2  501    0 -0.40995787301E+01 -0.11821615733E+03 -0.11474054674E+03  0.16479459780E+03  0.00000000000E+00 0. -1.
<scales pt_clust_5="13000.00000" pt_clust_6="13000.00000" pt_clust_7="13000.00000" pt_clust_8="13000.00000" pt_clust_9="13000.00000"></scales>
<clustering>
<clus scale="   78.781">  5  6 -1 -1</clus>
<clus scale="   84.507">  2  5  1 -1</clus>
<clus scale="   94.307">  7  8 -1 -1</clus>
<clus scale="  109.663">  7  9 -1 -1</clus>
<clus scale="  269.239">  1  5  2 -1</clus>
</clustering>
</event>
<event>
 9    2  0.3707658E-005  0.1924357E+03  0.7546771E-02  0.1187403E+00
         21   -1    0    0  501  502  0.00000000000E+00  0.00000000000E+00  0.46948564270E+03  0.46948564270E+03  0.00000000000E+00 0.  1.
          2   -1    0    0  502    0 -0.00000000000E+00 -0.00000000000E+00 -0.53712299819E+02  0.53712299819E+02  0.00000000000E+00 0. -1.
         24    2    1    2    0    0  0.46263150682E+02  0.94511362430E+01  0.25648810813E+03  0.27339143368E+03  0.82019042368E+02 0.  0.
         23    2    1    2    0    0  0.31508112447E+02 -0.45853950153E+02  0.81860399197E+02  0.13418583859E+03  0.90605565093E+02 0.  0.
        -11    1    3    3    0    0  0.14203404902E+02  0.39266092995E+02  0.18424683881E+03  0.18891919009E+03  0.00000000000E+00 0.  1.
         12    1    3    3    0    0  0.32059745779E+02 -0.29814956752E+02  0.72241269311E+02  0.84472243590E+02  0.00000000000E+00 0. -1.
        -13    1    4    4    0    0 -0.20007125828E+02 -0.45792273285E+02  0.20360555585E+02  0.53960815415E+02  0.00000000000E+00 0.  1.
         13    1    4    4    0    0  0.51515238275E+02 -0.61676868235E-01  0.61499843612E+02  0.80225023171E+02  0.00000000000E+00 0. -1.
          1    1    1    2  501    0 -0.77771263129E+02  0.36402813910E+02  0.77424835558E+02  0.11562067026E+03  0.00000000000E+00 0. -1.
<scales pt_clust_5="13000.00000" pt_clust_6="13000.00000" pt_clust_7="13000.00000" pt_clust_8="13000.00000" pt_clust_9="13000.00000"></scales>
<clustering>
<clus scale="   82.019">  5  6 -1 -1</clus>
<clus scale="   90.606">  7  8 -1 -1</clus>
<clus scale="   85.869">  7  9 -1 -1</clus>
<clus scale="   94.640">  2  5  1 -1</clus>
<clus scale="  192.436">  1  5  2 -1</clus>
</clustering>
</event>
<event>
 9    2  0.3707658E-005  0.2764302E+03  0.7546771E-02  0.1132802E+00
         21   -1    0    0  501  502  0.00000000000E+00  0.00000000000E+00  0.78046850176E+02  0.78046850176E+02  0.00000000000E+00 0. -1.
          2   -1    0    0  502    0 -0.00000000000E+00 -0.00000000000E+00 -0.21243153190E+04  0.21243153190E+04  0.00000000000E+00 0. -1.
         24    2    1    2    0    0  0.56647123114E+02 -0.54989774250E+02 -0.18722695376E+04  0.18757289468E+04  0.82055401425E+02 0.  0.
         23    2    1    2    0    0  0.28041385866E+02 -0.65998181489E+02 -0.12559343044E+03  0.17121983330E+03  0.91653926608E+02 0.  0.
        -11    1    3    3    0    0  0.49925665558E+01 -0.24731132933E+02 -0.12968624415E+03  0.13211766187E+03  0.00000000000E+00 0.  1.
         12    1    3    3    0    0  0.51654556558E+02 -0.30258641317E+02 -0.17425832934E+04  0.17436112850E+04  0.00000000000E+00 0. -1.
        -13    1    4    4    0    0  0.70255440082E+01 -0.85150557784E+02 -0.10828087192E+03  0.13793013806E+03  0.00000000000E+00 0. -1.
         13    1    4    4    0    0  0.21015841858E+02  0.19152376295E+02 -0.17312558518E+02  0.33289695240E+02  0.00000000000E+00 0.  1.
          1    1    1    2  501    0 -0.84688508980E+02  0.12098795574E+03 -0.48405500839E+02  0.15541338906E+03  0.00000000000E+00 0. -1.
<scales pt_clust_5="13000.00000" pt_clust_6="13000.00000" pt_clust_7="13000.00000" pt_clust_8="13000.00000" pt_clust_9="13000.00000"></scales>
<clustering>
<clus scale="   82.055">  5  6 -1 -1</clus>
<clus scale="   91.654">  7  8 -1 -1</clus>
<clus scale="  113.868">  2  5  1 -1</clus>
<clus scale="  116.275">  7  9 -1 -1</clus>
<clus scale="  276.430">  1  5  2 -1</clus>
</clustering>
</event>
<event>
 9    2  0.3707658E-005  0.5042842E+03  0.7546771E-02  0.1072041E+00
         -3   -1    0    0    0  501 -0.00000000000E+00  0.00000000000E+00  0.18344621259E+03  0.18344621259E+03  0.00000000000E+00 0.  1.
         21   -1    0    0  501  502  0.00000000000E+00 -0.00000000000E+00 -0.48326969861E+03  0.48326969861E+03  0.00000000000E+00 0.  1.
         24    2    1    2    0    0 -0.67439969619E+01  0.37737763801E+02 -0.31990661448E+02  0.95719449923E+02  0.81665111045E+02 0.  0.
         23    2    1    2    0    0 -0.99054300965E+02 -0.70483070528E+02  0.10089024254E+03  0.18600005196E+03  0.98171077813E+02 0.  0.
        -13    1    3    3    0    0 -0.33073436384E+02  0.64820163269E+00 -0.37381266760E+02  0.49916244492E+02  0.00000000000E+00 0.  1.
         14    1    3    3    0    0  0.26329439422E+02  0.37089562169E+02  0.53906053115E+01  0.45803205431E+02  0.00000000000E+00 0. -1.
        -13    1    4    4    0    0 -0.43542081132E+02 -0.79812679464E+02  0.30558381554E+02  0.95915542618E+02  0.00000000000E+00 0.  1.
         13    1    4    4    0    0 -0.55512219833E+02  0.93296089353E+01  0.70331860990E+02  0.90084509346E+02  0.00000000000E+00 0. -1.
         -4    1    1    2    0  502  0.10579829793E+03  0.32745306727E+02 -0.36872306711E+03  0.38499640931E+03  0.00000000000E+00 0.  1.
<scales pt_clust_5="13000.00000" pt_clust_6="13000.00000" pt_clust_7="13000.00000" pt_clust_8="13000.00000" pt_clust_9="13000.00000"></scales>
<clustering>
<clus scale="   81.665">  5  6 -1 -1</clus>
<clus scale="   90.215">  1  5  2 -1</clus>
<clus scale="   98.171">  7  8 -1 -1</clus>
<clus scale="  111.022">  7  9 -1 -1</clus>
<clus scale="  504.284">  2  5  1 -1</clus>
</clustering>
</event>
<event>
 9    2  0.3707658E-005  0.1549685E+03  0.7546771E-02  0.1210772E+00
         -1   -1    0    0    0  501 -0.00000000000E+00  0.00000000000E+00  0.14969091817E+03  0.14969091817E+03  0.00000000000E+00 0.  1.
         21   -1    0    0  501  502  0.00000000000E+00 -0.00000000000E+00 -0.12071377582E+03  0.12071377582E+03  0.00000000000E+00 0.  1.
         24    2    1    2    0    0 -0.64844502064E+02  0.41131201071E+02 -0.13219437607E+02  0.10979401479E+03  0.77352356156E+02 0.  0.
         23    2    1    2    0    0  0.45640407073E+02  0.17433217241E+01  0.56519242954E+01  0.10109149047E+03  0.90008106687E+02 0.  0.
        -13    1    3    3    0    0 -0.69983251054E+02  0.54255801478E+02  0.26216670475E+01  0.88590183205E+02  0.00000000000E+00 0.  1.
         14    1    3    3    0    0  0.51387489906E+01 -0.13124600408E+02 -0.15841104655E+02  0.21203831581E+02  0.00000000000E+00 0. -1.
        -13    1    4    4    0    0 -0.26969140939E+02  0.70740468872E+01 -0.15929319415E+01  0.27926942807E+02  0.00000000000E+00 0. -1.
         13    1    4    4    0    0  0.72609548013E+02 -0.53307251631E+01  0.72448562369E+01  0.73164547666E+02  0.00000000000E+00 0.  1.
         -2    1    1    2    0  502  0.19204094990E+02 -0.42874522795E+02  0.36544655669E+02  0.59519188731E+02  0.00000000000E+00 0.  1.
<scales pt_clust_5="13000.00000" pt_clust_6="13000.00000" pt_clust_7="13000.00000" pt_clust_8="13000.00000" pt_clust_9="13000.00000"></scales>
<clustering>
<clus scale="   77.352">  5  6 -1 -1</clus>
<clus scale="   90.008">  7  8 -1 -1</clus>
<clus scale="   46.979">  7  9 -1 -1</clus>
<clus scale="  108.995">  1  5  2 -1</clus>
<clus scale="  154.969">  2  5  1 -1</clus>
</clustering>
</event>
<event>
 9    2  0.3707658E-005  0.2100045E+03  0.7546771E-02  0.1179148E+00
          2   -1    0    0  502    0 -0.00000000000E+00  0.00000000000E+00  0.20273369157E+03  0.20273369157E+03  0.00000000000E+00 0. -1.
         21   -1    0    0  501  502  0.00000000000E+00 -0.00000000000E+00 -0.12672103978E+03  0.12672103978E+03  0.00000000000E+00 0. -1.
         24    2    1    2    0    0  0.31142345017E+02  0.10890008004E+02  0.81140532708E+02  0.11938766464E+03  0.81124536936E+02 0.  0.
         23    2    1    2    0    0  0.56590698900E+02  0.29328598337E+02 -0.92590434473E+01  0.11346639489E+03  0.93414233397E+02 0.  0.
        -11    1    3    3    0    0  0.28296368415E+02 -0.13018950344E+02 -0.35422101312E+01  0.31348441526E+02  0.00000000000E+00 0.  1.
         12    1    3    3    0    0  0.28459766018E+01  0.23908958348E+02  0.84682742839E+02  0.88039223116E+02  0.00000000000E+00 0. -1.
        -11    1    4    4    0    0  0.26284041230E+02  0.35171094692E+02 -0.47261090023E+02  0.64509436173E+02  0.00000000000E+00 0. -1.
         11    1    4    4    0    0  0.30306657670E+02 -0.58424963545E+01  0.38002046576E+02  0.48956958716E+02  0.00000000000E+00 0.  1.
          1    1    1    2  501    0 -0.87733043917E+02 -0.40218606342E+02  0.41311625306E+01  0.96600671814E+02  0.00000000000E+00 0. -1.
<scales pt_clust_5="13000.00000" pt_clust_6="13000.00000" pt_clust_7="13000.00000" pt_clust_8="13000.00000" pt_clust_9="13000.00000"></scales>
<clustering>
<clus scale="   81.125">  5  6 -1 -1</clus>
<clus scale="   87.576">  1  5  2 -1</clus>
<clus scale="   93.414">  7  8 -1 -1</clus>
<clus scale="   80.381">  7  9 -1 -1</clus>
<clus scale="  210.004">  2  5  1 -1</clus>
</clustering>
</event>
<event>
 9    2  0.3707658E-005  0.2210464E+03  0.7546771E-02  0.1164007E+00
          2   -1    0    0  502    0 -0.00000000000E+00  0.00000000000E+00  0.29978734652E+03  0.29978734652E+03  0.00000000000E+00 0. -1.
         21   -1    0    0  501  502  0.00000000000E+00 -0.00000000000E+00 -0.89287588155E+02  0.89287588155E+02  0.00000000000E+00 0. -1.
         24    2    1    2    0    0 -0.77562513596E+01 -0.63476119570E+02  0.72550706319E+02  0.12851502825E+03  0.84635278147E+02 0.  0.
         23    2    1    2    0    0  0.58025858945E+02 -0.32494801177E+02  0.70364280977E+02  0.13286827649E+03  0.90994145142E+02 0.  0.
        -13    1    3    3    0    0 -0.10287112013E+02 -0.36123854938E+02 -0.12146118458E+02  0.39475128407E+02  0.00000000000E+00 0.  1.
         14    1    3    3    0    0  0.25308606537E+01 -0.27352264632E+02  0.84696824777E+02  0.89039899839E+02  0.00000000000E+00 0. -1.
        -13    1    4    4    0    0  0.16690690891E+02 -0.60497606348E+02  0.40479829139E+02  0.74680359556E+02  0.00000000000E+00 0.  1.
         13    1    4    4    0    0  0.41335168054E+02  0.28002805171E+02  0.29884451838E+02  0.58187916934E+02  0.00000000000E+00 0. -1.
          1    1    1    2  501    0 -0.50269607586E+02  0.95970920747E+02  0.67584771071E+02  0.12769162994E+03  0.00000000000E+00 0. -1.
<scales pt_clust_5="13000.00000" pt_clust_6="13000.00000" pt_clust_7="13000.00000" pt_clust_8="13000.00000" pt_clust_9="13000.00000"></scales>
<clustering>
<clus scale="   84.635">  5  6 -1 -1</clus>
<clus scale="   90.994">  7  8 -1 -1</clus>
<clus scale="  106.078">  1  5  2 -1</clus>
<clus scale="   84.447">  7  9 -1 -1</clus>
<clus scale="  221.046">  2  5  1 -1</clus>
</clustering>
</event>
<event>
 9    2  0.3707658E-005  0.1216679E+03  0.7546771E-02  0.1256499E+00
          2   -1    0    0  502    0 -0.00000000000E+00  0.00000000000E+00  0.38750106515E+03  0.38750106515E+03  0.00000000000E+00 0. -1.
         21   -1    0    0  501  502  0.00000000000E+00 -0.00000000000E+00 -0.40008701801E+02  0.40008701801E+02  0.00000000000E+00 0. -1.
         24    2    1    2    0    0  0.36075413417E+02  0.69113886214E+01  0.39834853027E+02  0.96668094556E+02  0.80054370546E+02 0.  0.
         23    2    1    2    0    0 -0.15785545653E+02 -0.22619756898E+02  0.25112761120E+03  0.26876058781E+03  0.91686092742E+02 0.  0.
        -11    1    3    3    0    0 -0.44915237176E+01  0.31169949953E+02  0.38017010476E+02  0.49366310891E+02  0.00000000000E+00 0.  1.
         12    1    3    3    0    0  0.40566937135E+02 -0.24258561332E+02  0.18178425513E+01  0.47301783665E+02  0.00000000000E+00 0. -1.
        -13    1    4    4    0    0 -0.42551820264E+02 -0.33653036711E+02  0.90265694155E+02  0.10531419576E+03  0.00000000000E+00 0. -1.
         13    1    4    4    0    0  0.26766274611E+02  0.11033279813E+02  0.16086191704E+03  0.16344639205E+03  0.00000000000E+00 0.  1.
          1    1    1    2  501    0 -0.20289867764E+02  0.15708368277E+02  0.56529899119E+02  0.62081084576E+02  0.00000000000E+00 0. -1.
<scales pt_clust_5="13000.00000" pt_clust_6="13000.00000" pt_clust_7="13000.00000" pt_clust_8="13000.00000" pt_clust_9="13000.00000"></scales>
<clustering>
<clus scale="   80.054">  5  6 -1 -1</clus>
<clus scale="   88.079">  1  5  2 -1</clus>
<clus scale="   91.686">  7  8 -1 -1</clus>
<clus scale="   21.757">  7  9 -1 -1</clus>
<clus scale="  121.668">  2  5  1 -1</clus>
</clustering>
</event>
<event>
 9    2  0.3707658E-005  0.3475215E+03  0.7546771E-02  0.1114913E+00
         21   -1    0    0  501  502  0.00000000000E+00  0.00000000000E+00  0.21682582781E+03  0.21682582781E+03  0.00000000000E+00 0. -1.
          2   -1    0    0  502    0 -0.00000000000E+00 -0.00000000000E+00 -0.41397715979E+03  0.41397715979E+03  0.00000000000E+00 0. -1.
         24    2    1    2    0    0  0.34203367052E+02  0.24239466862E+01 -0.26240869486E+03  0.27720756965E+03  0.82522528425E+02 0.  0.
         23    2    1    2    0    0  0.69158068530E+02 -0.21308304968E+02 -0.10303804914E+03  0.15519292034E+03  0.90725523693E+02 0.  0.
        -13    1    3    3    0    0  0.59915399195E+01 -0.33753657244E+02 -0.17668109089E+03  0.17997615343E+03  0.00000000000E+00 0.  1.
         14    1    3    3    0    0  0.28211827133E+02  0.36177603930E+02 -0.85727603973E+02  0.97231416216E+02  0.00000000000E+00 0. -1.
        -11    1    4    4    0    0  0.63104040998E+02  0.15009163795E+02 -0.26137237458E+02  0.69932468640E+02  0.00000000000E+00 0. -1.
         11    1    4    4    0    0  0.60540275322E+01 -0.36317468763E+02 -0.76900811681E+02  0.85260451699E+02  0.00000000000E+00 0.  1.
          1    1    1    2  501    0 -0.10336143558E+03  0.18884358282E+02  0.16829541202E+03  0.19840249761E+03  0.00000000000E+00 0. -1.
<scales pt_clust_5="13000.00000" pt_clust_6="13000.00000" pt_clust_7="13000.00000" pt_clust_8="13000.00000" pt_clust_9="13000.00000"></scales>
<clustering>
<clus scale="   82.523">  5  6 -1 -1</clus>
<clus scale="   89.363">  2  5  1 -1</clus>
<clus scale="   90.726">  7  8 -1 -1</clus>
<clus scale="  101.609">  7  9 -1 -1</clus>
<clus scale="  347.522">  1  5  2 -1</clus>
</clustering>
</event>
<event>
 9    2  0.3707658E-005  0.4562408E+03  0.7546771E-02  0.1041582E+00
          2   -1    0    0  502    0 -0.00000000000E+00  0.00000000000E+00  0.90110687281E+03  0.90110687281E+03  0.00000000000E+00 0. -1.
         21   -1    0    0  501  502  0.00000000000E+00 -0.00000000000E+00 -0.16366190817E+03  0.16366190817E+03  0.00000000000E+00 0.  1.
         24    2    1    2    0    0  0.16391436294E+03 -0.22103349356E+03  0.15993956253E+03  0.32878769742E+03  0.82443693895E+02 0.  0.
         23    2    1    2    0    0  0.71750777872E+02 -0.21209475818E+02  0.12855867161E+03  0.17404435968E+03  0.90366426860E+02 0.  0.
        -11    1    3    3    0    0  0.16005088908E+03 -0.21745886608E+03  0.13235108155E+03  0.30070160346E+03  0.00000000000E+00 0.  1.
         12    1    3    3    0    0  0.38634738554E+01 -0.35746274793E+01  0.27588480975E+02  0.28086093967E+02  0.00000000000E+00 0. -1.
        -13    1    4    4    0    0  0.45263173337E+02 -0.50268749136E+02  0.11312018337E+03  0.13180241987E+03  0.00000000000E+00 0. -1.
         13    1    4    4    0    0  0.26487604535E+02  0.29059273318E+02  0.15438488240E+02  0.42241939810E+02  0.00000000000E+00 0.  1.
          1    1    1    2  501    0 -0.23566514081E+03  0.24224296938E+03  0.44894673050E+03  0.56193672387E+03  0.00000000000E+00 0. -1.
<scales pt_clust_5="13000.00000" pt_clust_6="13000.00000" pt_clust_7="13000.00000" pt_clust_8="13000.00000" pt_clust_9="13000.00000"></scales>
<clustering>
<clus scale="   82.444">  5  6 -1 -1</clus>
<clus scale="   90.366">  7  8 -1 -1</clus>
<clus scale="  287.264">  1  5  2 -1</clus>
<clus scale="  131.134">  7  9 -1 -1</clus>
<clus scale="  456.241">  2  5  1 -1</clus>
</clustering>
</event>
<event>
 9    2  0.3707658E-005  0.4304186E+03  0.7546771E-02  0.1075199E+00
         21   -1    0    0  501  502  0.00000000000E+00  0.00000000000E+00  0.81348818745E+02  0.81348818745E+02  0.00000000000E+00 0.  1.
          2   -1    0    0  502    0 -0.00000000000E+00 -0.00000000000E+00 -0.10108278345E+04  0.10108278345E+04  0.00000000000E+00 0. -1.
         24    2    1    2    0    0  0.45837359101E+02 -0.90287836152E+02 -0.14128785291E+03  0.19412016434E+03  0.86414257957E+02 0.  0.
         23    2    1    2    0    0 -0.58648154015E+02 -0.77164418929E+02 -0.50762698491E+02  0.14174629180E+03  0.90117735013E+02 0.  0.
        -11    1    3    3    0    0  0.61607089542E+02 -0.39076521992E+02 -0.50601031141E+02  0.88785541645E+02  0.00000000000E+00 0.  1.
         12    1    3    3    0    0 -0.15769730441E+02 -0.51211314160E+02 -0.90686821771E+02  0.10533462270E+03  0.00000000000E+00 0. -1.
        -11    1    4    4    0    0 -0.45541435880E+02 -0.17069146668E+02  0.15779785641E+02  0.51131006100E+02  0.00000000000E+00 0.  1.
         11    1    4    4    0    0 -0.13106718135E+02 -0.60095272261E+02 -0.66542484132E+02  0.90615285702E+02  0.00000000000E+00 0. -1.
          1    1    1    2  501    0  0.12810794914E+02  0.16745225508E+03 -0.73742846435E+03  0.75631019710E+03  0.00000000000E+00 0. -1.
<scales pt_clust_5="13000.00000" pt_clust_6="13000.00000" pt_clust_7="13000.00000" pt_clust_8="13000.00000" pt_clust_9="13000.00000"></scales>
<clustering>
<clus scale="   86.414">  5  6 -1 -1</clus>
<clus scale="   90.118">  7  8 -1 -1</clus>
<clus scale="  133.118">  2  5  1 -1</clus>
<clus scale="  102.492">  7  9 -1 -1</clus>
<clus scale="  430.419">  1  5  2 -1</clus>
</clustering>
</event>
<event>
 9    2  0.3707658E-005  0.1911359E+03  0.7546771E-02  0.1189693E+00
         21   -1    0    0  501  502  0.00000000000E+00  0.00000000000E+00  0.12259674764E+03  0.12259674764E+03  0.00000000000E+00 0.  1.
          2   -1    0    0  502    0 -0.00000000000E+00 -0.00000000000E+00 -0.24780734986E+03  0.24780734986E+03  0.00000000000E+00 0. -1.
         24    2    1    2    0    0 -0.48969121144E+02 -0.10672056569E+02 -0.15182446513E+03  0.17742425485E+03  0.76920935911E+02 0.  0.
         23    2    1    2    0    0  0.41156536709E+02 -0.54498105941E+02  0.49794309354E+02  0.12337007569E+03  0.89871009047E+02 0.  0.
        -13    1    3    3    0    0  0.16401871008E+02 -0.17617229005E+02 -0.25804246742E+02  0.35288061442E+02  0.00000000000E+00 0.  1.
         14    1    3    3    0    0 -0.65370992152E+02  0.69451724359E+01 -0.12602021839E+03  0.14213619341E+03  0.00000000000E+00 0. -1.
        -13    1    4    4    0    0 -0.54658599973E+00 -0.31724400613E+02  0.65947380966E+02  0.73183286389E+02  0.00000000000E+00 0. -1.
         13    1    4    4    0    0  0.41703122708E+02 -0.22773705328E+02 -0.16153071612E+02  0.50186789302E+02  0.00000000000E+00 0.  1.
          1    1    1    2  501    0  0.78125844353E+01  0.65170162510E+02 -0.23180446446E+02  0.69609766948E+02  0.00000000000E+00 0. -1.
<scales pt_clust_5="13000.00000" pt_clust_6="13000.00000" pt_clust_7="13000.00000" pt_clust_8="13000.00000" pt_clust_9="13000.00000"></scales>
<clustering>
<clus scale="   76.921">  5  6 -1 -1</clus>
<clus scale="   89.871">  7  8 -1 -1</clus>
<clus scale="   65.637">  7  9 -1 -1</clus>
<clus scale="   91.808">  2  5  1 -1</clus>
<clus scale="  191.136">  1  5  2 -1</clus>
</clustering>
</event>
<event>
 9    2  0.3707658E-005  0.1316297E+03  0.7546771E-02  0.1241322E+00
         21   -1    0    0  501  502  0.00000000000E+00  0.00000000000E+00  0.24157055883E+03  0.24157055883E+03  0.00000000000E+00 0. -1.
         -1   -1    0    0    0  501 -0.00000000000E+00 -0.00000000000E+00 -0.16070608686E+03  0.16070608686E+03  0.00000000000E+00 0.  1.
         24    2    1    2    0    0  0.15014877550E+01 -0.49021830991E+02 -0.12583975307E+03  0.15721949701E+03  0.80479391208E+02 0.  0.
         23    2    1    2    0    0  0.18096902268E+02  0.55080685270E+02  0.18865619873E+03  0.21773430366E+03  0.91954803626E+02 0.  0.
        -13    1    3    3    0    0  0.42992031273E+01 -0.61683626701E+02 -0.12970394395E+03  0.14368878184E+03  0.00000000000E+00 0.  1.
         14    1    3    3    0    0 -0.27977153723E+01  0.12661795710E+02  0.38641908810E+01  0.13530715172E+02  0.00000000000E+00 0. -1.
        -13    1    4    4    0    0 -0.22091126376E+02 -0.13510204389E+02  0.26024722318E+02  0.36712799660E+02  0.00000000000E+00 0.  1.
         13    1    4    4    0    0  0.40188028644E+02  0.68590889659E+02  0.16263147641E+03  0.18102150400E+03  0.00000000000E+00 0. -1.
         -2    1    1    2    0  502 -0.19598390023E+02 -0.60588542785E+01  0.18048026308E+02  0.27322845025E+02  0.00000000000E+00 0.  1.
<scales pt_clust_5="13000.00000" pt_clust_6="13000.00000" pt_clust_7="13000.00000" pt_clust_8="13000.00000" pt_clust_9="13000.00000"></scales>
<clustering>
<clus scale="   80.479">  5  6 -1 -1</clus>
<clus scale="   91.955">  7  8 -1 -1</clus>
<clus scale="   20.514">  7  9 -1 -1</clus>
<clus scale="   94.246">  2  5  1 -1</clus>
<clus scale="  131.630">  1  5  2 -1</clus>
</clustering>
</event>
<event>
 9    2  0.3707658E-005  0.3806771E+03  0.7546771E-02  0.1072665E+00
          2   -1    0    0  502    0 -0.00000000000E+00  0.00000000000E+00  0.19683955829E+03  0.19683955829E+03  0.00000000000E+00 0. -1.
         21   -1    0    0  501  502  0.00000000000E+00 -0.00000000000E+00 -0.43906846264E+03  0.43906846264E+03  0.00000000000E+00 0.  1.
         24    2    1    2    0    0  0.26192108150E+02  0.18699691520E+03 -0.66536666604E+02  0.21664340349E+03  0.82785043646E+02 0.  0.
         23    2    1    2    0    0 -0.50942067000E+02  0.35918670307E+02 -0.16086608131E+03  0.19448976645E+03  0.89794922318E+02 0.  0.
        -13    1    3    3    0    0  0.23024716362E+02  0.15565664238E+03 -0.86294409759E+02  0.17945989255E+03  0.00000000000E+00 0.  1.
         14    1    3    3    0    0  0.31673917882E+01  0.31340272819E+02  0.19757743155E+02  0.37183510938E+02  0.00000000000E+00 0. -1.
        -11    1    4    4    0    0  0.18093255577E+02  0.24069783955E+02 -0.17249761986E+02  0.34702661073E+02  0.00000000000E+00 0.  1.
         11    1    4    4    0    0 -0.69035322576E+02  0.11848886351E+02 -0.14361631932E+03  0.15978710538E+03  0.00000000000E+00 0. -1.
          1    1    1    2  501    0  0.24749958850E+02 -0.22291558550E+03 -0.14826156444E+02  0.22477485099E+03  0.00000000000E+00 0. -1.
<scales pt_clust_5="13000.00000" pt_clust_6="13000.00000" pt_clust_7="13000.00000" pt_clust_8="13000.00000" pt_clust_9="13000.00000"></scales>
<clustering>
<clus scale="   82.785">  5  6 -1 -1</clus>
<clus scale="   89.795">  7  8 -1 -1</clus>
<clus scale="  206.173">  1  5  2 -1</clus>
<clus scale="   77.786">  7  9 -1 -1</clus>
<clus scale="  380.677">  2  5  1 -1</clus>
</clustering>
</event>
<event>
 9    2  0.3707658E-005  0.2779448E+03  0.7546771E-02  0.1129939E+00
         21   -1    0    0  501  502  0.00000000000E+00  0.00000000000E+00  0.29537180439E+03  0.29537180439E+03  0.00000000000E+00 0.  1.
         -3   -1    0    0    0  501 -0.00000000000E+00 -0.00000000000E+00 -0.22398313561E+03  0.22398313561E+03  0.00000000000E+00 0.  1.
         24    2    1    2    0    0 -0.35045559881E+02 -0.67324324588E+02 -0.12931557517E+03  0.17652045956E+03  0.93146114846E+02 0.  0.
         23    2    1    2    0    0 -0.51623841950E+02 -0.17217572303E+01 -0.41303717314E+01  0.10994788484E+03  0.96971603594E+02 0.  0.
        -11    1    3    3    0    0 -0.18272879596E+02 -0.90063075940E+02 -0.98737955034E+02  0.13488676562E+03  0.00000000000E+00 0.  1.
         12    1    3    3    0    0 -0.16772680285E+02  0.22738751352E+02 -0.30577620138E+02  0.41633693931E+02  0.00000000000E+00 0. -1.
        -11    1    4    4    0    0  0.25830925053E+01 -0.32885108376E+02  0.24587605054E+02  0.41141864835E+02  0.00000000000E+00 0. -1.
         11    1    4    4    0    0 -0.54206934455E+02  0.31163351146E+02 -0.28717976785E+02  0.68806020001E+02  0.00000000000E+00 0.  1.
         -4    1    1    2    0  502  0.86669401831E+02  0.69046081818E+02  0.20483461569E+03  0.23288659561E+03  0.00000000000E+00 0.  1.
<scales pt_clust_5="13000.00000" pt_clust_6="13000.00000" pt_clust_7="13000.00000" pt_clust_8="13000.00000" pt_clust_9="13000.00000"></scales>
<clustering>
<clus scale="   93.146">  5  6 -1 -1</clus>
<clus scale="   96.972">  7  8 -1 -1</clus>
<clus scale="  110.810">  7  9 -1 -1</clus>
<clus scale="  120.154">  2  5  1 -1</clus>
<clus scale="  277.945">  1  5  2 -1</clus>
</clustering>
</event>
<event>
 9    2  0.3707658E-005  0.2102346E+03  0.7546771E-02  0.1166142E+00
         -1   -1    0    0    0  501 -0.00000000000E+00  0.00000000000E+00  0.24366701196E+02  0.24366701196E+02  0.00000000000E+00 0.  1.
         21   -1    0    0  501  502  0.00000000000E+00 -0.00000000000E+00 -0.14586708216E+04  0.14586708216E+04  0.00000000000E+00 0.  1.
         24    2    1    2    0    0  0.84287234467E+02  0.89255629506E+01 -0.91949152489E+03  0.92695246417E+03  0.81192382170E+02 0.  0.
         23    2    1    2    0    0 -0.17254755674E+02  0.50069195873E+02 -0.19632619860E+03  0.22531728540E+03  0.97052830333E+02 0.  0.
        -11    1    3    3    0    0 -0.93337844451E+01  0.18713690162E+02 -0.10684027378E+03  0.10886765283E+03  0.00000000000E+00 0.  1.
         12    1    3    3    0    0  0.93621018912E+02 -0.97881272118E+01 -0.81265125111E+03  0.81808481134E+03  0.00000000000E+00 0. -1.
        -13    1    4    4    0    0  0.16196845131E+02  0.47637043125E+02 -0.36885948310E+02  0.62387489552E+02  0.00000000000E+00 0.  1.
         13    1    4    4    0    0 -0.33451600805E+02  0.24321527487E+01 -0.15944025029E+03  0.16292979585E+03  0.00000000000E+00 0. -1.
         -2    1    1    2    0  502 -0.67032478793E+02 -0.58994758824E+02 -0.31848639690E+03  0.33076777320E+03  0.00000000000E+00 0.  1.
<scales pt_clust_5="13000.00000" pt_clust_6="13000.00000" pt_clust_7="13000.00000" pt_clust_8="13000.00000" pt_clust_9="13000.00000"></scales>
<clustering>
<clus scale="   81.192">  5  6 -1 -1</clus>
<clus scale="   97.053">  7  8 -1 -1</clus>
<clus scale="   89.296">  7  9 -1 -1</clus>
<clus scale="  117.372">  1  5  2 -1</clus>
<clus scale="  210.235">  2  5  1 -1</clus>
</clustering>
</event>
<event>
 9    2  0.3707658E-005  0.3307364E+03  0.7546771E-02  0.1087514E+00
         -3   -1    0    0    0  501 -0.00000000000E+00  0.00000000000E+00  0.19391997550E+03  0.19391997550E+03  0.00000000000E+00 0.  1.
         21   -1    0    0  501  502  0.00000000000E+00 -0.00000000000E+00 -0.97904515326E+03  0.97904515326E+03  0.00000000000E+00 0.  1.
         24    2    1    2    0    0  0.72075843966E+02 -0.18048200168E+03  0.96170582165E+02  0.23165286299E+03  0.81520474980E+02 0.  0.
         23    2    1    2    0    0 -0.69009843499E+02  0.42032802440E+02 -0.13066046869E+03  0.17800962489E+03  0.89923042069E+02 0.  0.
        -13    1    3    3    0    0  0.63357100256E+02 -0.15471879428E+03  0.11099311667E+03  0.20067760065E+03  0.00000000000E+00 0.  1.
         14    1    3    3    0    0  0.87187437105E+01 -0.25763207401E+02 -0.14822534502E+02  0.30975262332E+02  0.00000000000E+00 0. -1.
        -11    1    4    4    0    0  0.20955528216E+02 -0.37768554356E+00 -0.17086277686E+02  0.27041037228E+02  0.00000000000E+00 0.  1.
         11    1    4    4    0    0 -0.89965371716E+02  0.42410487984E+02 -0.11357419100E+03  0.15096858766E+03  0.00000000000E+00 0. -1.
         -4    1    1    2    0  502 -0.30660004670E+01  0.13844919924E+03 -0.75063529124E+03  0.76330264089E+03  0.00000000000E+00 0.  1.
<scales pt_clust_5="13000.00000" pt_clust_6="13000.00000" pt_clust_7="13000.00000" pt_clust_8="13000.00000" pt_clust_9="13000.00000"></scales>
<clustering>
<clus scale="   81.520">  5  6 -1 -1</clus>
<clus scale="   89.923">  7  8 -1 -1</clus>
<clus scale="  138.483">  7  9 -1 -1</clus>
<clus scale="  210.747">  1  5  2 -1</clus>
<clus scale="  330.736">  2  5  1 -1</clus>
</clustering>
</event>
<event>
 9    2  0.3707658E-005  0.2977128E+03  0.7546771E-02  0.1132557E+00
          2   -1    0    0  502    0 -0.00000000000E+00  0.00000000000E+00  0.80038081719E+03  0.80038081719E+03  0.00000000000E+00 0. -1.
         21   -1    0    0  501  502  0.00000000000E+00 -0.00000000000E+00 -0.74484512561E+02  0.74484512561E+02  0.00000000000E+00 0. -1.
         24    2    1    2    0    0  0.28449097302E+02 -0.33930757569E+02  0.15345979406E+01  0.91709650475E+02  0.80297307258E+02 0.  0.
         23    2    1    2    0    0  0.10181565995E+03  0.52710217677E+02  0.23484670484E+03  0.27625676219E+03  0.89554610302E+02 0.  0.
        -13    1    3    3    0    0 -0.26825931389E+02 -0.71562743788E+01  0.10413922108E+02  0.29652868858E+02  0.00000000000E+00 0.  1.
         14    1    3    3    0    0  0.55275028691E+02 -0.26774483190E+02 -0.88793241669E+01  0.62056781616E+02  0.00000000000E+00 0. -1.
        -13    1    4    4    0    0  0.71009379730E+01 -0.22862318822E+02  0.46489226586E+02  0.52291080794E+02  0.00000000000E+00 0. -1.
         13    1    4    4    0    0  0.94714721972E+02  0.75572536499E+02  0.18835747825E+03  0.22396568140E+03  0.00000000000E+00 0.  1.
          1    1    1    2  501    0 -0.13026475725E+03 -0.18779460108E+02  0.48951500185E+03  0.50689891709E+03  0.00000000000E+00 0. -1.
<scales pt_clust_5="13000.00000" pt_clust_6="13000.00000" pt_clust_7="13000.00000" pt_clust_8="13000.00000" pt_clust_9="13000.00000"></scales>
<clustering>
<clus scale="   80.297">  5  6 -1 -1</clus>
<clus scale="   89.555">  7  8 -1 -1</clus>
<clus scale="   91.697">  1  5  2 -1</clus>
<clus scale="  118.834">  7  9 -1 -1</clus>
<clus scale="  297.713">  2  5  1 -1</clus>
</clustering>
</event>
<event>
 9    2  0.3707658E-005  0.3067736E+03  0.7546771E-02  0.1126191E+00
         -1   -1    0    0    0  501 -0.00000000000E+00  0.00000000000E+00  0.18213441650E+03  0.18213441650E+03  0.00000000000E+00 0.  1.
         21   -1    0    0  501  502  0.00000000000E+00 -0.00000000000E+00 -0.24418585647E+03  0.24418585647E+03  0.00000000000E+00 0.  1.
         24    2    1    2    0    0  0.39042577267E+02  0.38921232524E+02 -0.68336700109E+02  0.11948232770E+03  0.81036639051E+02 0.  0.
         23    2    1    2    0    0 -0.83766095919E+02  0.95707952719E+02 -0.30760752969E+02  0.16021728600E+03  0.92447735340E+02 0.  0.
        -11    1    3    3    0    0  0.64016001270E+02  0.24440493775E+02 -0.41770436632E+02  0.80250579630E+02  0.00000000000E+00 0.  1.
         12    1    3    3    0    0 -0.24973424002E+02  0.14480738749E+02 -0.26566263477E+02  0.39231748065E+02  0.00000000000E+00 0. -1.
        -13    1    4    4    0    0 -0.84924614825E+02  0.45807689164E+02  0.82844626139E+01  0.96846099098E+02  0.00000000000E+00 0.  1.
         13    1    4    4    0    0  0.11585189063E+01  0.49900263554E+02 -0.39045215583E+02  0.63371186897E+02  0.00000000000E+00 0. -1.
         -2    1    1    2    0  502  0.44723518651E+02 -0.13462918524E+03  0.37046013115E+02  0.14662065928E+03  0.00000000000E+00 0.  1.
<scales pt_clust_5="13000.00000" pt_clust_6="13000.00000" pt_clust_7="13000.00000" pt_clust_8="13000.00000" pt_clust_9="13000.00000"></scales>
<clustering>
<clus scale="   81.037">  5  6 -1 -1</clus>
<clus scale="   92.448">  7  8 -1 -1</clus>
<clus scale="   98.011">  1  5  2 -1</clus>
<clus scale="  130.661">  7  9 -1 -1</clus>
<clus scale="  306.774">  2  5  1 -1</clus>
</clustering>
</event>
<event>
 9    2  0.3707658E-005  0.1932625E+03  0.7546771E-02  0.1188352E+00
         21   -1    0    0  501  502  0.00000000000E+00  0.00000000000E+00  0.38376396204E+02  0.38376396204E+02  0.00000000000E+00 0. -1.
          2   -1    0    0  502    0 -0.00000000000E+00 -0.00000000000E+00 -0.53361802749E+03  0.53361802749E+03  0.00000000000E+00 0. -1.
         24    2    1    2    0    0 -0.23049572888E+02 -0.36379010186E+02 -0.18695579100E+03  0.20813928053E+03  0.80714169268E+02 0.  0.
         23    2    1    2    0    0 -0.35149480385E+02  0.44860647292E+02 -0.96802577447E+02  0.14434605808E+03  0.90648120979E+02 0.  0.
        -13    1    3    3    0    0 -0.23271588342E+01  0.23827434646E+02 -0.81579256618E+02  0.85019629618E+02  0.00000000000E+00 0.  1.
         14    1    3    3    0    0 -0.20722414054E+02 -0.60206444832E+02 -0.10537653438E+03  0.12311965092E+03  0.00000000000E+00 0. -1.
        -11    1    4    4    0    0 -0.49068846533E+02  0.63748101604E+02 -0.88147949549E+02  0.11933831391E+03  0.00000000000E+00 0. -1.
         11    1    4    4    0    0  0.13919366148E+02 -0.18887454312E+02 -0.86546278979E+01  0.25007744169E+02  0.00000000000E+00 0.  1.
          1    1    1    2  501    0  0.58199053272E+02 -0.84816371054E+01 -0.21148326284E+03  0.21950908507E+03  0.00000000000E+00 0. -1.
<scales pt_clust_5="13000.00000" pt_clust_6="13000.00000" pt_clust_7="13000.00000" pt_clust_8="13000.00000" pt_clust_9="13000.00000"></scales>
<clustering>
<clus scale="   80.714">  5  6 -1 -1</clus>
<clus scale="   90.648">  7  8 -1 -1</clus>
<clus scale="   58.814">  7  9 -1 -1</clus>
<clus scale="   91.485">  2  5  1 -1</clus>
<clus scale="  193.263">  1  5  2 -1</clus>
</clustering>
</event>
<event>
 9    2  0.3707658E-005  0.1316105E+03  0.7546771E-02  0.1236518E+00
          2   -1    0    0  502    0 -0.00000000000E+00  0.00000000000E+00  0.67476863172E+03  0.67476863172E+03  0.00000000000E+00 0. -1.
         21   -1    0    0  501  502  0.00000000000E+00 -0.00000000000E+00 -0.21395703335E+02  0.21395703335E+02  0.00000000000E+00 0. -1.
         24    2    1    2    0    0 -0.62340297567E+02  0.28747411039E+02  0.22158424719E+03  0.24476341642E+03  0.78082168733E+02 0.  0.
         23    2    1    2    0    0  0.30252951474E+02 -0.29162750985E+02  0.29710169268E+03  0.31294386694E+03  0.88874861169E+02 0.  0.
        -13    1    3    3    0    0 -0.41083577897E+02  0.40207284487E+01  0.20315848096E+03  0.20730990091E+03  0.00000000000E+00 0.  1.
         14    1    3    3    0    0 -0.21256719671E+02  0.24726682590E+02  0.18425766232E+02  0.37453515513E+02  0.00000000000E+00 0. -1.
        -13    1    4    4    0    0 -0.27817064599E+02  0.62411115000E+01  0.62742632693E+02  0.68915734872E+02  0.00000000000E+00 0.  1.
         13    1    4    4    0    0  0.58070016074E+02 -0.35403862485E+02  0.23435905998E+03  0.24402813207E+03  0.00000000000E+00 0. -1.
          1    1    1    2  501    0  0.32087346093E+02  0.41533994583E+00  0.13468698852E+03  0.13845705169E+03  0.00000000000E+00 0. -1.
<scales pt_clust_5="13000.00000" pt_clust_6="13000.00000" pt_clust_7="13000.00000" pt_clust_8="13000.00000" pt_clust_9="13000.00000"></scales>
<clustering>
<clus scale="   78.082">  5  6 -1 -1</clus>
<clus scale="   88.875">  7  8 -1 -1</clus>
<clus scale="   32.090">  7  9 -1 -1</clus>
<clus scale="  103.969">  1  5  2 -1</clus>
<clus scale="  131.611">  2  5  1 -1</clus>
</clustering>
</event>
<event>
 9    2  0.3707658E-005  0.8502862E+03  0.7546771E-02  0.1017549E+00
         -1   -1    0    0    0  501 -0.00000000000E+00  0.00000000000E+00  0.55356281111E+03  0.55356281111E+03  0.00000000000E+00 0.  1.
         21   -1    0    0  501  502  0.00000000000E+00 -0.00000000000E+00 -0.46047106919E+03  0.46047106919E+03  0.00000000000E+00 0.  1.
         24    2    1    2    0    0  0.36914291368E+02 -0.16454442268E+02  0.13514125599E+03  0.16270856933E+03  0.81101824188E+02 0.  0.
         23    2    1    2    0    0  0.89995468782E+02 -0.37648539891E+03 -0.14949711071E+03  0.42464886209E+03  0.90204378914E+02 0.  0.
        -11    1    3    3    0    0  0.41735551264E+02 -0.20545628503E+02  0.14428095946E+03  0.15159477020E+03  0.00000000000E+00 0.  1.
         12    1    3    3    0    0 -0.48212598963E+01  0.40911862347E+01 -0.91397034660E+01  0.11113799136E+02  0.00000000000E+00 0. -1.
        -11    1    4    4    0    0  0.32626508617E+02 -0.43139619465E+02 -0.45771155351E+02  0.70855589013E+02  0.00000000000E+00 0. -1.
         11    1    4    4    0    0  0.57368960165E+02 -0.33334577944E+03 -0.10372595536E+03  0.35379327308E+03  0.00000000000E+00 0.  1.
         -2    1    1    2    0  502 -0.12690976015E+03  0.39293984118E+03  0.10744759664E+03  0.42667644888E+03  0.00000000000E+00 0.  1.
<scales pt_clust_5="13000.00000" pt_clust_6="13000.00000" pt_clust_7="13000.00000" pt_clust_8="13000.00000" pt_clust_9="13000.00000"></scales>
<clustering>
<clus scale="   81.102">  5  6 -1 -1</clus>
<clus scale="   90.204">  7  8 -1 -1</clus>
<clus scale="   90.614">  1  5  2 -1</clus>
<clus scale="  395.602">  7  9 -1 -1</clus>
<clus scale="  850.286">  2  5  1 -1</clus>
</clustering>
</event>
<event>
 9    2  0.3707658E-005  0.1609322E+03  0.7546771E-02  0.1217140E+00
          2   -1    0    0  502    0 -0.00000000000E+00  0.00000000000E+00  0.18310798198E+03  0.18310798198E+03  0.00000000000E+00 0. -1.
         21   -1    0    0  501  502  0.00000000000E+00 -0.00000000000E+00 -0.26972310482E+03  0.26972310482E+03  0.00000000000E+00 0.  1.
         24    2    1    2    0    0  0.63386737235E+01  0.25951841280E+02  0.14660378868E+03  0.16947576500E+03  0.80719806828E+02 0.  0.
         23    2    1    2    0    0  0.12486038604E+02 -0.44217706304E+02 -0.91559248041E+02  0.13928772698E+03  0.94376206076E+02 0.  0.
        -13    1    3    3    0    0 -0.19310675545E+02 -0.15605543238E+02  0.14774016619E+02  0.28891291713E+02  0.00000000000E+00 0.  1.
         14    1    3    3    0    0  0.25649349269E+02  0.41557384518E+02  0.13182977207E+03  0.14058447328E+03  0.00000000000E+00 0. -1.
        -13    1    4    4    0    0 -0.15872677245E+02  0.24641679724E+02 -0.16886903750E+02  0.33827825540E+02  0.00000000000E+00 0. -1.
         13    1    4    4    0    0  0.28358715849E+02 -0.68859386028E+02 -0.74672344291E+02  0.10545990144E+03  0.00000000000E+00 0.  1.
          1    1    1    2  501    0 -0.18824712328E+02  0.18265865024E+02 -0.14165966349E+03  0.14406759483E+03  0.00000000000E+00 0. -1.
<scales pt_clust_5="13000.00000" pt_clust_6="13000.00000" pt_clust_7="13000.00000" pt_clust_8="13000.00000" pt_clust_9="13000.00000"></scales>
<clustering>
<clus scale="   80.720">  5  6 -1 -1</clus>
<clus scale="   85.026">  1  5  2 -1</clus>
<clus scale="   94.376">  7  8 -1 -1</clus>
<clus scale="   26.902">  7  9 -1 -1</clus>
<clus scale="  160.932">  2  5  1 -1</clus>
</clustering>
</event>
<event>
 9    2  0.4196129E-005  0.6551567E+03  0.7546771E-02  0.1026064E+00
         21   -1    0    0  501  502  0.00000000000E+00  0.00000000000E+00  0.49806002178E+03  0.49806002178E+03  0.00000000000E+00 0. -1.
          4   -1    0    0  502    0 -0.00000000000E+00 -0.00000000000E+00 -0.34470324277E+03  0.34470324277E+03  0.00000000000E+00 0. -1.
         24    2    1    2    0    0 -0.12763696513E+03  0.32129942093E+02 -0.42418184709E+02  0.15898102598E+03  0.78435554328E+02 0.  0.
         23    2    1    2    0    0 -0.20302030901E+03 -0.66440130496E+02 -0.86140298222E+02  0.24790652591E+03  0.91684010609E+02 0.  0.
        -11    1    3    3    0    0 -0.47246967344E+02  0.55558115139E+01  0.22174933355E+02  0.52486861537E+02  0.00000000000E+00 0.  1.
         12    1    3    3    0    0 -0.80389997784E+02  0.26574130579E+02 -0.64593118064E+02  0.10649416445E+03  0.00000000000E+00 0. -1.
        -11    1    4    4    0    0 -0.51195376082E+02 -0.37293291032E+01 -0.64174306730E+02  0.82177953686E+02  0.00000000000E+00 0.  1.
         11    1    4    4    0    0 -0.15182493293E+03 -0.62710801393E+02 -0.21965991492E+02  0.16572857222E+03  0.00000000000E+00 0. -1.
          3    1    1    2  501    0  0.33065727414E+03  0.34310188403E+02  0.28191526195E+03  0.43587571266E+03  0.00000000000E+00 0. -1.
<scales pt_clust_5="13000.00000" pt_clust_6="13000.00000" pt_clust_7="13000.00000" pt_clust_8="13000.00000" pt_clust_9="13000.00000"></scales>
<clustering>
<clus scale="   78.436">  5  6 -1 -1</clus>
<clus scale="   91.684">  7  8 -1 -1</clus>
<clus scale="  153.218">  2  5  1 -1</clus>
<clus scale="  293.771">  7  9 -1 -1</clus>
<clus scale="  655.157">  1  5  2 -1</clus>
</clustering>
</event>
<event>
 9    2  0.3707658E-005  0.5696567E+03  0.7546771E-02  0.1033787E+00
         21   -1    0    0  501  502  0.00000000000E+00  0.00000000000E+00  0.58747277384E+02  0.58747277384E+02  0.00000000000E+00 0. -1.
          2   -1    0    0  502    0 -0.00000000000E+00 -0.00000000000E+00 -0.24262374121E+04  0.24262374121E+04  0.00000000000E+00 0. -1.
         24    2    1    2    0    0  0.94163833087E+02  0.13772704689E+03 -0.59709154088E+03  0.62519440408E+03  0.80710394549E+02 0.  0.
         23    2    1    2    0    0  0.38471737862E+01  0.19290037776E+03 -0.50421450453E+03  0.54748590021E+03  0.91012020434E+02 0.  0.
        -11    1    3    3    0    0  0.24878790147E+02  0.38497437885E+02 -0.65148101677E+02  0.79657278858E+02  0.00000000000E+00 0.  1.
         12    1    3    3    0    0  0.69285042940E+02  0.99229609007E+02 -0.53194343921E+03  0.54553712522E+03  0.00000000000E+00 0. -1.
        -13    1    4    4    0    0 -0.20129019218E+02  0.16034566718E+03 -0.31539977659E+03  0.35439092747E+03  0.00000000000E+00 0. -1.
         13    1    4    4    0    0  0.23976193004E+02  0.32554710587E+02 -0.18881472794E+03  0.19309497274E+03  0.00000000000E+00 0.  1.
          1    1    1    2  501    0 -0.98011006873E+02 -0.33062742465E+03 -0.12661840893E+04  0.13123043852E+04  0.00000000000E+00 0. -1.
<scales pt_clust_5="13000.00000" pt_clust_6="13000.00000" pt_clust_7="13000.00000" pt_clust_8="13000.00000" pt_clust_9="13000.00000"></scales>
<clustering>
<clus scale="   80.710">  5  6 -1 -1</clus>
<clus scale="   91.012">  7  8 -1 -1</clus>
<clus scale="  185.337">  2  5  1 -1</clus>
<clus scale="  234.873">  7  9 -1 -1</clus>
<clus scale="  569.657">  1  5  2 -1</clus>
</clustering>
</event>
<event>
 9    2  0.3707658E-005  0.2070464E+03  0.7546771E-02  0.1169180E+00
         21   -1    0    0  501  502  0.00000000000E+00  0.00000000000E+00  0.88959549168E+02  0.88959549168E+02  0.00000000000E+00 0.  1.
         -1   -1    0    0    0  501 -0.00000000000E+00 -0.00000000000E+00 -0.29963126543E+03  0.29963126543E+03  0.00000000000E+00 0.  1.
         24    2    1    2    0    0 -0.51014977769E+01 -0.40683215506E+02 -0.10806558868E+03  0.15751457878E+03  0.10701178331E+03 0.  0.
         23    2    1    2    0    0 -0.62451718958E+02  0.19042916370E+02 -0.67589023896E+01  0.11183517656E+03  0.90545977767E+02 0.  0.
        -13    1    3    3    0    0  0.78846078405E+01 -0.58779407493E+02 -0.14118552046E+02  0.60963261870E+02  0.00000000000E+00 0.  1.
         14    1    3    3    0    0 -0.12986105617E+02  0.18096191987E+02 -0.93947036636E+02  0.96551316906E+02  0.00000000000E+00 0. -1.
        -11    1    4    4    0    0 -0.82415491598E+02  0.23034833039E+02  0.90608314177E+01  0.86052399469E+02  0.00000000000E+00 0.  1.
         11    1    4    4    0    0  0.19963772640E+02 -0.39919166683E+01 -0.15819733807E+02  0.25782777090E+02  0.00000000000E+00 0. -1.
         -2    1    1    2    0  502  0.67553216735E+02  0.21640299136E+02 -0.95847225195E+02  0.11924105927E+03  0.00000000000E+00 0.  1.
<scales pt_clust_5="13000.00000" pt_clust_6="13000.00000" pt_clust_7="13000.00000" pt_clust_8="13000.00000" pt_clust_9="13000.00000"></scales>
<clustering>
<clus scale="   90.546">  7  8 -1 -1</clus>
<clus scale="   70.935">  7  9 -1 -1</clus>
<clus scale="  107.012">  5  6 -1 -1</clus>
<clus scale="  114.598">  2  5  1 -1</clus>
<clus scale="  207.046">  1  5  2 -1</clus>
</clustering>
</event>
<event>
 9    2  0.3707658E-005  0.1853987E+03  0.7546771E-02  0.1195782E+00
          2   -1    0    0  502    0 -0.00000000000E+00  0.00000000000E+00  0.48613524737E+03  0.48613524737E+03  0.00000000000E+00 0. -1.
         21   -1    0    0  501  502  0.00000000000E+00 -0.00000000000E+00 -0.50980689033E+02  0.50980689033E+02  0.00000000000E+00 0. -1.
         24    2    1    2    0    0 -0.22627252513E+02  0.28255914454E+02  0.28580897067E+03  0.29904708584E+03  0.80199766677E+02 0.  0.
         23    2    1    2    0    0  0.75642159775E+02 -0.44601855945E+02  0.91584562353E+02  0.15798073509E+03  0.94122891519E+02 0.  0.
        -11    1    3    3    0    0 -0.25606699302E+02 -0.23052365042E+02  0.83886982060E+02  0.90687046166E+02  0.00000000000E+00 0.  1.
         12    1    3    3    0    0  0.29794467894E+01  0.51308279496E+02  0.20192198861E+03  0.20836003967E+03  0.00000000000E+00 0. -1.
        -13    1    4    4    0    0  0.22357784100E+02 -0.66670422120E+02  0.58637679369E+02  0.91559779037E+02  0.00000000000E+00 0.  1.
         13    1    4    4    0    0  0.53284375675E+02  0.22068566176E+02  0.32946882984E+02  0.66420956049E+02  0.00000000000E+00 0. -1.
          1    1    1    2  501    0 -0.53014907262E+02  0.16345941491E+02  0.57761025308E+02  0.80088115472E+02  0.00000000000E+00 0. -1.
<scales pt_clust_5="13000.00000" pt_clust_6="13000.00000" pt_clust_7="13000.00000" pt_clust_8="13000.00000" pt_clust_9="13000.00000"></scales>
<clustering>
<clus scale="   80.200">  5  6 -1 -1</clus>
<clus scale="   87.991">  1  5  2 -1</clus>
<clus scale="   94.123">  7  8 -1 -1</clus>
<clus scale="   66.528">  7  9 -1 -1</clus>
<clus scale="  185.399">  2  5  1 -1</clus>
</clustering>
</event>
<event>
 9    2  0.3707658E-005  0.2932308E+03  0.7546771E-02  0.1121397E+00
         21   -1    0    0  501  502  0.00000000000E+00  0.00000000000E+00  0.10428499338E+03  0.10428499338E+03  0.00000000000E+00 0. -1.
          2   -1    0    0  502    0 -0.00000000000E+00 -0.00000000000E+00 -0.43063427391E+03  0.43063427391E+03  0.00000000000E+00 0. -1.
         24    2    1    2    0    0  0.80744374124E+02 -0.55120980460E+02 -0.13404781763E+03  0.18425682363E+03  0.80148507192E+02 0.  0.
         23    2    1    2    0    0 -0.58194245289E+02 -0.92343894010E+02 -0.76806252481E+02  0.16199993772E+03  0.91819466651E+02 0.  0.
        -13    1    3    3    0    0  0.16089932321E+02 -0.54969764359E+02 -0.87539827014E+02  0.10461253381E+03  0.00000000000E+00 0.  1.
         14    1    3    3    0    0  0.64654441802E+02 -0.15121610109E+00 -0.46507990614E+02  0.79644289827E+02  0.00000000000E+00 0. -1.
        -11    1    4    4    0    0 -0.38276809931E+02 -0.80074607449E+02 -0.96726244954E+02  0.13127461064E+03  0.00000000000E+00 0. -1.
         11    1    4    4    0    0 -0.19917435359E+02 -0.12269286561E+02  0.19919992473E+02  0.30725327079E+02  0.00000000000E+00 0.  1.
          1    1    1    2  501    0 -0.22550128835E+02  0.14746487447E+03 -0.11549521042E+03  0.18866250593E+03  0.00000000000E+00 0. -1.
<scales pt_clust_5="13000.00000" pt_clust_6="13000.00000" pt_clust_7="13000.00000" pt_clust_8="13000.00000" pt_clust_9="13000.00000"></scales>
<clustering>
<clus scale="   80.149">  5  6 -1 -1</clus>
<clus scale="   91.819">  7  8 -1 -1</clus>
<clus scale="  126.419">  2  5  1 -1</clus>
<clus scale="  118.773">  7  9 -1 -1</clus>
<clus scale="  293.231">  1  5  2 -1</clus>
</clustering>
</event>
<event>
 9    2  0.3707658E-005  0.4032015E+03  0.7546771E-02  0.1056800E+00
          2   -1    0    0  502    0 -0.00000000000E+00  0.00000000000E+00  0.11950132460E+04  0.11950132460E+04  0.00000000000E+00 0. -1.
         21   -1    0    0  501  502  0.00000000000E+00 -0.00000000000E+00 -0.10194918640E+03  0.10194918640E+03  0.00000000000E+00 0.  1.
         24    2    1    2    0    0 -0.25490930483E+03  0.29714313991E+02  0.61595609295E+03  0.67229974577E+03  0.81996009517E+02 0.  0.
         23    2    1    2    0    0  0.36141041858E+02  0.92946922211E+02  0.25966301349E+03  0.29271745108E+03  0.91177411340E+02 0.  0.
        -13    1    3    3    0    0 -0.14973015256E+03  0.22946501330E+02  0.25833114185E+03  0.29946725925E+03  0.00000000000E+00 0.  1.
         14    1    3    3    0    0 -0.10517915226E+03  0.67678126607E+01  0.35762495110E+03  0.37283248653E+03  0.00000000000E+00 0. -1.
        -11    1    4    4    0    0  0.45945794642E+02  0.50834261967E+02  0.69111867057E+02  0.97322085896E+02  0.00000000000E+00 0.  1.
         11    1    4    4    0    0 -0.98047527837E+01  0.42112660245E+02  0.19055114643E+03  0.19539536518E+03  0.00000000000E+00 0. -1.
          1    1    1    2  501    0  0.21876826297E+03 -0.12266123620E+03  0.21744495316E+03  0.33194523555E+03  0.00000000000E+00 0. -1.
<scales pt_clust_5="13000.00000" pt_clust_6="13000.00000" pt_clust_7="13000.00000" pt_clust_8="13000.00000" pt_clust_9="13000.00000"></scales>
<clustering>
<clus scale="   81.996">  5  6 -1 -1</clus>
<clus scale="   91.177">  7  8 -1 -1</clus>
<clus scale="  250.809">  7  9 -1 -1</clus>
<clus scale="  269.416">  1  5  2 -1</clus>
<clus scale="  403.202">  2  5  1 -1</clus>
</clustering>
</event>
<event>
 9    2  0.3707658E-005  0.2274653E+03  0.7546771E-02  0.1169458E+00
         -1   -1    0    0    0  501 -0.00000000000E+00  0.00000000000E+00  0.11894067767E+03  0.11894067767E+03  0.00000000000E+00 0.  1.
         21   -1    0    0  501  502  0.00000000000E+00 -0.00000000000E+00 -0.21589798572E+03  0.21589798572E+03  0.00000000000E+00 0.  1.
         24    2    1    2    0    0  0.17519766977E+02 -0.28159897636E+02 -0.59097744563E+02  0.10424418267E+03  0.79211010206E+02 0.  0.
         23    2    1    2    0    0 -0.45864411293E+01 -0.66836690025E+02  0.26864940595E+02  0.11491870966E+03  0.89422627003E+02 0.  0.
        -13    1    3    3    0    0 -0.21984979331E+02  0.45111696220E+01 -0.46229887892E+02  0.51389614730E+02  0.00000000000E+00 0.  1.
         14    1    3    3    0    0  0.39504746308E+02 -0.32671067258E+02 -0.12867856671E+02  0.52854567938E+02  0.00000000000E+00 0. -1.
        -13    1    4    4    0    0 -0.37843742871E+02 -0.23293797615E+02  0.38627163457E+02  0.58879602907E+02  0.00000000000E+00 0. -1.
         13    1    4    4    0    0  0.33257301742E+02 -0.43542892410E+02 -0.11762222861E+02  0.56039106749E+02  0.00000000000E+00 0.  1.
         -2    1    1    2    0  502 -0.12933325848E+02  0.94996587660E+02 -0.64724504079E+02  0.11567577107E+03  0.00000000000E+00 0.  1.
<scales pt_clust_5="13000.00000" pt_clust_6="13000.00000" pt_clust_7="13000.00000" pt_clust_8="13000.00000" pt_clust_9="13000.00000"></scales>
<clustering>
<clus scale="   79.211">  5  6 -1 -1</clus>
<clus scale="   85.874">  1  5  2 -1</clus>
<clus scale="   89.423">  7  8 -1 -1</clus>
<clus scale="   87.945">  7  9 -1 -1</clus>
<clus scale="  227.465">  2  5  1 -1</clus>
</clustering>
</event>
<event>
 9    2  0.3707658E-005  0.1871204E+03  0.7546771E-02  0.1195795E+00
          2   -1    0    0  502    0 -0.00000000000E+00  0.00000000000E+00  0.20671118313E+03  0.20671118313E+03  0.00000000000E+00 0. -1.
         21   -1    0    0  501  502  0.00000000000E+00 -0.00000000000E+00 -0.10140146050E+03  0.10140146050E+03  0.00000000000E+00 0. -1.
         24    2    1    2    0    0 -0.34880950651E+02  0.39003249029E+01  0.83797547015E+02  0.11975977227E+03  0.78028718540E+02 0.  0.
         23    2    1    2    0    0 -0.24501931119E+02 -0.36289967611E+02 -0.28305563723E+02  0.10434559336E+03  0.90385239607E+02 0.  0.
        -11    1    3    3    0    0  0.55130675463E+01  0.26503053750E+02  0.63860030532E+02  0.69360718504E+02  0.00000000000E+00 0.  1.
         12    1    3    3    0    0 -0.40394018198E+02 -0.22602728847E+02  0.19937516482E+02  0.50399053771E+02  0.00000000000E+00 0. -1.
        -11    1    4    4    0    0 -0.12666416484E+02 -0.59203273145E+02  0.66487755875E+01  0.60907075734E+02  0.00000000000E+00 0.  1.
         11    1    4    4    0    0 -0.11835514635E+02  0.22913305535E+02 -0.34954339310E+02  0.43438517629E+02  0.00000000000E+00 0. -1.
          1    1    1    2  501    0  0.59382881770E+02  0.32389642708E+02  0.49817739337E+02  0.84007277987E+02  0.00000000000E+00 0. -1.
<scales pt_clust_5="13000.00000" pt_clust_6="13000.00000" pt_clust_7="13000.00000" pt_clust_8="13000.00000" pt_clust_9="13000.00000"></scales>
<clustering>
<clus scale="   78.029">  5  6 -1 -1</clus>
<clus scale="   85.559">  1  5  2 -1</clus>
<clus scale="   90.385">  7  8 -1 -1</clus>
<clus scale="   50.949">  7  9 -1 -1</clus>
<clus scale="  187.120">  2  5  1 -1</clus>
</clustering>
</event>
<event>
 9    2  0.3707658E-005  0.2529368E+03  0.7546771E-02  0.1151482E+00
          2   -1    0    0  502    0 -0.00000000000E+00  0.00000000000E+00  0.31155188314E+03  0.31155188314E+03  0.00000000000E+00 0. -1.
         21   -1    0    0  501  502  0.00000000000E+00 -0.00000000000E+00 -0.98108436976E+02  0.98108436976E+02  0.00000000000E+00 0. -1.
         24    2    1    2    0    0 -0.28656604184E+02 -0.42278756961E+02  0.77493153585E+02  0.12250272174E+03  0.79956448938E+02 0.  0.
         23    2    1    2    0    0  0.75366972716E+02 -0.43813657697E+02  0.97453858871E+01  0.12740328431E+03  0.92394843635E+02 0.  0.
        -11    1    3    3    0    0 -0.12577437989E+02 -0.21451599223E+02 -0.13141678014E+02  0.28125908992E+02  0.00000000000E+00 0.  1.
         12    1    3    3    0    0 -0.16079166195E+02 -0.20827157737E+02  0.90634831599E+02  0.94376812745E+02  0.00000000000E+00 0. -1.
        -11    1    4    4    0    0  0.92154735032E+02 -0.23903250633E+02 -0.85327747990E+01  0.95585923782E+02  0.00000000000E+00 0. -1.
         11    1    4    4    0    0 -0.16787762316E+02 -0.19910407064E+02  0.18278160686E+02  0.31817360530E+02  0.00000000000E+00 0.  1.
          1    1    1    2  501    0 -0.46710368532E+02  0.86092414658E+02  0.12620490669E+03  0.15975431407E+03  0.00000000000E+00 0. -1.
<scales pt_clust_5="13000.00000" pt_clust_6="13000.00000" pt_clust_7="13000.00000" pt_clust_8="13000.00000" pt_clust_9="13000.00000"></scales>
<clustering>
<clus scale="   79.956">  5  6 -1 -1</clus>
<clus scale="   92.395">  7  8 -1 -1</clus>
<clus scale="   94.877">  1  5  2 -1</clus>
<clus scale="   87.605">  7  9 -1 -1</clus>
<clus scale="  252.937">  2  5  1 -1</clus>
</clustering>
</event>
<event>
 9    2  0.3707658E-005  0.2870213E+03  0.7546771E-02  0.1141278E+00
          2   -1    0    0  502    0 -0.00000000000E+00  0.00000000000E+00  0.67554921496E+03  0.67554921496E+03  0.00000000000E+00 0. -1.
         21   -1    0    0  501  502  0.00000000000E+00 -0.00000000000E+00 -0.56444754134E+02  0.56444754134E+02  0.00000000000E+00 0.  1.
         24    2    1    2    0    0  0.12826546114E+02  0.11961159434E+02  0.25650546560E+03  0.26954479649E+03  0.80942904642E+02 0.  0.
         23    2    1    2    0    0 -0.87913732005E+02 -0.10311407733E+03  0.17004551128E+03  0.23656472404E+03  0.93199010354E+02 0.  0.
        -11    1    3    3    0    0 -0.64669445656E+01  0.36011891402E+02  0.57422454191E+02  0.68088295174E+02  0.00000000000E+00 0.  1.
         12    1    3    3    0    0  0.19293490680E+02 -0.24050731967E+02  0.19908301141E+03  0.20145650132E+03  0.00000000000E+00 0. -1.
        -11    1    4    4    0    0 -0.78574398836E+02 -0.23094905665E+02  0.67313201243E+02  0.10601121583E+03  0.00000000000E+00 0.  1.
         11    1    4    4    0    0 -0.93393331689E+01 -0.80019171669E+02  0.10273231004E+03  0.13055350821E+03  0.00000000000E+00 0. -1.
          1    1    1    2  501    0  0.75087185891E+02  0.91152917900E+02  0.19255348394E+03  0.22588444857E+03  0.00000000000E+00 0. -1.
<scales pt_clust_5="13000.00000" pt_clust_6="13000.00000" pt_clust_7="13000.00000" pt_clust_8="13000.00000" pt_clust_9="13000.00000"></scales>
<clustering>
<clus scale="   80.943">  5  6 -1 -1</clus>
<clus scale="   82.821">  1  5  2 -1</clus>
<clus scale="   93.199">  7  8 -1 -1</clus>
<clus scale="  126.921">  7  9 -1 -1</clus>
<clus scale="  287.021">  2  5  1 -1</clus>
</clustering>
</event>
<event>
 9    2  0.3707658E-005  0.3965218E+03  0.7546771E-02  0.1059526E+00
          2   -1    0    0  502    0 -0.00000000000E+00  0.00000000000E+00  0.16035418332E+03  0.16035418332E+03  0.00000000000E+00 0. -1.
         21   -1    0    0  501  502  0.00000000000E+00 -0.00000000000E+00 -0.91949408580E+03  0.91949408580E+03  0.00000000000E+00 0. -1.
         24    2    1    2    0    0  0.24954399993E+03  0.19681438528E+02 -0.49606812461E+02  0.26703417646E+03  0.78656523150E+02 0.  0.
         23    2    1    2    0    0 -0.24625240025E+02  0.20348936078E+02 -0.42382804643E+02  0.10763299342E+03  0.93638013099E+02 0.  0.
        -11    1    3    3    0    0  0.51490067440E+02 -0.50741434597E+01 -0.43089687053E+02  0.67332719440E+02  0.00000000000E+00 0.  1.
         12    1    3    3    0    0  0.19805393249E+03  0.24755581988E+02 -0.65171254078E+01  0.19970145702E+03  0.00000000000E+00 0. -1.
        -11    1    4    4    0    0 -0.55591634184E+02 -0.52400181722E+01 -0.11615968679E+02  0.57033484112E+02  0.00000000000E+00 0.  1.
         11    1    4    4    0    0  0.30966394158E+02  0.25588954250E+02 -0.30766835965E+02  0.50599509307E+02  0.00000000000E+00 0. -1.
          1    1    1    2  501    0 -0.22491875990E+03 -0.40030374606E+02 -0.66715028537E+03  0.70518109924E+03  0.00000000000E+00 0. -1.
<scales pt_clust_5="13000.00000" pt_clust_6="13000.00000" pt_clust_7="13000.00000" pt_clust_8="13000.00000" pt_clust_9="13000.00000"></scales>
<clustering>
<clus scale="   78.657">  5  6 -1 -1</clus>
<clus scale="   93.638">  7  8 -1 -1</clus>
<clus scale="  228.453">  7  9 -1 -1</clus>
<clus scale="  262.386">  1  5  2 -1</clus>
<clus scale="  396.522">  2  5  1 -1</clus>
</clustering>
</event>
<event>
 9    2  0.3707658E-005  0.4013179E+03  0.7546771E-02  0.1100560E+00
         21   -1    0    0  501  502  0.00000000000E+00  0.00000000000E+00  0.14084313384E+04  0.14084313384E+04  0.00000000000E+00 0.  1.
         -1   -1    0    0    0  501 -0.00000000000E+00 -0.00000000000E+00 -0.14096336875E+03  0.14096336875E+03  0.00000000000E+00 0.  1.
         24    2    1    2    0    0  0.12122222808E+02  0.16764985203E+02 -0.96397948463E+02  0.12771038647E+03  0.81174905782E+02 0.  0.
         23    2    1    2    0    0  0.10886284708E+03 -0.81367034581E+02  0.24666891417E+03  0.29610004684E+03  0.91421937912E+02 0.  0.
        -13    1    3    3    0    0  0.69876822942E+01  0.48416379159E+02 -0.41574153852E+02  0.64198004199E+02  0.00000000000E+00 0.  1.
         14    1    3    3    0    0  0.51345405136E+01 -0.31651393955E+02 -0.54823794611E+02  0.63512382267E+02  0.00000000000E+00 0. -1.
        -11    1    4    4    0    0  0.11504432596E+03 -0.41734140636E+02  0.20091641356E+03  0.23525377929E+03  0.00000000000E+00 0.  1.
         11    1    4    4    0    0 -0.61814788798E+01 -0.39632893944E+02  0.45752500606E+02  0.60846267554E+02  0.00000000000E+00 0. -1.
         -2    1    1    2    0  502 -0.12098506989E+03  0.64602049377E+02  0.11171970040E+04  0.11255842739E+04  0.00000000000E+00 0.  1.
<scales pt_clust_5="13000.00000" pt_clust_6="13000.00000" pt_clust_7="13000.00000" pt_clust_8="13000.00000" pt_clust_9="13000.00000"></scales>
<clustering>
<clus scale="   81.175">  5  6 -1 -1</clus>
<clus scale="   83.770">  2  5  1 -1</clus>
<clus scale="   91.422">  7  8 -1 -1</clus>
<clus scale="  136.779">  7  9 -1 -1</clus>
<clus scale="  401.318">  1  5  2 -1</clus>
</clustering>
</event>
<event>
 9    2  0.3707658E-005  0.3647389E+03  0.7546771E-02  0.1086827E+00
         -3   -1    0    0    0  501 -0.00000000000E+00  0.00000000000E+00  0.36883985873E+03  0.36883985873E+03  0.00000000000E+00 0.  1.
         21   -1    0    0  501  502  0.00000000000E+00 -0.00000000000E+00 -0.24185869933E+03  0.24185869933E+03  0.00000000000E+00 0. -1.
         24    2    1    2    0    0  0.10887915720E+03 -0.85343219343E+02 -0.92676637029E+02  0.18492394737E+03  0.80434888575E+02 0.  0.
         23    2    1    2    0    0 -0.10174390571E+03 -0.93013702249E+02  0.18179828257E+03  0.24330421286E+03  0.84515994318E+02 0.  0.
        -13    1    3    3    0    0 -0.53813811776E+01 -0.24720321565E+02  0.83805770917E+00  0.25313156705E+02  0.00000000000E+00 0.  1.
         14    1    3    3    0    0  0.11426053838E+03 -0.60622897778E+02 -0.93514694738E+02  0.15961079067E+03  0.00000000000E+00 0. -1.
        -13    1    4    4    0    0  0.51832408875E+01 -0.38551321412E+02  0.26591297138E+02  0.47118652911E+02  0.00000000000E+00 0. -1.
         13    1    4    4    0    0 -0.10692714660E+03 -0.54462380837E+02  0.15520698543E+03  0.19618555995E+03  0.00000000000E+00 0.  1.
         -4    1    1    2    0  502 -0.71352514893E+01  0.17835692159E+03  0.37859513857E+02  0.18247039783E+03  0.00000000000E+00 0.  1.
<scales pt_clust_5="13000.00000" pt_clust_6="13000.00000" pt_clust_7="13000.00000" pt_clust_8="13000.00000" pt_clust_9="13000.00000"></scales>
<clustering>
<clus scale="   80.435">  5  6 -1 -1</clus>
<clus scale="   84.516">  7  8 -1 -1</clus>
<clus scale="  160.025">  1  5  2 -1</clus>
<clus scale="  152.216">  7  9 -1 -1</clus>
<clus scale="  364.739">  2  5  1 -1</clus>
</clustering>
</event>
<event>
 9    2  0.3707658E-005  0.3931362E+03  0.7546771E-02  0.1059738E+00
         21   -1    0    0  501  502  0.00000000000E+00  0.00000000000E+00  0.47659347086E+02  0.47659347086E+02  0.00000000000E+00 0. -1.
          2   -1    0    0  502    0 -0.00000000000E+00 -0.00000000000E+00 -0.30221144936E+04  0.30221144936E+04  0.00000000000E+00 0. -1.
         24    2    1    2    0    0  0.25283592961E+03  0.37250014053E+02 -0.20180772075E+04  0.20357453851E+04  0.79436053743E+02 0.  0.
         23    2    1    2    0    0  0.10989366447E+02 -0.76141730011E+02 -0.38967732615E+03  0.40771708173E+03  0.92013428346E+02 0.  0.
        -11    1    3    3    0    0  0.79059878747E+02  0.42401425219E+02 -0.52892721576E+03  0.53648144876E+03  0.00000000000E+00 0.  1.
         12    1    3    3    0    0  0.17377605087E+03 -0.51514111664E+01 -0.14891499917E+04  0.14992639363E+04  0.00000000000E+00 0. -1.
        -13    1    4    4    0    0  0.46104968514E+02 -0.34300789088E+02 -0.12664170147E+03  0.13906952508E+03  0.00000000000E+00 0.  1.
         13    1    4    4    0    0 -0.35115602067E+02 -0.41840940923E+02 -0.26303562468E+03  0.26864755665E+03  0.00000000000E+00 0. -1.
          1    1    1    2  501    0 -0.26382529606E+03  0.38891715958E+02 -0.56670061286E+03  0.62631137386E+03  0.00000000000E+00 0. -1.
<scales pt_clust_5="13000.00000" pt_clust_6="13000.00000" pt_clust_7="13000.00000" pt_clust_8="13000.00000" pt_clust_9="13000.00000"></scales>
<clustering>
<clus scale="   79.436">  5  6 -1 -1</clus>
<clus scale="   92.013">  7  8 -1 -1</clus>
<clus scale="  266.677">  7  9 -1 -1</clus>
<clus scale="  267.626">  2  5  1 -1</clus>
<clus scale="  393.136">  1  5  2 -1</clus>
</clustering>
</event>
<event>
 9    2  0.3707658E-005  0.2763320E+03  0.7546771E-02  0.1133402E+00
          2   -1    0    0  502    0 -0.00000000000E+00  0.00000000000E+00  0.11151057039E+04  0.11151057039E+04  0.00000000000E+00 0. -1.
         21   -1    0    0  501  502  0.00000000000E+00 -0.00000000000E+00 -0.36612982213E+02  0.36612982213E+02  0.00000000000E+00 0. -1.
         24    2    1    2    0    0 -0.77965670152E+02 -0.77202752115E+01  0.47293083000E+03  0.48608771623E+03  0.80495028012E+02 0.  0.
         23    2    1    2    0    0 -0.46692933581E+02  0.12875980861E+02  0.47042621122E+03  0.48170707007E+03  0.91623469839E+02 0.  0.
        -13    1    3    3    0    0 -0.57972264799E+02  0.33023788925E+02  0.26619334912E+03  0.27442713648E+03  0.00000000000E+00 0.  1.
         14    1    3    3    0    0 -0.19993405353E+02 -0.40744064136E+02  0.20673748088E+03  0.21166057975E+03  0.00000000000E+00 0. -1.
        -11    1    4    4    0    0 -0.32932779856E+02  0.52123130266E+02  0.26001226104E+03  0.26722231305E+03  0.00000000000E+00 0. -1.
         11    1    4    4    0    0 -0.13760153725E+02 -0.39247149405E+02  0.21041395017E+03  0.21448475702E+03  0.00000000000E+00 0.  1.
          1    1    1    2  501    0  0.12465860373E+03 -0.51557056499E+01  0.13513568046E+03  0.18392389980E+03  0.00000000000E+00 0. -1.
<scales pt_clust_5="13000.00000" pt_clust_6="13000.00000" pt_clust_7="13000.00000" pt_clust_8="13000.00000" pt_clust_9="13000.00000"></scales>
<clustering>
<clus scale="   80.495">  5  6 -1 -1</clus>
<clus scale="   91.623">  7  8 -1 -1</clus>
<clus scale="  112.329">  1  5  2 -1</clus>
<clus scale="  105.329">  7  9 -1 -1</clus>
<clus scale="  276.332">  2  5  1 -1</clus>
</clustering>
</event>
<event>
 9    2  0.3707658E-005  0.3833397E+03  0.7546771E-02  0.1107210E+00
         21   -1    0    0  501  502  0.00000000000E+00  0.00000000000E+00  0.41932778680E+02  0.41932778680E+02  0.00000000000E+00 0. -1.
          2   -1    0    0  502    0 -0.00000000000E+00 -0.00000000000E+00 -0.14068657989E+04  0.14068657989E+04  0.00000000000E+00 0. -1.
         24    2    1    2    0    0 -0.29384596948E+01 -0.27846877852E+01 -0.10982299725E+03  0.13645315931E+03  0.80882537856E+02 0.  0.
         23    2    1    2    0    0 -0.16868702586E+03  0.55277887457E+02 -0.76054271231E+03  0.78622027339E+03  0.90587766799E+02 0.  0.
        -13    1    3    3    0    0  0.33865770606E+02  0.13055379308E+02 -0.29807850201E+02  0.46966384587E+02  0.00000000000E+00 0.  1.
         14    1    3    3    0    0 -0.36804230300E+02 -0.15840067093E+02 -0.80015147049E+02  0.89486774726E+02  0.00000000000E+00 0. -1.
        -13    1    4    4    0    0 -0.13864999545E+03  0.80134551346E+02 -0.62382695895E+03  0.64405391255E+03  0.00000000000E+00 0. -1.
         13    1    4    4    0    0 -0.30037030417E+02 -0.24856663889E+02 -0.13671575337E+03  0.14216636084E+03  0.00000000000E+00 0.  1.
          1    1    1    2  501    0  0.17162548556E+03 -0.52493199672E+02 -0.49456731064E+03  0.52612514486E+03  0.00000000000E+00 0. -1.
<scales pt_clust_5="13000.00000" pt_clust_6="13000.00000" pt_clust_7="13000.00000" pt_clust_8="13000.00000" pt_clust_9="13000.00000"></scales>
<clustering>
<clus scale="   80.883">  5  6 -1 -1</clus>
<clus scale="   80.984">  2  5  1 -1</clus>
<clus scale="   90.588">  7  8 -1 -1</clus>
<clus scale="  178.686">  7  9 -1 -1</clus>
<clus scale="  383.340">  1  5  2 -1</clus>
</clustering>
</event>
<event>
 9    2  0.3707658E-005  0.2149189E+03  0.7546771E-02  0.1176905E+00
         21   -1    0    0  501  502  0.00000000000E+00  0.00000000000E+00  0.29940580073E+02  0.29940580073E+02  0.00000000000E+00 0. -1.
          2   -1    0    0  502    0 -0.00000000000E+00 -0.00000000000E+00 -0.11952649716E+04  0.11952649716E+04  0.00000000000E+00 0. -1.
         24    2    1    2    0    0  0.31829476554E+02 -0.74408001468E+01 -0.77391732548E+03  0.77867488990E+03  0.79486328384E+02 0.  0.
         23    2    1    2    0    0 -0.17127803396E+02  0.53632376057E+02 -0.38140554725E+03  0.39703489170E+03  0.94851042932E+02 0.  0.
        -11    1    3    3    0    0  0.18932590292E+02 -0.38003013313E+02 -0.23989182175E+03  0.24362011029E+03  0.00000000000E+00 0.  1.
         12    1    3    3    0    0  0.12896886262E+02  0.30562213166E+02 -0.53402550373E+03  0.53505477961E+03  0.00000000000E+00 0. -1.
        -13    1    4    4    0    0  0.37793150778E+01  0.75634230402E+02 -0.21657049377E+03  0.22942885346E+03  0.00000000000E+00 0. -1.
         13    1    4    4    0    0 -0.20907118474E+02 -0.22001854345E+02 -0.16483505348E+03  0.16760603824E+03  0.00000000000E+00 0.  1.
          1    1    1    2  501    0 -0.14701673158E+02 -0.46191575910E+02 -0.10001518824E+02  0.49495770097E+02  0.00000000000E+00 0. -1.
<scales pt_clust_5="13000.00000" pt_clust_6="13000.00000" pt_clust_7="13000.00000" pt_clust_8="13000.00000" pt_clust_9="13000.00000"></scales>
<clustering>
<clus scale="   79.486">  5  6 -1 -1</clus>
<clus scale="   85.945">  2  5  1 -1</clus>
<clus scale="   94.851">  7  8 -1 -1</clus>
<clus scale="   48.348">  7  9 -1 -1</clus>
<clus scale="  214.919">  1  5  2 -1</clus>
</clustering>
</event>
<event>
 9    2  0.3707658E-005  0.4480579E+03  0.7546771E-02  0.1070088E+00
         21   -1    0    0  501  502  0.00000000000E+00  0.00000000000E+00  0.29430642305E+03  0.29430642305E+03  0.00000000000E+00 0. -1.
         -3   -1    0    0    0  501 -0.00000000000E+00 -0.00000000000E+00 -0.31540011568E+03  0.31540011568E+03  0.00000000000E+00 0.  1.
         24    2    1    2    0    0 -0.91182066024E+02 -0.57914107630E+02 -0.80431320968E+02  0.15773662764E+03  0.82118410114E+02 0.  0.
         23    2    1    2    0    0 -0.33059386515E+01  0.18151703018E+03  0.16694933968E+03  0.26279817454E+03  0.90727267391E+02 0.  0.
        -13    1    3    3    0    0 -0.64149021121E+02  0.76892322387E+01 -0.34935255565E+02  0.73448575783E+02  0.00000000000E+00 0.  1.
         14    1    3    3    0    0 -0.27033044903E+02 -0.65603339869E+02 -0.45496065403E+02  0.84288051857E+02  0.00000000000E+00 0. -1.
        -13    1    4    4    0    0  0.37317173077E+02  0.61226844376E+02  0.35373883026E+02  0.79953795902E+02  0.00000000000E+00 0. -1.
         13    1    4    4    0    0 -0.40623111729E+02  0.12029018580E+03  0.13157545666E+03  0.18284437864E+03  0.00000000000E+00 0.  1.
         -4    1    1    2    0  502  0.94488004676E+02 -0.12360292255E+03 -0.10761171135E+03  0.18917173655E+03  0.00000000000E+00 0.  1.
<scales pt_clust_5="13000.00000" pt_clust_6="13000.00000" pt_clust_7="13000.00000" pt_clust_8="13000.00000" pt_clust_9="13000.00000"></scales>
<clustering>
<clus scale="   82.118">  5  6 -1 -1</clus>
<clus scale="   90.727">  7  8 -1 -1</clus>
<clus scale="  135.690">  2  5  1 -1</clus>
<clus scale="  169.320">  7  9 -1 -1</clus>
<clus scale="  448.058">  1  5  2 -1</clus>
</clustering>
</event>
<event>
 9    2  0.3707658E-005  0.2658168E+03  0.7546771E-02  0.1124903E+00
         21   -1    0    0  501  502  0.00000000000E+00  0.00000000000E+00  0.68381214889E+02  0.68381214889E+02  0.00000000000E+00 0. -1.
          2   -1    0    0  502    0 -0.00000000000E+00 -0.00000000000E+00 -0.70358405308E+03  0.70358405308E+03  0.00000000000E+00 0. -1.
         24    2    1    2    0    0  0.60692625434E+02 -0.11868856274E+03 -0.34489993339E+03  0.37834828179E+03  0.80130447201E+02 0.  0.
         23    2    1    2    0    0 -0.13101062713E+02  0.16607640388E+03 -0.16989123489E+03  0.25574191744E+03  0.93743729790E+02 0.  0.
        -13    1    3    3    0    0 -0.13529161915E+02 -0.48645404738E+02 -0.15121228300E+03  0.15941947232E+03  0.00000000000E+00 0.  1.
         14    1    3    3    0    0  0.74221787349E+02 -0.70043158002E+02 -0.19368765039E+03  0.21892880947E+03  0.00000000000E+00 0. -1.
        -11    1    4    4    0    0  0.27138361368E+02  0.13910769185E+03 -0.13750679036E+03  0.19747292975E+03  0.00000000000E+00 0. -1.
         11    1    4    4    0    0 -0.40239424081E+02  0.26968712027E+02 -0.32384444529E+02  0.58268987688E+02  0.00000000000E+00 0.  1.
          1    1    1    2  501    0 -0.47591562721E+02 -0.47387841139E+02 -0.12041166991E+03  0.13787506874E+03  0.00000000000E+00 0. -1.
<scales pt_clust_5="13000.00000" pt_clust_6="13000.00000" pt_clust_7="13000.00000" pt_clust_8="13000.00000" pt_clust_9="13000.00000"></scales>
<clustering>
<clus scale="   80.130">  5  6 -1 -1</clus>
<clus scale="   93.744">  7  8 -1 -1</clus>
<clus scale="   67.161">  7  9 -1 -1</clus>
<clus scale="  155.536">  2  5  1 -1</clus>
<clus scale="  265.817">  1  5  2 -1</clus>
</clustering>
</event>
<event>
 9    2  0.3707658E-005  0.5635994E+03  0.7546771E-02  0.1048911E+00
          2   -1    0    0  502    0 -0.00000000000E+00  0.00000000000E+00  0.48332531741E+03  0.48332531741E+03  0.00000000000E+00 0. -1.
         21   -1    0    0  501  502  0.00000000000E+00 -0.00000000000E+00 -0.24463346317E+03  0.24463346317E+03  0.00000000000E+00 0. -1.
         24    2    1    2    0    0 -0.38782849239E+02 -0.77237314667E+02  0.30220951910E+02  0.12703917625E+03  0.88067781828E+02 0.  0.
         23    2    1    2    0    0  0.20091496903E+03 -0.14358391588E+03  0.10525141656E+02  0.26293829672E+03  0.89680564212E+02 0.  0.
        -13    1    3    3    0    0 -0.32918710595E+02 -0.14702066704E+02 -0.24620030311E+02  0.43657051723E+02  0.00000000000E+00 0.  1.
         14    1    3    3    0    0 -0.58641386435E+01 -0.62535247963E+02  0.54840982221E+02  0.83382124528E+02  0.00000000000E+00 0. -1.
        -13    1    4    4    0    0  0.32615076425E+02  0.85292021924E+01  0.12831893623E+02  0.36071429056E+02  0.00000000000E+00 0.  1.
         13    1    4    4    0    0  0.16829989260E+03 -0.15211311807E+03 -0.23067519667E+01  0.22686686766E+03  0.00000000000E+00 0. -1.
          1    1    1    2  501    0 -0.16213211979E+03  0.22082123055E+03  0.19794576068E+03  0.33798130761E+03  0.00000000000E+00 0. -1.
<scales pt_clust_5="13000.00000" pt_clust_6="13000.00000" pt_clust_7="13000.00000" pt_clust_8="13000.00000" pt_clust_9="13000.00000"></scales>
<clustering>
<clus scale="   88.068">  5  6 -1 -1</clus>
<clus scale="   89.681">  7  8 -1 -1</clus>
<clus scale="  123.392">  1  5  2 -1</clus>
<clus scale="  253.110">  7  9 -1 -1</clus>
<clus scale="  563.599">  2  5  1 -1</clus>
</clustering>
</event>
<event>
 9    2  0.3707658E-005  0.1987701E+03  0.7546771E-02  0.1177525E+00
         21   -1    0    0  501  502  0.00000000000E+00  0.00000000000E+00  0.54123089099E+02  0.54123089099E+02  0.00000000000E+00 0. -1.
          2   -1    0    0  502    0 -0.00000000000E+00 -0.00000000000E+00 -0.55983690678E+03  0.55983690678E+03  0.00000000000E+00 0. -1.
         24    2    1    2    0    0  0.12636636196E+02  0.71181040753E+02 -0.52978389297E+02  0.11951190235E+03  0.79056688101E+02 0.  0.
         23    2    1    2    0    0 -0.49454079282E+02  0.91999461458E+01 -0.17165693506E+03  0.19979279224E+03  0.88998379248E+02 0.  0.
        -11    1    3    3    0    0  0.20031318459E+02 -0.43801743024E+01  0.81244979501E+01  0.22055546084E+02  0.00000000000E+00 0.  1.
         12    1    3    3    0    0 -0.73946822634E+01  0.75561215056E+02 -0.61102887247E+02  0.97456356265E+02  0.00000000000E+00 0. -1.
        -11    1    4    4    0    0 -0.33317616605E+01 -0.30221402614E+02 -0.19851715011E+02  0.36311491303E+02  0.00000000000E+00 0. -1.
         11    1    4    4    0    0 -0.46122317622E+02  0.39421348760E+02 -0.15180522005E+03  0.16348130094E+03  0.00000000000E+00 0.  1.
          1    1    1    2  501    0  0.36817443086E+02 -0.80380986899E+02 -0.28107849332E+03  0.29465530129E+03  0.00000000000E+00 0. -1.
<scales pt_clust_5="13000.00000" pt_clust_6="13000.00000" pt_clust_7="13000.00000" pt_clust_8="13000.00000" pt_clust_9="13000.00000"></scales>
<clustering>
<clus scale="   79.057">  5  6 -1 -1</clus>
<clus scale="   88.998">  7  8 -1 -1</clus>
<clus scale="   88.412">  7  9 -1 -1</clus>
<clus scale="  107.128">  2  5  1 -1</clus>
<clus scale="  198.770">  1  5  2 -1</clus>
</clustering>
</event>
<event>
 9    2  0.3707658E-005  0.1737958E+03  0.7546771E-02  0.1204198E+00
         21   -1    0    0  501  502  0.00000000000E+00  0.00000000000E+00  0.16458632117E+03  0.16458632117E+03  0.00000000000E+00 0.  1.
          2   -1    0    0  502    0 -0.00000000000E+00 -0.00000000000E+00 -0.10622503171E+03  0.10622503171E+03  0.00000000000E+00 0. -1.
         24    2    1    2    0    0  0.28285347547E+02  0.24105262496E+02  0.54453430345E+01  0.89138350082E+02  0.80838537398E+02 0.  0.
         23    2    1    2    0    0  0.40834536144E+02 -0.59567643882E+01  0.48996792128E+02  0.11010285486E+03  0.89548928663E+02 0.  0.
        -11    1    3    3    0    0  0.42733465033E+02  0.43278566335E+02 -0.84412212122E+01  0.61403888747E+02  0.00000000000E+00 0.  1.
         12    1    3    3    0    0 -0.14448117485E+02 -0.19173303839E+02  0.13886564247E+02  0.27734461335E+02  0.00000000000E+00 0. -1.
        -11    1    4    4    0    0  0.52415912666E+02 -0.26510641628E+02  0.60092378838E+02  0.84031755989E+02  0.00000000000E+00 0.  1.
         11    1    4    4    0    0 -0.11581376522E+02  0.20553877240E+02 -0.11095586710E+02  0.26071098868E+02  0.00000000000E+00 0. -1.
          1    1    1    2  501    0 -0.69119883692E+02 -0.18148498108E+02  0.39191542955E+01  0.71570147936E+02  0.00000000000E+00 0. -1.
<scales pt_clust_5="13000.00000" pt_clust_6="13000.00000" pt_clust_7="13000.00000" pt_clust_8="13000.00000" pt_clust_9="13000.00000"></scales>
<clustering>
<clus scale="   80.839">  5  6 -1 -1</clus>
<clus scale="   88.972">  2  5  1 -1</clus>
<clus scale="   89.549">  7  8 -1 -1</clus>
<clus scale="   54.535">  7  9 -1 -1</clus>
<clus scale="  173.796">  1  5  2 -1</clus>
</clustering>
</event>
<event>
 9    2  0.3707658E-005  0.2622828E+03  0.7546771E-02  0.1154547E+00
         21   -1    0    0  501  502  0.00000000000E+00  0.00000000000E+00  0.18027087859E+03  0.18027087859E+03  0.00000000000E+00 0. -1.
          2   -1    0    0  502    0 -0.00000000000E+00 -0.00000000000E+00 -0.35247245310E+03  0.35247245310E+03  0.00000000000E+00 0. -1.
         24    2    1    2    0    0 -0.21462826451E+02 -0.45042364584E+01 -0.24751109245E+03  0.25986279243E+03  0.76065688304E+02 0.  0.
         23    2    1    2    0    0 -0.93863520150E+02 -0.27878879433E+02  0.61074258833E+02  0.15225104445E+03  0.99311243631E+02 0.  0.
        -11    1    3    3    0    0 -0.13472502996E+02  0.35319943565E+02 -0.10163623840E+03  0.10843860801E+03  0.00000000000E+00 0.  1.
         12    1    3    3    0    0 -0.79903234548E+01 -0.39824180023E+02 -0.14587485405E+03  0.15142418442E+03  0.00000000000E+00 0. -1.
        -11    1    4    4    0    0 -0.40265178605E+01  0.21770713843E+02 -0.12995917977E+02  0.25672372531E+02  0.00000000000E+00 0.  1.
         11    1    4    4    0    0 -0.89837002289E+02 -0.49649593276E+02  0.74070176810E+02  0.12657867192E+03  0.00000000000E+00 0. -1.
          1    1    1    2  501    0  0.11532634660E+03  0.32383115892E+02  0.14235259107E+02  0.12062949480E+03  0.00000000000E+00 0. -1.
<scales pt_clust_5="13000.00000" pt_clust_6="13000.00000" pt_clust_7="13000.00000" pt_clust_8="13000.00000" pt_clust_9="13000.00000"></scales>
<clustering>
<clus scale="   76.066">  5  6 -1 -1</clus>
<clus scale="   79.164">  2  5  1 -1</clus>
<clus scale="   99.311">  7  8 -1 -1</clus>
<clus scale="  108.006">  7  9 -1 -1</clus>
<clus scale="  262.283">  1  5  2 -1</clus>
</clustering>
</event>
<event>
 9    2  0.3707658E-005  0.6569177E+03  0.7546771E-02  0.1029241E+00
          2   -1    0    0  502    0 -0.00000000000E+00  0.00000000000E+00  0.45550291570E+03  0.45550291570E+03  0.00000000000E+00 0. -1.
         21   -1    0    0  501  502  0.00000000000E+00 -0.00000000000E+00 -0.35773761003E+03  0.35773761003E+03  0.00000000000E+00 0. -1.
         24    2    1    2    0    0 -0.10028565550E+03  0.50949723168E+02 -0.35944743449E+02  0.14285315593E+03  0.80386022341E+02 0.  0.
         23    2    1    2    0    0  0.79531158857E+02 -0.31226949165E+03 -0.64789510479E+02  0.34157002584E+03  0.92924492127E+02 0.  0.
        -13    1    3    3    0    0 -0.68363601197E+02  0.28253303705E+02 -0.61404905204E+02  0.96137367979E+02  0.00000000000E+00 0.  1.
         14    1    3    3    0    0 -0.31922054300E+02  0.22696419463E+02  0.25460161755E+02  0.46715787950E+02  0.00000000000E+00 0. -1.
        -11    1    4    4    0    0  0.87362066817E+02 -0.22306903449E+03 -0.17242573495E+02  0.24018582641E+03  0.00000000000E+00 0. -1.
         11    1    4    4    0    0 -0.78309079599E+01 -0.89200457162E+02 -0.47546936984E+02  0.10138419943E+03  0.00000000000E+00 0.  1.
          1    1    1    2  501    0  0.20754496640E+02  0.26131976848E+03  0.19849955959E+03  0.32881734396E+03  0.00000000000E+00 0. -1.
<scales pt_clust_5="13000.00000" pt_clust_6="13000.00000" pt_clust_7="13000.00000" pt_clust_8="13000.00000" pt_clust_9="13000.00000"></scales>
<clustering>
<clus scale="   80.386">  5  6 -1 -1</clus>
<clus scale="   92.924">  7  8 -1 -1</clus>
<clus scale="  138.257">  1  5  2 -1</clus>
<clus scale="  298.149">  7  9 -1 -1</clus>
<clus scale="  656.918">  2  5  1 -1</clus>
</clustering>
</event>
<event>
 9    2  0.3707658E-005  0.2620478E+03  0.7546771E-02  0.1127581E+00
         21   -1    0    0  501  502  0.00000000000E+00  0.00000000000E+00  0.46482416033E+02  0.46482416033E+02  0.00000000000E+00 0. -1.
          2   -1    0    0  502    0 -0.00000000000E+00 -0.00000000000E+00 -0.94248983817E+03  0.94248983817E+03  0.00000000000E+00 0. -1.
         24    2    1    2    0    0 -0.10906871396E+03 -0.75272735174E+01 -0.26077234605E+03  0.30180948286E+03  0.10551826036E+03 0.  0.
         23    2    1    2    0    0 -0.41410873497E+02  0.36764832665E+02 -0.32944362133E+03  0.34509939285E+03  0.86567765040E+02 0.  0.
        -13    1    3    3    0    0 -0.57241475599E+02 -0.46723050055E+02 -0.19850834654E+03  0.21181405426E+03  0.00000000000E+00 0.  1.
         14    1    3    3    0    0 -0.51827238359E+02  0.39195776537E+02 -0.62263999506E+02  0.89995428599E+02  0.00000000000E+00 0. -1.
        -13    1    4    4    0    0  0.23682900809E+02 -0.65504591298E+01 -0.77513289289E+02  0.81314809979E+02  0.00000000000E+00 0.  1.
         13    1    4    4    0    0 -0.65093774306E+02  0.43315291795E+02 -0.25193033204E+03  0.26378458287E+03  0.00000000000E+00 0. -1.
          1    1    1    2  501    0  0.15047958745E+03 -0.29237559147E+02 -0.30579145476E+03  0.34206337850E+03  0.00000000000E+00 0. -1.
<scales pt_clust_5="13000.00000" pt_clust_6="13000.00000" pt_clust_7="13000.00000" pt_clust_8="13000.00000" pt_clust_9="13000.00000"></scales>
<clustering>
<clus scale="   86.568">  7  8 -1 -1</clus>
<clus scale="  105.518">  5  6 -1 -1</clus>
<clus scale="  151.943">  2  5  1 -1</clus>
<clus scale="  102.479">  7  9 -1 -1</clus>
<clus scale="  262.048">  1  5  2 -1</clus>
</clustering>
</event>
<event>
 9    2  0.3707658E-005  0.2433165E+03  0.7546771E-02  0.1156285E+00
         21   -1    0    0  501  502  0.00000000000E+00  0.00000000000E+00  0.25682119251E+02  0.25682119251E+02  0.00000000000E+00 0. -1.
          2   -1    0    0  502    0 -0.00000000000E+00 -0.00000000000E+00 -0.11346452864E+04  0.11346452864E+04  0.00000000000E+00 0. -1.
         24    2    1    2    0    0 -0.45981902765E+02  0.21922534215E+02 -0.38394470133E+03  0.39556948207E+03  0.80416096519E+02 0.  0.
         23    2    1    2    0    0 -0.27568242267E+00 -0.10347597809E+03 -0.53970197550E+03  0.55707323474E+03  0.91351039747E+02 0.  0.
        -11    1    3    3    0    0 -0.46540434496E+01 -0.25641549530E+02 -0.57937216976E+02  0.63528499854E+02  0.00000000000E+00 0.  1.
         12    1    3    3    0    0 -0.41327859316E+02  0.47564083745E+02 -0.32600748435E+03  0.33204098222E+03  0.00000000000E+00 0. -1.
        -13    1    4    4    0    0 -0.44353076087E+02 -0.68027707295E+02 -0.30120512397E+03  0.31196072032E+03  0.00000000000E+00 0. -1.
         13    1    4    4    0    0  0.44077393664E+02 -0.35448270790E+02 -0.23849685153E+03  0.24511251442E+03  0.00000000000E+00 0.  1.
          1    1    1    2  501    0  0.46257585188E+02  0.81553443870E+02 -0.18531649034E+03  0.20768468886E+03  0.00000000000E+00 0. -1.
<scales pt_clust_5="13000.00000" pt_clust_6="13000.00000" pt_clust_7="13000.00000" pt_clust_8="13000.00000" pt_clust_9="13000.00000"></scales>
<clustering>
<clus scale="   80.416">  5  6 -1 -1</clus>
<clus scale="   91.351">  7  8 -1 -1</clus>
<clus scale="   93.759">  7  9 -1 -1</clus>
<clus scale="   95.193">  2  5  1 -1</clus>
<clus scale="  243.316">  1  5  2 -1</clus>
</clustering>
</event>
<event>
 9    2  0.3707658E-005  0.1843510E+03  0.7546771E-02  0.1182109E+00
          2   -1    0    0  502    0 -0.00000000000E+00  0.00000000000E+00  0.55526763922E+03  0.55526763922E+03  0.00000000000E+00 0. -1.
         21   -1    0    0  501  502  0.00000000000E+00 -0.00000000000E+00 -0.44872414711E+02  0.44872414711E+02  0.00000000000E+00 0. -1.
         24    2    1    2    0    0 -0.24956326738E+02 -0.86296239083E+02  0.27992731095E+03  0.30501166242E+03  0.81258572925E+02 0.  0.
         23    2    1    2    0    0 -0.32890260134E+01  0.59050581297E+02  0.70636490915E+02  0.13054950621E+03  0.92497950682E+02 0.  0.
        -11    1    3    3    0    0 -0.26845244278E+02  0.55022818213E+01  0.89554113962E+02  0.93652984859E+02  0.00000000000E+00 0.  1.
         12    1    3    3    0    0  0.18889175400E+01 -0.91798520905E+02  0.19037319699E+03  0.21135867756E+03  0.00000000000E+00 0. -1.
        -13    1    4    4    0    0 -0.88380179457E+01 -0.23504943556E+02  0.27492966933E+02  0.37235146886E+02  0.00000000000E+00 0.  1.
         13    1    4    4    0    0  0.55489919323E+01  0.82555524853E+02  0.43143523982E+02  0.93314359328E+02  0.00000000000E+00 0. -1.
          1    1    1    2  501    0  0.28245352751E+02  0.27245657786E+02  0.15983142265E+03  0.16457888530E+03  0.00000000000E+00 0. -1.
<scales pt_clust_5="13000.00000" pt_clust_6="13000.00000" pt_clust_7="13000.00000" pt_clust_8="13000.00000" pt_clust_9="13000.00000"></scales>
<clustering>
<clus scale="   81.259">  5  6 -1 -1</clus>
<clus scale="   92.498">  7  8 -1 -1</clus>
<clus scale="   39.244">  7  9 -1 -1</clus>
<clus scale="  121.131">  1  5  2 -1</clus>
<clus scale="  184.351">  2  5  1 -1</clus>
</clustering>
</event>
<event>
 9    2  0.3707658E-005  0.2569727E+03  0.7546771E-02  0.1153809E+00
         21   -1    0    0  501  502  0.00000000000E+00  0.00000000000E+00  0.11467016351E+03  0.11467016351E+03  0.00000000000E+00 0. -1.
          2   -1    0    0  502    0 -0.00000000000E+00 -0.00000000000E+00 -0.72050805866E+03  0.72050805866E+03  0.00000000000E+00 0. -1.
         24    2    1    2    0    0  0.30073324314E+02  0.72138180079E+01 -0.56919914256E+03  0.57560667341E+03  0.79868232591E+02 0.  0.
         23    2    1    2    0    0  0.12571633469E+02 -0.59324294224E+02 -0.11338312170E+03  0.15747457357E+03  0.90912546881E+02 0.  0.
        -13    1    3    3    0    0 -0.13943941319E+02  0.30286410723E+02 -0.16273445414E+03  0.16611502864E+03  0.00000000000E+00 0.  1.
         14    1    3    3    0    0  0.44017265633E+02 -0.23072592715E+02 -0.40646468841E+03  0.40949164477E+03  0.00000000000E+00 0. -1.
        -11    1    4    4    0    0 -0.38730660169E+02 -0.26940707813E+02 -0.62404613542E+02  0.78231717136E+02  0.00000000000E+00 0.  1.
         11    1    4    4    0    0  0.51302293638E+02 -0.32383586411E+02 -0.50978508160E+02  0.79242856433E+02  0.00000000000E+00 0. -1.
          1    1    1    2  501    0 -0.42644957783E+02  0.52110476216E+02  0.76744369107E+02  0.10209697520E+03  0.00000000000E+00 0. -1.
<scales pt_clust_5="13000.00000" pt_clust_6="13000.00000" pt_clust_7="13000.00000" pt_clust_8="13000.00000" pt_clust_9="13000.00000"></scales>
<clustering>
<clus scale="   79.868">  5  6 -1 -1</clus>
<clus scale="   85.647">  2  5  1 -1</clus>
<clus scale="   90.913">  7  8 -1 -1</clus>
<clus scale="   66.226">  7  9 -1 -1</clus>
<clus scale="  256.973">  1  5  2 -1</clus>
</clustering>
</event>
<event>
 9    2  0.3707658E-005  0.2490331E+03  0.7546771E-02  0.1159558E+00
         21   -1    0    0  501  502  0.00000000000E+00  0.00000000000E+00  0.16204892521E+02  0.16204892521E+02  0.00000000000E+00 0. -1.
          2   -1    0    0  502    0 -0.00000000000E+00 -0.00000000000E+00 -0.16932933214E+04  0.16932933214E+04  0.00000000000E+00 0. -1.
         24    2    1    2    0    0  0.77153492251E+01 -0.13357904274E+02 -0.42333332064E+03  0.43124965703E+03  0.80791126370E+02 0.  0.
         23    2    1    2    0    0  0.97670597657E+02  0.35058240791E+02 -0.51566301562E+03  0.53235510633E+03  0.82006022132E+02 0.  0.
        -11    1    3    3    0    0 -0.28134569718E+02 -0.31337655981E+02 -0.21096224784E+03  0.21512478405E+03  0.00000000000E+00 0.  1.
         12    1    3    3    0    0  0.35849918943E+02  0.17979751707E+02 -0.21237107280E+03  0.21612487298E+03  0.00000000000E+00 0. -1.
        -13    1    4    4    0    0  0.16184943428E+01  0.36114535370E+02 -0.13427202250E+03  0.13905342576E+03  0.00000000000E+00 0.  1.
         13    1    4    4    0    0  0.96052103314E+02 -0.10562945785E+01 -0.38139099311E+03  0.39330168057E+03  0.00000000000E+00 0. -1.
          1    1    1    2  501    0 -0.10538594688E+03 -0.21700336517E+02 -0.73809209261E+03  0.74589345055E+03  0.00000000000E+00 0. -1.
<scales pt_clust_5="13000.00000" pt_clust_6="13000.00000" pt_clust_7="13000.00000" pt_clust_8="13000.00000" pt_clust_9="13000.00000"></scales>
<clustering>
<clus scale="   80.791">  5  6 -1 -1</clus>
<clus scale="   82.006">  7  8 -1 -1</clus>
<clus scale="   82.251">  2  5  1 -1</clus>
<clus scale="  105.098">  7  9 -1 -1</clus>
<clus scale="  249.033">  1  5  2 -1</clus>
</clustering>
</event>
<event>
 9    2  0.3707658E-005  0.1698697E+03  0.7546771E-02  0.1200602E+00
         21   -1    0    0  501  502  0.00000000000E+00  0.00000000000E+00  0.31151326985E+03  0.31151326985E+03  0.00000000000E+00 0.  1.
         -1   -1    0    0    0  501 -0.00000000000E+00 -0.00000000000E+00 -0.61409991794E+02  0.61409991794E+02  0.00000000000E+00 0.  1.
         24    2    1    2    0    0 -0.21646258034E+02  0.66584838075E+02  0.12496168579E+03  0.16193477113E+03  0.75533741047E+02 0.  0.
         23    2    1    2    0    0 -0.29608765390E+02 -0.13380664336E+02  0.74079539818E+02  0.12118261805E+03  0.90231521826E+02 0.  0.
        -11    1    3    3    0    0  0.26727603114E+01  0.47211015868E+02  0.18084707772E+02  0.50626873518E+02  0.00000000000E+00 0.  1.
         12    1    3    3    0    0 -0.24319018345E+02  0.19373822207E+02  0.10687697802E+03  0.11130789761E+03  0.00000000000E+00 0. -1.
        -11    1    4    4    0    0 -0.16930667348E+02 -0.51437344097E+02  0.31337598103E+02  0.62565908604E+02  0.00000000000E+00 0.  1.
         11    1    4    4    0    0 -0.12678098043E+02  0.38056679761E+02  0.42741941715E+02  0.58616709443E+02  0.00000000000E+00 0. -1.
         -2    1    1    2    0  502  0.51255023424E+02 -0.53204173739E+02  0.51062052443E+02  0.89805872465E+02  0.00000000000E+00 0.  1.
<scales pt_clust_5="13000.00000" pt_clust_6="13000.00000" pt_clust_7="13000.00000" pt_clust_8="13000.00000" pt_clust_9="13000.00000"></scales>
<clustering>
<clus scale="   75.534">  5  6 -1 -1</clus>
<clus scale="   90.232">  7  8 -1 -1</clus>
<clus scale="   73.877">  7  9 -1 -1</clus>
<clus scale="  102.993">  2  5  1 -1</clus>
<clus scale="  169.870">  1  5  2 -1</clus>
</clustering>
</event>
<event>
 9    2  0.3707658E-005  0.3040028E+03  0.7546771E-02  0.1132807E+00
         21   -1    0    0  501  502  0.00000000000E+00  0.00000000000E+00  0.16699865593E+03  0.16699865593E+03  0.00000000000E+00 0. -1.
          2   -1    0    0  502    0 -0.00000000000E+00 -0.00000000000E+00 -0.33354817435E+03  0.33354817435E+03  0.00000000000E+00 0. -1.
         24    2    1    2    0    0 -0.26389094439E+02  0.10176015545E+02 -0.17673548265E+03  0.19637339659E+03  0.80790744917E+02 0.  0.
         23    2    1    2    0    0  0.52993180062E+01  0.93973318767E+02 -0.90362650913E+02  0.15787959748E+03  0.88890332485E+02 0.  0.
        -13    1    3    3    0    0  0.23156959078E+02 -0.17058160543E+02 -0.67550719658E+02  0.73418834921E+02  0.00000000000E+00 0.  1.
         14    1    3    3    0    0 -0.49546053517E+02  0.27234176088E+02 -0.10918476299E+03  0.12295456167E+03  0.00000000000E+00 0. -1.
        -13    1    4    4    0    0  0.46470754140E+02  0.40848654169E+02 -0.37288071057E+02  0.72239489069E+02  0.00000000000E+00 0.  1.
         13    1    4    4    0    0 -0.41171436134E+02  0.53124664599E+02 -0.53074579856E+02  0.85640108413E+02  0.00000000000E+00 0. -1.
          1    1    1    2  501    0  0.21089776433E+02 -0.10414933431E+03  0.10054861514E+03  0.14629383622E+03  0.00000000000E+00 0. -1.
<scales pt_clust_5="13000.00000" pt_clust_6="13000.00000" pt_clust_7="13000.00000" pt_clust_8="13000.00000" pt_clust_9="13000.00000"></scales>
<clustering>
<clus scale="   80.791">  5  6 -1 -1</clus>
<clus scale="   85.598">  2  5  1 -1</clus>
<clus scale="   88.890">  7  8 -1 -1</clus>
<clus scale="  103.963">  7  9 -1 -1</clus>
<clus scale="  304.003">  1  5  2 -1</clus>
</clustering>
</event>
<event>
 9    2  0.3707658E-005  0.3244527E+03  0.7546771E-02  0.1113977E+00
          2   -1    0    0  502    0 -0.00000000000E+00  0.00000000000E+00  0.83460351394E+03  0.83460351394E+03  0.00000000000E+00 0. -1.
         21   -1    0    0  501  502  0.00000000000E+00 -0.00000000000E+00 -0.59906245613E+02  0.59906245613E+02  0.00000000000E+00 0. -1.
         24    2    1    2    0    0  0.33509857350E+02  0.72305350695E+02  0.12386449071E+03  0.16728704892E+03  0.79319420055E+02 0.  0.
         23    2    1    2    0    0 -0.68110201020E+01  0.85399145502E+02  0.12085287522E+03  0.17363239915E+03  0.90572559515E+02 0.  0.
        -11    1    3    3    0    0  0.58509721904E+01  0.66670567407E+02  0.38132641713E+02  0.77027896232E+02  0.00000000000E+00 0.  1.
         12    1    3    3    0    0  0.27658885160E+02  0.56347832884E+01  0.85731849000E+02  0.90259152688E+02  0.00000000000E+00 0. -1.
        -11    1    4    4    0    0 -0.29181601811E+02  0.94470254712E+02  0.10745770504E+03  0.14602518030E+03  0.00000000000E+00 0.  1.
         11    1    4    4    0    0  0.22370581709E+02 -0.90711092091E+01  0.13395170183E+02  0.27607218848E+02  0.00000000000E+00 0. -1.
          1    1    1    2  501    0 -0.26698837248E+02 -0.15770449620E+03  0.52997990238E+03  0.55359031148E+03  0.00000000000E+00 0. -1.
<scales pt_clust_5="13000.00000" pt_clust_6="13000.00000" pt_clust_7="13000.00000" pt_clust_8="13000.00000" pt_clust_9="13000.00000"></scales>
<clustering>
<clus scale="   79.319">  5  6 -1 -1</clus>
<clus scale="   90.573">  7  8 -1 -1</clus>
<clus scale="  112.439">  1  5  2 -1</clus>
<clus scale="  100.851">  7  9 -1 -1</clus>
<clus scale="  324.453">  2  5  1 -1</clus>
</clustering>
</event>
<event>
 9    2  0.3707658E-005  0.3107696E+03  0.7546771E-02  0.1103099E+00
         21   -1    0    0  501  502  0.00000000000E+00  0.00000000000E+00  0.14414540548E+03  0.14414540548E+03  0.00000000000E+00 0. -1.
          2   -1    0    0  502    0 -0.00000000000E+00 -0.00000000000E+00 -0.75454533430E+03  0.75454533430E+03  0.00000000000E+00 0. -1.
         24    2    1    2    0    0  0.11127604102E+03  0.98792011293E+02 -0.55865995387E+03  0.58364353977E+03  0.79978863813E+02 0.  0.
         23    2    1    2    0    0 -0.21711625159E+02  0.14625831777E+02 -0.12197012172E+03  0.15436843591E+03  0.90926309678E+02 0.  0.
        -13    1    3    3    0    0  0.55567463440E+02  0.46773985608E+02 -0.13613748284E+03  0.15430153258E+03  0.00000000000E+00 0.  1.
         14    1    3    3    0    0  0.55708577581E+02  0.52018025685E+02 -0.42252247103E+03  0.42934200718E+03  0.00000000000E+00 0. -1.
        -13    1    4    4    0    0  0.26709447002E+01 -0.35612126560E+02 -0.67471860315E+02  0.76340090635E+02  0.00000000000E+00 0.  1.
         13    1    4    4    0    0 -0.24382569859E+02  0.50237958337E+02 -0.54498261407E+02  0.78028345280E+02  0.00000000000E+00 0. -1.
          1    1    1    2  501    0 -0.89564415862E+02 -0.11341784307E+03  0.70230146770E+02  0.16067876409E+03  0.00000000000E+00 0. -1.
<scales pt_clust_5="13000.00000" pt_clust_6="13000.00000" pt_clust_7="13000.00000" pt_clust_8="13000.00000" pt_clust_9="13000.00000"></scales>
<clustering>
<clus scale="   79.979">  5  6 -1 -1</clus>
<clus scale="   90.926">  7  8 -1 -1</clus>
<clus scale="  144.518">  7  9 -1 -1</clus>
<clus scale="  168.934">  2  5  1 -1</clus>
<clus scale="  310.770">  1  5  2 -1</clus>
</clustering>
</event>
<event>
 9    2  0.3707658E-005  0.7605147E+03  0.7546771E-02  0.1014799E+00
         21   -1    0    0  501  502  0.00000000000E+00  0.00000000000E+00  0.24981752792E+03  0.24981752792E+03  0.00000000000E+00 0. -1.
          2   -1    0    0  502    0 -0.00000000000E+00 -0.00000000000E+00 -0.83503818730E+03  0.83503818730E+03  0.00000000000E+00 0. -1.
         24    2    1    2    0    0 -0.83056643376E+02 -0.78242934429E+02 -0.16861562127E+03  0.21770962589E+03  0.77109601684E+02 0.  0.
         23    2    1    2    0    0  0.18141200646E+03 -0.54743077872E+02  0.16261825229E+03  0.26476856894E+03  0.88037369686E+02 0.  0.
        -11    1    3    3    0    0 -0.53342796911E+02 -0.41491570600E+01 -0.95450127249E+02  0.10942301531E+03  0.00000000000E+00 0.  1.
         12    1    3    3    0    0 -0.29713846465E+02 -0.74093777369E+02 -0.73165494019E+02  0.10828661058E+03  0.00000000000E+00 0. -1.
        -13    1    4    4    0    0  0.24460490979E+02 -0.45518890210E+02  0.37819314610E+02  0.64035814530E+02  0.00000000000E+00 0.  1.
         13    1    4    4    0    0  0.15695151548E+03 -0.92241876616E+01  0.12479893768E+03  0.20073275442E+03  0.00000000000E+00 0. -1.
          1    1    1    2  501    0 -0.98355363082E+02  0.13298601230E+03 -0.57922329040E+03  0.60237752038E+03  0.00000000000E+00 0. -1.
<scales pt_clust_5="13000.00000" pt_clust_6="13000.00000" pt_clust_7="13000.00000" pt_clust_8="13000.00000" pt_clust_9="13000.00000"></scales>
<clustering>
<clus scale="   77.110">  5  6 -1 -1</clus>
<clus scale="   88.037">  7  8 -1 -1</clus>
<clus scale="  137.718">  2  5  1 -1</clus>
<clus scale="  185.131">  7  9 -1 -1</clus>
<clus scale="  760.515">  1  5  2 -1</clus>
</clustering>
</event>
<event>
 9    2  0.3707658E-005  0.3175689E+03  0.7546771E-02  0.1089646E+00
         -1   -1    0    0    0  501 -0.00000000000E+00  0.00000000000E+00  0.90694806002E+03  0.90694806002E+03  0.00000000000E+00 0.  1.
         21   -1    0    0  501  502  0.00000000000E+00 -0.00000000000E+00 -0.10563117999E+03  0.10563117999E+03  0.00000000000E+00 0.  1.
         24    2    1    2    0    0 -0.19347250183E+03 -0.78877063355E+02  0.10709917812E+03  0.24917355619E+03  0.83450746309E+02 0.  0.
         23    2    1    2    0    0 -0.16882684539E+02  0.33698179549E+01  0.17537972557E+03  0.19847781743E+03  0.91318208249E+02 0.  0.
        -11    1    3    3    0    0 -0.15806996249E+03 -0.80411448791E+02  0.11689763547E+03  0.21240803025E+03  0.00000000000E+00 0.  1.
         12    1    3    3    0    0 -0.35402539344E+02  0.15343854359E+01 -0.97984573491E+01  0.36765525932E+02  0.00000000000E+00 0. -1.
        -11    1    4    4    0    0 -0.40464698573E+02  0.14538722149E+02  0.16480772400E+03  0.17032425595E+03  0.00000000000E+00 0. -1.
         11    1    4    4    0    0  0.23582014033E+02 -0.11168904195E+02  0.10572001567E+02  0.28153561478E+02  0.00000000000E+00 0.  1.
         -2    1    1    2    0  502  0.21035518637E+03  0.75507245400E+02  0.51883797634E+03  0.56492786640E+03  0.00000000000E+00 0.  1.
<scales pt_clust_5="13000.00000" pt_clust_6="13000.00000" pt_clust_7="13000.00000" pt_clust_8="13000.00000" pt_clust_9="13000.00000"></scales>
<clustering>
<clus scale="   83.451">  5  6 -1 -1</clus>
<clus scale="   91.318">  7  8 -1 -1</clus>
<clus scale="  223.497">  7  9 -1 -1</clus>
<clus scale="  224.983">  1  5  2 -1</clus>
<clus scale="  317.569">  2  5  1 -1</clus>
</clustering>
</event>
<event>
 9    2  0.3707658E-005  0.3317272E+03  0.7546771E-02  0.1107156E+00
         21   -1    0    0  501  502  0.00000000000E+00  0.00000000000E+00  0.21405840835E+03  0.21405840835E+03  0.00000000000E+00 0.  1.
          2   -1    0    0  502    0 -0.00000000000E+00 -0.00000000000E+00 -0.28456902561E+03  0.28456902561E+03  0.00000000000E+00 0. -1.
         24    2    1    2    0    0  0.65798625103E+02  0.58001806017E+02 -0.10732782517E+03  0.16486341071E+03  0.89258128861E+02 0.  0.
         23    2    1    2    0    0 -0.99358152285E+01 -0.95393362242E+02  0.15063473625E+03  0.20157774650E+03  0.93510160593E+02 0.  0.
        -13    1    3    3    0    0  0.82298759296E+02  0.63988373802E+02 -0.10349486669E+03  0.14689719260E+03  0.00000000000E+00 0.  1.
         14    1    3    3    0    0 -0.16500134194E+02 -0.59865677841E+01 -0.38329584782E+01  0.17966218103E+02  0.00000000000E+00 0. -1.
        -11    1    4    4    0    0 -0.40253302841E+02 -0.76814381991E+02  0.13960633145E+03  0.16434933967E+03  0.00000000000E+00 0.  1.
         11    1    4    4    0    0  0.30317487613E+02 -0.18578980251E+02  0.11028404803E+02  0.37228406826E+02  0.00000000000E+00 0. -1.
          1    1    1    2  501    0 -0.55862809874E+02  0.37391556225E+02 -0.11381752834E+03  0.13218627675E+03  0.00000000000E+00 0. -1.
<scales pt_clust_5="13000.00000" pt_clust_6="13000.00000" pt_clust_7="13000.00000" pt_clust_8="13000.00000" pt_clust_9="13000.00000"></scales>
<clustering>
<clus scale="   89.258">  5  6 -1 -1</clus>
<clus scale="   93.510">  7  8 -1 -1</clus>
<clus scale="   67.222">  7  9 -1 -1</clus>
<clus scale="  125.143">  2  5  1 -1</clus>
<clus scale="  331.727">  1  5  2 -1</clus>
</clustering>
</event>
<event>
 9    2  0.3707658E-005  0.2396690E+03  0.7546771E-02  0.1148187E+00
          2   -1    0    0  502    0 -0.00000000000E+00  0.00000000000E+00  0.56680800067E+03  0.56680800067E+03  0.00000000000E+00 0. -1.
         21   -1    0    0  501  502  0.00000000000E+00 -0.00000000000E+00 -0.59611228743E+02  0.59611228743E+02  0.00000000000E+00 0. -1.
         24    2    1    2    0    0 -0.34192835566E+02 -0.78581311152E+02  0.23217284564E+03  0.26161876861E+03  0.84829106856E+02 0.  0.
         23    2    1    2    0    0  0.79561155691E+01 -0.34978555892E+02  0.20966716169E+03  0.23117518042E+03  0.90525389810E+02 0.  0.
        -13    1    3    3    0    0 -0.29731341672E+02  0.95760010438E+01  0.46299583072E+02  0.55850728431E+02  0.00000000000E+00 0.  1.
         14    1    3    3    0    0 -0.44614938938E+01 -0.88157312196E+02  0.18587326257E+03  0.20576804018E+03  0.00000000000E+00 0. -1.
        -11    1    4    4    0    0  0.47310611026E+02 -0.22009644401E+02  0.84346984429E+02  0.99182317701E+02  0.00000000000E+00 0.  1.
         11    1    4    4    0    0 -0.39354495457E+02 -0.12968911492E+02  0.12532017727E+03  0.13199286272E+03  0.00000000000E+00 0. -1.
          1    1    1    2  501    0  0.26236719997E+02  0.11355986704E+03  0.65356764585E+02  0.13362528038E+03  0.00000000000E+00 0. -1.
<scales pt_clust_5="13000.00000" pt_clust_6="13000.00000" pt_clust_7="13000.00000" pt_clust_8="13000.00000" pt_clust_9="13000.00000"></scales>
<clustering>
<clus scale="   84.829">  5  6 -1 -1</clus>
<clus scale="   90.525">  7  8 -1 -1</clus>
<clus scale="  116.551">  7  9 -1 -1</clus>
<clus scale="  120.583">  1  5  2 -1</clus>
<clus scale="  239.669">  2  5  1 -1</clus>
</clustering>
</event>
<event>
 9    2  0.3707658E-005  0.8814556E+03  0.7546771E-02  0.1015120E+00
         21   -1    0    0  501  502  0.00000000000E+00  0.00000000000E+00  0.33799612243E+03  0.33799612243E+03  0.00000000000E+00 0. -1.
          2   -1    0    0  502    0 -0.00000000000E+00 -0.00000000000E+00 -0.69733036885E+03  0.69733036885E+03  0.00000000000E+00 0. -1.
         24    2    1    2    0    0  0.53051752794E+00  0.36775666812E+02 -0.51816137405E+02  0.10176801537E+03  0.79492677260E+02 0.  0.
         23    2    1    2    0    0 -0.19662344341E+03  0.36353392743E+03 -0.22930823196E+03  0.48099136299E+03  0.89178086634E+02 0.  0.
        -13    1    3    3    0    0  0.29891096030E+02  0.12901588190E+02 -0.54871493089E+02  0.63802894554E+02  0.00000000000E+00 0.  1.
         14    1    3    3    0    0 -0.29360578502E+02  0.23874078622E+02  0.30553556840E+01  0.37965120813E+02  0.00000000000E+00 0. -1.
        -11    1    4    4    0    0 -0.12573288991E+03  0.24501978769E+03 -0.10357562565E+03  0.29423012456E+03  0.00000000000E+00 0.  1.
         11    1    4    4    0    0 -0.70890553504E+02  0.11851413974E+03 -0.12573260631E+03  0.18676123844E+03  0.00000000000E+00 0. -1.
          1    1    1    2  501    0  0.19609292589E+03 -0.40030959425E+03 -0.78209877055E+02  0.45256711292E+03  0.00000000000E+00 0. -1.
<scales pt_clust_5="13000.00000" pt_clust_6="13000.00000" pt_clust_7="13000.00000" pt_clust_8="13000.00000" pt_clust_9="13000.00000"></scales>
<clustering>
<clus scale="   79.493">  5  6 -1 -1</clus>
<clus scale="   87.589">  2  5  1 -1</clus>
<clus scale="   89.178">  7  8 -1 -1</clus>
<clus scale="  431.792">  7  9 -1 -1</clus>
<clus scale="  881.456">  1  5  2 -1</clus>
</clustering>
</event>
<event>
 9    2  0.3707658E-005  0.3491580E+03  0.7546771E-02  0.1083880E+00
         21   -1    0    0  501  502  0.00000000000E+00  0.00000000000E+00  0.20976168070E+03  0.20976168070E+03  0.00000000000E+00 0.  1.
         -3   -1    0    0    0  501 -0.00000000000E+00 -0.00000000000E+00 -0.35837648341E+03  0.35837648341E+03  0.00000000000E+00 0.  1.
         24    2    1    2    0    0 -0.17540445109E+03 -0.46002286114E+02 -0.31307421518E+02  0.19980089817E+03  0.77828738122E+02 0.  0.
         23    2    1    2    0    0  0.69252942013E+01 -0.35092873896E+02 -0.15017582770E+03  0.17848999561E+03  0.89590344387E+02 0.  0.
        -11    1    3    3    0    0 -0.80143794236E+02 -0.61234643636E+02 -0.16469689550E+02  0.10219569467E+03  0.00000000000E+00 0.  1.
         12    1    3    3    0    0 -0.95260656850E+02  0.15232357522E+02 -0.14837731968E+02  0.97605203494E+02  0.00000000000E+00 0. -1.
        -11    1    4    4    0    0  0.34567695892E+02 -0.44257223227E+02 -0.53645724728E+02  0.77662675647E+02  0.00000000000E+00 0. -1.
         11    1    4    4    0    0 -0.27642401691E+02  0.91643493315E+01 -0.96530102975E+02  0.10082731996E+03  0.00000000000E+00 0.  1.
         -4    1    1    2    0  502  0.16847915688E+03  0.81095160010E+02  0.32868446510E+02  0.18984727035E+03  0.00000000000E+00 0.  1.
<scales pt_clust_5="13000.00000" pt_clust_6="13000.00000" pt_clust_7="13000.00000" pt_clust_8="13000.00000" pt_clust_9="13000.00000"></scales>
<clustering>
<clus scale="   77.829">  5  6 -1 -1</clus>
<clus scale="   89.590">  7  8 -1 -1</clus>
<clus scale="  186.980">  7  9 -1 -1</clus>
<clus scale="  197.333">  2  5  1 -1</clus>
<clus scale="  349.158">  1  5  2 -1</clus>
</clustering>
</event>
<event>
 9    2  0.3707658E-005  0.3955822E+03  0.7546771E-02  0.1062269E+00
          2   -1    0    0  502    0 -0.00000000000E+00  0.00000000000E+00  0.54584436441E+03  0.54584436441E+03  0.00000000000E+00 0. -1.
         21   -1    0    0  501  502  0.00000000000E+00 -0.00000000000E+00 -0.65564501900E+03  0.65564501900E+03  0.00000000000E+00 0.  1.
         24    2    1    2    0    0 -0.13764549808E+03 -0.18644797227E+03  0.45222051155E+03  0.51420991031E+03  0.78735705310E+02 0.  0.
         23    2    1    2    0    0  0.91720020191E+01  0.23974951116E+03 -0.37460208067E+03  0.45388622805E+03  0.90122335973E+02 0.  0.
        -13    1    3    3    0    0 -0.25872774206E+02  0.65978592124E+00  0.63232785507E+02  0.68324380170E+02  0.00000000000E+00 0.  1.
         14    1    3    3    0    0 -0.11177272387E+03 -0.18710775819E+03  0.38898772604E+03  0.44588553014E+03  0.00000000000E+00 0. -1.
        -11    1    4    4    0    0  0.18296172752E+01  0.60932330664E+02 -0.35732975719E+02  0.70660752708E+02  0.00000000000E+00 0. -1.
         11    1    4    4    0    0  0.73423847440E+01  0.17881718050E+03 -0.33886910496E+03  0.38322547534E+03  0.00000000000E+00 0.  1.
          1    1    1    2  501    0  0.12847349606E+03 -0.53301538889E+02 -0.18741908547E+03  0.23339324505E+03  0.00000000000E+00 0. -1.
<scales pt_clust_5="13000.00000" pt_clust_6="13000.00000" pt_clust_7="13000.00000" pt_clust_8="13000.00000" pt_clust_9="13000.00000"></scales>
<clustering>
<clus scale="   78.736">  5  6 -1 -1</clus>
<clus scale="   90.122">  7  8 -1 -1</clus>
<clus scale="  139.092">  7  9 -1 -1</clus>
<clus scale="  244.762">  1  5  2 -1</clus>
<clus scale="  395.582">  2  5  1 -1</clus>
</clustering>
</event>
<event>
 9    2  0.3707658E-005  0.5335995E+03  0.7546771E-02  0.1015977E+00
          2   -1    0    0  502    0 -0.00000000000E+00  0.00000000000E+00  0.71761365628E+03  0.71761365628E+03  0.00000000000E+00 0. -1.
         21   -1    0    0  501  502  0.00000000000E+00 -0.00000000000E+00 -0.29438054342E+03  0.29438054342E+03  0.00000000000E+00 0. -1.
         24    2    1    2    0    0  0.37249364587E+03 -0.50012475426E+02  0.20078992717E+03  0.43388568958E+03  0.81776725659E+02 0.  0.
         23    2    1    2    0    0 -0.48872601576E+02 -0.55016396857E+02 -0.62734068728E+02  0.13416289323E+03  0.92998835650E+02 0.  0.
        -13    1    3    3    0    0  0.16901650767E+03  0.56560939848E+01  0.12272601660E+03  0.20895034437E+03  0.00000000000E+00 0.  1.
         14    1    3    3    0    0  0.20347713820E+03 -0.55668569411E+02  0.78063910575E+02  0.22493534521E+03  0.00000000000E+00 0. -1.
        -13    1    4    4    0    0 -0.28183081032E+02 -0.70566543130E+02 -0.73881128136E+02  0.10598275407E+03  0.00000000000E+00 0. -1.
         13    1    4    4    0    0 -0.20689520545E+02  0.15550146273E+02  0.11147059408E+02  0.28180139157E+02  0.00000000000E+00 0.  1.
          1    1    1    2  501    0 -0.32362104429E+03  0.10502887228E+03  0.28517725442E+03  0.44394561689E+03  0.00000000000E+00 0. -1.
<scales pt_clust_5="13000.00000" pt_clust_6="13000.00000" pt_clust_7="13000.00000" pt_clust_8="13000.00000" pt_clust_9="13000.00000"></scales>
<clustering>
<clus scale="   81.777">  5  6 -1 -1</clus>
<clus scale="   92.999">  7  8 -1 -1</clus>
<clus scale="  340.238">  7  9 -1 -1</clus>
<clus scale="  384.630">  1  5  2 -1</clus>
<clus scale="  533.600">  2  5  1 -1</clus>
</clustering>
</event>
<event>
 9    2  0.3707658E-005  0.2485526E+03  0.7546771E-02  0.1156355E+00
          2   -1    0    0  502    0 -0.00000000000E+00  0.00000000000E+00  0.30303206671E+03  0.30303206671E+03  0.00000000000E+00 0. -1.
         21   -1    0    0  501  502  0.00000000000E+00 -0.00000000000E+00 -0.11066157956E+03  0.11066157956E+03  0.00000000000E+00 0.  1.
         24    2    1    2    0    0  0.28698026546E+02  0.26323458564E+02  0.12965604404E+03  0.15735114919E+03  0.80200955085E+02 0.  0.
         23    2    1    2    0    0  0.20008287857E+02  0.48733956029E+02 -0.45941103211E+02  0.11558757427E+03  0.92057440263E+02 0.  0.
        -11    1    3    3    0    0 -0.15267463277E+02  0.23849588432E+02  0.10080372109E+03  0.10470572329E+03  0.00000000000E+00 0.  1.
         12    1    3    3    0    0  0.43965489822E+02  0.24738701320E+01  0.28852322947E+02  0.52645425900E+02  0.00000000000E+00 0. -1.
        -13    1    4    4    0    0  0.16715951937E+02 -0.25758712105E+02 -0.19965607387E+02  0.36627309167E+02  0.00000000000E+00 0. -1.
         13    1    4    4    0    0  0.32923359199E+01  0.74492668135E+02 -0.25975495823E+02  0.78960265102E+02  0.00000000000E+00 0.  1.
          1    1    1    2  501    0 -0.48706314403E+02 -0.75057414594E+02  0.10865554633E+03  0.14075492282E+03  0.00000000000E+00 0. -1.
<scales pt_clust_5="13000.00000" pt_clust_6="13000.00000" pt_clust_7="13000.00000" pt_clust_8="13000.00000" pt_clust_9="13000.00000"></scales>
<clustering>
<clus scale="   80.201">  5  6 -1 -1</clus>
<clus scale="   89.155">  1  5  2 -1</clus>
<clus scale="   92.057">  7  8 -1 -1</clus>
<clus scale="   60.484">  7  9 -1 -1</clus>
<clus scale="  248.553">  2  5  1 -1</clus>
</clustering>
</event>
<event>
 9    2  0.3707658E-005  0.4139838E+03  0.7546771E-02  0.1050974E+00
         21   -1    0    0  501  502  0.00000000000E+00  0.00000000000E+00  0.93250556124E+02  0.93250556124E+02  0.00000000000E+00 0. -1.
          2   -1    0    0  502    0 -0.00000000000E+00 -0.00000000000E+00 -0.14143947832E+04  0.14143947832E+04  0.00000000000E+00 0. -1.
         24    2    1    2    0    0 -0.73974931247E+02 -0.27238254244E+03 -0.72194143899E+03  0.77934142221E+03  0.80678814905E+02 0.  0.
         23    2    1    2    0    0 -0.39854182266E+02 -0.17638349315E+02 -0.20027262885E+03  0.22212760723E+03  0.85627570436E+02 0.  0.
        -13    1    3    3    0    0 -0.49996035155E+02 -0.53045329892E+02 -0.17575803317E+03  0.19027426725E+03  0.00000000000E+00 0.  1.
         14    1    3    3    0    0 -0.23978896092E+02 -0.21933721255E+03 -0.54618340582E+03  0.58906715497E+03  0.00000000000E+00 0. -1.
        -11    1    4    4    0    0 -0.84413210104E+01 -0.32969148301E+02 -0.22145954858E+02  0.40603743136E+02  0.00000000000E+00 0.  1.
         11    1    4    4    0    0 -0.31412861255E+02  0.15330798986E+02 -0.17812667399E+03  0.18152386410E+03  0.00000000000E+00 0. -1.
          1    1    1    2  501    0  0.11382911351E+03  0.29002089176E+03 -0.39893015929E+03  0.50617630993E+03  0.00000000000E+00 0. -1.
<scales pt_clust_5="13000.00000" pt_clust_6="13000.00000" pt_clust_7="13000.00000" pt_clust_8="13000.00000" pt_clust_9="13000.00000"></scales>
<clustering>
<clus scale="   80.679">  5  6 -1 -1</clus>
<clus scale="   85.628">  7  8 -1 -1</clus>
<clus scale="  293.553">  2  5  1 -1</clus>
<clus scale="  122.060">  7  9 -1 -1</clus>
<clus scale="  413.984">  1  5  2 -1</clus>
</clustering>
</event>
<event>
 9    2  0.3707658E-005  0.2500192E+03  0.7546771E-02  0.1155250E+00
         21   -1    0    0  501  502  0.00000000000E+00  0.00000000000E+00  0.26992277074E+03  0.26992277074E+03  0.00000000000E+00 0.  1.
         -3   -1    0    0    0  501 -0.00000000000E+00 -0.00000000000E+00 -0.11784927133E+03  0.11784927133E+03  0.00000000000E+00 0.  1.
         24    2    1    2    0    0 -0.38721628968E+02  0.18632504325E+01 -0.90226716156E+01  0.90347122574E+02  0.81107075537E+02 0.  0.
         23    2    1    2    0    0 -0.76283197922E+02 -0.54410472697E+01  0.13279031620E+03  0.17893385546E+03  0.92386824123E+02 0.  0.
        -13    1    3    3    0    0 -0.48462589540E+02 -0.63234514838E+01 -0.35878758932E+02  0.60629151124E+02  0.00000000000E+00 0.  1.
         14    1    3    3    0    0  0.97409605719E+01  0.81867019162E+01  0.26856087316E+02  0.29717971449E+02  0.00000000000E+00 0. -1.
        -13    1    4    4    0    0 -0.27117483054E+02  0.23775083219E+02  0.19227837436E+01  0.36115226243E+02  0.00000000000E+00 0. -1.
         13    1    4    4    0    0 -0.49165714868E+02 -0.29216130488E+02  0.13086753246E+03  0.14281862922E+03  0.00000000000E+00 0.  1.
         -4    1    1    2    0  502  0.11500482689E+03  0.35777968372E+01  0.28305854822E+02  0.11849106403E+03  0.00000000000E+00 0.  1.
<scales pt_clust_5="13000.00000" pt_clust_6="13000.00000" pt_clust_7="13000.00000" pt_clust_8="13000.00000" pt_clust_9="13000.00000"></scales>
<clustering>
<clus scale="   81.107">  5  6 -1 -1</clus>
<clus scale="   89.895">  2  5  1 -1</clus>
<clus scale="   92.387">  7  8 -1 -1</clus>
<clus scale="   89.519">  7  9 -1 -1</clus>
<clus scale="  250.019">  1  5  2 -1</clus>
</clustering>
</event>
<event>
 9    2  0.3707658E-005  0.3572329E+03  0.7546771E-02  0.1109756E+00
          2   -1    0    0  502    0 -0.00000000000E+00  0.00000000000E+00  0.32721696350E+03  0.32721696350E+03  0.00000000000E+00 0. -1.
         21   -1    0    0  501  502  0.00000000000E+00 -0.00000000000E+00 -0.20513558358E+03  0.20513558358E+03  0.00000000000E+00 0.  1.
         24    2    1    2    0    0  0.48733244069E+02 -0.31491626986E+01  0.14688150650E+03  0.17425979860E+03  0.80046574908E+02 0.  0.
         23    2    1    2    0    0 -0.72939947004E+02 -0.14482704519E+03 -0.74511179681E+02  0.20012404470E+03  0.90568253170E+02 0.  0.
        -11    1    3    3    0    0 -0.19293273379E+02 -0.12637199293E+02  0.54188414652E+02  0.58892389034E+02  0.00000000000E+00 0.  1.
         12    1    3    3    0    0  0.68026517448E+02  0.94880365943E+01  0.92693091848E+02  0.11536740957E+03  0.00000000000E+00 0. -1.
        -13    1    4    4    0    0 -0.12456002105E+02 -0.63380834428E+02  0.13302379929E+02  0.65948733673E+02  0.00000000000E+00 0. -1.
         13    1    4    4    0    0 -0.60483944900E+02 -0.81446210766E+02 -0.87813559610E+02  0.13417531103E+03  0.00000000000E+00 0.  1.
          1    1    1    2  501    0  0.24206702935E+02  0.14797620789E+03  0.49711053106E+02  0.15796870377E+03  0.00000000000E+00 0. -1.
<scales pt_clust_5="13000.00000" pt_clust_6="13000.00000" pt_clust_7="13000.00000" pt_clust_8="13000.00000" pt_clust_9="13000.00000"></scales>
<clustering>
<clus scale="   80.047">  5  6 -1 -1</clus>
<clus scale="   90.568">  7  8 -1 -1</clus>
<clus scale="   93.767">  1  5  2 -1</clus>
<clus scale="  155.879">  7  9 -1 -1</clus>
<clus scale="  357.233">  2  5  1 -1</clus>
</clustering>
</event>
<event>
 9    2  0.3707658E-005  0.4775575E+03  0.7546771E-02  0.1076268E+00
          2   -1    0    0  502    0 -0.00000000000E+00  0.00000000000E+00  0.92188374002E+03  0.92188374002E+03  0.00000000000E+00 0. -1.
         21   -1    0    0  501  502  0.00000000000E+00 -0.00000000000E+00 -0.16079847036E+03  0.16079847036E+03  0.00000000000E+00 0. -1.
         24    2    1    2    0    0  0.27417467048E+02 -0.44412680176E+02  0.55421592423E+03  0.56224387630E+03  0.78985328372E+02 0.  0.
         23    2    1    2    0    0 -0.65504207898E+01  0.23392568845E+03  0.18384387261E+02  0.25233911107E+03  0.92589986236E+02 0.  0.
        -11    1    3    3    0    0  0.19868782375E+02  0.18132974606E+02  0.95288395491E+02  0.99012381026E+02  0.00000000000E+00 0.  1.
         12    1    3    3    0    0  0.75486846734E+01 -0.62545654782E+02  0.45892752874E+03  0.46323149527E+03  0.00000000000E+00 0. -1.
        -13    1    4    4    0    0 -0.48691501479E+02  0.10048989131E+03  0.51735787732E+01  0.11178482227E+03  0.00000000000E+00 0.  1.
         13    1    4    4    0    0  0.42141080690E+02  0.13343579714E+03  0.13210808488E+02  0.14055428880E+03  0.00000000000E+00 0. -1.
          1    1    1    2  501    0 -0.20867046259E+02 -0.18951300827E+03  0.18848495817E+03  0.26809922301E+03  0.00000000000E+00 0. -1.
<scales pt_clust_5="13000.00000" pt_clust_6="13000.00000" pt_clust_7="13000.00000" pt_clust_8="13000.00000" pt_clust_9="13000.00000"></scales>
<clustering>
<clus scale="   78.985">  5  6 -1 -1</clus>
<clus scale="   92.590">  7  8 -1 -1</clus>
<clus scale="   94.673">  1  5  2 -1</clus>
<clus scale="  217.425">  7  9 -1 -1</clus>
<clus scale="  477.557">  2  5  1 -1</clus>
</clustering>
</event>
<event>
 9    2  0.3707658E-005  0.3939604E+03  0.7546771E-02  0.1100064E+00
         21   -1    0    0  501  502  0.00000000000E+00  0.00000000000E+00  0.39882606949E+03  0.39882606949E+03  0.00000000000E+00 0.  1.
         -3   -1    0    0    0  501 -0.00000000000E+00 -0.00000000000E+00 -0.18078173902E+03  0.18078173902E+03  0.00000000000E+00 0.  1.
         24    2    1    2    0    0 -0.39142790842E+02  0.47650045954E+00 -0.50394688810E+02  0.10288538898E+03  0.80705597558E+02 0.  0.
         23    2    1    2    0    0 -0.93287180959E+02  0.11822182168E+03  0.30734990628E+02  0.17985511862E+03  0.93404104786E+02 0.  0.
        -11    1    3    3    0    0 -0.58073910444E+02  0.36000287467E+01 -0.58083994395E+02  0.82214899416E+02  0.00000000000E+00 0.  1.
         12    1    3    3    0    0  0.18931119601E+02 -0.31235282871E+01  0.76893055849E+01  0.20670489561E+02  0.00000000000E+00 0. -1.
        -13    1    4    4    0    0 -0.48596074565E+02  0.52504509851E+02  0.61787434448E+02  0.94530360591E+02  0.00000000000E+00 0.  1.
         13    1    4    4    0    0 -0.44691106395E+02  0.65717311834E+02 -0.31052443820E+02  0.85324758029E+02  0.00000000000E+00 0. -1.
         -4    1    1    2    0  502  0.13242997180E+03 -0.11869832214E+03  0.23770402866E+03  0.29686730091E+03  0.00000000000E+00 0.  1.
<scales pt_clust_5="13000.00000" pt_clust_6="13000.00000" pt_clust_7="13000.00000" pt_clust_8="13000.00000" pt_clust_9="13000.00000"></scales>
<clustering>
<clus scale="   80.706">  5  6 -1 -1</clus>
<clus scale="   89.698">  2  5  1 -1</clus>
<clus scale="   93.404">  7  8 -1 -1</clus>
<clus scale="  169.628">  7  9 -1 -1</clus>
<clus scale="  393.960">  1  5  2 -1</clus>
</clustering>
</event>
<event>
 9    2  0.3707658E-005  0.5681901E+03  0.7546771E-02  0.1034258E+00
         -1   -1    0    0    0  501 -0.00000000000E+00  0.00000000000E+00  0.63808538558E+03  0.63808538558E+03  0.00000000000E+00 0.  1.
         21   -1    0    0  501  502  0.00000000000E+00 -0.00000000000E+00 -0.22829180554E+03  0.22829180554E+03  0.00000000000E+00 0.  1.
         24    2    1    2    0    0  0.11239155489E+03  0.12286699138E+03  0.40159774942E+02  0.18853570057E+03  0.78770195407E+02 0.  0.
         23    2    1    2    0    0  0.51612914691E+02  0.18727328375E+03  0.17653193981E+03  0.27737577832E+03  0.89658356292E+02 0.  0.
        -13    1    3    3    0    0  0.48005245223E+02  0.92989907217E+02 -0.43739243690E+01  0.10474138450E+03  0.00000000000E+00 0.  1.
         14    1    3    3    0    0  0.64386309669E+02  0.29877084160E+02  0.44533699311E+02  0.83794316066E+02  0.00000000000E+00 0. -1.
        -13    1    4    4    0    0  0.30879049489E+02  0.17630572829E+03  0.17978839429E+03  0.25369488022E+03  0.00000000000E+00 0.  1.
         13    1    4    4    0    0  0.20733865201E+02  0.10967555463E+02 -0.32564544836E+01  0.23680898100E+02  0.00000000000E+00 0. -1.
         -2    1    1    2    0  502 -0.16400446958E+03 -0.31014027513E+03  0.19310186528E+03  0.40046571224E+03  0.00000000000E+00 0.  1.
<scales pt_clust_5="13000.00000" pt_clust_6="13000.00000" pt_clust_7="13000.00000" pt_clust_8="13000.00000" pt_clust_9="13000.00000"></scales>
<clustering>
<clus scale="   78.770">  5  6 -1 -1</clus>
<clus scale="   89.658">  7  8 -1 -1</clus>
<clus scale="  184.209">  1  5  2 -1</clus>
<clus scale="  260.598">  7  9 -1 -1</clus>
<clus scale="  568.190">  2  5  1 -1</clus>
</clustering>
</event>
<event>
 9    2  0.3707658E-005  0.5241555E+03  0.7546771E-02  0.1013713E+00
          2   -1    0    0  502    0 -0.00000000000E+00  0.00000000000E+00  0.80739958235E+03  0.80739958235E+03  0.00000000000E+00 0. -1.
         21   -1    0    0  501  502  0.00000000000E+00 -0.00000000000E+00 -0.36529137371E+03  0.36529137371E+03  0.00000000000E+00 0. -1.
         24    2    1    2    0    0 -0.45300292345E+02  0.42475266430E+03  0.47933231329E+03  0.64721533172E+03  0.81616644962E+02 0.  0.
         23    2    1    2    0    0 -0.26197427110E+01  0.14699564641E+02 -0.26187586772E+02  0.83280649241E+02  0.77633347117E+02 0.  0.
        -11    1    3    3    0    0 -0.46729245363E+02  0.24351503704E+03  0.32749910439E+03  0.41077835753E+03  0.00000000000E+00 0.  1.
         12    1    3    3    0    0  0.14289530182E+01  0.18123762725E+03  0.15183320890E+03  0.23643697419E+03  0.00000000000E+00 0. -1.
        -13    1    4    4    0    0 -0.33101027640E+02  0.11976632734E+02 -0.36766749792E+02  0.50900998544E+02  0.00000000000E+00 0.  1.
         13    1    4    4    0    0  0.30481284929E+02  0.27229319073E+01  0.10579163020E+02  0.32379650698E+02  0.00000000000E+00 0. -1.
          1    1    1    2  501    0  0.47920035056E+02 -0.43945222894E+03 -0.11036517868E+02  0.44219497510E+03  0.00000000000E+00 0. -1.
<scales pt_clust_5="13000.00000" pt_clust_6="13000.00000" pt_clust_7="13000.00000" pt_clust_8="13000.00000" pt_clust_9="13000.00000"></scales>
<clustering>
<clus scale="   77.633">  7  8 -1 -1</clus>
<clus scale="   81.617">  5  6 -1 -1</clus>
<clus scale="  434.889">  1  5  2 -1</clus>
<clus scale="   64.853">  7  9 -1 -1</clus>
<clus scale="  524.156">  2  5  1 -1</clus>
</clustering>
</event>
<event>
 9    2  0.3707658E-005  0.1504034E+03  0.7546771E-02  0.1225458E+00
          2   -1    0    0  502    0 -0.00000000000E+00  0.00000000000E+00  0.24815544008E+03  0.24815544008E+03  0.00000000000E+00 0. -1.
         21   -1    0    0  501  502  0.00000000000E+00 -0.00000000000E+00 -0.20827342129E+03  0.20827342129E+03  0.00000000000E+00 0. -1.
         24    2    1    2    0    0  0.54689239278E+01  0.33094679164E+02  0.21110951760E+03  0.22852525508E+03  0.80817058031E+02 0.  0.
         23    2    1    2    0    0  0.40077251426E+02 -0.30548942811E+01 -0.10486229177E+03  0.14198979210E+03  0.86887757273E+02 0.  0.
        -11    1    3    3    0    0  0.55172699257E+01 -0.26867509337E+02  0.61006862691E+02  0.66889017191E+02  0.00000000000E+00 0.  1.
         12    1    3    3    0    0 -0.48345997930E-01  0.59962188501E+02  0.15010265491E+03  0.16163623789E+03  0.00000000000E+00 0. -1.
        -13    1    4    4    0    0 -0.10311877897E+02 -0.21627634913E+02  0.24097281007E+00  0.23961374868E+02  0.00000000000E+00 0.  1.
         13    1    4    4    0    0  0.50389129323E+02  0.18572740632E+02 -0.10510326458E+03  0.11802841723E+03  0.00000000000E+00 0. -1.
          1    1    1    2  501    0 -0.45546175354E+02 -0.30039784883E+02 -0.66365207037E+02  0.85913814199E+02  0.00000000000E+00 0. -1.
<scales pt_clust_5="13000.00000" pt_clust_6="13000.00000" pt_clust_7="13000.00000" pt_clust_8="13000.00000" pt_clust_9="13000.00000"></scales>
<clustering>
<clus scale="   80.817">  5  6 -1 -1</clus>
<clus scale="   86.888">  7  8 -1 -1</clus>
<clus scale="   54.560">  7  9 -1 -1</clus>
<clus scale="   87.502">  1  5  2 -1</clus>
<clus scale="  150.403">  2  5  1 -1</clus>
</clustering>
</event>
<event>
 9    2  0.3707658E-005  0.3604295E+03  0.7546771E-02  0.1090325E+00
         21   -1    0    0  501  502  0.00000000000E+00  0.00000000000E+00  0.19324489274E+03  0.19324489274E+03  0.00000000000E+00 0.  1.
         -1   -1    0    0    0  501 -0.00000000000E+00 -0.00000000000E+00 -0.35273755057E+03  0.35273755057E+03  0.00000000000E+00 0.  1.
         24    2    1    2    0    0  0.12669070665E+03 -0.16713237515E+02 -0.98540911061E+02  0.18043552447E+03  0.80726698686E+02 0.  0.
         23    2    1    2    0    0  0.12409685794E+02 -0.82498418371E+02 -0.12864694387E+03  0.18176848825E+03  0.97620478483E+02 0.  0.
        -13    1    3    3    0    0  0.10361122241E+03  0.21741164626E+02 -0.62847415207E+02  0.12311686012E+03  0.00000000000E+00 0.  1.
         14    1    3    3    0    0  0.23079484236E+02 -0.38454402140E+02 -0.35693495854E+02  0.57318664350E+02  0.00000000000E+00 0. -1.
        -11    1    4    4    0    0 -0.48163304467E+01 -0.66669012797E+02 -0.18769343496E+02  0.69427966711E+02  0.00000000000E+00 0.  1.
         11    1    4    4    0    0  0.17226016240E+02 -0.15829405574E+02 -0.10987760037E+03  0.11234052154E+03  0.00000000000E+00 0. -1.
         -2    1    1    2    0  502 -0.13910039244E+03  0.99211655886E+02  0.67695197090E+02  0.18377843059E+03  0.00000000000E+00 0.  1.
<scales pt_clust_5="13000.00000" pt_clust_6="13000.00000" pt_clust_7="13000.00000" pt_clust_8="13000.00000" pt_clust_9="13000.00000"></scales>
<clustering>
<clus scale="   80.727">  5  6 -1 -1</clus>
<clus scale="   97.620">  7  8 -1 -1</clus>
<clus scale="  151.151">  2  5  1 -1</clus>
<clus scale="  141.089">  7  9 -1 -1</clus>
<clus scale="  360.430">  1  5  2 -1</clus>
</clustering>
</event>
<event>
 9    2  0.3707658E-005  0.2885604E+03  0.7546771E-02  0.1122444E+00
         21   -1    0    0  501  502  0.00000000000E+00  0.00000000000E+00  0.63605783941E+03  0.63605783941E+03  0.00000000000E+00 0. -1.
          2   -1    0    0  502    0 -0.00000000000E+00 -0.00000000000E+00 -0.77758204457E+02  0.77758204457E+02  0.00000000000E+00 0. -1.
         24    2    1    2    0    0 -0.10178936099E+03 -0.60715255928E+01  0.70925470317E+02  0.14742336576E+03  0.79405849911E+02 0.  0.
         23    2    1    2    0    0  0.15708401598E+03  0.77385870056E+02  0.30375818611E+03  0.36180024871E+03  0.89254822697E+02 0.  0.
        -11    1    3    3    0    0 -0.28652980443E+02 -0.39413592885E+02  0.23522932074E+02  0.54108713954E+02  0.00000000000E+00 0.  1.
         12    1    3    3    0    0 -0.73136380545E+02  0.33342067292E+02  0.47402538243E+02  0.93314651810E+02  0.00000000000E+00 0. -1.
        -13    1    4    4    0    0  0.55991072606E+02 -0.16178310177E+02  0.78627347131E+02  0.97872353852E+02  0.00000000000E+00 0.  1.
         13    1    4    4    0    0  0.10109294337E+03  0.93564180233E+02  0.22513083898E+03  0.26392789486E+03  0.00000000000E+00 0. -1.
          1    1    1    2  501    0 -0.55294654988E+02 -0.71314344463E+02  0.18361597853E+03  0.20459242940E+03  0.00000000000E+00 0. -1.
<scales pt_clust_5="13000.00000" pt_clust_6="13000.00000" pt_clust_7="13000.00000" pt_clust_8="13000.00000" pt_clust_9="13000.00000"></scales>
<clustering>
<clus scale="   79.406">  5  6 -1 -1</clus>
<clus scale="   89.255">  7  8 -1 -1</clus>
<clus scale="   90.240">  7  9 -1 -1</clus>
<clus scale="  129.241">  2  5  1 -1</clus>
<clus scale="  288.560">  1  5  2 -1</clus>
</clustering>
</event>
<event>
 9    2  0.3707658E-005  0.1090768E+04  0.7546771E-02  0.9826343E-01
         21   -1    0    0  501  502  0.00000000000E+00  0.00000000000E+00  0.78905394935E+03  0.78905394935E+03  0.00000000000E+00 0. -1.
          2   -1    0    0  502    0 -0.00000000000E+00 -0.00000000000E+00 -0.54025353451E+03  0.54025353451E+03  0.00000000000E+00 0. -1.
         24    2    1    2    0    0  0.19459134773E+02 -0.99347385386E+02 -0.12167415779E+03  0.17734169541E+03  0.79980718603E+02 0.  0.
         23    2    1    2    0    0 -0.41487553301E+03  0.11816601388E+03  0.56021666205E+03  0.71297794207E+03  0.91705630717E+02 0.  0.
        -13    1    3    3    0    0  0.14226059874E+02 -0.76321224466E+02 -0.13073538603E+03  0.15204950261E+03  0.00000000000E+00 0.  1.
         14    1    3    3    0    0  0.52330748989E+01 -0.23026160920E+02  0.90612282376E+01  0.25292192803E+02  0.00000000000E+00 0. -1.
        -13    1    4    4    0    0 -0.39533450353E+03  0.12829075991E+03  0.54805977626E+03  0.68783530522E+03  0.00000000000E+00 0. -1.
         13    1    4    4    0    0 -0.19541029479E+02 -0.10124746028E+02  0.12156885797E+02  0.25142636845E+02  0.00000000000E+00 0.  1.
          1    1    1    2  501    0  0.39541639823E+03 -0.18818628496E+02 -0.18974208942E+03  0.43898784638E+03  0.00000000000E+00 0. -1.
<scales pt_clust_5="13000.00000" pt_clust_6="13000.00000" pt_clust_7="13000.00000" pt_clust_8="13000.00000" pt_clust_9="13000.00000"></scales>
<clustering>
<clus scale="   79.981">  5  6 -1 -1</clus>
<clus scale="   91.706">  7  8 -1 -1</clus>
<clus scale="  129.017">  2  5  1 -1</clus>
<clus scale="  422.766">  7  9 -1 -1</clus>
<clus scale=" 1090.768">  1  5  2 -1</clus>
</clustering>
</event>
<event>
 9    2  0.3707658E-005  0.4735377E+03  0.7546771E-02  0.1072135E+00
          2   -1    0    0  502    0 -0.00000000000E+00  0.00000000000E+00  0.40889277230E+03  0.40889277230E+03  0.00000000000E+00 0. -1.
         21   -1    0    0  501  502  0.00000000000E+00 -0.00000000000E+00 -0.21519520459E+03  0.21519520459E+03  0.00000000000E+00 0. -1.
         24    2    1    2    0    0 -0.10406397836E+02 -0.73122402999E+02  0.85674507280E+02  0.13838547251E+03  0.79719752064E+02 0.  0.
         23    2    1    2    0    0  0.13296897918E+03 -0.17689442152E+02  0.23569092009E+03  0.28678679370E+03  0.93288742294E+02 0.  0.
        -11    1    3    3    0    0 -0.20461558448E+02 -0.86824619212E+02  0.81628200359E+02  0.12091465159E+03  0.00000000000E+00 0.  1.
         12    1    3    3    0    0  0.10055160611E+02  0.13702216213E+02  0.40463069209E+01  0.17470820924E+02  0.00000000000E+00 0. -1.
        -11    1    4    4    0    0  0.51896094064E+02  0.25436203912E+02  0.39019776186E+02  0.69733406501E+02  0.00000000000E+00 0.  1.
         11    1    4    4    0    0  0.81072885117E+02 -0.43125646064E+02  0.19667114390E+03  0.21705338720E+03  0.00000000000E+00 0. -1.
          1    1    1    2  501    0 -0.12256258135E+03  0.90811845151E+02 -0.12766785966E+03  0.19891571068E+03  0.00000000000E+00 0. -1.
<scales pt_clust_5="13000.00000" pt_clust_6="13000.00000" pt_clust_7="13000.00000" pt_clust_8="13000.00000" pt_clust_9="13000.00000"></scales>
<clustering>
<clus scale="   79.720">  5  6 -1 -1</clus>
<clus scale="   93.289">  7  8 -1 -1</clus>
<clus scale="  108.676">  1  5  2 -1</clus>
<clus scale="  148.524">  7  9 -1 -1</clus>
<clus scale="  473.538">  2  5  1 -1</clus>
</clustering>
</event>
<event>
 9    2  0.3707658E-005  0.7977959E+03  0.7546771E-02  0.9828984E-01
         21   -1    0    0  501  502  0.00000000000E+00  0.00000000000E+00  0.40496427747E+03  0.40496427747E+03  0.00000000000E+00 0. -1.
          2   -1    0    0  502    0 -0.00000000000E+00 -0.00000000000E+00 -0.78203273022E+03  0.78203273022E+03  0.00000000000E+00 0. -1.
         24    2    1    2    0    0 -0.31626271940E+03  0.49737664271E+01 -0.89261237853E+02  0.33887476304E+03  0.82593525229E+02 0.  0.
         23    2    1    2    0    0 -0.15824544284E+03 -0.32953029505E+02  0.12131113651E+03  0.22097101835E+03  0.89354780387E+02 0.  0.
        -13    1    3    3    0    0 -0.81148030256E+02 -0.28039513620E+02 -0.46480213713E+02  0.97630053801E+02  0.00000000000E+00 0.  1.
         14    1    3    3    0    0 -0.23511468914E+03  0.33013280047E+02 -0.42781024140E+02  0.24124470924E+03  0.00000000000E+00 0. -1.
        -13    1    4    4    0    0 -0.96071293669E+02 -0.98160639452E+01  0.12076476189E+03  0.15462915732E+03  0.00000000000E+00 0. -1.
         13    1    4    4    0    0 -0.62174149166E+02 -0.23136965560E+02  0.54637461771E+00  0.66341861031E+02  0.00000000000E+00 0.  1.
          1    1    1    2  501    0  0.47450816223E+03  0.27979263078E+02 -0.40911835140E+03  0.62715122629E+03  0.00000000000E+00 0. -1.
<scales pt_clust_5="13000.00000" pt_clust_6="13000.00000" pt_clust_7="13000.00000" pt_clust_8="13000.00000" pt_clust_9="13000.00000"></scales>
<clustering>
<clus scale="   82.594">  5  6 -1 -1</clus>
<clus scale="   89.355">  7  8 -1 -1</clus>
<clus scale="  326.908">  2  5  1 -1</clus>
<clus scale="  188.814">  7  9 -1 -1</clus>
<clus scale="  797.796">  1  5  2 -1</clus>
</clustering>
</event>
<event>
 9    2  0.3707658E-005  0.4882040E+03  0.7546771E-02  0.1066660E+00
         21   -1    0    0  501  502  0.00000000000E+00  0.00000000000E+00  0.13319488383E+03  0.13319488383E+03  0.00000000000E+00 0. -1.
          2   -1    0    0  502    0 -0.00000000000E+00 -0.00000000000E+00 -0.83391404659E+03  0.83391404659E+03  0.00000000000E+00 0. -1.
         24    2    1    2    0    0 -0.25688832605E+02 -0.76635914792E+02 -0.34306433057E+03  0.36191461226E+03  0.82195328953E+02 0.  0.
         23    2    1    2    0    0 -0.15068125656E+03  0.11717983772E+03 -0.36852302294E+03  0.42389805341E+03  0.86280854199E+02 0.  0.
        -13    1    3    3    0    0  0.27493134078E+02 -0.22528604564E+02 -0.15707782996E+03  0.16104923194E+03  0.00000000000E+00 0.  1.
         14    1    3    3    0    0 -0.53181966683E+02 -0.54107310228E+02 -0.18598650061E+03  0.20086538032E+03  0.00000000000E+00 0. -1.
        -11    1    4    4    0    0 -0.32112164006E+02  0.73335521855E+02 -0.10919807625E+03  0.13540129135E+03  0.00000000000E+00 0.  1.
         11    1    4    4    0    0 -0.11856909255E+03  0.43844315868E+02 -0.25932494669E+03  0.28849676206E+03  0.00000000000E+00 0. -1.
          1    1    1    2  501    0  0.17637008916E+03 -0.40543922931E+02  0.10868190754E+02  0.18129626474E+03  0.00000000000E+00 0. -1.
<scales pt_clust_5="13000.00000" pt_clust_6="13000.00000" pt_clust_7="13000.00000" pt_clust_8="13000.00000" pt_clust_9="13000.00000"></scales>
<clustering>
<clus scale="   82.195">  5  6 -1 -1</clus>
<clus scale="   86.281">  7  8 -1 -1</clus>
<clus scale="  115.278">  2  5  1 -1</clus>
<clus scale="  180.141">  7  9 -1 -1</clus>
<clus scale="  488.204">  1  5  2 -1</clus>
</clustering>
</event>
<event>
 9    2  0.3707658E-005  0.2003576E+03  0.7546771E-02  0.1176347E+00
         21   -1    0    0  501  502  0.00000000000E+00  0.00000000000E+00  0.52939515885E+02  0.52939515885E+02  0.00000000000E+00 0. -1.
          2   -1    0    0  502    0 -0.00000000000E+00 -0.00000000000E+00 -0.80749493372E+03  0.80749493372E+03  0.00000000000E+00 0. -1.
         24    2    1    2    0    0 -0.42100109779E+02  0.55546844493E+02 -0.59413244419E+03  0.60376596180E+03  0.81744138650E+02 0.  0.
         23    2    1    2    0    0  0.35326732468E+02  0.31769044439E+02 -0.56531352328E+02  0.12078834916E+03  0.95586512046E+02 0.  0.
        -11    1    3    3    0    0 -0.32980836602E+02 -0.11179480876E+02 -0.12265312134E+03  0.12750099823E+03  0.00000000000E+00 0.  1.
         12    1    3    3    0    0 -0.91192731774E+01  0.66726325369E+02 -0.47147932286E+03  0.47626496357E+03  0.00000000000E+00 0. -1.
        -11    1    4    4    0    0  0.12654935420E+02  0.40483324830E+02 -0.77730169608E+02  0.88549569434E+02  0.00000000000E+00 0.  1.
         11    1    4    4    0    0  0.22671797048E+02 -0.87142803906E+01  0.21198817279E+02  0.32238779725E+02  0.00000000000E+00 0. -1.
          1    1    1    2  501    0  0.67733773116E+01 -0.87315888932E+02 -0.10389162131E+03  0.13588013865E+03  0.00000000000E+00 0. -1.
<scales pt_clust_5="13000.00000" pt_clust_6="13000.00000" pt_clust_7="13000.00000" pt_clust_8="13000.00000" pt_clust_9="13000.00000"></scales>
<clustering>
<clus scale="   81.744">  5  6 -1 -1</clus>
<clus scale="   95.587">  7  8 -1 -1</clus>
<clus scale="   87.578">  7  9 -1 -1</clus>
<clus scale="  107.424">  2  5  1 -1</clus>
<clus scale="  200.358">  1  5  2 -1</clus>
</clustering>
</event>
<event>
 9    2  0.3707658E-005  0.3905462E+03  0.7546771E-02  0.1066594E+00
         21   -1    0    0  501  502  0.00000000000E+00  0.00000000000E+00  0.20270449659E+03  0.20270449659E+03  0.00000000000E+00 0.  1.
         -3   -1    0    0    0  501 -0.00000000000E+00 -0.00000000000E+00 -0.77477321836E+03  0.77477321836E+03  0.00000000000E+00 0.  1.
         24    2    1    2    0    0 -0.12709288713E+03  0.16725843799E+03  0.60949345350E+02  0.23367787136E+03  0.82234651025E+02 0.  0.
         23    2    1    2    0    0  0.91556138619E+02  0.42830578454E+02 -0.42390537718E+03  0.44525609065E+03  0.91324873324E+02 0.  0.
        -13    1    3    3    0    0 -0.12085621560E+03  0.11702336260E+03  0.70078116712E+02  0.18224059560E+03  0.00000000000E+00 0.  1.
         14    1    3    3    0    0 -0.62366715290E+01  0.50235075394E+02 -0.91287713618E+01  0.51437275765E+02  0.00000000000E+00 0. -1.
        -11    1    4    4    0    0  0.25196671810E+01  0.24843768702E+02 -0.22212359080E+02  0.33420808816E+02  0.00000000000E+00 0.  1.
         11    1    4    4    0    0  0.89036471438E+02  0.17986809752E+02 -0.40169301810E+03  0.41183528184E+03  0.00000000000E+00 0. -1.
         -4    1    1    2    0  502  0.35536748511E+02 -0.21008901644E+03 -0.20911268993E+03  0.29854375293E+03  0.00000000000E+00 0.  1.
<scales pt_clust_5="13000.00000" pt_clust_6="13000.00000" pt_clust_7="13000.00000" pt_clust_8="13000.00000" pt_clust_9="13000.00000"></scales>
<clustering>
<clus scale="   82.235">  5  6 -1 -1</clus>
<clus scale="   91.325">  7  8 -1 -1</clus>
<clus scale="  213.073">  7  9 -1 -1</clus>
<clus scale="  225.589">  2  5  1 -1</clus>
<clus scale="  390.546">  1  5  2 -1</clus>
</clustering>
</event>
<event>
 9    2  0.3707658E-005  0.2790021E+03  0.7546771E-02  0.1108182E+00
          2   -1    0    0  502    0 -0.00000000000E+00  0.00000000000E+00  0.14200464582E+04  0.14200464582E+04  0.00000000000E+00 0. -1.
         21   -1    0    0  501  502  0.00000000000E+00 -0.00000000000E+00 -0.42654797740E+02  0.42654797740E+02  0.00000000000E+00 0.  1.
         24    2    1    2    0    0  0.16395555159E+03 -0.94420772855E+02  0.71921572397E+03  0.74783224052E+03  0.78645388365E+02 0.  0.
         23    2    1    2    0    0 -0.18576014805E+03  0.55250158522E+02  0.62058852184E+03  0.65636609929E+03  0.90149488271E+02 0.  0.
        -11    1    3    3    0    0  0.16537465780E+03 -0.70096027339E+02  0.65386665957E+03  0.67808837108E+03  0.00000000000E+00 0.  1.
         12    1    3    3    0    0 -0.14191062137E+01 -0.24324745516E+02  0.65349064398E+02  0.69743869441E+02  0.00000000000E+00 0. -1.
        -11    1    4    4    0    0 -0.18520374915E+03  0.29032770902E+02  0.53943344472E+03  0.57107947937E+03  0.00000000000E+00 0.  1.
         11    1    4    4    0    0 -0.55639890243E+00  0.26217387621E+02  0.81155077123E+02  0.85286619913E+02  0.00000000000E+00 0. -1.
          1    1    1    2  501    0  0.21804596459E+02  0.39170614333E+02  0.37587414604E+02  0.58502916086E+02  0.00000000000E+00 0. -1.
<scales pt_clust_5="13000.00000" pt_clust_6="13000.00000" pt_clust_7="13000.00000" pt_clust_8="13000.00000" pt_clust_9="13000.00000"></scales>
<clustering>
<clus scale="   78.645">  5  6 -1 -1</clus>
<clus scale="   90.149">  7  8 -1 -1</clus>
<clus scale="   44.831">  7  9 -1 -1</clus>
<clus scale="  204.895">  1  5  2 -1</clus>
<clus scale="  279.002">  2  5  1 -1</clus>
</clustering>
</event>
<event>
 9    2  0.3707658E-005  0.1888925E+03  0.7546771E-02  0.1193869E+00
         21   -1    0    0  501  502  0.00000000000E+00  0.00000000000E+00  0.23657156141E+03  0.23657156141E+03  0.00000000000E+00 0.  1.
          2   -1    0    0  502    0 -0.00000000000E+00 -0.00000000000E+00 -0.11654698890E+03  0.11654698890E+03  0.00000000000E+00 0. -1.
         24    2    1    2    0    0 -0.30229123777E+02  0.39443190377E-01  0.13838786106E+03  0.16333550564E+03  0.81323341267E+02 0.  0.
         23    2    1    2    0    0 -0.22105335135E+02 -0.25728739914E+02  0.43082604043E+02  0.10508101830E+03  0.89639811115E+02 0.  0.
        -11    1    3    3    0    0  0.26574636750E+02 -0.84374268030E+01  0.32062029859E+02  0.42489707555E+02  0.00000000000E+00 0.  1.
         12    1    3    3    0    0 -0.56803760527E+02  0.84768699934E+01  0.10632583120E+03  0.12084579808E+03  0.00000000000E+00 0. -1.
        -11    1    4    4    0    0  0.24589418094E+02  0.13121519435E+02  0.33513549833E+02  0.43588665693E+02  0.00000000000E+00 0. -1.
         11    1    4    4    0    0 -0.46694753229E+02 -0.38850259350E+02  0.95690542100E+01  0.61492352607E+02  0.00000000000E+00 0.  1.
          1    1    1    2  501    0  0.52334458912E+02  0.25689296724E+02 -0.61445892592E+02  0.84702026376E+02  0.00000000000E+00 0. -1.
<scales pt_clust_5="13000.00000" pt_clust_6="13000.00000" pt_clust_7="13000.00000" pt_clust_8="13000.00000" pt_clust_9="13000.00000"></scales>
<clustering>
<clus scale="   81.323">  5  6 -1 -1</clus>
<clus scale="   86.760">  2  5  1 -1</clus>
<clus scale="   89.640">  7  8 -1 -1</clus>
<clus scale="   40.363">  7  9 -1 -1</clus>
<clus scale="  188.893">  1  5  2 -1</clus>
</clustering>
</event>
<event>
 9    2  0.3707658E-005  0.2833410E+03  0.7546771E-02  0.1139989E+00
         -3   -1    0    0    0  501 -0.00000000000E+00  0.00000000000E+00  0.16815754017E+03  0.16815754017E+03  0.00000000000E+00 0.  1.
         21   -1    0    0  501  502  0.00000000000E+00 -0.00000000000E+00 -0.47376600387E+03  0.47376600387E+03  0.00000000000E+00 0.  1.
         24    2    1    2    0    0  0.19451837394E+02 -0.33055813750E+02  0.10846760150E+03  0.14018547317E+03  0.80097974470E+02 0.  0.
         23    2    1    2    0    0 -0.67512576023E+02 -0.44190332737E+02 -0.58215244007E+02  0.13443203252E+03  0.90400350137E+02 0.  0.
        -11    1    3    3    0    0  0.31214677018E+02 -0.51836769619E+02  0.99128875397E+02  0.11613759376E+03  0.00000000000E+00 0.  1.
         12    1    3    3    0    0 -0.11762839624E+02  0.18780955870E+02  0.93387260991E+01  0.24047879419E+02  0.00000000000E+00 0. -1.
        -13    1    4    4    0    0  0.20070606997E+02  0.24100217049E+01 -0.17759635471E+01  0.20292646855E+02  0.00000000000E+00 0. -1.
         13    1    4    4    0    0 -0.87583183020E+02 -0.46600354442E+02 -0.56439280460E+02  0.11413938567E+03  0.00000000000E+00 0.  1.
         -4    1    1    2    0  502  0.48060738628E+02  0.77246146487E+02 -0.35586082119E+03  0.36730603834E+03  0.00000000000E+00 0.  1.
<scales pt_clust_5="13000.00000" pt_clust_6="13000.00000" pt_clust_7="13000.00000" pt_clust_8="13000.00000" pt_clust_9="13000.00000"></scales>
<clustering>
<clus scale="   80.098">  5  6 -1 -1</clus>
<clus scale="   88.807">  1  5  2 -1</clus>
<clus scale="   90.400">  7  8 -1 -1</clus>
<clus scale="   88.765">  7  9 -1 -1</clus>
<clus scale="  283.341">  2  5  1 -1</clus>
</clustering>
</event>
<event>
 9    2  0.3707658E-005  0.3689022E+03  0.7546771E-02  0.1109634E+00
         21   -1    0    0  501  502  0.00000000000E+00  0.00000000000E+00  0.10949937460E+03  0.10949937460E+03  0.00000000000E+00 0. -1.
          2   -1    0    0  502    0 -0.00000000000E+00 -0.00000000000E+00 -0.52402963076E+03  0.52402963076E+03  0.00000000000E+00 0. -1.
         24    2    1    2    0    0 -0.29264034970E+02 -0.25576518612E+01 -0.99158544343E+01  0.85987546840E+02  0.80203545536E+02 0.  0.
         23    2    1    2    0    0  0.78629300088E+02 -0.12833365240E+03 -0.79890291242E+02  0.19396655717E+03  0.92674017363E+02 0.  0.
        -11    1    3    3    0    0 -0.77880222217E+01  0.36477671361E+02  0.76860476776E+01  0.38083449514E+02  0.00000000000E+00 0.  1.
         12    1    3    3    0    0 -0.21476012748E+02 -0.39035323222E+02 -0.17601902112E+02  0.47904097325E+02  0.00000000000E+00 0. -1.
        -13    1    4    4    0    0 -0.10458728803E+02 -0.66664839685E+02 -0.40370033658E+02  0.78634124119E+02  0.00000000000E+00 0.  1.
         13    1    4    4    0    0  0.89088028891E+02 -0.61668812713E+02 -0.39520257584E+02  0.11533243305E+03  0.00000000000E+00 0. -1.
          1    1    1    2  501    0 -0.49365265118E+02  0.13089130426E+03 -0.32472411049E+03  0.35357490135E+03  0.00000000000E+00 0. -1.
<scales pt_clust_5="13000.00000" pt_clust_6="13000.00000" pt_clust_7="13000.00000" pt_clust_8="13000.00000" pt_clust_9="13000.00000"></scales>
<clustering>
<clus scale="   80.204">  5  6 -1 -1</clus>
<clus scale="   85.414">  2  5  1 -1</clus>
<clus scale="   92.674">  7  8 -1 -1</clus>
<clus scale="  146.931">  7  9 -1 -1</clus>
<clus scale="  368.902">  1  5  2 -1</clus>
</clustering>
</event>
<event>
 9    2  0.3707658E-005  0.3795889E+03  0.7546771E-02  0.1082574E+00
         21   -1    0    0  501  502  0.00000000000E+00  0.00000000000E+00  0.65058388865E+02  0.65058388865E+02  0.00000000000E+00 0. -1.
          2   -1    0    0  502    0 -0.00000000000E+00 -0.00000000000E+00 -0.11184758376E+04  0.11184758376E+04  0.00000000000E+00 0. -1.
         24    2    1    2    0    0 -0.40837169149E+02 -0.13134757495E+03 -0.28102573523E+03  0.32290846453E+03  0.79840796398E+02 0.  0.
         23    2    1    2    0    0 -0.54539597430E+02  0.74233891435E+01 -0.43714297762E+02  0.11535755006E+03  0.91469941139E+02 0.  0.
        -13    1    3    3    0    0 -0.37023973553E+01 -0.39486042164E+02 -0.21501346704E+02  0.45112782912E+02  0.00000000000E+00 0.  1.
         14    1    3    3    0    0 -0.37134771794E+02 -0.91861532789E+02 -0.25952438853E+03  0.27779568161E+03  0.00000000000E+00 0. -1.
        -13    1    4    4    0    0 -0.26086657452E+02  0.12724682297E+02 -0.70301077826E+02  0.76057036362E+02  0.00000000000E+00 0.  1.
         13    1    4    4    0    0 -0.28452939978E+02 -0.53012931531E+01  0.26586780065E+02  0.39300513695E+02  0.00000000000E+00 0. -1.
          1    1    1    2  501    0  0.95376766579E+02  0.12392418581E+03 -0.72867741572E+03  0.74526821186E+03  0.00000000000E+00 0. -1.
<scales pt_clust_5="13000.00000" pt_clust_6="13000.00000" pt_clust_7="13000.00000" pt_clust_8="13000.00000" pt_clust_9="13000.00000"></scales>
<clustering>
<clus scale="   79.841">  5  6 -1 -1</clus>
<clus scale="   91.470">  7  8 -1 -1</clus>
<clus scale="  156.378">  7  9 -1 -1</clus>
<clus scale="  159.042">  2  5  1 -1</clus>
<clus scale="  379.589">  1  5  2 -1</clus>
</clustering>
</event>
<event>
 9    2  0.3707658E-005  0.3236910E+03  0.7546771E-02  0.1083737E+00
          2   -1    0    0  502    0 -0.00000000000E+00  0.00000000000E+00  0.79775231054E+03  0.79775231054E+03  0.00000000000E+00 0. -1.
         21   -1    0    0  501  502  0.00000000000E+00 -0.00000000000E+00 -0.10271204301E+03  0.10271204301E+03  0.00000000000E+00 0.  1.
         24    2    1    2    0    0  0.14801100969E+03  0.18219225931E+03  0.31350121829E+03  0.40011658224E+03  0.81908407189E+02 0.  0.
         23    2    1    2    0    0 -0.56071296650E+02 -0.12329254413E+03  0.78842060855E+02  0.17855971365E+03  0.85571368072E+02 0.  0.
        -13    1    3    3    0    0  0.15656285793E+03  0.18086535445E+03  0.30747767646E+03  0.38957249190E+03  0.00000000000E+00 0.  1.
         14    1    3    3    0    0 -0.85518482400E+01  0.13269048633E+01  0.60235418252E+01  0.10544090333E+02  0.00000000000E+00 0. -1.
        -11    1    4    4    0    0 -0.24152076750E+02  0.80521833842E+00  0.36178336335E+02  0.43506817947E+02  0.00000000000E+00 0.  1.
         11    1    4    4    0    0 -0.31919219901E+02 -0.12409776246E+03  0.42663724519E+02  0.13505289570E+03  0.00000000000E+00 0. -1.
          1    1    1    2  501    0 -0.91939713042E+02 -0.58899715185E+02  0.30269698838E+03  0.32178805767E+03  0.00000000000E+00 0. -1.
<scales pt_clust_5="13000.00000" pt_clust_6="13000.00000" pt_clust_7="13000.00000" pt_clust_8="13000.00000" pt_clust_9="13000.00000"></scales>
<clustering>
<clus scale="   81.908">  5  6 -1 -1</clus>
<clus scale="   85.571">  7  8 -1 -1</clus>
<clus scale="  109.188">  7  9 -1 -1</clus>
<clus scale="  248.617">  1  5  2 -1</clus>
<clus scale="  323.691">  2  5  1 -1</clus>
</clustering>
</event>
<event>
 9    2  0.3707658E-005  0.1786046E+03  0.7546771E-02  0.1179567E+00
          2   -1    0    0  502    0 -0.00000000000E+00  0.00000000000E+00  0.52420445526E+03  0.52420445526E+03  0.00000000000E+00 0. -1.
         21   -1    0    0  501  502  0.00000000000E+00 -0.00000000000E+00 -0.49344059044E+02  0.49344059044E+02  0.00000000000E+00 0. -1.
         24    2    1    2    0    0  0.66730250944E+02  0.94412788692E+02  0.24180946380E+03  0.27992913459E+03  0.80757677940E+02 0.  0.
         23    2    1    2    0    0 -0.14898070135E+02 -0.26064168763E+02  0.10168240460E+03  0.13672515129E+03  0.86331698717E+02 0.  0.
        -11    1    3    3    0    0  0.26930809657E+02  0.33735456688E+02  0.21996041153E+02  0.48447656013E+02  0.00000000000E+00 0.  1.
         12    1    3    3    0    0  0.39799441287E+02  0.60677332004E+02  0.21981342265E+03  0.23148147857E+03  0.00000000000E+00 0. -1.
        -13    1    4    4    0    0 -0.34915917627E+02 -0.15805273955E+01  0.53805773555E+01  0.35363398921E+02  0.00000000000E+00 0. -1.
         13    1    4    4    0    0  0.20017847492E+02 -0.24483641368E+02  0.96301827246E+02  0.10136175237E+03  0.00000000000E+00 0.  1.
          1    1    1    2  501    0 -0.51832180809E+02 -0.68348619929E+02  0.13136852781E+03  0.15689422843E+03  0.00000000000E+00 0. -1.
<scales pt_clust_5="13000.00000" pt_clust_6="13000.00000" pt_clust_7="13000.00000" pt_clust_8="13000.00000" pt_clust_9="13000.00000"></scales>
<clustering>
<clus scale="   80.758">  5  6 -1 -1</clus>
<clus scale="   86.332">  7  8 -1 -1</clus>
<clus scale="   85.779">  7  9 -1 -1</clus>
<clus scale="  141.027">  1  5  2 -1</clus>
<clus scale="  178.605">  2  5  1 -1</clus>
</clustering>
</event>
<event>
 9    2  0.3707658E-005  0.3274584E+03  0.7546771E-02  0.1089164E+00
         -1   -1    0    0    0  501 -0.00000000000E+00  0.00000000000E+00  0.94141057703E+03  0.94141057703E+03  0.00000000000E+00 0.  1.
         21   -1    0    0  501  502  0.00000000000E+00 -0.00000000000E+00 -0.76323023800E+02  0.76323023800E+02  0.00000000000E+00 0. -1.
         24    2    1    2    0    0  0.13057804317E+03  0.14038786100E+03  0.30909042084E+03  0.37247256889E+03  0.80246803331E+02 0.  0.
         23    2    1    2    0    0  0.11315682375E+02 -0.79118492827E+02  0.42718734595E+03  0.44406529165E+03  0.91198542420E+02 0.  0.
        -13    1    3    3    0    0  0.37957681948E+02  0.75784373878E+02  0.77642251928E+02  0.11494510093E+03  0.00000000000E+00 0.  1.
         14    1    3    3    0    0  0.92620361222E+02  0.64603487127E+02  0.23144816892E+03  0.25752746797E+03  0.00000000000E+00 0. -1.
        -11    1    4    4    0    0  0.47807034646E+02 -0.51470571588E+02  0.19162628998E+03  0.20409646570E+03  0.00000000000E+00 0.  1.
         11    1    4    4    0    0 -0.36491352272E+02 -0.27647921239E+02  0.23556105597E+03  0.23996882595E+03  0.00000000000E+00 0. -1.
         -2    1    1    2    0  502 -0.14189372554E+03 -0.61269368178E+02  0.12880978644E+03  0.20119574029E+03  0.00000000000E+00 0.  1.
<scales pt_clust_5="13000.00000" pt_clust_6="13000.00000" pt_clust_7="13000.00000" pt_clust_8="13000.00000" pt_clust_9="13000.00000"></scales>
<clustering>
<clus scale="   80.247">  5  6 -1 -1</clus>
<clus scale="   91.199">  7  8 -1 -1</clus>
<clus scale="  154.557">  7  9 -1 -1</clus>
<clus scale="  207.844">  1  5  2 -1</clus>
<clus scale="  327.458">  2  5  1 -1</clus>
</clustering>
</event>
<event>
 9    2  0.3707658E-005  0.2323241E+03  0.7546771E-02  0.1165160E+00
         21   -1    0    0  501  502  0.00000000000E+00  0.00000000000E+00  0.12745941097E+03  0.12745941097E+03  0.00000000000E+00 0. -1.
          2   -1    0    0  502    0 -0.00000000000E+00 -0.00000000000E+00 -0.29080043345E+03  0.29080043345E+03  0.00000000000E+00 0. -1.
         24    2    1    2    0    0 -0.32116061623E+02  0.28554120019E+02  0.50673457711E+02  0.10238536181E+03  0.77898548207E+02 0.  0.
         23    2    1    2    0    0  0.57594512814E+02  0.34013020689E-01 -0.24238696234E+03  0.26821495502E+03  0.99351363967E+02 0.  0.
        -11    1    3    3    0    0 -0.33976003173E+02 -0.20518972001E+02  0.25772588118E+02  0.47324658498E+02  0.00000000000E+00 0.  1.
         12    1    3    3    0    0  0.18599415501E+01  0.49073092020E+02  0.24900869593E+02  0.55060703314E+02  0.00000000000E+00 0. -1.
        -11    1    4    4    0    0  0.47089475388E+02 -0.18851454886E+02 -0.24130385246E+03  0.24657726022E+03  0.00000000000E+00 0. -1.
         11    1    4    4    0    0  0.10505037426E+02  0.18885467906E+02 -0.10831098762E+01  0.21637694802E+02  0.00000000000E+00 0.  1.
          1    1    1    2  501    0 -0.25478451191E+02 -0.28588133040E+02  0.28372482152E+02  0.47659527581E+02  0.00000000000E+00 0. -1.
<scales pt_clust_5="13000.00000" pt_clust_6="13000.00000" pt_clust_7="13000.00000" pt_clust_8="13000.00000" pt_clust_9="13000.00000"></scales>
<clustering>
<clus scale="   77.899">  5  6 -1 -1</clus>
<clus scale="   88.966">  2  5  1 -1</clus>
<clus scale="   99.351">  7  8 -1 -1</clus>
<clus scale="   38.328">  7  9 -1 -1</clus>
<clus scale="  232.324">  1  5  2 -1</clus>
</clustering>
</event>
<event>
 9    2  0.3707658E-005  0.2898395E+03  0.7546771E-02  0.1106663E+00
         21   -1    0    0  501  502  0.00000000000E+00  0.00000000000E+00  0.88157145249E+02  0.88157145249E+02  0.00000000000E+00 0. -1.
          2   -1    0    0  502    0 -0.00000000000E+00 -0.00000000000E+00 -0.96386021928E+03  0.96386021928E+03  0.00000000000E+00 0. -1.
         24    2    1    2    0    0  0.64219968813E+02  0.16042408713E+03 -0.81806289822E+02  0.20686704832E+03  0.79003889156E+02 0.  0.
         23    2    1    2    0    0  0.51219244161E+02 -0.33854762497E+02 -0.41430829606E+03  0.42869692606E+03  0.91433770071E+02 0.  0.
        -11    1    3    3    0    0  0.34834646415E+02  0.58446429175E+02 -0.73890531201E+02  0.10044525014E+03  0.00000000000E+00 0.  1.
         12    1    3    3    0    0  0.29385322398E+02  0.10197765796E+03 -0.79157586213E+01  0.10642179819E+03  0.00000000000E+00 0. -1.
        -11    1    4    4    0    0  0.38204830834E+02 -0.64411430444E+02 -0.32204055237E+03  0.33063357186E+03  0.00000000000E+00 0. -1.
         11    1    4    4    0    0  0.13014413327E+02  0.30556667947E+02 -0.92267743694E+02  0.98063354198E+02  0.00000000000E+00 0.  1.
          1    1    1    2  501    0 -0.11543921297E+03 -0.12656932463E+03 -0.37958848815E+03  0.41645339015E+03  0.00000000000E+00 0. -1.
<scales pt_clust_5="13000.00000" pt_clust_6="13000.00000" pt_clust_7="13000.00000" pt_clust_8="13000.00000" pt_clust_9="13000.00000"></scales>
<clustering>
<clus scale="   79.004">  5  6 -1 -1</clus>
<clus scale="   91.434">  7  8 -1 -1</clus>
<clus scale="  171.307">  7  9 -1 -1</clus>
<clus scale="  190.005">  2  5  1 -1</clus>
<clus scale="  289.840">  1  5  2 -1</clus>
</clustering>
</event>
<event>
 9    2  0.3707658E-005  0.1910076E+03  0.7546771E-02  0.1182651E+00
         21   -1    0    0  501  502  0.00000000000E+00  0.00000000000E+00  0.90988535885E+03  0.90988535885E+03  0.00000000000E+00 0. -1.
          2   -1    0    0  502    0 -0.00000000000E+00 -0.00000000000E+00 -0.48430760885E+02  0.48430760885E+02  0.00000000000E+00 0. -1.
         24    2    1    2    0    0 -0.44058999384E+02 -0.57076703021E+02  0.39743647423E+02  0.11469725546E+03  0.79855854171E+02 0.  0.
         23    2    1    2    0    0 -0.25507029588E+02 -0.54752354431E+00  0.30872575339E+03  0.32274095500E+03  0.90549571429E+02 0.  0.
        -13    1    3    3    0    0 -0.12952791249E+02 -0.27968686167E+02  0.60054154826E+02  0.67502027517E+02  0.00000000000E+00 0.  1.
         14    1    3    3    0    0 -0.31106208135E+02 -0.29108016854E+02 -0.20310507403E+02  0.47195227944E+02  0.00000000000E+00 0. -1.
        -11    1    4    4    0    0  0.27286900227E+02 -0.17937621391E+02  0.64807901823E+02  0.72569947801E+02  0.00000000000E+00 0.  1.
         11    1    4    4    0    0 -0.52793929816E+02  0.17390097846E+02  0.24391785157E+03  0.25017100720E+03  0.00000000000E+00 0. -1.
          1    1    1    2  501    0  0.69566028972E+02  0.57624226566E+02  0.51298519716E+03  0.52087790928E+03  0.00000000000E+00 0. -1.
<scales pt_clust_5="13000.00000" pt_clust_6="13000.00000" pt_clust_7="13000.00000" pt_clust_8="13000.00000" pt_clust_9="13000.00000"></scales>
<clustering>
<clus scale="   79.856">  5  6 -1 -1</clus>
<clus scale="   90.550">  7  8 -1 -1</clus>
<clus scale="   90.333">  7  9 -1 -1</clus>
<clus scale="  107.591">  2  5  1 -1</clus>
<clus scale="  191.008">  1  5  2 -1</clus>
</clustering>
</event>
<event>
 9    2  0.3707658E-005  0.5328992E+03  0.7546771E-02  0.1051190E+00
          2   -1    0    0  502    0 -0.00000000000E+00  0.00000000000E+00  0.50321410665E+03  0.50321410665E+03  0.00000000000E+00 0. -1.
         21   -1    0    0  501  502  0.00000000000E+00 -0.00000000000E+00 -0.22287054215E+03  0.22287054215E+03  0.00000000000E+00 0. -1.
         24    2    1    2    0    0 -0.10198919906E+03 -0.39620428698E+02  0.62355601468E+02  0.15032402499E+03  0.82082375456E+02 0.  0.
         23    2    1    2    0    0 -0.45570667276E+02  0.24428450543E+03  0.18079760086E+03  0.32072254530E+03  0.91780026572E+02 0.  0.
        -13    1    3    3    0    0 -0.79340082053E+02 -0.37514179533E+02  0.82119429055E+02  0.12019052756E+03  0.00000000000E+00 0.  1.
         14    1    3    3    0    0 -0.22649117006E+02 -0.21062491643E+01 -0.19763827588E+02  0.30133497434E+02  0.00000000000E+00 0. -1.
        -13    1    4    4    0    0 -0.47336357048E+02  0.13086477984E+03  0.14685791245E+03  0.20232045806E+03  0.00000000000E+00 0. -1.
         13    1    4    4    0    0  0.17656897723E+01  0.11341972558E+03  0.33939688411E+02  0.11840208723E+03  0.00000000000E+00 0.  1.
          1    1    1    2  501    0  0.14755986633E+03 -0.20466407673E+03  0.37190362167E+02  0.25503807852E+03  0.00000000000E+00 0. -1.
<scales pt_clust_5="13000.00000" pt_clust_6="13000.00000" pt_clust_7="13000.00000" pt_clust_8="13000.00000" pt_clust_9="13000.00000"></scales>
<clustering>
<clus scale="   82.082">  5  6 -1 -1</clus>
<clus scale="   91.780">  7  8 -1 -1</clus>
<clus scale="  136.781">  1  5  2 -1</clus>
<clus scale="  245.303">  7  9 -1 -1</clus>
<clus scale="  532.899">  2  5  1 -1</clus>
</clustering>
</event>
<event>
 9    2  0.3707658E-005  0.4211439E+03  0.7546771E-02  0.1061738E+00
         21   -1    0    0  501  502  0.00000000000E+00  0.00000000000E+00  0.61086773114E+03  0.61086773114E+03  0.00000000000E+00 0. -1.
          4   -1    0    0  502    0 -0.00000000000E+00 -0.00000000000E+00 -0.19314845084E+03  0.19314845084E+03  0.00000000000E+00 0. -1.
         24    2    1    2    0    0 -0.14742507415E+03  0.12012404182E+03 -0.68718394245E+01  0.20598622565E+03  0.78861683143E+02 0.  0.
         23    2    1    2    0    0 -0.10370759945E+03  0.68350893485E+01  0.16807631875E+03  0.21725957427E+03  0.90277843665E+02 0.  0.
        -13    1    3    3    0    0 -0.52710531424E+02  0.44109488235E+02  0.35503596137E+02  0.77359888922E+02  0.00000000000E+00 0.  1.
         14    1    3    3    0    0 -0.94714542725E+02  0.76014553582E+02 -0.42375435561E+02  0.12862633672E+03  0.00000000000E+00 0. -1.
        -13    1    4    4    0    0 -0.46020539088E+02  0.48090158183E+02  0.75781482725E+02  0.10086320665E+03  0.00000000000E+00 0.  1.
         13    1    4    4    0    0 -0.57687060361E+02 -0.41255068834E+02  0.92294836026E+02  0.11639636762E+03  0.00000000000E+00 0. -1.
          3    1    1    2  501    0  0.25113267360E+03 -0.12695913117E+03  0.25651480097E+03  0.38077038206E+03  0.00000000000E+00 0. -1.
<scales pt_clust_5="13000.00000" pt_clust_6="13000.00000" pt_clust_7="13000.00000" pt_clust_8="13000.00000" pt_clust_9="13000.00000"></scales>
<clustering>
<clus scale="   78.862">  5  6 -1 -1</clus>
<clus scale="   90.278">  7  8 -1 -1</clus>
<clus scale="  205.872">  2  5  1 -1</clus>
<clus scale="  151.153">  7  9 -1 -1</clus>
<clus scale="  421.144">  1  5  2 -1</clus>
</clustering>
</event>
<event>
 9    2  0.3707658E-005  0.2512082E+03  0.7546771E-02  0.1151431E+00
         21   -1    0    0  501  502  0.00000000000E+00  0.00000000000E+00  0.12069295075E+03  0.12069295075E+03  0.00000000000E+00 0. -1.
         -3   -1    0    0    0  501 -0.00000000000E+00 -0.00000000000E+00 -0.26438309351E+03  0.26438309351E+03  0.00000000000E+00 0.  1.
         24    2    1    2    0    0  0.12584019599E+01 -0.96624053216E+01 -0.26968916402E+01  0.97005511025E+02  0.96477200896E+02 0.  0.
         23    2    1    2    0    0  0.31088464363E+02 -0.30962100770E+02  0.33269984493E+02  0.10623449296E+03  0.90850048577E+02 0.  0.
        -11    1    3    3    0    0  0.10205018265E+02  0.39531859803E+02 -0.18136473252E+02  0.44674847502E+02  0.00000000000E+00 0.  1.
         12    1    3    3    0    0 -0.89466163052E+01 -0.49194265124E+02  0.15439581612E+02  0.52330663523E+02  0.00000000000E+00 0. -1.
        -11    1    4    4    0    0  0.28672527175E+02 -0.62740921555E+02  0.24102637335E+02  0.73071705733E+02  0.00000000000E+00 0.  1.
         11    1    4    4    0    0  0.24159371876E+01  0.31778820785E+02  0.91673471579E+01  0.33162787230E+02  0.00000000000E+00 0. -1.
         -4    1    1    2    0  502 -0.32346866323E+02  0.40624506091E+02 -0.17426323561E+03  0.18183604027E+03  0.00000000000E+00 0.  1.
<scales pt_clust_5="13000.00000" pt_clust_6="13000.00000" pt_clust_7="13000.00000" pt_clust_8="13000.00000" pt_clust_9="13000.00000"></scales>
<clustering>
<clus scale="   90.850">  7  8 -1 -1</clus>
<clus scale="   51.929">  7  9 -1 -1</clus>
<clus scale="   96.477">  5  6 -1 -1</clus>
<clus scale="   96.968">  2  5  1 -1</clus>
<clus scale="  251.208">  1  5  2 -1</clus>
</clustering>
</event>
<event>
 9    2  0.3707658E-005  0.2101230E+03  0.7546771E-02  0.1178402E+00
         21   -1    0    0  501  502  0.00000000000E+00  0.00000000000E+00  0.23614141310E+03  0.23614141310E+03  0.00000000000E+00 0. -1.
          2   -1    0    0  502    0 -0.00000000000E+00 -0.00000000000E+00 -0.10669249165E+03  0.10669249165E+03  0.00000000000E+00 0. -1.
         24    2    1    2    0    0  0.37043870947E+02 -0.13756167087E+02  0.94631766903E+02  0.12984585338E+03  0.79644797857E+02 0.  0.
         23    2    1    2    0    0  0.48732269043E+02 -0.35453037677E+02  0.31453840276E+02  0.11404158146E+03  0.91566294600E+02 0.  0.
        -11    1    3    3    0    0 -0.20419766798E+02 -0.62124318940E+01  0.31852582600E+01  0.21580246901E+02  0.00000000000E+00 0.  1.
         12    1    3    3    0    0  0.57463637746E+02 -0.75437351925E+01  0.91446508643E+02  0.10826560648E+03  0.00000000000E+00 0. -1.
        -13    1    4    4    0    0  0.68097008516E+02 -0.15274572066E+02 -0.27698474377E+01  0.69844020327E+02  0.00000000000E+00 0.  1.
         13    1    4    4    0    0 -0.19364739472E+02 -0.20178465612E+02  0.34223687713E+02  0.44197561132E+02  0.00000000000E+00 0. -1.
          1    1    1    2  501    0 -0.85776139990E+02  0.49209204764E+02  0.33633142789E+01  0.98946469912E+02  0.00000000000E+00 0. -1.
<scales pt_clust_5="13000.00000" pt_clust_6="13000.00000" pt_clust_7="13000.00000" pt_clust_8="13000.00000" pt_clust_9="13000.00000"></scales>
<clustering>
<clus scale="   79.645">  5  6 -1 -1</clus>
<clus scale="   88.909">  2  5  1 -1</clus>
<clus scale="   91.566">  7  8 -1 -1</clus>
<clus scale="   78.057">  7  9 -1 -1</clus>
<clus scale="  210.123">  1  5  2 -1</clus>
</clustering>
</event>
<event>
 9    2  0.6378924E-005  0.8759793E+03  0.7546771E-02  0.9960318E-01
         21   -1    0    0  501  502  0.00000000000E+00  0.00000000000E+00  0.48621957398E+03  0.48621957398E+03  0.00000000000E+00 0. -1.
         -3   -1    0    0    0  501 -0.00000000000E+00 -0.00000000000E+00 -0.85253681683E+03  0.85253681683E+03  0.00000000000E+00 0.  1.
         24    2    1    2    0    0  0.12973138974E+03  0.54383992893E+02  0.22845748868E+03  0.27993782218E+03  0.79903116255E+02 0.  0.
         23    2    1    2    0    0  0.18622398397E+03  0.11599583071E+03  0.11497461360E+03  0.26345625159E+03  0.89753160311E+02 0.  0.
        -11    1    3    3    0    0  0.81476292150E+02 -0.87944225419E+01  0.12489480028E+03  0.14938018338E+03  0.00000000000E+00 0.  1.
         12    1    3    3    0    0  0.48255097586E+02  0.63178415435E+02  0.10356268841E+03  0.13055763880E+03  0.00000000000E+00 0. -1.
        -11    1    4    4    0    0  0.12961338529E+03  0.11402935310E+03  0.11386019173E+03  0.20680054709E+03  0.00000000000E+00 0. -1.
         11    1    4    4    0    0  0.56610598678E+02  0.19664776086E+01  0.11144218626E+01  0.56655704505E+02  0.00000000000E+00 0.  1.
         -4    1    1    2    0  502 -0.31595537370E+03 -0.17037982360E+03 -0.70974934512E+03  0.79536231704E+03  0.00000000000E+00 0.  1.
<scales pt_clust_5="13000.00000" pt_clust_6="13000.00000" pt_clust_7="13000.00000" pt_clust_8="13000.00000" pt_clust_9="13000.00000"></scales>
<clustering>
<clus scale="   79.903">  5  6 -1 -1</clus>
<clus scale="   89.753">  7  8 -1 -1</clus>
<clus scale="  161.779">  2  5  1 -1</clus>
<clus scale="  231.874">  7  9 -1 -1</clus>
<clus scale="  875.979">  1  5  2 -1</clus>
</clustering>
</event>
<event>
 9    2  0.5211512E-005  0.2768667E+03  0.7546771E-02  0.1138043E+00
         21   -1    0    0  501  502  0.00000000000E+00  0.00000000000E+00  0.37156384434E+03  0.37156384434E+03  0.00000000000E+00 0.  1.
         -1   -1    0    0    0  501 -0.00000000000E+00 -0.00000000000E+00 -0.11053068018E+03  0.11053068018E+03  0.00000000000E+00 0.  1.
         24    2    1    2    0    0  0.55088234279E+02  0.27673501141E+02  0.15762867411E+03  0.18654815943E+03  0.78440299982E+02 0.  0.
         23    2    1    2    0    0  0.62094962811E+01  0.17248885994E+02 -0.63217378509E+02  0.11241177055E+03  0.91125667626E+02 0.  0.
        -11    1    3    3    0    0  0.53072106833E+02  0.50752441492E+02  0.97125677106E+02  0.12176147172E+03  0.00000000000E+00 0.  1.
         12    1    3    3    0    0  0.20161274459E+01 -0.23078940351E+02  0.60502997008E+02  0.64786687711E+02  0.00000000000E+00 0. -1.
        -11    1    4    4    0    0 -0.36570533153E+02  0.23655242209E+02 -0.11613931557E+02  0.45076133211E+02  0.00000000000E+00 0.  1.
         11    1    4    4    0    0  0.42780029434E+02 -0.64063562149E+01 -0.51603446952E+02  0.67335637338E+02  0.00000000000E+00 0. -1.
         -2    1    1    2    0  502 -0.61297730560E+02 -0.44922387135E+02  0.16662186856E+03  0.18313459455E+03  0.00000000000E+00 0.  1.
<scales pt_clust_5="13000.00000" pt_clust_6="13000.00000" pt_clust_7="13000.00000" pt_clust_8="13000.00000" pt_clust_9="13000.00000"></scales>
<clustering>
<clus scale="   78.440">  5  6 -1 -1</clus>
<clus scale="   91.126">  7  8 -1 -1</clus>
<clus scale="   75.996">  7  9 -1 -1</clus>
<clus scale="   99.767">  2  5  1 -1</clus>
<clus scale="  276.867">  1  5  2 -1</clus>
</clustering>
</event>
<event>
 9    2  0.3707658E-005  0.2158835E+03  0.7546771E-02  0.1143293E+00
         21   -1    0    0  501  502  0.00000000000E+00  0.00000000000E+00  0.60544833253E+02  0.60544833253E+02  0.00000000000E+00 0. -1.
          2   -1    0    0  502    0 -0.00000000000E+00 -0.00000000000E+00 -0.10149639387E+04  0.10149639387E+04  0.00000000000E+00 0. -1.
         24    2    1    2    0    0  0.10858138421E+03  0.12631425473E+03 -0.76864101405E+03  0.79069445780E+03  0.81507724656E+02 0.  0.
         23    2    1    2    0    0 -0.76000800106E+02 -0.54183392998E+02 -0.84466851528E+02  0.15625178851E+03  0.92563549579E+02 0.  0.
        -13    1    3    3    0    0 -0.58765303275E+01  0.42153683481E+02 -0.21017465314E+03  0.21444078778E+03  0.00000000000E+00 0.  1.
         14    1    3    3    0    0  0.11445791454E+03  0.84160571249E+02 -0.55846636091E+03  0.57625367003E+03  0.00000000000E+00 0. -1.
        -13    1    4    4    0    0 -0.24584283211E+02  0.23004119516E+02 -0.48408690743E+01  0.34014857182E+02  0.00000000000E+00 0. -1.
         13    1    4    4    0    0 -0.51416516895E+02 -0.77187512515E+02 -0.79625982454E+02  0.12223693132E+03  0.00000000000E+00 0.  1.
          1    1    1    2  501    0 -0.32580584102E+02 -0.72130861732E+02 -0.10131123984E+03  0.12856252562E+03  0.00000000000E+00 0. -1.
<scales pt_clust_5="13000.00000" pt_clust_6="13000.00000" pt_clust_7="13000.00000" pt_clust_8="13000.00000" pt_clust_9="13000.00000"></scales>
<clustering>
<clus scale="   81.508">  5  6 -1 -1</clus>
<clus scale="   92.564">  7  8 -1 -1</clus>
<clus scale="   79.148">  7  9 -1 -1</clus>
<clus scale="  185.442">  2  5  1 -1</clus>
<clus scale="  215.884">  1  5  2 -1</clus>
</clustering>
</event>
<event>
 9    2  0.3707658E-005  0.1899016E+03  0.7546771E-02  0.1185232E+00
         21   -1    0    0  501  502  0.00000000000E+00  0.00000000000E+00  0.24107763763E+03  0.24107763763E+03  0.00000000000E+00 0. -1.
          2   -1    0    0  502    0 -0.00000000000E+00 -0.00000000000E+00 -0.89380564202E+02  0.89380564202E+02  0.00000000000E+00 0. -1.
         24    2    1    2    0    0  0.54890969922E+02 -0.33689325678E+02  0.46040024684E+02  0.11314270500E+03  0.80830678443E+02 0.  0.
         23    2    1    2    0    0 -0.56173930964E+02  0.82348506265E+02  0.52311787359E+02  0.14509999464E+03  0.91546154180E+02 0.  0.
        -11    1    3    3    0    0  0.70273751943E+02 -0.45357129065E+02  0.33379920601E+02  0.90054919180E+02  0.00000000000E+00 0.  1.
         12    1    3    3    0    0 -0.15382782020E+02  0.11667803387E+02  0.12660104083E+02  0.23087785817E+02  0.00000000000E+00 0. -1.
        -11    1    4    4    0    0 -0.68279864526E+02  0.51041930149E+02  0.28152529785E+01  0.85295628155E+02  0.00000000000E+00 0.  1.
         11    1    4    4    0    0  0.12105933562E+02  0.31306576116E+02  0.49496534381E+02  0.59804366490E+02  0.00000000000E+00 0. -1.
          1    1    1    2  501    0  0.12829610416E+01 -0.48659180586E+02  0.53345261384E+02  0.72215502189E+02  0.00000000000E+00 0. -1.
<scales pt_clust_5="13000.00000" pt_clust_6="13000.00000" pt_clust_7="13000.00000" pt_clust_8="13000.00000" pt_clust_9="13000.00000"></scales>
<clustering>
<clus scale="   80.831">  5  6 -1 -1</clus>
<clus scale="   91.546">  7  8 -1 -1</clus>
<clus scale="   48.676">  7  9 -1 -1</clus>
<clus scale="  103.352">  2  5  1 -1</clus>
<clus scale="  189.902">  1  5  2 -1</clus>
</clustering>
</event>
<event>
 9    2  0.3707658E-005  0.1802227E+03  0.7546771E-02  0.1201256E+00
          2   -1    0    0  502    0 -0.00000000000E+00  0.00000000000E+00  0.55033256529E+03  0.55033256529E+03  0.00000000000E+00 0. -1.
         21   -1    0    0  501  502  0.00000000000E+00 -0.00000000000E+00 -0.51894293541E+02  0.51894293541E+02  0.00000000000E+00 0. -1.
         24    2    1    2    0    0 -0.97912087186E+01  0.36242596904E+02  0.37319547328E+03  0.38275937392E+03  0.76292092945E+02 0.  0.
         23    2    1    2    0    0  0.47210950442E+02 -0.78124918750E+01  0.13644816728E+03  0.17115528942E+03  0.91575771219E+02 0.  0.
        -11    1    3    3    0    0 -0.33829907230E+02  0.45363593544E+02  0.20737475507E+03  0.21495722198E+03  0.00000000000E+00 0.  1.
         12    1    3    3    0    0  0.24038698512E+02 -0.91209966394E+01  0.16582071821E+03  0.16780215194E+03  0.00000000000E+00 0. -1.
        -11    1    4    4    0    0  0.45349778818E+02 -0.46168899169E+02  0.80325166671E+02  0.10315183997E+03  0.00000000000E+00 0.  1.
         11    1    4    4    0    0  0.18611716234E+01  0.38356407294E+02  0.56123000604E+02  0.68003449450E+02  0.00000000000E+00 0. -1.
          1    1    1    2  501    0 -0.37419741723E+02 -0.28430105029E+02 -0.11205368809E+02  0.48312195487E+02  0.00000000000E+00 0. -1.
<scales pt_clust_5="13000.00000" pt_clust_6="13000.00000" pt_clust_7="13000.00000" pt_clust_8="13000.00000" pt_clust_9="13000.00000"></scales>
<clustering>
<clus scale="   76.292">  5  6 -1 -1</clus>
<clus scale="   85.029">  1  5  2 -1</clus>
<clus scale="   91.576">  7  8 -1 -1</clus>
<clus scale="   45.628">  7  9 -1 -1</clus>
<clus scale="  180.223">  2  5  1 -1</clus>
</clustering>
</event>
<event>
 9    2  0.3707658E-005  0.7843320E+03  0.7546771E-02  0.9767555E-01
          2   -1    0    0  502    0 -0.00000000000E+00  0.00000000000E+00  0.35200356311E+04  0.35200356311E+04  0.00000000000E+00 0. -1.
         21   -1    0    0  501  502  0.00000000000E+00 -0.00000000000E+00 -0.13148645367E+03  0.13148645367E+03  0.00000000000E+00 0. -1.
         24    2    1    2    0    0 -0.89260039501E+02 -0.40346454561E+03  0.47706828546E+03  0.63624470005E+03  0.80387655389E+02 0.  0.
         23    2    1    2    0    0  0.23644382962E+02 -0.15267699510E+03  0.30630360889E+03  0.35059213051E+03  0.72274611596E+02 0.  0.
        -13    1    3    3    0    0 -0.16683772924E+02 -0.62065374480E+02  0.35598295778E+02  0.73469025110E+02  0.00000000000E+00 0.  1.
         14    1    3    3    0    0 -0.72576266577E+02 -0.34139917113E+03  0.44146998969E+03  0.56277567494E+03  0.00000000000E+00 0. -1.
        -13    1    4    4    0    0  0.32318956914E+02 -0.10889842649E+03  0.15071017623E+03  0.18872450686E+03  0.00000000000E+00 0.  1.
         13    1    4    4    0    0 -0.86745739512E+01 -0.43778568608E+02  0.15559343265E+03  0.16186762365E+03  0.00000000000E+00 0. -1.
          1    1    1    2  501    0  0.65615656538E+02  0.55614154071E+03  0.26051772831E+04  0.26646852542E+04  0.00000000000E+00 0. -1.
<scales pt_clust_5="13000.00000" pt_clust_6="13000.00000" pt_clust_7="13000.00000" pt_clust_8="13000.00000" pt_clust_9="13000.00000"></scales>
<clustering>
<clus scale="   72.275">  7  8 -1 -1</clus>
<clus scale="   80.388">  5  6 -1 -1</clus>
<clus scale="  420.967">  1  5  2 -1</clus>
<clus scale="  197.874">  7  9 -1 -1</clus>
<clus scale="  784.332">  2  5  1 -1</clus>
</clustering>
</event>
<event>
 9    2  0.3707658E-005  0.1705490E+03  0.7546771E-02  0.1205697E+00
         -1   -1    0    0    0  501 -0.00000000000E+00  0.00000000000E+00  0.78861560003E+02  0.78861560003E+02  0.00000000000E+00 0.  1.
         21   -1    0    0  501  502  0.00000000000E+00 -0.00000000000E+00 -0.27152842429E+03  0.27152842429E+03  0.00000000000E+00 0.  1.
         24    2    1    2    0    0 -0.12624961816E+01  0.43245355659E+02  0.25138273861E+01  0.91194211633E+02  0.80239081654E+02 0.  0.
         23    2    1    2    0    0  0.43220272596E+02  0.20597952409E+02 -0.89650906668E+02  0.12891546521E+03  0.79307278961E+02 0.  0.
        -11    1    3    3    0    0  0.33514648040E+02  0.14196049781E+02  0.21265275734E+02  0.42154138761E+02  0.00000000000E+00 0.  1.
         12    1    3    3    0    0 -0.34777144221E+02  0.29049305878E+02 -0.18751448348E+02  0.49040072873E+02  0.00000000000E+00 0. -1.
        -11    1    4    4    0    0  0.38831735183E+02  0.41082200949E+02 -0.91849157033E+02  0.10785137245E+03  0.00000000000E+00 0.  1.
         11    1    4    4    0    0  0.43885374126E+01 -0.20484248540E+02  0.21982503653E+01  0.21064092754E+02  0.00000000000E+00 0. -1.
         -2    1    1    2    0  502 -0.41957776414E+02 -0.63843308068E+02 -0.10552978500E+03  0.13028030745E+03  0.00000000000E+00 0.  1.
<scales pt_clust_5="13000.00000" pt_clust_6="13000.00000" pt_clust_7="13000.00000" pt_clust_8="13000.00000" pt_clust_9="13000.00000"></scales>
<clustering>
<clus scale="   79.307">  7  8 -1 -1</clus>
<clus scale="   76.397">  7  9 -1 -1</clus>
<clus scale="   80.239">  5  6 -1 -1</clus>
<clus scale="   91.160">  1  5  2 -1</clus>
<clus scale="  170.549">  2  5  1 -1</clus>
</clustering>
</event>
<event>
 9    2  0.3707658E-005  0.3631828E+03  0.7546771E-02  0.1088054E+00
          2   -1    0    0  502    0 -0.00000000000E+00  0.00000000000E+00  0.13481380010E+04  0.13481380010E+04  0.00000000000E+00 0. -1.
         21   -1    0    0  501  502  0.00000000000E+00 -0.00000000000E+00 -0.60534508728E+02  0.60534508728E+02  0.00000000000E+00 0. -1.
         24    2    1    2    0    0 -0.13259424326E+03  0.27228252817E+02  0.70414675380E+03  0.72141453490E+03  0.79332648918E+02 0.  0.
         23    2    1    2    0    0 -0.35513953415E+02 -0.82294229897E+02  0.76355315175E+02  0.15018769904E+03  0.93234272808E+02 0.  0.
        -13    1    3    3    0    0 -0.12508458437E+03 -0.31866641101E+01  0.54026350513E+03  0.55456375923E+03  0.00000000000E+00 0.  1.
         14    1    3    3    0    0 -0.75096588930E+01  0.30414916927E+02  0.16388324867E+03  0.16685077567E+03  0.00000000000E+00 0. -1.
        -13    1    4    4    0    0  0.60377747794E+01 -0.70867319369E+02  0.11097330800E+02  0.71984598560E+02  0.00000000000E+00 0.  1.
         13    1    4    4    0    0 -0.41551728195E+02 -0.11426910527E+02  0.65257984375E+02  0.78203100481E+02  0.00000000000E+00 0. -1.
          1    1    1    2  501    0  0.16810819668E+03  0.55065977080E+02  0.50710142329E+03  0.53707027578E+03  0.00000000000E+00 0. -1.
<scales pt_clust_5="13000.00000" pt_clust_6="13000.00000" pt_clust_7="13000.00000" pt_clust_8="13000.00000" pt_clust_9="13000.00000"></scales>
<clustering>
<clus scale="   79.333">  5  6 -1 -1</clus>
<clus scale="   93.234">  7  8 -1 -1</clus>
<clus scale="  156.896">  1  5  2 -1</clus>
<clus scale="   97.448">  7  9 -1 -1</clus>
<clus scale="  363.183">  2  5  1 -1</clus>
</clustering>
</event>
<event>
 9    2  0.3707658E-005  0.2509750E+03  0.7546771E-02  0.1144308E+00
          2   -1    0    0  502    0 -0.00000000000E+00  0.00000000000E+00  0.88863449372E+03  0.88863449372E+03  0.00000000000E+00 0. -1.
         21   -1    0    0  501  502  0.00000000000E+00 -0.00000000000E+00 -0.38888925436E+02  0.38888925436E+02  0.00000000000E+00 0.  1.
         24    2    1    2    0    0  0.52203997939E+02 -0.64728932259E+02  0.19719619993E+03  0.22837456519E+03  0.79708899677E+02 0.  0.
         23    2    1    2    0    0  0.25329875223E+02  0.81113464929E+02  0.17354625042E+03  0.21363475387E+03  0.91107136135E+02 0.  0.
        -11    1    3    3    0    0  0.67857020888E+02 -0.25300388472E+02  0.13275152065E+03  0.15122053821E+03  0.00000000000E+00 0.  1.
         12    1    3    3    0    0 -0.15653022949E+02 -0.39428543786E+02  0.64444679282E+02  0.77154026987E+02  0.00000000000E+00 0. -1.
        -13    1    4    4    0    0  0.37042535961E+02  0.97549580957E+02  0.14298473934E+03  0.17701046833E+03  0.00000000000E+00 0.  1.
         13    1    4    4    0    0 -0.11712660738E+02 -0.16436116028E+02  0.30561511080E+02  0.36624285537E+02  0.00000000000E+00 0. -1.
          1    1    1    2  501    0 -0.77533873162E+02 -0.16384532670E+02  0.47900311793E+03  0.48551410009E+03  0.00000000000E+00 0. -1.
<scales pt_clust_5="13000.00000" pt_clust_6="13000.00000" pt_clust_7="13000.00000" pt_clust_8="13000.00000" pt_clust_9="13000.00000"></scales>
<clustering>
<clus scale="   79.709">  5  6 -1 -1</clus>
<clus scale="   91.107">  7  8 -1 -1</clus>
<clus scale="   79.246">  7  9 -1 -1</clus>
<clus scale="  115.189">  1  5  2 -1</clus>
<clus scale="  250.975">  2  5  1 -1</clus>
</clustering>
</event>
<event>
 9    2  0.3707658E-005  0.2515702E+03  0.7546771E-02  0.1124599E+00
         21   -1    0    0  501  502  0.00000000000E+00  0.00000000000E+00  0.12901570518E+03  0.12901570518E+03  0.00000000000E+00 0.  1.
         -3   -1    0    0    0  501 -0.00000000000E+00 -0.00000000000E+00 -0.48614752232E+03  0.48614752232E+03  0.00000000000E+00 0.  1.
         24    2    1    2    0    0 -0.16314381017E+03  0.31428562356E+02 -0.30742232359E+03  0.35872884205E+03  0.81081685609E+02 0.  0.
         23    2    1    2    0    0  0.52958100182E+02  0.24944084248E+02 -0.73593778420E+02  0.13038191608E+03  0.90314074792E+02 0.  0.
        -11    1    3    3    0    0 -0.14869731552E+03  0.52078471897E+02 -0.28139432992E+03  0.32249934541E+03  0.00000000000E+00 0.  1.
         12    1    3    3    0    0 -0.14446494652E+02 -0.20649909541E+02 -0.26027993677E+02  0.36229496637E+02  0.00000000000E+00 0. -1.
        -13    1    4    4    0    0  0.47172336717E+02 -0.24052688911E+02 -0.58236294281E+02  0.78709765384E+02  0.00000000000E+00 0.  1.
         13    1    4    4    0    0  0.57857634652E+01  0.48996773159E+02 -0.15357484139E+02  0.51672150700E+02  0.00000000000E+00 0. -1.
         -4    1    1    2    0  502  0.11018570999E+03 -0.56372646604E+02  0.23884284876E+02  0.12605246938E+03  0.00000000000E+00 0.  1.
<scales pt_clust_5="13000.00000" pt_clust_6="13000.00000" pt_clust_7="13000.00000" pt_clust_8="13000.00000" pt_clust_9="13000.00000"></scales>
<clustering>
<clus scale="   81.082">  5  6 -1 -1</clus>
<clus scale="   90.314">  7  8 -1 -1</clus>
<clus scale="  123.769">  7  9 -1 -1</clus>
<clus scale="  184.873">  2  5  1 -1</clus>
<clus scale="  251.570">  1  5  2 -1</clus>
</clustering>
</event>
<event>
 9    2  0.3707658E-005  0.4215276E+03  0.7546771E-02  0.1060996E+00
         21   -1    0    0  501  502  0.00000000000E+00  0.00000000000E+00  0.47937504177E+03  0.47937504177E+03  0.00000000000E+00 0. -1.
          2   -1    0    0  502    0 -0.00000000000E+00 -0.00000000000E+00 -0.23637143943E+03  0.23637143943E+03  0.00000000000E+00 0. -1.
         24    2    1    2    0    0  0.19105960203E+03 -0.28756265375E+02  0.20388199494E+03  0.29240733693E+03  0.81261851458E+02 0.  0.
         23    2    1    2    0    0 -0.15614320081E+03  0.67197694768E+02 -0.13913693898E+03  0.23767006251E+03  0.90728945121E+02 0.  0.
        -13    1    3    3    0    0  0.88411775747E+02 -0.54199423695E+02  0.95447870373E+02  0.14094153248E+03  0.00000000000E+00 0.  1.
         14    1    3    3    0    0  0.10264782628E+03  0.25443158319E+02  0.10843412457E+03  0.15146580445E+03  0.00000000000E+00 0. -1.
        -13    1    4    4    0    0 -0.69648865559E+02  0.77394799345E+02 -0.90277714298E+02  0.13780778330E+03  0.00000000000E+00 0. -1.
         13    1    4    4    0    0 -0.86494335249E+02 -0.10197104576E+02 -0.48859224682E+02  0.99862279208E+02  0.00000000000E+00 0.  1.
          1    1    1    2  501    0 -0.34916401221E+02 -0.38441429393E+02  0.17825854638E+03  0.18566908177E+03  0.00000000000E+00 0. -1.
<scales pt_clust_5="13000.00000" pt_clust_6="13000.00000" pt_clust_7="13000.00000" pt_clust_8="13000.00000" pt_clust_9="13000.00000"></scales>
<clustering>
<clus scale="   81.262">  5  6 -1 -1</clus>
<clus scale="   90.729">  7  8 -1 -1</clus>
<clus scale="   51.932">  7  9 -1 -1</clus>
<clus scale="  209.605">  2  5  1 -1</clus>
<clus scale="  421.528">  1  5  2 -1</clus>
</clustering>
</event>
<event>
 9    2  0.3707658E-005  0.2171243E+03  0.7546771E-02  0.1148554E+00
         21   -1    0    0  501  502  0.00000000000E+00  0.00000000000E+00  0.37430594906E+03  0.37430594906E+03  0.00000000000E+00 0. -1.
          4   -1    0    0  502    0 -0.00000000000E+00 -0.00000000000E+00 -0.12851528462E+03  0.12851528462E+03  0.00000000000E+00 0. -1.
         24    2    1    2    0    0  0.13425412825E+03  0.36399472353E+02  0.23589539303E+03  0.28547151798E+03  0.80611776996E+02 0.  0.
         23    2    1    2    0    0 -0.47157208142E+02 -0.43719345586E+02  0.52297990525E+02  0.12020320457E+03  0.87054851200E+02 0.  0.
        -11    1    3    3    0    0  0.37934145637E+02 -0.24657210425E+02  0.85441669497E+02  0.96681209744E+02  0.00000000000E+00 0.  1.
         12    1    3    3    0    0  0.96319982609E+02  0.61056682777E+02  0.15045372353E+03  0.18879030824E+03  0.00000000000E+00 0. -1.
        -13    1    4    4    0    0 -0.21560299445E+02  0.25863831686E+02  0.11523949711E+02  0.35589123599E+02  0.00000000000E+00 0.  1.
         13    1    4    4    0    0 -0.25596908697E+02 -0.69583177272E+02  0.40774040814E+02  0.84614080970E+02  0.00000000000E+00 0. -1.
          3    1    1    2  501    0 -0.87096920104E+02  0.73198732337E+01 -0.42402719111E+02  0.97146511125E+02  0.00000000000E+00 0. -1.
<scales pt_clust_5="13000.00000" pt_clust_6="13000.00000" pt_clust_7="13000.00000" pt_clust_8="13000.00000" pt_clust_9="13000.00000"></scales>
<clustering>
<clus scale="   80.612">  5  6 -1 -1</clus>
<clus scale="   87.055">  7  8 -1 -1</clus>
<clus scale="   87.404">  7  9 -1 -1</clus>
<clus scale="  160.771">  2  5  1 -1</clus>
<clus scale="  217.124">  1  5  2 -1</clus>
</clustering>
</event>
<event>
 9    2  0.3707658E-005  0.2740831E+03  0.7546771E-02  0.1133580E+00
         -3   -1    0    0    0  501 -0.00000000000E+00  0.00000000000E+00  0.28064911154E+03  0.28064911154E+03  0.00000000000E+00 0.  1.
         21   -1    0    0  501  502  0.00000000000E+00 -0.00000000000E+00 -0.13874650082E+03  0.13874650082E+03  0.00000000000E+00 0.  1.
         24    2    1    2    0    0 -0.82848250128E+02 -0.12257297969E+01  0.75917429082E+02  0.13748147414E+03  0.79198262164E+02 0.  0.
         23    2    1    2    0    0 -0.65945633715E+02  0.33875366928E+02  0.49789251905E+02  0.12872168798E+03  0.92703485692E+02 0.  0.
        -13    1    3    3    0    0 -0.90192387233E+02 -0.21652742924E+02  0.64282971088E+02  0.11285303878E+03  0.00000000000E+00 0.  1.
         14    1    3    3    0    0  0.73441371056E+01  0.20427013127E+02  0.11634457994E+02  0.24628435353E+02  0.00000000000E+00 0. -1.
        -11    1    4    4    0    0 -0.84234860695E+02  0.46718913642E+02  0.41553178953E+02  0.10490393381E+03  0.00000000000E+00 0.  1.
         11    1    4    4    0    0  0.18289226980E+02 -0.12843546714E+02  0.82360729520E+01  0.23817754163E+02  0.00000000000E+00 0. -1.
         -4    1    1    2    0  502  0.14879388384E+03 -0.32649637132E+02  0.16195929738E+02  0.15319245025E+03  0.00000000000E+00 0.  1.
<scales pt_clust_5="13000.00000" pt_clust_6="13000.00000" pt_clust_7="13000.00000" pt_clust_8="13000.00000" pt_clust_9="13000.00000"></scales>
<clustering>
<clus scale="   79.198">  5  6 -1 -1</clus>
<clus scale="   92.703">  7  8 -1 -1</clus>
<clus scale="  114.620">  1  5  2 -1</clus>
<clus scale="  113.437">  7  9 -1 -1</clus>
<clus scale="  274.083">  2  5  1 -1</clus>
</clustering>
</event>
<event>
 9    2  0.3707658E-005  0.2398554E+03  0.7546771E-02  0.1143994E+00
         21   -1    0    0  501  502  0.00000000000E+00  0.00000000000E+00  0.48048070234E+02  0.48048070234E+02  0.00000000000E+00 0.  1.
         -3   -1    0    0    0  501 -0.00000000000E+00 -0.00000000000E+00 -0.72702668016E+03  0.72702668016E+03  0.00000000000E+00 0.  1.
         24    2    1    2    0    0  0.10409283243E+03 -0.95690158899E+01 -0.26962946686E+03  0.30063050799E+03  0.82169149352E+02 0.  0.
         23    2    1    2    0    0  0.23736547427E+02  0.26169855375E+02 -0.10267990555E+03  0.14178531879E+03  0.91168133720E+02 0.  0.
        -13    1    3    3    0    0  0.58383859742E+02  0.30475087145E+02 -0.18553586723E+03  0.19687804358E+03  0.00000000000E+00 0.  1.
         14    1    3    3    0    0  0.45708972684E+02 -0.40044103035E+02 -0.84093599632E+02  0.10375246441E+03  0.00000000000E+00 0. -1.
        -11    1    4    4    0    0 -0.19323628465E+02 -0.15625353266E+02 -0.24584224067E+01  0.24971946709E+02  0.00000000000E+00 0.  1.
         11    1    4    4    0    0  0.43060175891E+02  0.41795208641E+02 -0.10022148314E+03  0.11681337208E+03  0.00000000000E+00 0. -1.
         -4    1    1    2    0  502 -0.12782937985E+03 -0.16600839485E+02 -0.30666923751E+03  0.33265892361E+03  0.00000000000E+00 0.  1.
<scales pt_clust_5="13000.00000" pt_clust_6="13000.00000" pt_clust_7="13000.00000" pt_clust_8="13000.00000" pt_clust_9="13000.00000"></scales>
<clustering>
<clus scale="   82.169">  5  6 -1 -1</clus>
<clus scale="   91.168">  7  8 -1 -1</clus>
<clus scale="  128.903">  7  9 -1 -1</clus>
<clus scale="  132.961">  2  5  1 -1</clus>
<clus scale="  239.855">  1  5  2 -1</clus>
</clustering>
</event>
<event>
 9    2  0.3707658E-005  0.3113413E+03  0.7546771E-02  0.1102533E+00
         21   -1    0    0  501  502  0.00000000000E+00  0.00000000000E+00  0.67002549870E+02  0.67002549870E+02  0.00000000000E+00 0.  1.
          2   -1    0    0  502    0 -0.00000000000E+00 -0.00000000000E+00 -0.97278129956E+03  0.97278129956E+03  0.00000000000E+00 0. -1.
         24    2    1    2    0    0 -0.35994584660E+02  0.14430603918E+03 -0.16958217985E+03  0.24045987491E+03  0.83324622100E+02 0.  0.
         23    2    1    2    0    0 -0.65774995252E+02 -0.16875572899E+02 -0.49862729603E+03  0.51116649849E+03  0.89726661996E+02 0.  0.
        -13    1    3    3    0    0 -0.38624759545E+02  0.43090282436E+02 -0.22916651953E+02  0.62239998611E+02  0.00000000000E+00 0.  1.
         14    1    3    3    0    0  0.26301748851E+01  0.10121575675E+03 -0.14666552790E+03  0.17821987630E+03  0.00000000000E+00 0. -1.
        -13    1    4    4    0    0 -0.26996929582E+01  0.32343765206E+02 -0.15176173048E+03  0.15519352540E+03  0.00000000000E+00 0. -1.
         13    1    4    4    0    0 -0.63075302294E+02 -0.49219338105E+02 -0.34686556555E+03  0.35597297308E+03  0.00000000000E+00 0.  1.
          1    1    1    2  501    0  0.10176957991E+03 -0.12743046629E+03 -0.23756927381E+03  0.28815747603E+03  0.00000000000E+00 0. -1.
<scales pt_clust_5="13000.00000" pt_clust_6="13000.00000" pt_clust_7="13000.00000" pt_clust_8="13000.00000" pt_clust_9="13000.00000"></scales>
<clustering>
<clus scale="   83.325">  5  6 -1 -1</clus>
<clus scale="   89.727">  7  8 -1 -1</clus>
<clus scale="  163.082">  7  9 -1 -1</clus>
<clus scale="  170.478">  2  5  1 -1</clus>
<clus scale="  311.341">  1  5  2 -1</clus>
</clustering>
</event>
<event>
 9    2  0.3707658E-005  0.1525915E+03  0.7546771E-02  0.1225519E+00
         21   -1    0    0  501  502  0.00000000000E+00  0.00000000000E+00  0.34864948419E+03  0.34864948419E+03  0.00000000000E+00 0.  1.
          2   -1    0    0  502    0 -0.00000000000E+00 -0.00000000000E+00 -0.50221605729E+02  0.50221605729E+02  0.00000000000E+00 0. -1.
         24    2    1    2    0    0  0.19089396190E+02 -0.20178318033E+02  0.27790411002E+02  0.88180247305E+02  0.78942254247E+02 0.  0.
         23    2    1    2    0    0  0.25903006004E+02  0.39284719766E+02  0.16636392534E+03  0.19552859868E+03  0.91324817655E+02 0.  0.
        -11    1    3    3    0    0  0.11888371076E+02  0.27258235904E+02  0.27041531410E+02  0.40194392798E+02  0.00000000000E+00 0.  1.
         12    1    3    3    0    0  0.72010251133E+01 -0.47436553937E+02  0.74887959268E+00  0.47985854507E+02  0.00000000000E+00 0. -1.
        -11    1    4    4    0    0 -0.60509987001E+01  0.34039668674E+02  0.10205476810E+02  0.36048098225E+02  0.00000000000E+00 0. -1.
         11    1    4    4    0    0  0.31954004704E+02  0.52450510919E+01  0.15615844853E+03  0.15948050046E+03  0.00000000000E+00 0.  1.
          1    1    1    2  501    0 -0.44992402194E+02 -0.19106401733E+02  0.10427354212E+03  0.11516224393E+03  0.00000000000E+00 0. -1.
<scales pt_clust_5="13000.00000" pt_clust_6="13000.00000" pt_clust_7="13000.00000" pt_clust_8="13000.00000" pt_clust_9="13000.00000"></scales>
<clustering>
<clus scale="   78.942">  5  6 -1 -1</clus>
<clus scale="   83.687">  2  5  1 -1</clus>
<clus scale="   91.325">  7  8 -1 -1</clus>
<clus scale="   46.787">  7  9 -1 -1</clus>
<clus scale="  152.591">  1  5  2 -1</clus>
</clustering>
</event>
<event>
 9    2  0.3707658E-005  0.1799515E+03  0.7546771E-02  0.1183371E+00
          2   -1    0    0  502    0 -0.00000000000E+00  0.00000000000E+00  0.16931620126E+04  0.16931620126E+04  0.00000000000E+00 0. -1.
         21   -1    0    0  501  502  0.00000000000E+00 -0.00000000000E+00 -0.85305087768E+02  0.85305087768E+02  0.00000000000E+00 0. -1.
         24    2    1    2    0    0  0.26165893450E+02  0.87979738874E+02  0.15928687562E+04  0.15978925449E+04  0.87204483949E+02 0.  0.
         23    2    1    2    0    0 -0.27009689445E+02 -0.95149798674E+01  0.24321228685E+02  0.10155217639E+03  0.94346511323E+02 0.  0.
        -11    1    3    3    0    0  0.26072533886E+02  0.14228216380E+02  0.13821901964E+03  0.14137438437E+03  0.00000000000E+00 0.  1.
         12    1    3    3    0    0  0.93359564154E-01  0.73751522494E+02  0.14546497365E+04  0.14565181605E+04  0.00000000000E+00 0. -1.
        -11    1    4    4    0    0  0.16939986249E+02 -0.39990622042E+02  0.20237990565E+02  0.47914394993E+02  0.00000000000E+00 0.  1.
         11    1    4    4    0    0 -0.43949675694E+02  0.30475642175E+02  0.40832381201E+01  0.53637781397E+02  0.00000000000E+00 0. -1.
          1    1    1    2  501    0  0.84379599485E+00 -0.78464759007E+02 -0.93330600154E+01  0.79022379153E+02  0.00000000000E+00 0. -1.
<scales pt_clust_5="13000.00000" pt_clust_6="13000.00000" pt_clust_7="13000.00000" pt_clust_8="13000.00000" pt_clust_9="13000.00000"></scales>
<clustering>
<clus scale="   87.204">  5  6 -1 -1</clus>
<clus scale="   94.347">  7  8 -1 -1</clus>
<clus scale="   78.469">  7  9 -1 -1</clus>
<clus scale="  126.608">  1  5  2 -1</clus>
<clus scale="  179.951">  2  5  1 -1</clus>
</clustering>
</event>
<event>
 9    2  0.4001677E-005  0.4352674E+03  0.7546771E-02  0.1079289E+00
         21   -1    0    0  501  502  0.00000000000E+00  0.00000000000E+00  0.26258842071E+03  0.26258842071E+03  0.00000000000E+00 0. -1.
          2   -1    0    0  502    0 -0.00000000000E+00 -0.00000000000E+00 -0.48258248119E+03  0.48258248119E+03  0.00000000000E+00 0. -1.
         24    2    1    2    0    0 -0.10009728389E+02 -0.58525245971E+02  0.13929248465E+03  0.18077340343E+03  0.98748306468E+02 0.  0.
         23    2    1    2    0    0 -0.86266031148E+02 -0.73521510700E+02  0.24325070362E+02  0.14742838766E+03  0.91083367164E+02 0.  0.
        -13    1    3    3    0    0  0.27619105140E+02  0.48531932430E+01  0.84214645064E+02  0.88760773411E+02  0.00000000000E+00 0.  1.
         14    1    3    3    0    0 -0.37628833528E+02 -0.63378439214E+02  0.55077839586E+02  0.92012630021E+02  0.00000000000E+00 0. -1.
        -13    1    4    4    0    0 -0.67102398344E+00 -0.51341940196E+02 -0.10476544309E+02  0.52404227663E+02  0.00000000000E+00 0.  1.
         13    1    4    4    0    0 -0.85595007164E+02 -0.22179570504E+02  0.34801614670E+02  0.95024159995E+02  0.00000000000E+00 0. -1.
          1    1    1    2  501    0  0.96275759536E+02  0.13204675667E+03 -0.38361161550E+03  0.41696911081E+03  0.00000000000E+00 0. -1.
<scales pt_clust_5="13000.00000" pt_clust_6="13000.00000" pt_clust_7="13000.00000" pt_clust_8="13000.00000" pt_clust_9="13000.00000"></scales>
<clustering>
<clus scale="   91.083">  7  8 -1 -1</clus>
<clus scale="   98.748">  5  6 -1 -1</clus>
<clus scale="  115.224">  2  5  1 -1</clus>
<clus scale="  119.528">  7  9 -1 -1</clus>
<clus scale="  435.267">  1  5  2 -1</clus>
</clustering>
</event>
